<LesHouchesEvents version="3.0">
<header>
<!--
#*********************************************************************
#                                                                    *
#                        MadGraph5_aMC@NLO                           *
#                                                                    *
#                           Going Beyond                             *
#                                                                    *
#                   http://madgraph.hep.uiuc.edu                     *
#                   http://madgraph.phys.ucl.ac.be                   *
#                   http://amcatnlo.cern.ch                          *
#                                                                    *
#                     The MadGraph5_aMC@NLO team                     *
#                                                                    *
#....................................................................*
#                                                                    *
# This file contains all the information necessary to reproduce      *
# the events generated:                                              *
#                                                                    *
# 1. software version                                                *
# 2. proc_card          : code generation info including model       *
# 3. param_card         : model primary parameters in the LH format  *
# 4. run_card           : running parameters (collider and cuts)     *
# 5. pythia_card        : present only if pythia has been run        *
# 6. pgs_card           : present only if pgs has been run           *
# 7. delphes_cards      : present only if delphes has been run       *
#                                                                    *
#                                                                    *
#*********************************************************************
-->
<MGVersion>
#5.2.2.3
</MGVersion>
<MG5ProcCard>
#************************************************************
#*                     MadGraph5_aMC@NLO                    *
#*                                                          *
#*                *                       *                 *
#*                  *        * *        *                   *
#*                    * * * * 5 * * * *                     *
#*                  *        * *        *                   *
#*                *                       *                 *
#*                                                          *
#*                                                          *
#*         VERSION 2.2.3                 2015-02-10         *
#*                                                          *
#*    The MadGraph5_aMC@NLO Development Team - Find us at   *
#*    https://server06.fynu.ucl.ac.be/projects/madgraph     *
#*                                                          *
#************************************************************
#*                                                          *
#*               Command File for MadGraph5_aMC@NLO         *
#*                                                          *
#*     run as ./bin/mg5_aMC  filename                       *
#*                                                          *
#************************************************************
set group_subprocesses Auto
set ignore_six_quark_processes False
set loop_optimized_output True
set gauge unitary
set complex_mass_scheme False
import model sm
define p = g u c d s u~ c~ d~ s~
define j = g u c d s u~ c~ d~ s~
define l+ = e+ mu+
define l- = e- mu-
define vl = ve vm vt
define vl~ = ve~ vm~ vt~
import model Zprime_UFO
generate p p > zph, zph > j j
add process p p > zph, zph > b b~
output Dijet_signal
</MG5ProcCard>
<MGProcCard>
#*********************************************************************
#                        MadGraph/MadEvent                           *
#                   http://madgraph.hep.uiuc.edu                     *
#                                                                    *
#                          proc_card.dat                             *
#*********************************************************************
#                                                                    *
#            This Files is generated by MADGRAPH 5                   *
#                                                                    *
# WARNING: This Files is generated for MADEVENT (compatibility issue)*
#          This files is NOT a valid MG4 proc_card.dat               *
#          Running this in MG4 will NEVER reproduce the result of MG5*
#                                                                    *
#*********************************************************************
#*********************************************************************
# Process(es) requested : mg2 input                                  *
#*********************************************************************
# Begin PROCESS # This is TAG. Do not modify this line
p p > zph , zph > j j           #Process
# Be carefull the coupling are here in MG5 convention
          
end_coup           # End the couplings input

done               # this tells MG there are no more procs
# End PROCESS  # This is TAG. Do not modify this line
#*********************************************************************
# Model information                                                  *
#*********************************************************************
# Begin MODEL  # This is TAG. Do not modify this line
Zprime_UFO
# End   MODEL  # This is TAG. Do not modify this line
#*********************************************************************
# Start multiparticle definitions                                    *
#*********************************************************************
# Begin MULTIPARTICLES # This is TAG. Do not modify this line

# End  MULTIPARTICLES # This is TAG. Do not modify this line
</MGProcCard>
<MGRunCard>
#*********************************************************************
#                       MadGraph5_aMC@NLO                            *
#                                                                    *
#                     run_card.dat MadEvent                          *
#                                                                    *
#  This file is used to set the parameters of the run.               *
#                                                                    *
#  Some notation/conventions:                                        *
#                                                                    *
#   Lines starting with a '# ' are info or comments                  *
#                                                                    *
#   mind the format:   value    = variable     ! comment             *
#*********************************************************************
#
#*******************                                                 
# Running parameters
#*******************                                                 
#                                                                    
#*********************************************************************
# Tag name for the run (one word)                                    *
#*********************************************************************
  tag_1     = run_tag ! name of the run 
#*********************************************************************
# Run to generate the grid pack                                      *
#*********************************************************************
  .false.     = gridpack  !True = setting up the grid pack
#*********************************************************************
# Number of events and rnd seed                                      *
# Warning: Do not generate more than 1M events in a single run       *
# If you want to run Pythia, avoid more than 50k events in a run.    *
#*********************************************************************
  2000 = nevents ! Number of unweighted events requested 
 2631 = iseed   ! rnd seed (0=assigned automatically=default))
#*********************************************************************
# Collider type and energy                                           *
# lpp: 0=No PDF, 1=proton, -1=antiproton, 2=photon from proton,      *
#                                         3=photon from electron     *
#*********************************************************************
        1     = lpp1    ! beam 1 type 
        1     = lpp2    ! beam 2 type
     4000     = ebeam1  ! beam 1 total energy in GeV
     4000     = ebeam2  ! beam 2 total energy in GeV
#*********************************************************************
# Beam polarization from -100 (left-handed) to 100 (right-handed)    *
#*********************************************************************
        0     = polbeam1 ! beam polarization for beam 1
        0     = polbeam2 ! beam polarization for beam 2
#*********************************************************************
# PDF CHOICE: this automatically fixes also alpha_s and its evol.    *
#*********************************************************************
 'nn23lo1'    = pdlabel     ! PDF set                                     
 230000    = lhaid     ! if pdlabel=lhapdf, this is the lhapdf number
#*********************************************************************
# Renormalization and factorization scales                           *
#*********************************************************************
 F        = fixed_ren_scale  ! if .true. use fixed ren scale
 F        = fixed_fac_scale  ! if .true. use fixed fac scale
 91.1880  = scale            ! fixed ren scale
 91.1880  = dsqrt_q2fact1    ! fixed fact scale for pdf1
 91.1880  = dsqrt_q2fact2    ! fixed fact scale for pdf2
 1        = scalefact        ! scale factor for event-by-event scales
#*********************************************************************
# Matching - Warning! ickkw > 1 is still beta
#*********************************************************************
 0        = ickkw            ! 0 no matching, 1 MLM, 2 CKKW matching
 1        = highestmult      ! for ickkw=2, highest mult group
 1        = ktscheme         ! for ickkw=1, 1 Durham kT, 2 Pythia pTE
 1        = alpsfact         ! scale factor for QCD emission vx
 F        = chcluster        ! cluster only according to channel diag
 T        = pdfwgt           ! for ickkw=1, perform pdf reweighting
 5        = asrwgtflavor     ! highest quark flavor for a_s reweight
 T        = clusinfo         ! include clustering tag in output
 3.0      = lhe_version       ! Change the way clustering information pass to shower.        
#*********************************************************************
#**********************************************************
#
#**********************************************************
# Automatic ptj and mjj cuts if xqcut > 0
# (turn off for VBF and single top processes)
#**********************************************************
   T  = auto_ptj_mjj  ! Automatic setting of ptj and mjj
#**********************************************************
#                                                                    
#**********************************
# BW cutoff (M+/-bwcutoff*Gamma)
#**********************************
  15  = bwcutoff      ! (M+/-bwcutoff*Gamma)
#**********************************************************
# Apply pt/E/eta/dr/mij cuts on decay products or not
# (note that etmiss/ptll/ptheavy/ht/sorted cuts always apply)
#**********************************************************
   T  = cut_decays    ! Cut decay products 
#*************************************************************
# Number of helicities to sum per event (0 = all helicities)
# 0 gives more stable result, but longer run time (needed for
# long decay chains e.g.).
# Use >=2 if most helicities contribute, e.g. pure QCD.
#*************************************************************
   0  = nhel          ! Number of helicities used per event
#*******************                                                 
# Standard Cuts
#*******************                                                 
#                                                                    
#*********************************************************************
# Minimum and maximum pt's (for max, -1 means no cut)                *
#*********************************************************************
 20  = ptj       ! minimum pt for the jets 
  0  = ptb       ! minimum pt for the b 
 10  = pta       ! minimum pt for the photons 
 10  = ptl       ! minimum pt for the charged leptons 
  0  = misset    ! minimum missing Et (sum of neutrino's momenta)
  0  = ptheavy   ! minimum pt for one heavy final state
 1.0 = ptonium   ! minimum pt for the quarkonium states
 -1  = ptjmax    ! maximum pt for the jets
 -1  = ptbmax    ! maximum pt for the b
 -1  = ptamax    ! maximum pt for the photons
 -1  = ptlmax    ! maximum pt for the charged leptons
 -1  = missetmax ! maximum missing Et (sum of neutrino's momenta)
#*********************************************************************
# Minimum and maximum E's (in the center of mass frame)              *
#*********************************************************************
  0  = ej     ! minimum E for the jets 
  0  = eb     ! minimum E for the b 
  0  = ea     ! minimum E for the photons 
  0  = el     ! minimum E for the charged leptons 
 -1   = ejmax ! maximum E for the jets
 -1   = ebmax ! maximum E for the b
 -1   = eamax ! maximum E for the photons
 -1   = elmax ! maximum E for the charged leptons
#*********************************************************************
# Maximum and minimum absolute rapidity (for max, -1 means no cut)   *
#*********************************************************************
   5  = etaj    ! max rap for the jets 
  -1  = etab    ! max rap for the b
 2.5  = etaa    ! max rap for the photons 
 2.5  = etal    ! max rap for the charged leptons 
 0.6  = etaonium ! max rap for the quarkonium states
   0  = etajmin ! min rap for the jets
   0  = etabmin ! min rap for the b
   0  = etaamin ! min rap for the photons
   0  = etalmin ! main rap for the charged leptons
#*********************************************************************
# Minimum and maximum DeltaR distance                                *
#*********************************************************************
 0.4 = drjj    ! min distance between jets 
 0   = drbb    ! min distance between b's 
 0.4 = drll    ! min distance between leptons 
 0.4 = draa    ! min distance between gammas 
 0   = drbj    ! min distance between b and jet 
 0.4 = draj    ! min distance between gamma and jet 
 0.4 = drjl    ! min distance between jet and lepton 
 0   = drab    ! min distance between gamma and b 
 0   = drbl    ! min distance between b and lepton 
 0.4 = dral    ! min distance between gamma and lepton 
 -1  = drjjmax ! max distance between jets
 -1  = drbbmax ! max distance between b's
 -1  = drllmax ! max distance between leptons
 -1  = draamax ! max distance between gammas
 -1  = drbjmax ! max distance between b and jet
 -1  = drajmax ! max distance between gamma and jet
 -1  = drjlmax ! max distance between jet and lepton
 -1  = drabmax ! max distance between gamma and b
 -1  = drblmax ! max distance between b and lepton
 -1  = dralmax ! maxdistance between gamma and lepton
#*********************************************************************
# Minimum and maximum invariant mass for pairs                       *
# WARNING: for four lepton final state mmll cut require to have      *
#          different lepton masses for each flavor!                  *           
#*********************************************************************
 0   = mmjj    ! min invariant mass of a jet pair 
 0   = mmbb    ! min invariant mass of a b pair 
 0   = mmaa    ! min invariant mass of gamma gamma pair
 0   = mmll    ! min invariant mass of l+l- (same flavour) lepton pair
 -1  = mmjjmax ! max invariant mass of a jet pair
 -1  = mmbbmax ! max invariant mass of a b pair
 -1  = mmaamax ! max invariant mass of gamma gamma pair
 -1  = mmllmax ! max invariant mass of l+l- (same flavour) lepton pair
#*********************************************************************
# Minimum and maximum invariant mass for all letpons                 *
#*********************************************************************
 0   = mmnl    ! min invariant mass for all letpons (l+- and vl) 
 -1  = mmnlmax ! max invariant mass for all letpons (l+- and vl) 
#*********************************************************************
# Minimum and maximum pt for 4-momenta sum of leptons                *
#*********************************************************************
 0   = ptllmin  ! Minimum pt for 4-momenta sum of leptons(l and vl)
 -1  = ptllmax  ! Maximum pt for 4-momenta sum of leptons(l and vl)
#*********************************************************************
# Inclusive cuts                                                     *
#*********************************************************************
 0  = xptj ! minimum pt for at least one jet  
 0  = xptb ! minimum pt for at least one b 
 0  = xpta ! minimum pt for at least one photon 
 0  = xptl ! minimum pt for at least one charged lepton 
#*********************************************************************
# Control the pt's of the jets sorted by pt                          *
#*********************************************************************
 0   = ptj1min ! minimum pt for the leading jet in pt
 0   = ptj2min ! minimum pt for the second jet in pt
 0   = ptj3min ! minimum pt for the third jet in pt
 0   = ptj4min ! minimum pt for the fourth jet in pt
 -1  = ptj1max ! maximum pt for the leading jet in pt 
 -1  = ptj2max ! maximum pt for the second jet in pt
 -1  = ptj3max ! maximum pt for the third jet in pt
 -1  = ptj4max ! maximum pt for the fourth jet in pt
 0   = cutuse  ! reject event if fails any (0) / all (1) jet pt cuts
#*********************************************************************
# Control the pt's of leptons sorted by pt                           *
#*********************************************************************
 0   = ptl1min ! minimum pt for the leading lepton in pt
 0   = ptl2min ! minimum pt for the second lepton in pt
 0   = ptl3min ! minimum pt for the third lepton in pt
 0   = ptl4min ! minimum pt for the fourth lepton in pt
 -1  = ptl1max ! maximum pt for the leading lepton in pt 
 -1  = ptl2max ! maximum pt for the second lepton in pt
 -1  = ptl3max ! maximum pt for the third lepton in pt
 -1  = ptl4max ! maximum pt for the fourth lepton in pt
#*********************************************************************
# Control the Ht(k)=Sum of k leading jets                            *
#*********************************************************************
 0   = htjmin ! minimum jet HT=Sum(jet pt)
 -1  = htjmax ! maximum jet HT=Sum(jet pt)
 0   = ihtmin  !inclusive Ht for all partons (including b)
 -1  = ihtmax  !inclusive Ht for all partons (including b)
 0   = ht2min ! minimum Ht for the two leading jets
 0   = ht3min ! minimum Ht for the three leading jets
 0   = ht4min ! minimum Ht for the four leading jets
 -1  = ht2max ! maximum Ht for the two leading jets
 -1  = ht3max ! maximum Ht for the three leading jets
 -1  = ht4max ! maximum Ht for the four leading jets
#***********************************************************************
# Photon-isolation cuts, according to hep-ph/9801442                   *
# When ptgmin=0, all the other parameters are ignored                  *
# When ptgmin>0, pta and draj are not going to be used                 *
#***********************************************************************
   0 = ptgmin ! Min photon transverse momentum
 0.4 = R0gamma ! Radius of isolation code
 1.0 = xn ! n parameter of eq.(3.4) in hep-ph/9801442
 1.0 = epsgamma ! epsilon_gamma parameter of eq.(3.4) in hep-ph/9801442
 .true. = isoEM ! isolate photons from EM energy (photons and leptons)
#*********************************************************************
# WBF cuts                                                           *
#*********************************************************************
 0   = xetamin ! minimum rapidity for two jets in the WBF case  
 0   = deltaeta ! minimum rapidity for two jets in the WBF case 
#*********************************************************************
# KT DURHAM CUT                                                      *
#*********************************************************************
 -1    =  ktdurham        
 0.4  =  dparameter 
#*********************************************************************
# maximal pdg code for quark to be considered as a light jet         *
# (otherwise b cuts are applied)                                     *
#*********************************************************************
 4 = maxjetflavor    ! Maximum jet pdg code
#*********************************************************************
# Jet measure cuts                                                   *
#*********************************************************************
 0   = xqcut   ! minimum kt jet measure between partons
#*********************************************************************
#
#*********************************************************************
# Store info for systematics studies                                 *
# WARNING: If use_syst is T, matched Pythia output is                *
#          meaningful ONLY if plotted taking matchscale              *
#          reweighting into account!                                 *
#*********************************************************************
   F  = use_syst      ! Enable systematics studies
#
#**************************************
# Parameter of the systematics study
#  will be used by SysCalc (if installed)
#**************************************                                  
#
0.5 1 2 = sys_scalefact  # factorization/renormalization scale factor
0.5 1 2 = sys_alpsfact  # \alpha_s emission scale factors
30 50 = sys_matchscale # variation of merging scale
# PDF sets and number of members (0 or none for all members).
CT10nlo.LHgrid = sys_pdf # matching scales
# MSTW2008nlo68cl.LHgrid 1  = sys_pdf
</MGRunCard>
<slha>
######################################################################
## PARAM_CARD AUTOMATICALY GENERATED BY MG5 FOLLOWING UFO MODEL   ####
######################################################################
##                                                                  ##
##  Width set on Auto will be computed following the information    ##
##        present in the decay.py files of the model.               ##
##        See  arXiv:1402.1178 for more details.                    ##
##                                                                  ##
######################################################################

###################################
## INFORMATION FOR CKMBLOCK
###################################
Block ckmblock 
    1 2.277360e-01 # cabi 

###################################
## INFORMATION FOR FRBLOCK
###################################
Block frblock 
    1 1.400000e+00 # gz 

###################################
## INFORMATION FOR MASS
###################################
Block mass 
    1 5.040000e-03 # MD 
    2 2.550000e-03 # MU 
    3 1.010000e-01 # MS 
    4 1.270000e+00 # MC 
    5 4.700000e+00 # MB 
    6 1.720000e+02 # MT 
   11 5.110000e-04 # Me 
   13 1.056600e-01 # MM 
   15 1.777000e+00 # MTA 
   23 9.118760e+01 # MZ 
   25 1.200000e+02 # MH 
  10030 2.600000e+03 # MZph 
  10031 3.000000e+02 # MZpl 
## Dependent parameters, given by model restrictions.
## Those values should be edited following the 
## analytical expression. MG5 ignores those values 
## but they are important for interfacing the output of MG5
## to external program such as Pythia.
  12 0.000000 # ve : 0.0 
  14 0.000000 # vm : 0.0 
  16 0.000000 # vt : 0.0 
  21 0.000000 # g : 0.0 
  22 0.000000 # a : 0.0 
  24 79.824360 # w+ : cmath.sqrt(MZ__exp__2/2. + cmath.sqrt(MZ__exp__4/4. - (aEW*cmath.pi*MZ__exp__2)/(Gf*sqrt__2))) 

###################################
## INFORMATION FOR SMINPUTS
###################################
Block sminputs 
    1 1.279000e+02 # aEWM1 
    2 1.166370e-05 # Gf 
    3 1.184000e-01 # aS 

###################################
## INFORMATION FOR YUKAWA
###################################
Block yukawa 
    1 5.040000e-03 # ymdo 
    2 2.550000e-03 # ymup 
    3 1.010000e-01 # yms 
    4 1.270000e+00 # ymc 
    5 4.700000e+00 # ymb 
    6 1.720000e+02 # ymt 
   11 5.110000e-04 # yme 
   13 1.056600e-01 # ymm 
   15 1.777000e+00 # ymtau 

###################################
## INFORMATION FOR DECAY
###################################
DECAY   6 1.508336e+00 # WT 
DECAY  23 2.495200e+00 # WZ 
DECAY  24 2.085000e+00 # WW 
DECAY  25 5.753088e-03 # WH 
## Dependent parameters, given by model restrictions.
## Those values should be edited following the 
## analytical expression. MG5 ignores those values 
## but they are important for interfacing the output of MG5
## to external program such as Pythia.
DECAY  1 0.000000 # d : 0.0 
DECAY  2 0.000000 # u : 0.0 
DECAY  3 0.000000 # s : 0.0 
DECAY  4 0.000000 # c : 0.0 
DECAY  5 0.000000 # b : 0.0 
DECAY  11 0.000000 # e- : 0.0 
DECAY  12 0.000000 # ve : 0.0 
DECAY  13 0.000000 # mu- : 0.0 
DECAY  14 0.000000 # vm : 0.0 
DECAY  15 0.000000 # ta- : 0.0 
DECAY  16 0.000000 # vt : 0.0 
DECAY  21 0.000000 # g : 0.0 
DECAY  22 0.000000 # a : 0.0 
DECAY  10030 0.308725 # zph : (gz__exp__2*MZph*(5 + cmath.sqrt(1 - (4*MT__exp__2)/MZph__exp__2)))/(144.*cmath.pi) 
DECAY  10031 0.132629 # zpl : (5*gz__exp__2*MZpl)/(144.*cmath.pi) 
#===========================================================
# QUANTUM NUMBERS OF NEW STATE(S) (NON SM PDG CODE)
#===========================================================

Block QNUMBERS 10030  # zph 
        1 0  # 3 times electric charge
        2 3  # number of spin states (2S+1)
        3 1  # colour rep (1: singlet, 3: triplet, 8: octet)
        4 0  # Particle/Antiparticle distinction (0=own anti)
Block QNUMBERS 10031  # zpl 
        1 0  # 3 times electric charge
        2 3  # number of spin states (2S+1)
        3 1  # colour rep (1: singlet, 3: triplet, 8: octet)
        4 0  # Particle/Antiparticle distinction (0=own anti)
</slha>
## END BANNER##
<MGGenerationInfo>
#  Number of Events        :         3906
#  Integrated weight (pb)  :  0.97376E-02
#  Max wgt                 :  0.38497E-05
#  Average wgt             :  0.24930E-05
</MGGenerationInfo>
</header>
<init>
     2212     2212  0.40000000000E+04  0.40000000000E+04 0 0  247000  247000 2   1
  0.97454234520E-02  0.24754872770E-04  0.38496870000E-05   0
</init>
<event>
 5   0  0.3849687E-05  0.2605589E+04  0.7818609E-02  0.8366305E-01
        2   -1    0    0  501    0  0.00000000000E+00  0.00000000000E+00  0.11571711618E+04  0.11571711618E+04  0.25500000920E-02 0.  1.
       -2   -1    0    0    0  501  0.00000000000E+00  0.00000000000E+00 -0.14667438202E+04  0.14667438202E+04  0.25500000920E-02 0. -1.
    10030    2    1    2    0    0  0.00000000000E+00  0.00000000000E+00 -0.30957265839E+03  0.26239149819E+04  0.26055891084E+04 0.  0.
        1    1    3    3  502    0 -0.80248400620E+03 -0.75078167914E+03 -0.85943620134E+03  0.13950929339E+04  0.50400001928E-02 0. -1.
       -1    1    3    3    0  502  0.80248400620E+03  0.75078167914E+03  0.54986354295E+03  0.12288220481E+04  0.50400001928E-02 0.  1.
</event>
<event>
 5   0  0.3849687E-05  0.2575976E+04  0.7818609E-02  0.8376408E-01
        2   -1    0    0  501    0  0.00000000000E+00  0.00000000000E+00  0.11011021706E+04  0.11011021706E+04  0.25500000920E-02 0. -1.
       -2   -1    0    0    0  501  0.00000000000E+00  0.00000000000E+00 -0.15065935108E+04  0.15065935108E+04  0.25500000920E-02 0.  1.
    10030    2    1    2    0    0  0.00000000000E+00  0.00000000000E+00 -0.40549134023E+03  0.26076956814E+04  0.25759762304E+04 0.  0.
        1    1    3    3  502    0  0.65112163138E+02  0.94512294567E+03 -0.10860821624E+04  0.14412048570E+04  0.50400001928E-02 0.  1.
       -1    1    3    3    0  502 -0.65112163138E+02 -0.94512294567E+03  0.68059082218E+03  0.11664908244E+04  0.50400001928E-02 0. -1.
</event>
<event>
 5   0  0.3647623E-05  0.2609334E+04  0.7818609E-02  0.8365037E-01
        2   -1    0    0  501    0  0.00000000000E+00  0.00000000000E+00  0.25621423859E+04  0.25621423859E+04  0.25500000920E-02 0. -1.
       -2   -1    0    0    0  501  0.00000000000E+00  0.00000000000E+00 -0.66434886762E+03  0.66434886762E+03  0.25500000920E-02 0.  1.
    10030    2    1    2    0    0  0.00000000000E+00  0.00000000000E+00  0.18977935183E+04  0.32264912535E+04  0.26093343157E+04 0.  0.
        3    1    3    3  502    0  0.45767144043E+03  0.66763129652E+03  0.22141170871E+04  0.23574369941E+04  0.10100000352E+00 0. -1.
       -3    1    3    3    0  502 -0.45767144043E+03 -0.66763129652E+03 -0.31632356881E+03  0.86905425945E+03  0.10100000352E+00 0.  1.
</event>
<event>
 5   0  0.3849687E-05  0.2625231E+04  0.7818609E-02  0.8359681E-01
        2   -1    0    0  501    0  0.00000000000E+00  0.00000000000E+00  0.19493435943E+04  0.19493435943E+04  0.25500000920E-02 0.  1.
       -2   -1    0    0    0  501  0.00000000000E+00  0.00000000000E+00 -0.88386669526E+03  0.88386669526E+03  0.25500000920E-02 0. -1.
    10030    2    1    2    0    0  0.00000000000E+00  0.00000000000E+00  0.10654768991E+04  0.28332102896E+04  0.26252313274E+04 0.  0.
        1    1    3    3  502    0 -0.10022698524E+04  0.44296835067E+03  0.13126173982E+04  0.17098918828E+04  0.50400001928E-02 0.  1.
       -1    1    3    3    0  502  0.10022698524E+04 -0.44296835067E+03 -0.24714049914E+03  0.11233184068E+04  0.50400001928E-02 0. -1.
</event>
<event>
 5   0  0.3647623E-05  0.2617122E+04  0.7818609E-02  0.8362409E-01
       -2   -1    0    0    0  501  0.00000000000E+00  0.00000000000E+00  0.99320167899E+03  0.99320167899E+03  0.25500000920E-02 0. -1.
        2   -1    0    0  501    0  0.00000000000E+00  0.00000000000E+00 -0.17240520018E+04  0.17240520018E+04  0.25500000920E-02 0.  1.
    10030    2    1    2    0    0  0.00000000000E+00  0.00000000000E+00 -0.73085032279E+03  0.27172536808E+04  0.26171215813E+04 0.  0.
        3    1    3    3  502    0  0.90103456836E+00  0.10430889155E+04  0.45492935873E+03  0.11379789229E+04  0.10100000352E+00 0. -1.
       -3    1    3    3    0  502 -0.90103456836E+00 -0.10430889155E+04 -0.11857796815E+04  0.15792747578E+04  0.10100000352E+00 0.  1.
</event>
<event>
 5   0  0.1451052E-05  0.2585041E+04  0.7818609E-02  0.8373300E-01
       -1   -1    0    0    0  501  0.00000000000E+00  0.00000000000E+00  0.12467305828E+04  0.12467305828E+04  0.50400001928E-02 0. -1.
        1   -1    0    0  501    0  0.00000000000E+00  0.00000000000E+00 -0.13399920137E+04  0.13399920137E+04  0.50400001928E-02 0.  1.
    10030    2    1    2    0    0  0.00000000000E+00  0.00000000000E+00 -0.93261430879E+02  0.25867225965E+04  0.25850408307E+04 0.  0.
        1    1    3    3  502    0 -0.35998415619E+03 -0.20368743151E+03 -0.12719811206E+04  0.13375399559E+04  0.50400001928E-02 0.  1.
       -1    1    3    3    0  502  0.35998415619E+03  0.20368743151E+03  0.11787196897E+04  0.12491826405E+04  0.50400001928E-02 0. -1.
</event>
<event>
 5   0  0.1497497E-05  0.1830051E+04  0.7818609E-02  0.8690480E-01
       -1   -1    0    0    0  501  0.00000000000E+00  0.00000000000E+00  0.47868686720E+03  0.47868686723E+03  0.50400001928E-02 0.  1.
        1   -1    0    0  501    0  0.00000000000E+00  0.00000000000E+00 -0.17491004832E+04  0.17491004832E+04  0.50400001928E-02 0. -1.
    10030    2    1    2    0    0  0.00000000000E+00  0.00000000000E+00 -0.12704136160E+04  0.22277873504E+04  0.18300507433E+04 0.  0.
        3    1    3    3  502    0  0.47000572173E+03  0.78255141585E+03 -0.71199867617E+03  0.11576848543E+04  0.10100000352E+00 0. -1.
       -3    1    3    3    0  502 -0.47000572173E+03 -0.78255141585E+03 -0.55841493983E+03  0.10701024961E+04  0.10100000352E+00 0.  1.
</event>
<event>
 5   0  0.3849687E-05  0.2591191E+04  0.7818609E-02  0.8371200E-01
       -2   -1    0    0    0  501  0.00000000000E+00  0.00000000000E+00  0.13576572246E+04  0.13576572246E+04  0.25500000920E-02 0. -1.
        2   -1    0    0  501    0  0.00000000000E+00  0.00000000000E+00 -0.12363709481E+04  0.12363709481E+04  0.25500000920E-02 0.  1.
    10030    2    1    2    0    0  0.00000000000E+00  0.00000000000E+00  0.12128627647E+03  0.25940281727E+04  0.25911911933E+04 0.  0.
        1    1    3    3  502    0  0.42146504521E+03 -0.81695843811E+03  0.97461262890E+03  0.13397476070E+04  0.50400001928E-02 0. -1.
       -1    1    3    3    0  502 -0.42146504521E+03  0.81695843811E+03 -0.85332635243E+03  0.12542805658E+04  0.50400001928E-02 0.  1.
</event>
<event>
 5   0  0.1435062E-05  0.2574215E+04  0.7818609E-02  0.8377013E-01
       -1   -1    0    0    0  501  0.00000000000E+00  0.00000000000E+00  0.90696402763E+03  0.90696402765E+03  0.50400001928E-02 0. -1.
        1   -1    0    0  501    0  0.00000000000E+00  0.00000000000E+00 -0.18265837405E+04  0.18265837405E+04  0.50400001928E-02 0.  1.
    10030    2    1    2    0    0  0.00000000000E+00  0.00000000000E+00 -0.91961971288E+03  0.27335477682E+04  0.25742150230E+04 0.  0.
        2    1    3    3  502    0 -0.18851313643E+03  0.32355106259E+03  0.84784178930E+03  0.92685392182E+03  0.25500000920E-02 0. -1.
       -2    1    3    3    0  502  0.18851313643E+03 -0.32355106259E+03 -0.17674615022E+04  0.18066938463E+04  0.25500000920E-02 0.  1.
</event>
<event>
 5   0  0.3849687E-05  0.2607322E+04  0.7818609E-02  0.8365718E-01
        2   -1    0    0  501    0  0.00000000000E+00  0.00000000000E+00  0.15299110251E+04  0.15299110251E+04  0.25500000920E-02 0. -1.
       -2   -1    0    0    0  501  0.00000000000E+00  0.00000000000E+00 -0.11108698118E+04  0.11108698118E+04  0.25500000920E-02 0.  1.
    10030    2    1    2    0    0  0.00000000000E+00  0.00000000000E+00  0.41904121336E+03  0.26407808369E+04  0.26073219766E+04 0.  0.
        1    1    3    3  502    0 -0.12251618857E+04  0.44260641409E+03  0.15777795519E+03  0.13121798532E+04  0.50400001928E-02 0.  1.
       -1    1    3    3    0  502  0.12251618857E+04 -0.44260641409E+03  0.26126325817E+03  0.13286009837E+04  0.50400001928E-02 0. -1.
</event>
<event>
 5   0  0.1217200E-05  0.2369471E+04  0.7818609E-02  0.8451023E-01
        4   -1    0    0  501    0  0.00000000000E+00  0.00000000000E+00  0.66792286671E+03  0.66792407410E+03  0.12699999809E+01 0.  1.
       -4   -1    0    0    0  501  0.00000000000E+00  0.00000000000E+00 -0.21014334076E+04  0.21014337913E+04  0.12699999809E+01 0. -1.
    10030    2    1    2    0    0  0.00000000000E+00  0.00000000000E+00 -0.14335105409E+04  0.27693578654E+04  0.23694705139E+04 0.  0.
        5    1    3    3  502    0  0.35429830010E+03  0.56550261157E+03  0.42735617444E+03  0.79244929111E+03  0.46999998093E+01 0.  1.
       -5    1    3    3    0  502 -0.35429830010E+03 -0.56550261157E+03 -0.18608667153E+04  0.19769085743E+04  0.46999998093E+01 0. -1.
</event>
<event>
 5   0  0.3508470E-05  0.2671474E+04  0.7818609E-02  0.8344320E-01
        2   -1    0    0  501    0  0.00000000000E+00  0.00000000000E+00  0.12339521200E+04  0.12339521200E+04  0.25500000920E-02 0. -1.
       -2   -1    0    0    0  501  0.00000000000E+00  0.00000000000E+00 -0.14459179030E+04  0.14459179030E+04  0.25500000920E-02 0.  1.
    10030    2    1    2    0    0  0.00000000000E+00  0.00000000000E+00 -0.21196578300E+03  0.26798700230E+04  0.26714740962E+04 0.  0.
        5    1    3    3  502    0 -0.91529829680E+03  0.86138590103E+03 -0.55952629639E+03  0.13758082748E+04  0.46999998093E+01 0.  1.
       -5    1    3    3    0  502  0.91529829680E+03 -0.86138590103E+03  0.34756051339E+03  0.13040617482E+04  0.46999998093E+01 0. -1.
</event>
<event>
 5   0  0.1474554E-05  0.2287733E+04  0.7818609E-02  0.8482774E-01
        1   -1    0    0  501    0  0.00000000000E+00  0.00000000000E+00  0.15571453220E+04  0.15571453220E+04  0.50400001928E-02 0. -1.
       -1   -1    0    0    0  501  0.00000000000E+00  0.00000000000E+00 -0.84027486570E+03  0.84027486571E+03  0.50400001928E-02 0.  1.
    10030    2    1    2    0    0  0.00000000000E+00  0.00000000000E+00  0.71687045631E+03  0.23974201877E+04  0.22877325686E+04 0.  0.
        5    1    3    3  502    0  0.32349883649E+03 -0.98503958287E+03  0.86477157799E+03  0.13501134949E+04  0.46999998093E+01 0. -1.
       -5    1    3    3    0  502 -0.32349883649E+03  0.98503958287E+03 -0.14790112168E+03  0.10473066928E+04  0.46999998093E+01 0.  1.
</event>
<event>
 5   0  0.1451052E-05  0.2055691E+04  0.7818609E-02  0.8581017E-01
        1   -1    0    0  501    0  0.00000000000E+00  0.00000000000E+00  0.14129185168E+04  0.14129185168E+04  0.50400001928E-02 0. -1.
       -1   -1    0    0    0  501  0.00000000000E+00  0.00000000000E+00 -0.74771914416E+03  0.74771914418E+03  0.50400001928E-02 0.  1.
    10030    2    1    2    0    0  0.00000000000E+00  0.00000000000E+00  0.66519937261E+03  0.21606376610E+04  0.20556908563E+04 0.  0.
        1    1    3    3  502    0 -0.13150465035E+03 -0.40207632822E+03  0.13171763224E+04  0.13834421965E+04  0.50400001928E-02 0. -1.
       -1    1    3    3    0  502  0.13150465035E+03  0.40207632822E+03 -0.65197694982E+03  0.77719546441E+03  0.50400001928E-02 0.  1.
</event>
<event>
 5   0  0.1497497E-05  0.2569511E+04  0.7818609E-02  0.8378632E-01
        1   -1    0    0  501    0  0.00000000000E+00  0.00000000000E+00  0.18563455660E+04  0.18563455660E+04  0.50400001928E-02 0. -1.
       -1   -1    0    0    0  501  0.00000000000E+00  0.00000000000E+00 -0.88916488511E+03  0.88916488513E+03  0.50400001928E-02 0.  1.
    10030    2    1    2    0    0  0.00000000000E+00  0.00000000000E+00  0.96718068089E+03  0.27455104511E+04  0.25695114648E+04 0.  0.
        3    1    3    3  502    0  0.26536916760E+03 -0.11152572788E+04  0.11032969562E+04  0.15910637249E+04  0.10100000352E+00 0. -1.
       -3    1    3    3    0  502 -0.26536916760E+03  0.11152572788E+04 -0.13611627530E+03  0.11544467262E+04  0.10100000352E+00 0.  1.
</event>
<event>
 5   0  0.1497497E-05  0.2589308E+04  0.7818609E-02  0.8371842E-01
       -1   -1    0    0    0  501  0.00000000000E+00  0.00000000000E+00  0.10897321188E+04  0.10897321188E+04  0.50400001928E-02 0.  1.
        1   -1    0    0  501    0  0.00000000000E+00  0.00000000000E+00 -0.15381115265E+04  0.15381115265E+04  0.50400001928E-02 0. -1.
    10030    2    1    2    0    0  0.00000000000E+00  0.00000000000E+00 -0.44837940768E+03  0.26278436453E+04  0.25893084271E+04 0.  0.
        3    1    3    3  502    0 -0.10741899988E+04 -0.42735782973E+03  0.36724443587E+03  0.12130075655E+04  0.10100000352E+00 0.  1.
       -3    1    3    3    0  502  0.10741899988E+04  0.42735782973E+03 -0.81562384356E+03  0.14148360798E+04  0.10100000352E+00 0. -1.
</event>
<event>
 5   0  0.3849687E-05  0.2419111E+04  0.7818609E-02  0.8432383E-01
       -2   -1    0    0    0  501  0.00000000000E+00  0.00000000000E+00  0.70518060454E+03  0.70518060455E+03  0.25500000920E-02 0. -1.
        2   -1    0    0  501    0  0.00000000000E+00  0.00000000000E+00 -0.20746802995E+04  0.20746802995E+04  0.25500000920E-02 0.  1.
    10030    2    1    2    0    0  0.00000000000E+00  0.00000000000E+00 -0.13694996950E+04  0.27798609040E+04  0.24191108349E+04 0.  0.
        1    1    3    3  502    0 -0.10413902734E+04  0.54191782594E+03 -0.10194899529E+04  0.15548403119E+04  0.50400001928E-02 0. -1.
       -1    1    3    3    0  502  0.10413902734E+04 -0.54191782594E+03 -0.35000974202E+03  0.12250205921E+04  0.50400001928E-02 0.  1.
</event>
<event>
 5   0  0.1533248E-05  0.2609918E+04  0.7818609E-02  0.8364840E-01
       -1   -1    0    0    0  501  0.00000000000E+00  0.00000000000E+00  0.88202264367E+03  0.88202264369E+03  0.50400001928E-02 0. -1.
        1   -1    0    0  501    0  0.00000000000E+00  0.00000000000E+00 -0.19306959643E+04  0.19306959643E+04  0.50400001928E-02 0.  1.
    10030    2    1    2    0    0  0.00000000000E+00  0.00000000000E+00 -0.10486733206E+04  0.28127186080E+04  0.26099176681E+04 0.  0.
        4    1    3    3  502    0  0.53261008758E+03 -0.79106207352E+03  0.43564488347E+03  0.10484468451E+04  0.12699999809E+01 0. -1.
       -4    1    3    3    0  502 -0.53261008758E+03  0.79106207352E+03 -0.14843182041E+04  0.17642717629E+04  0.12699999809E+01 0.  1.
</event>
<event>
 5   0  0.1451052E-05  0.2644612E+04  0.7818609E-02  0.8353204E-01
        1   -1    0    0  501    0  0.00000000000E+00  0.00000000000E+00  0.10070930963E+04  0.10070930963E+04  0.50400001928E-02 0.  1.
       -1   -1    0    0    0  501  0.00000000000E+00  0.00000000000E+00 -0.17361780657E+04  0.17361780657E+04  0.50400001928E-02 0. -1.
    10030    2    1    2    0    0  0.00000000000E+00  0.00000000000E+00 -0.72908496946E+03  0.27432711620E+04  0.26446118383E+04 0.  0.
        1    1    3    3  502    0  0.49748640226E+03  0.92336092887E+03 -0.11998183197E+04  0.15936286034E+04  0.50400001928E-02 0. -1.
       -1    1    3    3    0  502 -0.49748640226E+03 -0.92336092887E+03  0.47073335023E+03  0.11496425586E+04  0.50400001928E-02 0.  1.
</event>
<event>
 5   0  0.3499642E-05  0.2691777E+04  0.7818609E-02  0.8337678E-01
        2   -1    0    0  501    0  0.00000000000E+00  0.00000000000E+00  0.12771073821E+04  0.12771073821E+04  0.25500000920E-02 0. -1.
       -2   -1    0    0    0  501  0.00000000000E+00  0.00000000000E+00 -0.14183744554E+04  0.14183744554E+04  0.25500000920E-02 0.  1.
    10030    2    1    2    0    0  0.00000000000E+00  0.00000000000E+00 -0.14126707330E+03  0.26954818376E+04  0.26917774705E+04 0.  0.
        2    1    3    3  502    0  0.42222134990E+03  0.56664289850E+03 -0.12176623907E+04  0.14078553692E+04  0.25500000920E-02 0.  1.
       -2    1    3    3    0  502 -0.42222134990E+03 -0.56664289850E+03  0.10763953174E+04  0.12876264684E+04  0.25500000920E-02 0. -1.
</event>
<event>
 5   0  0.1497497E-05  0.2747441E+04  0.7818609E-02  0.8319774E-01
       -1   -1    0    0    0  501  0.00000000000E+00  0.00000000000E+00  0.14655652483E+04  0.14655652483E+04  0.50400001928E-02 0.  1.
        1   -1    0    0  501    0  0.00000000000E+00  0.00000000000E+00 -0.12876317010E+04  0.12876317010E+04  0.50400001928E-02 0. -1.
    10030    2    1    2    0    0  0.00000000000E+00  0.00000000000E+00  0.17793354732E+03  0.27531969493E+04  0.27474411904E+04 0.  0.
        3    1    3    3  502    0  0.95556376547E+03 -0.80631143186E+03  0.65925304048E+03  0.14134549220E+04  0.10100000352E+00 0.  1.
       -3    1    3    3    0  502 -0.95556376547E+03  0.80631143186E+03 -0.48131949316E+03  0.13397420273E+04  0.10100000352E+00 0. -1.
</event>
<event>
 5   0  0.3647623E-05  0.2469758E+04  0.7818609E-02  0.8413839E-01
        2   -1    0    0  501    0  0.00000000000E+00  0.00000000000E+00  0.13895924507E+04  0.13895924507E+04  0.25500000920E-02 0. -1.
       -2   -1    0    0    0  501  0.00000000000E+00  0.00000000000E+00 -0.10973911815E+04  0.10973911815E+04  0.25500000920E-02 0.  1.
    10030    2    1    2    0    0  0.00000000000E+00  0.00000000000E+00  0.29220126928E+03  0.24869836322E+04  0.24697582888E+04 0.  0.
        3    1    3    3  502    0  0.10847734389E+04 -0.28013945409E+03 -0.37686240494E+03  0.11820477189E+04  0.10100000352E+00 0.  1.
       -3    1    3    3    0  502 -0.10847734389E+04  0.28013945409E+03  0.66906367422E+03  0.13049359133E+04  0.10100000352E+00 0. -1.
</event>
<event>
 5   0  0.1451052E-05  0.2808803E+04  0.7818609E-02  0.8300541E-01
        1   -1    0    0  501    0  0.00000000000E+00  0.00000000000E+00  0.16239412866E+04  0.16239412866E+04  0.50400001928E-02 0. -1.
       -1   -1    0    0    0  501  0.00000000000E+00  0.00000000000E+00 -0.12145408457E+04  0.12145408457E+04  0.50400001928E-02 0.  1.
    10030    2    1    2    0    0  0.00000000000E+00  0.00000000000E+00  0.40940044089E+03  0.28384821323E+04  0.28088026087E+04 0.  0.
        1    1    3    3  502    0 -0.64465177159E+03  0.10119065812E+04  0.94235306290E+03  0.15256343372E+04  0.50400001928E-02 0. -1.
       -1    1    3    3    0  502  0.64465177159E+03 -0.10119065812E+04 -0.53295262202E+03  0.13128477951E+04  0.50400001928E-02 0.  1.
</event>
<event>
 5   0  0.3499642E-05  0.2722342E+04  0.7818609E-02  0.8327792E-01
        2   -1    0    0  501    0  0.00000000000E+00  0.00000000000E+00  0.12762330622E+04  0.12762330622E+04  0.25500000920E-02 0.  1.
       -2   -1    0    0    0  501  0.00000000000E+00  0.00000000000E+00 -0.14517616849E+04  0.14517616849E+04  0.25500000920E-02 0. -1.
    10030    2    1    2    0    0  0.00000000000E+00  0.00000000000E+00 -0.17552862266E+03  0.27279947471E+04  0.27223418307E+04 0.  0.
        2    1    3    3  502    0 -0.28477464096E+03  0.13261730454E+04  0.26290828267E+02  0.13566586712E+04  0.25500000920E-02 0.  1.
       -2    1    3    3    0  502  0.28477464096E+03 -0.13261730454E+04 -0.20181945093E+03  0.13713360760E+04  0.25500000920E-02 0. -1.
</event>
<event>
 5   0  0.1435062E-05  0.2592585E+04  0.7818609E-02  0.8370724E-01
       -1   -1    0    0    0  501  0.00000000000E+00  0.00000000000E+00  0.10675327470E+04  0.10675327470E+04  0.50400001928E-02 0.  1.
        1   -1    0    0  501    0  0.00000000000E+00  0.00000000000E+00 -0.15740727107E+04  0.15740727107E+04  0.50400001928E-02 0. -1.
    10030    2    1    2    0    0  0.00000000000E+00  0.00000000000E+00 -0.50653996368E+03  0.26416054577E+04  0.25925849377E+04 0.  0.
        2    1    3    3  502    0  0.12023709527E+04 -0.39919641601E+03 -0.53290496016E+03  0.13744240186E+04  0.25500000920E-02 0. -1.
       -2    1    3    3    0  502 -0.12023709527E+04  0.39919641601E+03  0.26364996478E+02  0.12671814391E+04  0.25500000920E-02 0.  1.
</event>
<event>
 5   0  0.3647623E-05  0.2732505E+04  0.7818609E-02  0.8324535E-01
        2   -1    0    0  501    0  0.00000000000E+00  0.00000000000E+00  0.20294465450E+04  0.20294465450E+04  0.25500000920E-02 0. -1.
       -2   -1    0    0    0  501  0.00000000000E+00  0.00000000000E+00 -0.91978075460E+03  0.91978075461E+03  0.25500000920E-02 0.  1.
    10030    2    1    2    0    0  0.00000000000E+00  0.00000000000E+00  0.11096657904E+04  0.29492272996E+04  0.27325049860E+04 0.  0.
        3    1    3    3  502    0 -0.38016249136E+03 -0.54696754385E+03 -0.73265136034E+03  0.99018939596E+03  0.10100000352E+00 0.  1.
       -3    1    3    3    0  502  0.38016249136E+03  0.54696754385E+03  0.18423171508E+04  0.19590379037E+04  0.10100000352E+00 0. -1.
</event>
<event>
 5   0  0.3508470E-05  0.2718171E+04  0.7818609E-02  0.8329133E-01
       -2   -1    0    0    0  501  0.00000000000E+00  0.00000000000E+00  0.99523575440E+03  0.99523575441E+03  0.25500000920E-02 0.  1.
        2   -1    0    0  501    0  0.00000000000E+00  0.00000000000E+00 -0.18559556952E+04  0.18559556952E+04  0.25500000920E-02 0. -1.
    10030    2    1    2    0    0  0.00000000000E+00  0.00000000000E+00 -0.86071994076E+03  0.28511914496E+04  0.27181710516E+04 0.  0.
        5    1    3    3  502    0  0.12260333596E+04  0.54586632954E+03 -0.65524278845E+03  0.14934835286E+04  0.46999998093E+01 0. -1.
       -5    1    3    3    0  502 -0.12260333596E+04 -0.54586632954E+03 -0.20547715231E+03  0.13577079209E+04  0.46999998093E+01 0.  1.
</event>
<event>
 5   0  0.1435062E-05  0.2624129E+04  0.7818609E-02  0.8360051E-01
        1   -1    0    0  501    0  0.00000000000E+00  0.00000000000E+00  0.16837095942E+04  0.16837095942E+04  0.50400001928E-02 0.  1.
       -1   -1    0    0    0  501  0.00000000000E+00  0.00000000000E+00 -0.10224528029E+04  0.10224528029E+04  0.50400001928E-02 0. -1.
    10030    2    1    2    0    0  0.00000000000E+00  0.00000000000E+00  0.66125679130E+03  0.27061623972E+04  0.26241292605E+04 0.  0.
        2    1    3    3  502    0  0.93382765611E+01  0.10079895043E+04 -0.53549804133E+03  0.11414412803E+04  0.25500000920E-02 0. -1.
       -2    1    3    3    0  502 -0.93382765611E+01 -0.10079895043E+04  0.11967548326E+04  0.15647211169E+04  0.25500000920E-02 0.  1.
</event>
<event>
 5   0  0.3647623E-05  0.2018388E+04  0.7818609E-02  0.8598072E-01
        2   -1    0    0  501    0  0.00000000000E+00  0.00000000000E+00  0.29414742050E+04  0.29414742050E+04  0.25500000920E-02 0.  1.
       -2   -1    0    0    0  501  0.00000000000E+00  0.00000000000E+00 -0.34624548595E+03  0.34624548596E+03  0.25500000920E-02 0. -1.
    10030    2    1    2    0    0  0.00000000000E+00  0.00000000000E+00  0.25952287191E+04  0.32877196910E+04  0.20183876392E+04 0.  0.
        3    1    3    3  502    0  0.40987371204E+03  0.82531281420E+02  0.27937640140E+04  0.28248761475E+04  0.10100000352E+00 0.  1.
       -3    1    3    3    0  502 -0.40987371204E+03 -0.82531281420E+02 -0.19853529495E+03  0.46284354352E+03  0.10100000352E+00 0. -1.
</event>
<event>
 5   0  0.3849687E-05  0.2319914E+04  0.7818609E-02  0.8470110E-01
        2   -1    0    0  501    0  0.00000000000E+00  0.00000000000E+00  0.17055172605E+04  0.17055172605E+04  0.25500000920E-02 0. -1.
       -2   -1    0    0    0  501  0.00000000000E+00  0.00000000000E+00 -0.78891059576E+03  0.78891059576E+03  0.25500000920E-02 0.  1.
    10030    2    1    2    0    0  0.00000000000E+00  0.00000000000E+00  0.91660666471E+03  0.24944278562E+04  0.23199143416E+04 0.  0.
        1    1    3    3  502    0 -0.51983499324E+03 -0.61818766822E+03  0.13534661418E+04  0.15761519630E+04  0.50400001928E-02 0. -1.
       -1    1    3    3    0  502  0.51983499324E+03  0.61818766822E+03 -0.43685947712E+03  0.91827589324E+03  0.50400001928E-02 0.  1.
</event>
<event>
 5   0  0.1474554E-05  0.2772824E+04  0.7818609E-02  0.8311755E-01
       -1   -1    0    0    0  501  0.00000000000E+00  0.00000000000E+00  0.11617324905E+04  0.11617324905E+04  0.50400001928E-02 0.  1.
        1   -1    0    0  501    0  0.00000000000E+00  0.00000000000E+00 -0.16545443181E+04  0.16545443181E+04  0.50400001928E-02 0. -1.
    10030    2    1    2    0    0  0.00000000000E+00  0.00000000000E+00 -0.49281182762E+03  0.28162768087E+04  0.27728237531E+04 0.  0.
        5    1    3    3  502    0 -0.12776832050E+04  0.15202289899E+03 -0.77076222974E+03  0.14998939426E+04  0.46999998093E+01 0. -1.
       -5    1    3    3    0  502  0.12776832050E+04 -0.15202289899E+03  0.27795040212E+03  0.13163828661E+04  0.46999998093E+01 0.  1.
</event>
<event>
 5   0  0.3647623E-05  0.2667583E+04  0.7818609E-02  0.8345600E-01
        2   -1    0    0  501    0  0.00000000000E+00  0.00000000000E+00  0.11060794395E+04  0.11060794395E+04  0.25500000920E-02 0.  1.
       -2   -1    0    0    0  501  0.00000000000E+00  0.00000000000E+00 -0.16083834977E+04  0.16083834977E+04  0.25500000920E-02 0. -1.
    10030    2    1    2    0    0  0.00000000000E+00  0.00000000000E+00 -0.50230405822E+03  0.27144629371E+04  0.26675831140E+04 0.  0.
        3    1    3    3  502    0 -0.11245851546E+04  0.67309883085E+03  0.67664588804E+00  0.13106312503E+04  0.10100000352E+00 0.  1.
       -3    1    3    3    0  502  0.11245851546E+04 -0.67309883085E+03 -0.50298070411E+03  0.14038316869E+04  0.10100000352E+00 0. -1.
</event>
<event>
 5   0  0.1533248E-05  0.2600151E+04  0.7818609E-02  0.8368150E-01
        1   -1    0    0  501    0  0.00000000000E+00  0.00000000000E+00  0.23068497188E+04  0.23068497188E+04  0.50400001928E-02 0.  1.
       -1   -1    0    0    0  501  0.00000000000E+00  0.00000000000E+00 -0.73268591783E+03  0.73268591784E+03  0.50400001928E-02 0. -1.
    10030    2    1    2    0    0  0.00000000000E+00  0.00000000000E+00  0.15741638010E+04  0.30395356367E+04  0.26001509984E+04 0.  0.
        4    1    3    3  502    0 -0.25550265199E+03 -0.12554434146E+04  0.52891120451E+03  0.13860622091E+04  0.12699999809E+01 0. -1.
       -4    1    3    3    0  502  0.25550265199E+03  0.12554434146E+04  0.10452525965E+04  0.16534734276E+04  0.12699999809E+01 0.  1.
</event>
<event>
 5   0  0.1451052E-05  0.2594178E+04  0.7818609E-02  0.8370181E-01
        1   -1    0    0  501    0  0.00000000000E+00  0.00000000000E+00  0.11937315259E+04  0.11937315259E+04  0.50400001928E-02 0.  1.
       -1   -1    0    0    0  501  0.00000000000E+00  0.00000000000E+00 -0.14093955239E+04  0.14093955240E+04  0.50400001928E-02 0. -1.
    10030    2    1    2    0    0  0.00000000000E+00  0.00000000000E+00 -0.21566399809E+03  0.26031270498E+04  0.25941779965E+04 0.  0.
        1    1    3    3  502    0 -0.11084114093E+03 -0.12772024412E+04 -0.30576364770E+03  0.13179617759E+04  0.50400001928E-02 0. -1.
       -1    1    3    3    0  502  0.11084114093E+03  0.12772024412E+04  0.90099649605E+02  0.12851652739E+04  0.50400001928E-02 0.  1.
</event>
<event>
 5   0  0.1497497E-05  0.2517661E+04  0.7818609E-02  0.8396721E-01
        1   -1    0    0  501    0  0.00000000000E+00  0.00000000000E+00  0.14775492419E+04  0.14775492419E+04  0.50400001928E-02 0.  1.
       -1   -1    0    0    0  501  0.00000000000E+00  0.00000000000E+00 -0.10724884610E+04  0.10724884610E+04  0.50400001928E-02 0. -1.
    10030    2    1    2    0    0  0.00000000000E+00  0.00000000000E+00  0.40506078085E+03  0.25500377029E+04  0.25176612262E+04 0.  0.
        3    1    3    3  502    0 -0.85897949101E+03 -0.34217936965E+03 -0.66269256751E+03  0.11375824964E+04  0.10100000352E+00 0. -1.
       -3    1    3    3    0  502  0.85897949101E+03  0.34217936965E+03  0.10677533484E+04  0.14124552064E+04  0.10100000352E+00 0.  1.
</event>
<event>
 5   0  0.3441646E-05  0.2820196E+04  0.7818609E-02  0.8297026E-01
       -2   -1    0    0    0  501  0.00000000000E+00  0.00000000000E+00  0.13075036781E+04  0.13075036781E+04  0.25500000920E-02 0.  1.
        2   -1    0    0  501    0  0.00000000000E+00  0.00000000000E+00 -0.15207428333E+04  0.15207428333E+04  0.25500000920E-02 0. -1.
    10030    2    1    2    0    0  0.00000000000E+00  0.00000000000E+00 -0.21323915517E+03  0.28282465114E+04  0.28201963393E+04 0.  0.
        4    1    3    3  502    0  0.26548248404E+02  0.95378733729E+03  0.93459266717E+03  0.13356197665E+04  0.12699999809E+01 0.  1.
       -4    1    3    3    0  502 -0.26548248404E+02 -0.95378733729E+03 -0.11478318223E+04  0.14926267449E+04  0.12699999809E+01 0. -1.
</event>
<event>
 5   0  0.3441646E-05  0.2597145E+04  0.7818609E-02  0.8369171E-01
       -2   -1    0    0    0  501  0.00000000000E+00  0.00000000000E+00  0.70455302183E+03  0.70455302183E+03  0.25500000920E-02 0. -1.
        2   -1    0    0  501    0  0.00000000000E+00  0.00000000000E+00 -0.23934196042E+04  0.23934196042E+04  0.25500000920E-02 0.  1.
    10030    2    1    2    0    0  0.00000000000E+00  0.00000000000E+00 -0.16888665823E+04  0.30979726260E+04  0.25971453672E+04 0.  0.
        4    1    3    3  502    0 -0.76591987104E+02 -0.66041582617E+03 -0.21750082061E+04  0.22743521507E+04  0.12699999809E+01 0.  1.
       -4    1    3    3    0  502  0.76591987104E+02  0.66041582617E+03  0.48614162381E+03  0.82362047525E+03  0.12699999809E+01 0. -1.
</event>
<event>
 5   0  0.1435062E-05  0.2608508E+04  0.7818609E-02  0.8365317E-01
        1   -1    0    0  501    0  0.00000000000E+00  0.00000000000E+00  0.17089427645E+04  0.17089427645E+04  0.50400001928E-02 0.  1.
       -1   -1    0    0    0  501  0.00000000000E+00  0.00000000000E+00 -0.99539816653E+03  0.99539816654E+03  0.50400001928E-02 0. -1.
    10030    2    1    2    0    0  0.00000000000E+00  0.00000000000E+00  0.71354459795E+03  0.27043409310E+04  0.26085079984E+04 0.  0.
        2    1    3    3  502    0 -0.63080223838E+03 -0.11080512165E+04  0.64143121605E+03  0.14272781674E+04  0.25500000920E-02 0.  1.
       -2    1    3    3    0  502  0.63080223838E+03  0.11080512165E+04  0.72113381893E+02  0.12770627636E+04  0.25500000920E-02 0. -1.
</event>
<event>
 5   0  0.1474554E-05  0.1818495E+04  0.7818609E-02  0.8696526E-01
       -1   -1    0    0    0  501  0.00000000000E+00  0.00000000000E+00  0.80845151250E+03  0.80845151252E+03  0.50400001928E-02 0.  1.
        1   -1    0    0  501    0  0.00000000000E+00  0.00000000000E+00 -0.10226101584E+04  0.10226101585E+04  0.50400001928E-02 0. -1.
    10030    2    1    2    0    0  0.00000000000E+00  0.00000000000E+00 -0.21415864595E+03  0.18310616710E+04  0.18184946844E+04 0.  0.
        5    1    3    3  502    0 -0.69137179309E+03 -0.24107355269E+03 -0.64987535903E+03  0.97901557003E+03  0.46999998093E+01 0. -1.
       -5    1    3    3    0  502  0.69137179309E+03  0.24107355269E+03  0.43571671309E+03  0.85204610095E+03  0.46999998093E+01 0.  1.
</event>
<event>
 5   0  0.1474554E-05  0.2661176E+04  0.7818609E-02  0.8347713E-01
        1   -1    0    0  501    0  0.00000000000E+00  0.00000000000E+00  0.25734976601E+04  0.25734976601E+04  0.50400001928E-02 0. -1.
       -1   -1    0    0    0  501  0.00000000000E+00  0.00000000000E+00 -0.68796048562E+03  0.68796048564E+03  0.50400001928E-02 0.  1.
    10030    2    1    2    0    0  0.00000000000E+00  0.00000000000E+00  0.18855371745E+04  0.32614581458E+04  0.26611762062E+04 0.  0.
        5    1    3    3  502    0  0.67272206073E+03 -0.51307365567E+03 -0.31584068837E+03  0.90309300604E+03  0.46999998093E+01 0.  1.
       -5    1    3    3    0  502 -0.67272206073E+03  0.51307365567E+03  0.22013778629E+04  0.23583651397E+04  0.46999998093E+01 0. -1.
</event>
<event>
 5   0  0.3499642E-05  0.2580127E+04  0.7818609E-02  0.8374983E-01
        2   -1    0    0  501    0  0.00000000000E+00  0.00000000000E+00  0.11945400798E+04  0.11945400798E+04  0.25500000920E-02 0. -1.
       -2   -1    0    0    0  501  0.00000000000E+00  0.00000000000E+00 -0.13932258445E+04  0.13932258445E+04  0.25500000920E-02 0.  1.
    10030    2    1    2    0    0  0.00000000000E+00  0.00000000000E+00 -0.19868576475E+03  0.25877659243E+04  0.25801272151E+04 0.  0.
        2    1    3    3  502    0  0.69921083117E+03  0.40601741567E+03 -0.11075643406E+04  0.13712930747E+04  0.25500000920E-02 0.  1.
       -2    1    3    3    0  502 -0.69921083117E+03 -0.40601741567E+03  0.90887857580E+03  0.12164728496E+04  0.25500000920E-02 0. -1.
</event>
<event>
 5   0  0.3647623E-05  0.2500553E+04  0.7818609E-02  0.8402788E-01
        2   -1    0    0  501    0  0.00000000000E+00  0.00000000000E+00  0.12586487203E+04  0.12586487203E+04  0.25500000920E-02 0.  1.
       -2   -1    0    0    0  501  0.00000000000E+00  0.00000000000E+00 -0.12419603989E+04  0.12419603989E+04  0.25500000920E-02 0. -1.
    10030    2    1    2    0    0  0.00000000000E+00  0.00000000000E+00  0.16688321399E+02  0.25006091192E+04  0.25005534321E+04 0.  0.
        3    1    3    3  502    0 -0.10890750206E+04 -0.35875202978E+03  0.50675714315E+03  0.12536308196E+04  0.10100000352E+00 0.  1.
       -3    1    3    3    0  502  0.10890750206E+04  0.35875202978E+03 -0.49006882175E+03  0.12469782996E+04  0.10100000352E+00 0. -1.
</event>
<event>
 5   0  0.3849687E-05  0.2430185E+04  0.7818609E-02  0.8428289E-01
        2   -1    0    0  501    0  0.00000000000E+00  0.00000000000E+00  0.11480753820E+04  0.11480753820E+04  0.25500000920E-02 0. -1.
       -2   -1    0    0    0  501  0.00000000000E+00  0.00000000000E+00 -0.12860213618E+04  0.12860213618E+04  0.25500000920E-02 0.  1.
    10030    2    1    2    0    0  0.00000000000E+00  0.00000000000E+00 -0.13794597976E+03  0.24340967438E+04  0.24301847388E+04 0.  0.
        1    1    3    3  502    0  0.56009715522E+02  0.12097646509E+04 -0.16803552384E+03  0.12226624784E+04  0.50400001928E-02 0.  1.
       -1    1    3    3    0  502 -0.56009715522E+02 -0.12097646509E+04  0.30089544073E+02  0.12114342654E+04  0.50400001928E-02 0. -1.
</event>
<event>
 5   0  0.3499642E-05  0.2390788E+04  0.7818609E-02  0.8442961E-01
       -2   -1    0    0    0  501  0.00000000000E+00  0.00000000000E+00  0.10092965336E+04  0.10092965336E+04  0.25500000920E-02 0.  1.
        2   -1    0    0  501    0  0.00000000000E+00  0.00000000000E+00 -0.14158042777E+04  0.14158042777E+04  0.25500000920E-02 0. -1.
    10030    2    1    2    0    0  0.00000000000E+00  0.00000000000E+00 -0.40650774410E+03  0.24251008114E+04  0.23907876107E+04 0.  0.
        2    1    3    3  502    0  0.10478943030E+04  0.10532255695E+03  0.37036303707E+03  0.11163978191E+04  0.25500000920E-02 0.  1.
       -2    1    3    3    0  502 -0.10478943030E+04 -0.10532255695E+03 -0.77687078117E+03  0.13087029923E+04  0.25500000920E-02 0. -1.
</event>
<event>
 5   0  0.3647623E-05  0.2395336E+04  0.7818609E-02  0.8441252E-01
       -2   -1    0    0    0  501  0.00000000000E+00  0.00000000000E+00  0.92132670765E+03  0.92132670765E+03  0.25500000920E-02 0.  1.
        2   -1    0    0  501    0  0.00000000000E+00  0.00000000000E+00 -0.15568950157E+04  0.15568950157E+04  0.25500000920E-02 0. -1.
    10030    2    1    2    0    0  0.00000000000E+00  0.00000000000E+00 -0.63556830802E+03  0.24782217233E+04  0.23953362678E+04 0.  0.
        3    1    3    3  502    0  0.68090548690E+03 -0.57658108783E+02  0.69984239701E+03  0.97812889256E+03  0.10100000352E+00 0.  1.
       -3    1    3    3    0  502 -0.68090548690E+03  0.57658108783E+02 -0.13354107050E+04  0.15000928308E+04  0.10100000352E+00 0. -1.
</event>
<event>
 5   0  0.1474554E-05  0.2590402E+04  0.7818609E-02  0.8371469E-01
        1   -1    0    0  501    0  0.00000000000E+00  0.00000000000E+00  0.17895153273E+04  0.17895153273E+04  0.50400001928E-02 0. -1.
       -1   -1    0    0    0  501  0.00000000000E+00  0.00000000000E+00 -0.93742997429E+03  0.93742997430E+03  0.50400001928E-02 0.  1.
    10030    2    1    2    0    0  0.00000000000E+00  0.00000000000E+00  0.85208535301E+03  0.27269453016E+04  0.25904017505E+04 0.  0.
        5    1    3    3  502    0 -0.74364691126E+03  0.31230547293E+03 -0.64077407249E+03  0.10301256909E+04  0.46999998093E+01 0.  1.
       -5    1    3    3    0  502  0.74364691126E+03 -0.31230547293E+03  0.14928594255E+04  0.16968196107E+04  0.46999998093E+01 0. -1.
</event>
<event>
 5   0  0.3508470E-05  0.2602754E+04  0.7818609E-02  0.8367266E-01
        2   -1    0    0  501    0  0.00000000000E+00  0.00000000000E+00  0.17468330736E+04  0.17468330736E+04  0.25500000920E-02 0. -1.
       -2   -1    0    0    0  501  0.00000000000E+00  0.00000000000E+00 -0.96951590241E+03  0.96951590241E+03  0.25500000920E-02 0.  1.
    10030    2    1    2    0    0  0.00000000000E+00  0.00000000000E+00  0.77731717118E+03  0.27163489760E+04  0.26027542671E+04 0.  0.
        5    1    3    3  502    0 -0.19483421444E+03  0.68696498852E+03 -0.74679499525E+03  0.10332502705E+04  0.46999998093E+01 0.  1.
       -5    1    3    3    0  502  0.19483421444E+03 -0.68696498852E+03  0.15241121664E+04  0.16830987055E+04  0.46999998093E+01 0. -1.
</event>
<event>
 5   0  0.1474554E-05  0.2627034E+04  0.7818609E-02  0.8359076E-01
       -1   -1    0    0    0  501  0.00000000000E+00  0.00000000000E+00  0.15128031464E+04  0.15128031464E+04  0.50400001928E-02 0. -1.
        1   -1    0    0  501    0  0.00000000000E+00  0.00000000000E+00 -0.11404830038E+04  0.11404830038E+04  0.50400001928E-02 0.  1.
    10030    2    1    2    0    0  0.00000000000E+00  0.00000000000E+00  0.37232014259E+03  0.26532861503E+04  0.26270335184E+04 0.  0.
        5    1    3    3  502    0  0.44602381535E+02  0.76148170707E+03  0.12661732255E+04  0.14781950107E+04  0.46999998093E+01 0. -1.
       -5    1    3    3    0  502 -0.44602381535E+02 -0.76148170707E+03 -0.89385308288E+03  0.11750911396E+04  0.46999998093E+01 0.  1.
</event>
<event>
 5   0  0.1497497E-05  0.2568928E+04  0.7818609E-02  0.8378833E-01
        1   -1    0    0  501    0  0.00000000000E+00  0.00000000000E+00  0.23353785955E+04  0.23353785955E+04  0.50400001928E-02 0. -1.
       -1   -1    0    0    0  501  0.00000000000E+00  0.00000000000E+00 -0.70645811105E+03  0.70645811106E+03  0.50400001928E-02 0.  1.
    10030    2    1    2    0    0  0.00000000000E+00  0.00000000000E+00  0.16289204844E+04  0.30418367065E+04  0.25689275203E+04 0.  0.
        3    1    3    3  502    0  0.53465823429E+03 -0.13086600117E+03  0.21886463803E+04  0.22568026777E+04  0.10100000352E+00 0. -1.
       -3    1    3    3    0  502 -0.53465823429E+03  0.13086600117E+03 -0.55972589588E+03  0.78503402886E+03  0.10100000352E+00 0.  1.
</event>
<event>
 5   0  0.3647623E-05  0.2685406E+04  0.7818609E-02  0.8339756E-01
       -2   -1    0    0    0  501  0.00000000000E+00  0.00000000000E+00  0.14703302564E+04  0.14703302564E+04  0.25500000920E-02 0. -1.
        2   -1    0    0  501    0  0.00000000000E+00  0.00000000000E+00 -0.12261539759E+04  0.12261539759E+04  0.25500000920E-02 0.  1.
    10030    2    1    2    0    0  0.00000000000E+00  0.00000000000E+00  0.24417628044E+03  0.26964842323E+04  0.26854059579E+04 0.  0.
        3    1    3    3  502    0 -0.82128167623E+03 -0.10600276857E+04  0.19084685422E+03  0.13544684633E+04  0.10100000352E+00 0. -1.
       -3    1    3    3    0  502  0.82128167623E+03  0.10600276857E+04  0.53329426221E+02  0.13420157689E+04  0.10100000352E+00 0.  1.
</event>
<event>
 5   0  0.1451052E-05  0.2561109E+04  0.7818609E-02  0.8381533E-01
        1   -1    0    0  501    0  0.00000000000E+00  0.00000000000E+00  0.15349092531E+04  0.15349092531E+04  0.50400001928E-02 0. -1.
       -1   -1    0    0    0  501  0.00000000000E+00  0.00000000000E+00 -0.10683497509E+04  0.10683497509E+04  0.50400001928E-02 0.  1.
    10030    2    1    2    0    0  0.00000000000E+00  0.00000000000E+00  0.46655950221E+03  0.26032590040E+04  0.25611090709E+04 0.  0.
        1    1    3    3  502    0  0.12988724252E+03 -0.11983178747E+04 -0.20625269490E+03  0.12228559190E+04  0.50400001928E-02 0.  1.
       -1    1    3    3    0  502 -0.12988724252E+03  0.11983178747E+04  0.67281219710E+03  0.13804030850E+04  0.50400001928E-02 0. -1.
</event>
<event>
 5   0  0.1497497E-05  0.2649148E+04  0.7818609E-02  0.8351696E-01
        1   -1    0    0  501    0  0.00000000000E+00  0.00000000000E+00  0.12989623378E+04  0.12989623378E+04  0.50400001928E-02 0. -1.
       -1   -1    0    0    0  501  0.00000000000E+00  0.00000000000E+00 -0.13506903153E+04  0.13506903154E+04  0.50400001928E-02 0.  1.
    10030    2    1    2    0    0  0.00000000000E+00  0.00000000000E+00 -0.51727977517E+02  0.26496526532E+04  0.26491476740E+04 0.  0.
        3    1    3    3  502    0 -0.28996670670E+02 -0.41467156294E+03  0.12320333010E+04  0.13002689633E+04  0.10100000352E+00 0. -1.
       -3    1    3    3    0  502  0.28996670670E+02  0.41467156294E+03 -0.12837612785E+04  0.13493836899E+04  0.10100000352E+00 0.  1.
</event>
<event>
 5   0  0.1533248E-05  0.2662094E+04  0.7818609E-02  0.8347410E-01
        1   -1    0    0  501    0  0.00000000000E+00  0.00000000000E+00  0.12219110377E+04  0.12219110377E+04  0.50400001928E-02 0.  1.
       -1   -1    0    0    0  501  0.00000000000E+00  0.00000000000E+00 -0.14499300795E+04  0.14499300795E+04  0.50400001928E-02 0. -1.
    10030    2    1    2    0    0  0.00000000000E+00  0.00000000000E+00 -0.22801904179E+03  0.26718411171E+04  0.26620935881E+04 0.  0.
        4    1    3    3  502    0  0.17738678676E+03  0.33557329246E+03 -0.13944584973E+04  0.14451960491E+04  0.12699999809E+01 0. -1.
       -4    1    3    3    0  502 -0.17738678676E+03 -0.33557329246E+03  0.11664394555E+04  0.12266450681E+04  0.12699999809E+01 0.  1.
</event>
<event>
 5   0  0.1474554E-05  0.2560973E+04  0.7818609E-02  0.8381580E-01
        1   -1    0    0  501    0  0.00000000000E+00  0.00000000000E+00  0.18501776503E+04  0.18501776503E+04  0.50400001928E-02 0. -1.
       -1   -1    0    0    0  501  0.00000000000E+00  0.00000000000E+00 -0.88620991795E+03  0.88620991796E+03  0.50400001928E-02 0.  1.
    10030    2    1    2    0    0  0.00000000000E+00  0.00000000000E+00  0.96396773233E+03  0.27363875683E+04  0.25609730836E+04 0.  0.
        5    1    3    3  502    0 -0.47646012931E+03 -0.96275318953E+03 -0.26268583047E+03  0.11058634158E+04  0.46999998093E+01 0.  1.
       -5    1    3    3    0  502  0.47646012931E+03  0.96275318953E+03  0.12266535628E+04  0.16305241525E+04  0.46999998093E+01 0. -1.
</event>
<event>
 5   0  0.3441646E-05  0.2612305E+04  0.7818609E-02  0.8364033E-01
        2   -1    0    0  501    0  0.00000000000E+00  0.00000000000E+00  0.11379059165E+04  0.11379059165E+04  0.25500000920E-02 0. -1.
       -2   -1    0    0    0  501  0.00000000000E+00  0.00000000000E+00 -0.14992757173E+04  0.14992757173E+04  0.25500000920E-02 0.  1.
    10030    2    1    2    0    0  0.00000000000E+00  0.00000000000E+00 -0.36136980084E+03  0.26371816338E+04  0.26123052725E+04 0.  0.
        4    1    3    3  502    0 -0.90746839047E+03  0.58480856733E+02 -0.11272244491E+04  0.14482939833E+04  0.12699999809E+01 0.  1.
       -4    1    3    3    0  502  0.90746839047E+03 -0.58480856733E+02  0.76585464829E+03  0.11888876505E+04  0.12699999809E+01 0. -1.
</event>
<event>
 5   0  0.3849687E-05  0.2589883E+04  0.7818609E-02  0.8371646E-01
        2   -1    0    0  501    0  0.00000000000E+00  0.00000000000E+00  0.20314338436E+04  0.20314338436E+04  0.25500000920E-02 0. -1.
       -2   -1    0    0    0  501  0.00000000000E+00  0.00000000000E+00 -0.82546286094E+03  0.82546286095E+03  0.25500000920E-02 0.  1.
    10030    2    1    2    0    0  0.00000000000E+00  0.00000000000E+00  0.12059709827E+04  0.28568967046E+04  0.25898827714E+04 0.  0.
        1    1    3    3  502    0  0.63434912741E+03 -0.79985081527E+03  0.14818119940E+04  0.17994240545E+04  0.50400001928E-02 0. -1.
       -1    1    3    3    0  502 -0.63434912741E+03  0.79985081527E+03 -0.27584101136E+03  0.10574726501E+04  0.50400001928E-02 0.  1.
</event>
<event>
 5   0  0.1533248E-05  0.2597770E+04  0.7818609E-02  0.8368959E-01
       -1   -1    0    0    0  501  0.00000000000E+00  0.00000000000E+00  0.10228816648E+04  0.10228816649E+04  0.50400001928E-02 0. -1.
        1   -1    0    0  501    0  0.00000000000E+00  0.00000000000E+00 -0.16493618699E+04  0.16493618699E+04  0.50400001928E-02 0.  1.
    10030    2    1    2    0    0  0.00000000000E+00  0.00000000000E+00 -0.62648020504E+03  0.26722435347E+04  0.25977698246E+04 0.  0.
        4    1    3    3  502    0  0.76829701182E+03 -0.83636289546E+03  0.33516146559E+03  0.11841106419E+04  0.12699999809E+01 0. -1.
       -4    1    3    3    0  502 -0.76829701182E+03  0.83636289546E+03 -0.96164167062E+03  0.14881328929E+04  0.12699999809E+01 0.  1.
</event>
<event>
 5   0  0.3499642E-05  0.2662829E+04  0.7818609E-02  0.8347167E-01
       -2   -1    0    0    0  501  0.00000000000E+00  0.00000000000E+00  0.13602937454E+04  0.13602937454E+04  0.25500000920E-02 0.  1.
        2   -1    0    0  501    0  0.00000000000E+00  0.00000000000E+00 -0.13031486158E+04  0.13031486158E+04  0.25500000920E-02 0. -1.
    10030    2    1    2    0    0  0.00000000000E+00  0.00000000000E+00  0.57145129639E+02  0.26634423612E+04  0.26628292558E+04 0.  0.
        2    1    3    3  502    0  0.76465070964E+03  0.10388577329E+04 -0.30127421478E+03  0.13246441973E+04  0.25500000920E-02 0. -1.
       -2    1    3    3    0  502 -0.76465070964E+03 -0.10388577329E+04  0.35841934442E+03  0.13387981638E+04  0.25500000920E-02 0.  1.
</event>
<event>
 5   0  0.1474554E-05  0.2597239E+04  0.7818609E-02  0.8369140E-01
        1   -1    0    0  501    0  0.00000000000E+00  0.00000000000E+00  0.24435466009E+04  0.24435466009E+04  0.50400001928E-02 0. -1.
       -1   -1    0    0    0  501  0.00000000000E+00  0.00000000000E+00 -0.69014951352E+03  0.69014951354E+03  0.50400001928E-02 0.  1.
    10030    2    1    2    0    0  0.00000000000E+00  0.00000000000E+00  0.17533970873E+04  0.31336961144E+04  0.25972389169E+04 0.  0.
        5    1    3    3  502    0  0.83576664997E+03 -0.71355600087E+03  0.17115069786E+04  0.20339484475E+04  0.46999998093E+01 0. -1.
       -5    1    3    3    0  502 -0.83576664997E+03  0.71355600087E+03  0.41890108780E+02  0.10997476669E+04  0.46999998093E+01 0.  1.
</event>
<event>
 5   0  0.3499642E-05  0.2581442E+04  0.7818609E-02  0.8374532E-01
        2   -1    0    0  501    0  0.00000000000E+00  0.00000000000E+00  0.18072904130E+04  0.18072904130E+04  0.25500000920E-02 0. -1.
       -2   -1    0    0    0  501  0.00000000000E+00  0.00000000000E+00 -0.92180034572E+03  0.92180034572E+03  0.25500000920E-02 0.  1.
    10030    2    1    2    0    0  0.00000000000E+00  0.00000000000E+00  0.88549006730E+03  0.27290907587E+04  0.25814421764E+04 0.  0.
        2    1    3    3  502    0 -0.70627499446E+03  0.90737090842E+03 -0.17714939237E+03  0.11634123261E+04  0.25500000920E-02 0.  1.
       -2    1    3    3    0  502  0.70627499446E+03 -0.90737090842E+03  0.10626394597E+04  0.15656784327E+04  0.25500000920E-02 0. -1.
</event>
<event>
 5   0  0.1533248E-05  0.2563140E+04  0.7818609E-02  0.8380831E-01
        1   -1    0    0  501    0  0.00000000000E+00  0.00000000000E+00  0.13861883290E+04  0.13861883290E+04  0.50400001928E-02 0.  1.
       -1   -1    0    0    0  501  0.00000000000E+00  0.00000000000E+00 -0.11848475779E+04  0.11848475780E+04  0.50400001928E-02 0. -1.
    10030    2    1    2    0    0  0.00000000000E+00  0.00000000000E+00  0.20134075109E+03  0.25710359070E+04  0.25631401712E+04 0.  0.
        4    1    3    3  502    0  0.91866929094E+03  0.63042304293E+02  0.99475933697E+03  0.13555350787E+04  0.12699999809E+01 0.  1.
       -4    1    3    3    0  502 -0.91866929094E+03 -0.63042304293E+02 -0.79341858587E+03  0.12155008283E+04  0.12699999809E+01 0. -1.
</event>
<event>
 5   0  0.1533248E-05  0.2481056E+04  0.7818609E-02  0.8409766E-01
       -1   -1    0    0    0  501  0.00000000000E+00  0.00000000000E+00  0.28040102305E+04  0.28040102305E+04  0.50400001928E-02 0.  1.
        1   -1    0    0  501    0  0.00000000000E+00  0.00000000000E+00 -0.54882473482E+03  0.54882473485E+03  0.50400001928E-02 0. -1.
    10030    2    1    2    0    0  0.00000000000E+00  0.00000000000E+00  0.22551854957E+04  0.33528349654E+04  0.24810563647E+04 0.  0.
        4    1    3    3  502    0 -0.99576084349E+03  0.62842241762E+03  0.59994365667E+03  0.13215098927E+04  0.12699999809E+01 0.  1.
       -4    1    3    3    0  502  0.99576084349E+03 -0.62842241762E+03  0.16552418390E+04  0.20313250727E+04  0.12699999809E+01 0. -1.
</event>
<event>
 5   0  0.1435062E-05  0.2645898E+04  0.7818609E-02  0.8352776E-01
        1   -1    0    0  501    0  0.00000000000E+00  0.00000000000E+00  0.14570377860E+04  0.14570377860E+04  0.50400001928E-02 0. -1.
       -1   -1    0    0    0  501  0.00000000000E+00  0.00000000000E+00 -0.12011998828E+04  0.12011998828E+04  0.50400001928E-02 0.  1.
    10030    2    1    2    0    0  0.00000000000E+00  0.00000000000E+00  0.25583790321E+03  0.26582376688E+04  0.26458976683E+04 0.  0.
        2    1    3    3  502    0 -0.53851438481E+03 -0.11938548884E+04 -0.59784895367E+02  0.13110535729E+04  0.25500000920E-02 0.  1.
       -2    1    3    3    0  502  0.53851438481E+03  0.11938548884E+04  0.31562279858E+03  0.13471840959E+04  0.25500000920E-02 0. -1.
</event>
<event>
 5   0  0.3499642E-05  0.2602984E+04  0.7818609E-02  0.8367188E-01
       -2   -1    0    0    0  501  0.00000000000E+00  0.00000000000E+00  0.10177807747E+04  0.10177807747E+04  0.25500000920E-02 0. -1.
        2   -1    0    0  501    0  0.00000000000E+00  0.00000000000E+00 -0.16642892843E+04  0.16642892843E+04  0.25500000920E-02 0.  1.
    10030    2    1    2    0    0  0.00000000000E+00  0.00000000000E+00 -0.64650850951E+03  0.26820700590E+04  0.26029841622E+04 0.  0.
        2    1    3    3  502    0  0.10474683964E+04 -0.36709706609E+02 -0.11182825404E+04  0.15326752703E+04  0.25500000920E-02 0.  1.
       -2    1    3    3    0  502 -0.10474683964E+04  0.36709706609E+02  0.47177403086E+03  0.11493947887E+04  0.25500000920E-02 0. -1.
</event>
<event>
 5   0  0.1217200E-05  0.2579261E+04  0.7818609E-02  0.8375280E-01
       -3   -1    0    0    0  501  0.00000000000E+00  0.00000000000E+00  0.18267301655E+04  0.18267301683E+04  0.10100000352E+00 0.  1.
        3   -1    0    0  501    0  0.00000000000E+00  0.00000000000E+00 -0.91045012584E+03  0.91045013144E+03  0.10100000352E+00 0. -1.
    10030    2    1    2    0    0  0.00000000000E+00  0.00000000000E+00  0.91628003967E+03  0.27371802997E+04  0.25792609178E+04 0.  0.
        4    1    3    3  502    0 -0.10926596645E+04  0.67436182347E+03  0.58582324943E+03  0.14113325277E+04  0.12699999809E+01 0.  1.
       -4    1    3    3    0  502  0.10926596645E+04 -0.67436182347E+03  0.33045679024E+03  0.13258477720E+04  0.12699999809E+01 0. -1.
</event>
<event>
 5   0  0.3508470E-05  0.2661756E+04  0.7818609E-02  0.8347521E-01
       -2   -1    0    0    0  501  0.00000000000E+00  0.00000000000E+00  0.15864576235E+04  0.15864576235E+04  0.25500000920E-02 0. -1.
        2   -1    0    0  501    0  0.00000000000E+00  0.00000000000E+00 -0.11164727893E+04  0.11164727893E+04  0.25500000920E-02 0.  1.
    10030    2    1    2    0    0  0.00000000000E+00  0.00000000000E+00  0.46998483425E+03  0.27029304128E+04  0.26617563886E+04 0.  0.
        5    1    3    3  502    0  0.78773864479E+02 -0.24505238374E+03  0.15609312488E+04  0.15820191042E+04  0.46999998093E+01 0. -1.
       -5    1    3    3    0  502 -0.78773864479E+02  0.24505238374E+03 -0.10909464145E+04  0.11209113087E+04  0.46999998093E+01 0.  1.
</event>
<event>
 5   0  0.3508470E-05  0.2602817E+04  0.7818609E-02  0.8367245E-01
        2   -1    0    0  501    0  0.00000000000E+00  0.00000000000E+00  0.11835770387E+04  0.11835770387E+04  0.25500000920E-02 0.  1.
       -2   -1    0    0    0  501  0.00000000000E+00  0.00000000000E+00 -0.14309709532E+04  0.14309709532E+04  0.25500000920E-02 0. -1.
    10030    2    1    2    0    0  0.00000000000E+00  0.00000000000E+00 -0.24739391452E+03  0.26145479920E+04  0.26028172147E+04 0.  0.
        5    1    3    3  502    0 -0.29653806973E+03  0.89935080017E+03  0.77300518642E+03  0.12224261928E+04  0.46999998093E+01 0.  1.
       -5    1    3    3    0  502  0.29653806973E+03 -0.89935080017E+03 -0.10203991009E+04  0.13921217992E+04  0.46999998093E+01 0. -1.
</event>
<event>
 5   0  0.3441646E-05  0.2626590E+04  0.7818609E-02  0.8359225E-01
       -2   -1    0    0    0  501  0.00000000000E+00  0.00000000000E+00  0.90185473946E+03  0.90185473947E+03  0.25500000920E-02 0. -1.
        2   -1    0    0  501    0  0.00000000000E+00  0.00000000000E+00 -0.19124402657E+04  0.19124402657E+04  0.25500000920E-02 0.  1.
    10030    2    1    2    0    0  0.00000000000E+00  0.00000000000E+00 -0.10105855262E+04  0.28142950052E+04  0.26265896654E+04 0.  0.
        4    1    3    3  502    0  0.12714360269E+04 -0.29836222850E+03 -0.65365125167E+03  0.14604215698E+04  0.12699999809E+01 0.  1.
       -4    1    3    3    0  502 -0.12714360269E+04  0.29836222850E+03 -0.35693427457E+03  0.13538734354E+04  0.12699999809E+01 0. -1.
</event>
<event>
 5   0  0.1533248E-05  0.2585651E+04  0.7818609E-02  0.8373092E-01
       -1   -1    0    0    0  501  0.00000000000E+00  0.00000000000E+00  0.14443814694E+04  0.14443814694E+04  0.50400001928E-02 0. -1.
        1   -1    0    0  501    0  0.00000000000E+00  0.00000000000E+00 -0.11571715917E+04  0.11571715917E+04  0.50400001928E-02 0.  1.
    10030    2    1    2    0    0  0.00000000000E+00  0.00000000000E+00  0.28720987775E+03  0.26015530611E+04  0.25856505595E+04 0.  0.
        4    1    3    3  502    0  0.32993092721E+03  0.11568117263E+04  0.62015047908E+03  0.13533868688E+04  0.12699999809E+01 0. -1.
       -4    1    3    3    0  502 -0.32993092721E+03 -0.11568117263E+04 -0.33294060133E+03  0.12481661924E+04  0.12699999809E+01 0.  1.
</event>
<event>
 5   0  0.1435062E-05  0.1680670E+04  0.7818609E-02  0.8772466E-01
       -1   -1    0    0    0  501  0.00000000000E+00  0.00000000000E+00  0.12245245544E+04  0.12245245544E+04  0.50400001928E-02 0. -1.
        1   -1    0    0  501    0  0.00000000000E+00  0.00000000000E+00 -0.57668362205E+03  0.57668362207E+03  0.50400001928E-02 0.  1.
    10030    2    1    2    0    0  0.00000000000E+00  0.00000000000E+00  0.64784093239E+03  0.18012081765E+04  0.16806704083E+04 0.  0.
        2    1    3    3  502    0  0.53615287530E+03 -0.39354522361E+03 -0.22655725459E+03  0.70261364799E+03  0.25500000920E-02 0.  1.
       -2    1    3    3    0  502 -0.53615287530E+03  0.39354522361E+03  0.87439818698E+03  0.10985945285E+04  0.25500000920E-02 0. -1.
</event>
<event>
 5   0  0.3499642E-05  0.2610899E+04  0.7818609E-02  0.8364509E-01
       -2   -1    0    0    0  501  0.00000000000E+00  0.00000000000E+00  0.99148548161E+03  0.99148548161E+03  0.25500000920E-02 0. -1.
        2   -1    0    0  501    0  0.00000000000E+00  0.00000000000E+00 -0.17188327889E+04  0.17188327889E+04  0.25500000920E-02 0.  1.
    10030    2    1    2    0    0  0.00000000000E+00  0.00000000000E+00 -0.72734730728E+03  0.27103182705E+04  0.26108985086E+04 0.  0.
        2    1    3    3  502    0 -0.40513203445E+03  0.57658148948E+03 -0.15044365176E+04  0.16612969075E+04  0.25500000920E-02 0.  1.
       -2    1    3    3    0  502  0.40513203445E+03 -0.57658148948E+03  0.77708921030E+03  0.10490213630E+04  0.25500000920E-02 0. -1.
</event>
<event>
 5   0  0.1435062E-05  0.2506406E+04  0.7818609E-02  0.8400707E-01
       -1   -1    0    0    0  501  0.00000000000E+00  0.00000000000E+00  0.10002542826E+04  0.10002542827E+04  0.50400001928E-02 0. -1.
        1   -1    0    0  501    0  0.00000000000E+00  0.00000000000E+00 -0.15701182869E+04  0.15701182869E+04  0.50400001928E-02 0.  1.
    10030    2    1    2    0    0  0.00000000000E+00  0.00000000000E+00 -0.56986400422E+03  0.25703725695E+04  0.25064058257E+04 0.  0.
        2    1    3    3  502    0 -0.91646649961E+03  0.44544479730E+03  0.46319659810E+03  0.11193225634E+04  0.25500000920E-02 0. -1.
       -2    1    3    3    0  502  0.91646649961E+03 -0.44544479730E+03 -0.10330606023E+04  0.14510500062E+04  0.25500000920E-02 0.  1.
</event>
<event>
 5   0  0.3647623E-05  0.3080043E+04  0.7818609E-02  0.8221236E-01
        2   -1    0    0  501    0  0.00000000000E+00  0.00000000000E+00  0.15812826327E+04  0.15812826327E+04  0.25500000920E-02 0. -1.
       -2   -1    0    0    0  501  0.00000000000E+00  0.00000000000E+00 -0.14998371176E+04  0.14998371176E+04  0.25500000920E-02 0.  1.
    10030    2    1    2    0    0  0.00000000000E+00  0.00000000000E+00  0.81445515090E+02  0.30811197503E+04  0.30800431074E+04 0.  0.
        3    1    3    3  502    0 -0.73996768831E+03  0.33307112085E+03 -0.12686189594E+04  0.15059490780E+04  0.10100000352E+00 0.  1.
       -3    1    3    3    0  502  0.73996768831E+03 -0.33307112085E+03  0.13500644745E+04  0.15751706723E+04  0.10100000352E+00 0. -1.
</event>
<event>
 5   0  0.3508470E-05  0.2627294E+04  0.7818609E-02  0.8358989E-01
        2   -1    0    0  501    0  0.00000000000E+00  0.00000000000E+00  0.12989733962E+04  0.12989733962E+04  0.25500000920E-02 0. -1.
       -2   -1    0    0    0  501  0.00000000000E+00  0.00000000000E+00 -0.13284861942E+04  0.13284861942E+04  0.25500000920E-02 0.  1.
    10030    2    1    2    0    0  0.00000000000E+00  0.00000000000E+00 -0.29512798083E+02  0.26274595904E+04  0.26272938347E+04 0.  0.
        5    1    3    3  502    0  0.12896931327E+04 -0.11989267575E+03 -0.23377593128E+03  0.13161899203E+04  0.46999998093E+01 0. -1.
       -5    1    3    3    0  502 -0.12896931327E+04  0.11989267575E+03  0.20426313320E+03  0.13112696701E+04  0.46999998093E+01 0.  1.
</event>
<event>
 5   0  0.1474554E-05  0.2563390E+04  0.7818609E-02  0.8380744E-01
       -1   -1    0    0    0  501  0.00000000000E+00  0.00000000000E+00  0.10050585839E+04  0.10050585839E+04  0.50400001928E-02 0.  1.
        1   -1    0    0  501    0  0.00000000000E+00  0.00000000000E+00 -0.16344734727E+04  0.16344734727E+04  0.50400001928E-02 0. -1.
    10030    2    1    2    0    0  0.00000000000E+00  0.00000000000E+00 -0.62941488880E+03  0.26395320566E+04  0.25633896262E+04 0.  0.
        5    1    3    3  502    0 -0.52271997169E+03  0.50152596625E+03  0.77403332886E+03  0.10601481726E+04  0.46999998093E+01 0. -1.
       -5    1    3    3    0  502  0.52271997169E+03 -0.50152596625E+03 -0.14034482177E+04  0.15793838841E+04  0.46999998093E+01 0.  1.
</event>
<event>
 5   0  0.1497497E-05  0.2578877E+04  0.7818609E-02  0.8375412E-01
       -1   -1    0    0    0  501  0.00000000000E+00  0.00000000000E+00  0.15423938505E+04  0.15423938505E+04  0.50400001928E-02 0. -1.
        1   -1    0    0  501    0  0.00000000000E+00  0.00000000000E+00 -0.10779683434E+04  0.10779683435E+04  0.50400001928E-02 0.  1.
    10030    2    1    2    0    0  0.00000000000E+00  0.00000000000E+00  0.46442550704E+03  0.26203621939E+04  0.25788770765E+04 0.  0.
        3    1    3    3  502    0 -0.92485420484E+02  0.10929519828E+04  0.92102209216E+03  0.14322636957E+04  0.10100000352E+00 0.  1.
       -3    1    3    3    0  502  0.92485420484E+02 -0.10929519828E+04 -0.45659658512E+03  0.11880984982E+04  0.10100000352E+00 0. -1.
</event>
<event>
 5   0  0.3647623E-05  0.2354545E+04  0.7818609E-02  0.8456720E-01
       -2   -1    0    0    0  501  0.00000000000E+00  0.00000000000E+00  0.11328533635E+04  0.11328533635E+04  0.25500000920E-02 0.  1.
        2   -1    0    0  501    0  0.00000000000E+00  0.00000000000E+00 -0.12234331364E+04  0.12234331364E+04  0.25500000920E-02 0. -1.
    10030    2    1    2    0    0  0.00000000000E+00  0.00000000000E+00 -0.90579772898E+02  0.23562864999E+04  0.23545448338E+04 0.  0.
        3    1    3    3  502    0 -0.93419570666E+03  0.59590693432E+03 -0.44325682753E+03  0.11934417950E+04  0.10100000352E+00 0.  1.
       -3    1    3    3    0  502  0.93419570666E+03 -0.59590693432E+03  0.35267705463E+03  0.11628447049E+04  0.10100000352E+00 0. -1.
</event>
<event>
 5   0  0.3441646E-05  0.2500461E+04  0.7818609E-02  0.8402821E-01
        2   -1    0    0  501    0  0.00000000000E+00  0.00000000000E+00  0.22420583390E+04  0.22420583390E+04  0.25500000920E-02 0.  1.
       -2   -1    0    0    0  501  0.00000000000E+00  0.00000000000E+00 -0.69716125257E+03  0.69716125258E+03  0.25500000920E-02 0. -1.
    10030    2    1    2    0    0  0.00000000000E+00  0.00000000000E+00  0.15448970864E+04  0.29392195915E+04  0.25004609175E+04 0.  0.
        4    1    3    3  502    0  0.70595057569E+03  0.48800985285E+03 -0.29623169187E+03  0.90789573188E+03  0.12699999809E+01 0. -1.
       -4    1    3    3    0  502 -0.70595057569E+03 -0.48800985285E+03  0.18411287783E+04  0.20313238597E+04  0.12699999809E+01 0.  1.
</event>
<event>
 5   0  0.3849687E-05  0.2563886E+04  0.7818609E-02  0.8380573E-01
        2   -1    0    0  501    0  0.00000000000E+00  0.00000000000E+00  0.10290817644E+04  0.10290817644E+04  0.25500000920E-02 0. -1.
       -2   -1    0    0    0  501  0.00000000000E+00  0.00000000000E+00 -0.15969355569E+04  0.15969355569E+04  0.25500000920E-02 0.  1.
    10030    2    1    2    0    0  0.00000000000E+00  0.00000000000E+00 -0.56785379253E+03  0.26260173213E+04  0.25638855360E+04 0.  0.
        1    1    3    3  502    0  0.50939658493E+03  0.11717853102E+04 -0.39042534083E+03  0.13360380387E+04  0.50400001928E-02 0.  1.
       -1    1    3    3    0  502 -0.50939658493E+03 -0.11717853102E+04 -0.17742845170E+03  0.12899792826E+04  0.50400001928E-02 0. -1.
</event>
<event>
 5   0  0.3499642E-05  0.2286590E+04  0.7818609E-02  0.8483227E-01
       -2   -1    0    0    0  501  0.00000000000E+00  0.00000000000E+00  0.75531881901E+03  0.75531881902E+03  0.25500000920E-02 0.  1.
        2   -1    0    0  501    0  0.00000000000E+00  0.00000000000E+00 -0.17305591601E+04  0.17305591601E+04  0.25500000920E-02 0. -1.
    10030    2    1    2    0    0  0.00000000000E+00  0.00000000000E+00 -0.97524034112E+03  0.24858779792E+04  0.22865903884E+04 0.  0.
        2    1    3    3  502    0 -0.92366664951E+03 -0.62962653137E+03 -0.74838839605E+03  0.13452415544E+04  0.25500000920E-02 0.  1.
       -2    1    3    3    0  502  0.92366664951E+03  0.62962653137E+03 -0.22685194507E+03  0.11406364247E+04  0.25500000920E-02 0. -1.
</event>
<event>
 5   0  0.1451052E-05  0.2592224E+04  0.7818609E-02  0.8370847E-01
        1   -1    0    0  501    0  0.00000000000E+00  0.00000000000E+00  0.14654891063E+04  0.14654891064E+04  0.50400001928E-02 0.  1.
       -1   -1    0    0    0  501  0.00000000000E+00  0.00000000000E+00 -0.11463107844E+04  0.11463107844E+04  0.50400001928E-02 0. -1.
    10030    2    1    2    0    0  0.00000000000E+00  0.00000000000E+00  0.31917832199E+03  0.26117998907E+04  0.25922237303E+04 0.  0.
        1    1    3    3  502    0  0.53023673875E+03 -0.11474016851E+04 -0.12932419413E+03  0.12705929219E+04  0.50400001928E-02 0.  1.
       -1    1    3    3    0  502 -0.53023673875E+03  0.11474016851E+04  0.44850251612E+03  0.13412069688E+04  0.50400001928E-02 0. -1.
</event>
<event>
 5   0  0.3441646E-05  0.2570588E+04  0.7818609E-02  0.8378261E-01
        2   -1    0    0  501    0  0.00000000000E+00  0.00000000000E+00  0.17549540866E+04  0.17549540866E+04  0.25500000920E-02 0. -1.
       -2   -1    0    0    0  501  0.00000000000E+00  0.00000000000E+00 -0.94132445134E+03  0.94132445135E+03  0.25500000920E-02 0.  1.
    10030    2    1    2    0    0  0.00000000000E+00  0.00000000000E+00  0.81362963521E+03  0.26962785379E+04  0.25705884094E+04 0.  0.
        4    1    3    3  502    0  0.10466356316E+04  0.52228711943E+03  0.96554204852E+03  0.15167409274E+04  0.12699999809E+01 0.  1.
       -4    1    3    3    0  502 -0.10466356316E+04 -0.52228711943E+03 -0.15191241331E+03  0.11795376105E+04  0.12699999809E+01 0. -1.
</event>
<event>
 5   0  0.3441646E-05  0.2600783E+04  0.7818609E-02  0.8367935E-01
       -2   -1    0    0    0  501  0.00000000000E+00  0.00000000000E+00  0.10652921762E+04  0.10652921762E+04  0.25500000920E-02 0.  1.
        2   -1    0    0  501    0  0.00000000000E+00  0.00000000000E+00 -0.15873745952E+04  0.15873745952E+04  0.25500000920E-02 0. -1.
    10030    2    1    2    0    0  0.00000000000E+00  0.00000000000E+00 -0.52208241895E+03  0.26526667714E+04  0.26007827568E+04 0.  0.
        4    1    3    3  502    0  0.52813591362E+03 -0.92920596825E+03  0.49445482479E+03  0.11776410579E+04  0.12699999809E+01 0.  1.
       -4    1    3    3    0  502 -0.52813591362E+03  0.92920596825E+03 -0.10165372437E+04  0.14750257135E+04  0.12699999809E+01 0. -1.
</event>
<event>
 5   0  0.3647623E-05  0.2614260E+04  0.7818609E-02  0.8363373E-01
        2   -1    0    0  501    0  0.00000000000E+00  0.00000000000E+00  0.12629451363E+04  0.12629451363E+04  0.25500000920E-02 0. -1.
       -2   -1    0    0    0  501  0.00000000000E+00  0.00000000000E+00 -0.13528610355E+04  0.13528610355E+04  0.25500000920E-02 0.  1.
    10030    2    1    2    0    0  0.00000000000E+00  0.00000000000E+00 -0.89915899183E+02  0.26158061718E+04  0.26142603274E+04 0.  0.
        3    1    3    3  502    0 -0.16743794666E+03 -0.80423191406E+03  0.97238551961E+03  0.12729328523E+04  0.10100000352E+00 0. -1.
       -3    1    3    3    0  502  0.16743794666E+03  0.80423191406E+03 -0.10623014188E+04  0.13428733195E+04  0.10100000352E+00 0.  1.
</event>
<event>
 5   0  0.1474554E-05  0.2625472E+04  0.7818609E-02  0.8359600E-01
        1   -1    0    0  501    0  0.00000000000E+00  0.00000000000E+00  0.18089620064E+04  0.18089620064E+04  0.50400001928E-02 0. -1.
       -1   -1    0    0    0  501  0.00000000000E+00  0.00000000000E+00 -0.95263262880E+03  0.95263262881E+03  0.50400001928E-02 0.  1.
    10030    2    1    2    0    0  0.00000000000E+00  0.00000000000E+00  0.85632937763E+03  0.27615946352E+04  0.26254723244E+04 0.  0.
        5    1    3    3  502    0 -0.26914307034E+03  0.87436292119E+03 -0.56208391795E+03  0.10737359690E+04  0.46999998093E+01 0.  1.
       -5    1    3    3    0  502  0.26914307034E+03 -0.87436292119E+03  0.14184132956E+04  0.16878586663E+04  0.46999998093E+01 0. -1.
</event>
<event>
 5   0  0.1435062E-05  0.2606150E+04  0.7818609E-02  0.8366115E-01
       -1   -1    0    0    0  501  0.00000000000E+00  0.00000000000E+00  0.81612188691E+03  0.81612188693E+03  0.50400001928E-02 0.  1.
        1   -1    0    0  501    0  0.00000000000E+00  0.00000000000E+00 -0.20805776820E+04  0.20805776820E+04  0.50400001928E-02 0. -1.
    10030    2    1    2    0    0  0.00000000000E+00  0.00000000000E+00 -0.12644557951E+04  0.28966995689E+04  0.26061504053E+04 0.  0.
        2    1    3    3  502    0 -0.53911890720E+03 -0.86711375368E+03 -0.15320988462E+04  0.18411578782E+04  0.25500000920E-02 0.  1.
       -2    1    3    3    0  502  0.53911890720E+03  0.86711375368E+03  0.26764305117E+03  0.10555416907E+04  0.25500000920E-02 0. -1.
</event>
<event>
 5   0  0.3849687E-05  0.2692387E+04  0.7818609E-02  0.8337479E-01
       -2   -1    0    0    0  501  0.00000000000E+00  0.00000000000E+00  0.13079539045E+04  0.13079539045E+04  0.25500000920E-02 0. -1.
        2   -1    0    0  501    0  0.00000000000E+00  0.00000000000E+00 -0.13855507607E+04  0.13855507607E+04  0.25500000920E-02 0.  1.
    10030    2    1    2    0    0  0.00000000000E+00  0.00000000000E+00 -0.77596856226E+02  0.26935046652E+04  0.26923866938E+04 0.  0.
        1    1    3    3  502    0  0.51616406247E+03  0.63937362151E+03  0.10279522500E+04  0.13160204389E+04  0.50400001928E-02 0. -1.
       -1    1    3    3    0  502 -0.51616406247E+03 -0.63937362151E+03 -0.11055491062E+04  0.13774842263E+04  0.50400001928E-02 0.  1.
</event>
<event>
 5   0  0.3441646E-05  0.2584979E+04  0.7818609E-02  0.8373321E-01
        2   -1    0    0  501    0  0.00000000000E+00  0.00000000000E+00  0.13638445484E+04  0.13638445484E+04  0.25500000920E-02 0.  1.
       -2   -1    0    0    0  501  0.00000000000E+00  0.00000000000E+00 -0.12248676845E+04  0.12248676845E+04  0.25500000920E-02 0. -1.
    10030    2    1    2    0    0  0.00000000000E+00  0.00000000000E+00  0.13897686392E+03  0.25887122329E+04  0.25849790050E+04 0.  0.
        4    1    3    3  502    0 -0.97312644055E+03  0.12487109188E+03 -0.77313009989E+03  0.12491195392E+04  0.12699999809E+01 0. -1.
       -4    1    3    3    0  502  0.97312644055E+03 -0.12487109188E+03  0.91210696381E+03  0.13395926938E+04  0.12699999809E+01 0.  1.
</event>
<event>
 5   0  0.3647623E-05  0.2587076E+04  0.7818609E-02  0.8372605E-01
       -2   -1    0    0    0  501  0.00000000000E+00  0.00000000000E+00  0.73312336020E+03  0.73312336021E+03  0.25500000920E-02 0.  1.
        2   -1    0    0  501    0  0.00000000000E+00  0.00000000000E+00 -0.22823443533E+04  0.22823443533E+04  0.25500000920E-02 0. -1.
    10030    2    1    2    0    0  0.00000000000E+00  0.00000000000E+00 -0.15492209931E+04  0.30154677135E+04  0.25870755392E+04 0.  0.
        3    1    3    3  502    0  0.37368389397E+02  0.61341275574E+03 -0.21013196862E+04  0.21893414625E+04  0.10100000352E+00 0. -1.
       -3    1    3    3    0  502 -0.37368389397E+02 -0.61341275574E+03  0.55209869315E+03  0.82612625101E+03  0.10100000352E+00 0.  1.
</event>
<event>
 5   0  0.1451052E-05  0.2585867E+04  0.7818609E-02  0.8373018E-01
       -1   -1    0    0    0  501  0.00000000000E+00  0.00000000000E+00  0.67619826628E+03  0.67619826630E+03  0.50400001928E-02 0.  1.
        1   -1    0    0  501    0  0.00000000000E+00  0.00000000000E+00 -0.24721702228E+04  0.24721702228E+04  0.50400001928E-02 0. -1.
    10030    2    1    2    0    0  0.00000000000E+00  0.00000000000E+00 -0.17959719565E+04  0.31483684891E+04  0.25858671417E+04 0.  0.
        1    1    3    3  502    0  0.39397901115E+03 -0.10793783836E+04 -0.16197251329E+04  0.19858969415E+04  0.50400001928E-02 0. -1.
       -1    1    3    3    0  502 -0.39397901115E+03  0.10793783836E+04 -0.17624682363E+03  0.11624715476E+04  0.50400001928E-02 0.  1.
</event>
<event>
 5   0  0.3499642E-05  0.2606900E+04  0.7818609E-02  0.8365861E-01
        2   -1    0    0  501    0  0.00000000000E+00  0.00000000000E+00  0.11237988222E+04  0.11237988222E+04  0.25500000920E-02 0. -1.
       -2   -1    0    0    0  501  0.00000000000E+00  0.00000000000E+00 -0.15118199026E+04  0.15118199026E+04  0.25500000920E-02 0.  1.
    10030    2    1    2    0    0  0.00000000000E+00  0.00000000000E+00 -0.38802108045E+03  0.26356187248E+04  0.26068996344E+04 0.  0.
        2    1    3    3  502    0  0.90877189539E+03 -0.58797170905E+03  0.54021607233E+03  0.12097150463E+04  0.25500000920E-02 0. -1.
       -2    1    3    3    0  502 -0.90877189539E+03  0.58797170905E+03 -0.92823715278E+03  0.14259036785E+04  0.25500000920E-02 0.  1.
</event>
<event>
 5   0  0.1451052E-05  0.2550190E+04  0.7818609E-02  0.8385320E-01
        1   -1    0    0  501    0  0.00000000000E+00  0.00000000000E+00  0.22062229498E+04  0.22062229498E+04  0.50400001928E-02 0.  1.
       -1   -1    0    0    0  501  0.00000000000E+00  0.00000000000E+00 -0.73694600281E+03  0.73694600283E+03  0.50400001928E-02 0. -1.
    10030    2    1    2    0    0  0.00000000000E+00  0.00000000000E+00  0.14692769470E+04  0.29431689527E+04  0.25501899413E+04 0.  0.
        1    1    3    3  502    0 -0.12762527145E+03 -0.46838069523E+03 -0.62612007916E+03  0.79227207393E+03  0.50400001928E-02 0. -1.
       -1    1    3    3    0  502  0.12762527145E+03  0.46838069523E+03  0.20953970262E+04  0.21508968787E+04  0.50400001928E-02 0.  1.
</event>
<event>
 5   0  0.1435062E-05  0.2614387E+04  0.7818609E-02  0.8363331E-01
       -1   -1    0    0    0  501  0.00000000000E+00  0.00000000000E+00  0.74112806214E+03  0.74112806215E+03  0.50400001928E-02 0.  1.
        1   -1    0    0  501    0  0.00000000000E+00  0.00000000000E+00 -0.23056137432E+04  0.23056137432E+04  0.50400001928E-02 0. -1.
    10030    2    1    2    0    0  0.00000000000E+00  0.00000000000E+00 -0.15644856811E+04  0.30467418054E+04  0.26143871523E+04 0.  0.
        2    1    3    3  502    0 -0.68393602603E+03  0.44235571224E+03 -0.19737259342E+04  0.21351911219E+04  0.25500000920E-02 0. -1.
       -2    1    3    3    0  502  0.68393602603E+03 -0.44235571224E+03  0.40924025306E+03  0.91155068349E+03  0.25500000920E-02 0.  1.
</event>
<event>
 5   0  0.3508470E-05  0.2511310E+04  0.7818609E-02  0.8398967E-01
        2   -1    0    0  501    0  0.00000000000E+00  0.00000000000E+00  0.13059953160E+04  0.13059953160E+04  0.25500000920E-02 0. -1.
       -2   -1    0    0    0  501  0.00000000000E+00  0.00000000000E+00 -0.12072551223E+04  0.12072551223E+04  0.25500000920E-02 0.  1.
    10030    2    1    2    0    0  0.00000000000E+00  0.00000000000E+00  0.98740193647E+02  0.25132504383E+04  0.25113100446E+04 0.  0.
        5    1    3    3  502    0 -0.61612191957E+03 -0.91540972433E+03 -0.55031427840E+03  0.12330649124E+04  0.46999998093E+01 0.  1.
       -5    1    3    3    0  502  0.61612191957E+03  0.91540972433E+03  0.64905447204E+03  0.12801855260E+04  0.46999998093E+01 0. -1.
</event>
<event>
 5   0  0.1451052E-05  0.2601139E+04  0.7818609E-02  0.8367814E-01
        1   -1    0    0  501    0  0.00000000000E+00  0.00000000000E+00  0.12373670438E+04  0.12373670438E+04  0.50400001928E-02 0. -1.
       -1   -1    0    0    0  501  0.00000000000E+00  0.00000000000E+00 -0.13670000597E+04  0.13670000598E+04  0.50400001928E-02 0.  1.
    10030    2    1    2    0    0  0.00000000000E+00  0.00000000000E+00 -0.12963301597E+03  0.26043671035E+04  0.26011388450E+04 0.  0.
        1    1    3    3  502    0 -0.29184214993E+03 -0.12268057534E+04  0.25378688134E+03  0.12863249894E+04  0.50400001928E-02 0. -1.
       -1    1    3    3    0  502  0.29184214993E+03  0.12268057534E+04 -0.38341989731E+03  0.13180421142E+04  0.50400001928E-02 0.  1.
</event>
<event>
 5   0  0.3441646E-05  0.2522237E+04  0.7818609E-02  0.8395106E-01
        2   -1    0    0  501    0  0.00000000000E+00  0.00000000000E+00  0.18983908768E+04  0.18983908768E+04  0.25500000920E-02 0. -1.
       -2   -1    0    0    0  501  0.00000000000E+00  0.00000000000E+00 -0.83777261838E+03  0.83777261838E+03  0.25500000920E-02 0.  1.
    10030    2    1    2    0    0  0.00000000000E+00  0.00000000000E+00  0.10606182584E+04  0.27361634952E+04  0.25222370195E+04 0.  0.
        4    1    3    3  502    0  0.95026594607E+03 -0.73320938748E+03  0.95020012763E+03  0.15308439730E+04  0.12699999809E+01 0. -1.
       -4    1    3    3    0  502 -0.95026594607E+03  0.73320938748E+03  0.11041813081E+03  0.12053195222E+04  0.12699999809E+01 0.  1.
</event>
<event>
 5   0  0.1217200E-05  0.2823650E+04  0.7818609E-02  0.8295963E-01
       -3   -1    0    0    0  501  0.00000000000E+00  0.00000000000E+00  0.18745845897E+04  0.18745845924E+04  0.10100000352E+00 0.  1.
        3   -1    0    0  501    0  0.00000000000E+00  0.00000000000E+00 -0.10633022854E+04  0.10633022902E+04  0.10100000352E+00 0. -1.
    10030    2    1    2    0    0  0.00000000000E+00  0.00000000000E+00  0.81128230429E+03  0.29378868826E+04  0.28236501833E+04 0.  0.
        1    1    3    3  502    0 -0.38230899917E+03  0.13082562185E+04  0.78871533750E+03  0.15747274011E+04  0.50400001928E-02 0.  1.
       -1    1    3    3    0  502  0.38230899917E+03 -0.13082562185E+04  0.22566966785E+02  0.13631594815E+04  0.50400001928E-02 0. -1.
</event>
<event>
 5   0  0.3647623E-05  0.2583376E+04  0.7818609E-02  0.8373870E-01
        2   -1    0    0  501    0  0.00000000000E+00  0.00000000000E+00  0.18743679002E+04  0.18743679002E+04  0.25500000920E-02 0. -1.
       -2   -1    0    0    0  501  0.00000000000E+00  0.00000000000E+00 -0.89014404369E+03  0.89014404369E+03  0.25500000920E-02 0.  1.
    10030    2    1    2    0    0  0.00000000000E+00  0.00000000000E+00  0.98422385650E+03  0.27645119439E+04  0.25833756382E+04 0.  0.
        3    1    3    3  502    0  0.14374854328E+03 -0.48059019049E+03  0.17658768894E+04  0.18357428397E+04  0.10100000352E+00 0. -1.
       -3    1    3    3    0  502 -0.14374854328E+03  0.48059019049E+03 -0.78165303287E+03  0.92876910418E+03  0.10100000352E+00 0.  1.
</event>
<event>
 5   0  0.3647623E-05  0.2534709E+04  0.7818609E-02  0.8390723E-01
        2   -1    0    0  501    0  0.00000000000E+00  0.00000000000E+00  0.21092827727E+04  0.21092827727E+04  0.25500000920E-02 0.  1.
       -2   -1    0    0    0  501  0.00000000000E+00  0.00000000000E+00 -0.76148537540E+03  0.76148537540E+03  0.25500000920E-02 0. -1.
    10030    2    1    2    0    0  0.00000000000E+00  0.00000000000E+00  0.13477973973E+04  0.28707681481E+04  0.25347094382E+04 0.  0.
        3    1    3    3  502    0 -0.55955980358E+03  0.11295993920E+04  0.82194252827E+03  0.15048891953E+04  0.10100000352E+00 0.  1.
       -3    1    3    3    0  502  0.55955980358E+03 -0.11295993920E+04  0.52585486899E+03  0.13658789528E+04  0.10100000352E+00 0. -1.
</event>
<event>
 5   0  0.1497497E-05  0.2387827E+04  0.7818609E-02  0.8444075E-01
        1   -1    0    0  501    0  0.00000000000E+00  0.00000000000E+00  0.14848061246E+04  0.14848061246E+04  0.50400001928E-02 0.  1.
       -1   -1    0    0    0  501  0.00000000000E+00  0.00000000000E+00 -0.96001055895E+03  0.96001055896E+03  0.50400001928E-02 0. -1.
    10030    2    1    2    0    0  0.00000000000E+00  0.00000000000E+00  0.52479556567E+03  0.24448166836E+04  0.23878270940E+04 0.  0.
        3    1    3    3  502    0 -0.70883478463E+03 -0.89006297864E+03 -0.10785525613E+03  0.11429311547E+04  0.10100000352E+00 0. -1.
       -3    1    3    3    0  502  0.70883478463E+03  0.89006297864E+03  0.63265082180E+03  0.13018855289E+04  0.10100000352E+00 0.  1.
</event>
<event>
 5   0  0.3499642E-05  0.2555339E+04  0.7818609E-02  0.8383532E-01
        2   -1    0    0  501    0  0.00000000000E+00  0.00000000000E+00  0.21857047173E+04  0.21857047173E+04  0.25500000920E-02 0.  1.
       -2   -1    0    0    0  501  0.00000000000E+00  0.00000000000E+00 -0.74687091393E+03  0.74687091393E+03  0.25500000920E-02 0. -1.
    10030    2    1    2    0    0  0.00000000000E+00  0.00000000000E+00  0.14388338034E+04  0.29325756313E+04  0.25553389441E+04 0.  0.
        2    1    3    3  502    0 -0.11270313794E+04 -0.53040402149E+03  0.10458579952E+04  0.16264523056E+04  0.25500000920E-02 0.  1.
       -2    1    3    3    0  502  0.11270313794E+04  0.53040402149E+03  0.39297580820E+03  0.13061233257E+04  0.25500000920E-02 0. -1.
</event>
<event>
 5   0  0.3441646E-05  0.2335258E+04  0.7818609E-02  0.8464148E-01
        2   -1    0    0  501    0  0.00000000000E+00  0.00000000000E+00  0.16570968090E+04  0.16570968090E+04  0.25500000920E-02 0. -1.
       -2   -1    0    0    0  501  0.00000000000E+00  0.00000000000E+00 -0.82273861211E+03  0.82273861211E+03  0.25500000920E-02 0.  1.
    10030    2    1    2    0    0  0.00000000000E+00  0.00000000000E+00  0.83435819685E+03  0.24798354211E+04  0.23352580403E+04 0.  0.
        4    1    3    3  502    0 -0.17747681486E+03 -0.36807193487E+03 -0.74433029649E+03  0.84911964542E+03  0.12699999809E+01 0.  1.
       -4    1    3    3    0  502  0.17747681486E+03  0.36807193487E+03  0.15786884933E+04  0.16307157757E+04  0.12699999809E+01 0. -1.
</event>
<event>
 5   0  0.3441646E-05  0.2595293E+04  0.7818609E-02  0.8369802E-01
       -2   -1    0    0    0  501  0.00000000000E+00  0.00000000000E+00  0.65287456850E+03  0.65287456850E+03  0.25500000920E-02 0. -1.
        2   -1    0    0  501    0  0.00000000000E+00  0.00000000000E+00 -0.25791884999E+04  0.25791884999E+04  0.25500000920E-02 0.  1.
    10030    2    1    2    0    0  0.00000000000E+00  0.00000000000E+00 -0.19263139314E+04  0.32320630684E+04  0.25952931079E+04 0.  0.
        4    1    3    3  502    0 -0.94829464401E+03  0.74651600748E+03 -0.36937418195E+03  0.12621361973E+04  0.12699999809E+01 0. -1.
       -4    1    3    3    0  502  0.94829464401E+03 -0.74651600748E+03 -0.15569397494E+04  0.19699268711E+04  0.12699999809E+01 0.  1.
</event>
<event>
 5   0  0.1533248E-05  0.2582650E+04  0.7818609E-02  0.8374119E-01
        1   -1    0    0  501    0  0.00000000000E+00  0.00000000000E+00  0.17900059827E+04  0.17900059827E+04  0.50400001928E-02 0.  1.
       -1   -1    0    0    0  501  0.00000000000E+00  0.00000000000E+00 -0.93157242743E+03  0.93157242744E+03  0.50400001928E-02 0. -1.
    10030    2    1    2    0    0  0.00000000000E+00  0.00000000000E+00  0.85843355529E+03  0.27215784102E+04  0.25826499712E+04 0.  0.
        4    1    3    3  502    0  0.41898374225E+03 -0.26362713651E+02 -0.85765225463E+03  0.95488814618E+03  0.12699999809E+01 0. -1.
       -4    1    3    3    0  502 -0.41898374225E+03  0.26362713651E+02  0.17160858099E+04  0.17666902640E+04  0.12699999809E+01 0.  1.
</event>
<event>
 5   0  0.1474554E-05  0.2640210E+04  0.7818609E-02  0.8354670E-01
        1   -1    0    0  501    0  0.00000000000E+00  0.00000000000E+00  0.10369437142E+04  0.10369437143E+04  0.50400001928E-02 0. -1.
       -1   -1    0    0    0  501  0.00000000000E+00  0.00000000000E+00 -0.16805894242E+04  0.16805894242E+04  0.50400001928E-02 0.  1.
    10030    2    1    2    0    0  0.00000000000E+00  0.00000000000E+00 -0.64364570992E+03  0.27175331384E+04  0.26402095672E+04 0.  0.
        5    1    3    3  502    0 -0.28846853086E+03 -0.58001747599E+03  0.86208985550E+03  0.10783577211E+04  0.46999998093E+01 0. -1.
       -5    1    3    3    0  502  0.28846853086E+03  0.58001747599E+03 -0.15057355654E+04  0.16391754173E+04  0.46999998093E+01 0.  1.
</event>
<event>
 5   0  0.1451052E-05  0.2078783E+04  0.7818609E-02  0.8570648E-01
       -1   -1    0    0    0  501  0.00000000000E+00  0.00000000000E+00  0.60929885177E+03  0.60929885179E+03  0.50400001928E-02 0. -1.
        1   -1    0    0  501    0  0.00000000000E+00  0.00000000000E+00 -0.17730780408E+04  0.17730780408E+04  0.50400001928E-02 0.  1.
    10030    2    1    2    0    0  0.00000000000E+00  0.00000000000E+00 -0.11637791891E+04  0.23823768926E+04  0.20787827346E+04 0.  0.
        1    1    3    3  502    0 -0.43531428428E+03 -0.40192816252E+03  0.39681446382E+03  0.71309641189E+03  0.50400001928E-02 0. -1.
       -1    1    3    3    0  502  0.43531428428E+03  0.40192816252E+03 -0.15605936529E+04  0.16692804807E+04  0.50400001928E-02 0.  1.
</event>
<event>
 5   0  0.1533248E-05  0.2565153E+04  0.7818609E-02  0.8380135E-01
        1   -1    0    0  501    0  0.00000000000E+00  0.00000000000E+00  0.19685004233E+04  0.19685004233E+04  0.50400001928E-02 0. -1.
       -1   -1    0    0    0  501  0.00000000000E+00  0.00000000000E+00 -0.83566300579E+03  0.83566300581E+03  0.50400001928E-02 0.  1.
    10030    2    1    2    0    0  0.00000000000E+00  0.00000000000E+00  0.11328374175E+04  0.28041634291E+04  0.25651533916E+04 0.  0.
        4    1    3    3  502    0 -0.99252175356E+03 -0.49198805996E+03 -0.14022422513E+03  0.11166092104E+04  0.12699999809E+01 0.  1.
       -4    1    3    3    0  502  0.99252175356E+03  0.49198805996E+03  0.12730616426E+04  0.16875542188E+04  0.12699999809E+01 0. -1.
</event>
<event>
 5   0  0.1451052E-05  0.2536214E+04  0.7818609E-02  0.8390197E-01
        1   -1    0    0  501    0  0.00000000000E+00  0.00000000000E+00  0.18645644727E+04  0.18645644727E+04  0.50400001928E-02 0. -1.
       -1   -1    0    0    0  501  0.00000000000E+00  0.00000000000E+00 -0.86245066314E+03  0.86245066316E+03  0.50400001928E-02 0.  1.
    10030    2    1    2    0    0  0.00000000000E+00  0.00000000000E+00  0.10021138095E+04  0.27270151358E+04  0.25362136077E+04 0.  0.
        1    1    3    3  502    0 -0.25195644152E+02 -0.54415742538E+03 -0.73023630476E+03  0.91103632468E+03  0.50400001928E-02 0.  1.
       -1    1    3    3    0  502  0.25195644152E+02  0.54415742538E+03  0.17323501143E+04  0.18159788111E+04  0.50400001928E-02 0. -1.
</event>
<event>
 5   0  0.3499642E-05  0.2550447E+04  0.7818609E-02  0.8385231E-01
        2   -1    0    0  501    0  0.00000000000E+00  0.00000000000E+00  0.15748264864E+04  0.15748264864E+04  0.25500000920E-02 0.  1.
       -2   -1    0    0    0  501  0.00000000000E+00  0.00000000000E+00 -0.10326181678E+04  0.10326181678E+04  0.25500000920E-02 0. -1.
    10030    2    1    2    0    0  0.00000000000E+00  0.00000000000E+00  0.54220831857E+03  0.26074446542E+04  0.25504465813E+04 0.  0.
        2    1    3    3  502    0  0.28215450764E+03 -0.44339978781E+03 -0.91674834802E+03  0.10567128615E+04  0.25500000920E-02 0. -1.
       -2    1    3    3    0  502 -0.28215450764E+03  0.44339978781E+03  0.14589566666E+04  0.15507317927E+04  0.25500000920E-02 0.  1.
</event>
<event>
 5   0  0.1533248E-05  0.2510625E+04  0.7818609E-02  0.8399210E-01
        1   -1    0    0  501    0  0.00000000000E+00  0.00000000000E+00  0.12533861585E+04  0.12533861585E+04  0.50400001928E-02 0. -1.
       -1   -1    0    0    0  501  0.00000000000E+00  0.00000000000E+00 -0.12572414380E+04  0.12572414380E+04  0.50400001928E-02 0.  1.
    10030    2    1    2    0    0  0.00000000000E+00  0.00000000000E+00 -0.38552794490E+01  0.25106275965E+04  0.25106246364E+04 0.  0.
        4    1    3    3  502    0 -0.12173574571E+04  0.26802121281E+03 -0.15029511067E+03  0.12555416289E+04  0.12699999809E+01 0.  1.
       -4    1    3    3    0  502  0.12173574571E+04 -0.26802121281E+03  0.14643983122E+03  0.12550859675E+04  0.12699999809E+01 0. -1.
</event>
<event>
 5   0  0.3499642E-05  0.2574516E+04  0.7818609E-02  0.8376909E-01
        2   -1    0    0  501    0  0.00000000000E+00  0.00000000000E+00  0.31716086699E+04  0.31716086699E+04  0.25500000920E-02 0.  1.
       -2   -1    0    0    0  501  0.00000000000E+00  0.00000000000E+00 -0.52245844506E+03  0.52245844507E+03  0.25500000920E-02 0. -1.
    10030    2    1    2    0    0  0.00000000000E+00  0.00000000000E+00  0.26491502249E+04  0.36940671150E+04  0.25745164471E+04 0.  0.
        2    1    3    3  502    0 -0.99241849079E+03  0.80949876678E+03  0.15108362303E+04  0.19806081967E+04  0.25500000920E-02 0. -1.
       -2    1    3    3    0  502  0.99241849079E+03 -0.80949876678E+03  0.11383139946E+04  0.17134589183E+04  0.25500000920E-02 0.  1.
</event>
<event>
 5   0  0.1451052E-05  0.2614071E+04  0.7818609E-02  0.8363437E-01
        1   -1    0    0  501    0  0.00000000000E+00  0.00000000000E+00  0.18696879088E+04  0.18696879088E+04  0.50400001928E-02 0. -1.
       -1   -1    0    0    0  501  0.00000000000E+00  0.00000000000E+00 -0.91370444168E+03  0.91370444170E+03  0.50400001928E-02 0.  1.
    10030    2    1    2    0    0  0.00000000000E+00  0.00000000000E+00  0.95598346709E+03  0.27833923505E+04  0.26140712667E+04 0.  0.
        1    1    3    3  502    0  0.41398795632E+03  0.91438053461E+02 -0.83845488048E+03  0.93954964329E+03  0.50400001928E-02 0.  1.
       -1    1    3    3    0  502 -0.41398795632E+03 -0.91438053461E+02  0.17944383476E+04  0.18438427072E+04  0.50400001928E-02 0. -1.
</event>
<event>
 5   0  0.1497497E-05  0.2630778E+04  0.7818609E-02  0.8357821E-01
        1   -1    0    0  501    0  0.00000000000E+00  0.00000000000E+00  0.49285113565E+03  0.49285113567E+03  0.50400001928E-02 0.  1.
       -1   -1    0    0    0  501  0.00000000000E+00  0.00000000000E+00 -0.35106910690E+04  0.35106910690E+04  0.50400001928E-02 0. -1.
    10030    2    1    2    0    0  0.00000000000E+00  0.00000000000E+00 -0.30178399334E+04  0.40035422047E+04  0.26307778928E+04 0.  0.
        3    1    3    3  502    0 -0.69584575261E+03 -0.10530702656E+04 -0.94546039826E+03  0.15770395273E+04  0.10100000352E+00 0.  1.
       -3    1    3    3    0  502  0.69584575261E+03  0.10530702656E+04 -0.20723795351E+04  0.24265026774E+04  0.10100000352E+00 0. -1.
</event>
<event>
 5   0  0.3499642E-05  0.2655860E+04  0.7818609E-02  0.8349471E-01
        2   -1    0    0  501    0  0.00000000000E+00  0.00000000000E+00  0.13971231897E+04  0.13971231897E+04  0.25500000920E-02 0.  1.
       -2   -1    0    0    0  501  0.00000000000E+00  0.00000000000E+00 -0.12621634891E+04  0.12621634891E+04  0.25500000920E-02 0. -1.
    10030    2    1    2    0    0  0.00000000000E+00  0.00000000000E+00  0.13495970062E+03  0.26592866787E+04  0.26558598455E+04 0.  0.
        2    1    3    3  502    0 -0.20111612199E+03  0.45933096049E+03  0.12986863816E+04  0.13921274883E+04  0.25500000920E-02 0.  1.
       -2    1    3    3    0  502  0.20111612199E+03 -0.45933096049E+03 -0.11637266810E+04  0.12671591904E+04  0.25500000920E-02 0. -1.
</event>
<event>
 5   0  0.3647623E-05  0.2621075E+04  0.7818609E-02  0.8361078E-01
       -2   -1    0    0    0  501  0.00000000000E+00  0.00000000000E+00  0.82768998682E+03  0.82768998683E+03  0.25500000920E-02 0. -1.
        2   -1    0    0  501    0  0.00000000000E+00  0.00000000000E+00 -0.20750618326E+04  0.20750618326E+04  0.25500000920E-02 0.  1.
    10030    2    1    2    0    0  0.00000000000E+00  0.00000000000E+00 -0.12473718457E+04  0.29027518194E+04  0.26210745131E+04 0.  0.
        3    1    3    3  502    0  0.92558006989E+03 -0.75422600910E+03 -0.12220791598E+04  0.17085177265E+04  0.10100000352E+00 0.  1.
       -3    1    3    3    0  502 -0.92558006989E+03  0.75422600910E+03 -0.25292685934E+02  0.11942340929E+04  0.10100000352E+00 0. -1.
</event>
<event>
 5   0  0.3508470E-05  0.1733378E+04  0.7818609E-02  0.8742553E-01
       -2   -1    0    0    0  501  0.00000000000E+00  0.00000000000E+00  0.28203390679E+03  0.28203390681E+03  0.25500000920E-02 0.  1.
        2   -1    0    0  501    0  0.00000000000E+00  0.00000000000E+00 -0.26633311286E+04  0.26633311286E+04  0.25500000920E-02 0. -1.
    10030    2    1    2    0    0  0.00000000000E+00  0.00000000000E+00 -0.23812972218E+04  0.29453650354E+04  0.17333778391E+04 0.  0.
        5    1    3    3  502    0  0.86603449571E+02 -0.43311141806E+03  0.76418622782E+02  0.44827174106E+03  0.46999998093E+01 0.  1.
       -5    1    3    3    0  502 -0.86603449571E+02  0.43311141806E+03 -0.24577158446E+04  0.24970932944E+04  0.46999998093E+01 0. -1.
</event>
<event>
 5   0  0.1533248E-05  0.2619288E+04  0.7818609E-02  0.8361679E-01
       -1   -1    0    0    0  501  0.00000000000E+00  0.00000000000E+00  0.83527062076E+03  0.83527062077E+03  0.50400001928E-02 0. -1.
        1   -1    0    0  501    0  0.00000000000E+00  0.00000000000E+00 -0.20534270618E+04  0.20534270619E+04  0.50400001928E-02 0.  1.
    10030    2    1    2    0    0  0.00000000000E+00  0.00000000000E+00 -0.12181564411E+04  0.28886976826E+04  0.26192879159E+04 0.  0.
        4    1    3    3  502    0  0.91961827768E+03  0.64918345618E+03  0.12911796063E+03  0.11330533955E+04  0.12699999809E+01 0. -1.
       -4    1    3    3    0  502 -0.91961827768E+03 -0.64918345618E+03 -0.13472744017E+04  0.17556442871E+04  0.12699999809E+01 0.  1.
</event>
<event>
 5   0  0.1451052E-05  0.2599073E+04  0.7818609E-02  0.8368516E-01
        1   -1    0    0  501    0  0.00000000000E+00  0.00000000000E+00  0.11065305990E+04  0.11065305990E+04  0.50400001928E-02 0.  1.
       -1   -1    0    0    0  501  0.00000000000E+00  0.00000000000E+00 -0.15262072395E+04  0.15262072395E+04  0.50400001928E-02 0. -1.
    10030    2    1    2    0    0  0.00000000000E+00  0.00000000000E+00 -0.41967664051E+03  0.26327378384E+04  0.25990729200E+04 0.  0.
        1    1    3    3  502    0  0.12570292769E+04 -0.57629492676E+02 -0.53862104945E+03  0.13687791627E+04  0.50400001928E-02 0. -1.
       -1    1    3    3    0  502 -0.12570292769E+04  0.57629492676E+02  0.11894440894E+03  0.12639586757E+04  0.50400001928E-02 0.  1.
</event>
<event>
 5   0  0.1474554E-05  0.2656925E+04  0.7818609E-02  0.8349118E-01
       -1   -1    0    0    0  501  0.00000000000E+00  0.00000000000E+00  0.14115847667E+04  0.14115847668E+04  0.50400001928E-02 0. -1.
        1   -1    0    0  501    0  0.00000000000E+00  0.00000000000E+00 -0.12502353001E+04  0.12502353001E+04  0.50400001928E-02 0.  1.
    10030    2    1    2    0    0  0.00000000000E+00  0.00000000000E+00  0.16134946668E+03  0.26618200668E+04  0.26569253693E+04 0.  0.
        5    1    3    3  502    0 -0.12471907601E+04 -0.42943041556E+03  0.23874925046E+03  0.13404919129E+04  0.46999998093E+01 0. -1.
       -5    1    3    3    0  502  0.12471907601E+04  0.42943041556E+03 -0.77399783782E+02  0.13213281540E+04  0.46999998093E+01 0.  1.
</event>
<event>
 5   0  0.3647623E-05  0.2571145E+04  0.7818609E-02  0.8378069E-01
        2   -1    0    0  501    0  0.00000000000E+00  0.00000000000E+00  0.10077369045E+04  0.10077369045E+04  0.25500000920E-02 0. -1.
       -2   -1    0    0    0  501  0.00000000000E+00  0.00000000000E+00 -0.16400083878E+04  0.16400083878E+04  0.25500000920E-02 0.  1.
    10030    2    1    2    0    0  0.00000000000E+00  0.00000000000E+00 -0.63227148336E+03  0.26477452923E+04  0.25711452515E+04 0.  0.
        3    1    3    3  502    0 -0.58462753685E+03  0.76913284321E+03 -0.11895441845E+04  0.15324392531E+04  0.10100000352E+00 0.  1.
       -3    1    3    3    0  502  0.58462753685E+03 -0.76913284321E+03  0.55727270117E+03  0.11153060392E+04  0.10100000352E+00 0. -1.
</event>
<event>
 5   0  0.3499642E-05  0.2642745E+04  0.7818609E-02  0.8353825E-01
        2   -1    0    0  501    0  0.00000000000E+00  0.00000000000E+00  0.22196995351E+04  0.22196995351E+04  0.25500000920E-02 0.  1.
       -2   -1    0    0    0  501  0.00000000000E+00  0.00000000000E+00 -0.78660426216E+03  0.78660426217E+03  0.25500000920E-02 0. -1.
    10030    2    1    2    0    0  0.00000000000E+00  0.00000000000E+00  0.14330952730E+04  0.30063037973E+04  0.26427448723E+04 0.  0.
        2    1    3    3  502    0 -0.50163097432E+03 -0.22104016371E+03 -0.65115470622E+03  0.85117262633E+03  0.25500000920E-02 0. -1.
       -2    1    3    3    0  502  0.50163097432E+03  0.22104016371E+03  0.20842499792E+04  0.21551311710E+04  0.25500000920E-02 0.  1.
</event>
<event>
 5   0  0.1435062E-05  0.2606783E+04  0.7818609E-02  0.8365901E-01
        1   -1    0    0  501    0  0.00000000000E+00  0.00000000000E+00  0.11478848603E+04  0.11478848603E+04  0.50400001928E-02 0. -1.
       -1   -1    0    0    0  501  0.00000000000E+00  0.00000000000E+00 -0.14799644946E+04  0.14799644947E+04  0.50400001928E-02 0.  1.
    10030    2    1    2    0    0  0.00000000000E+00  0.00000000000E+00 -0.33207963436E+03  0.26278493550E+04  0.26067825665E+04 0.  0.
        2    1    3    3  502    0  0.18649751864E+03 -0.85550116730E+03  0.80724985562E+03  0.11909306869E+04  0.25500000920E-02 0. -1.
       -2    1    3    3    0  502 -0.18649751864E+03  0.85550116730E+03 -0.11393294900E+04  0.14369186680E+04  0.25500000920E-02 0.  1.
</event>
<event>
 5   0  0.1435062E-05  0.2652061E+04  0.7818609E-02  0.8350729E-01
        1   -1    0    0  501    0  0.00000000000E+00  0.00000000000E+00  0.17664405082E+04  0.17664405082E+04  0.50400001928E-02 0. -1.
       -1   -1    0    0    0  501  0.00000000000E+00  0.00000000000E+00 -0.99542400555E+03  0.99542400556E+03  0.50400001928E-02 0.  1.
    10030    2    1    2    0    0  0.00000000000E+00  0.00000000000E+00  0.77101650262E+03  0.27618645137E+04  0.26520613011E+04 0.  0.
        2    1    3    3  502    0  0.11090768079E+04  0.42074563390E+03 -0.23171876245E+03  0.12086239445E+04  0.25500000920E-02 0.  1.
       -2    1    3    3    0  502 -0.11090768079E+04 -0.42074563390E+03  0.10027352651E+04  0.15532405693E+04  0.25500000920E-02 0. -1.
</event>
<event>
 5   0  0.3441646E-05  0.2593442E+04  0.7818609E-02  0.8370432E-01
        2   -1    0    0  501    0  0.00000000000E+00  0.00000000000E+00  0.14567044616E+04  0.14567044616E+04  0.25500000920E-02 0.  1.
       -2   -1    0    0    0  501  0.00000000000E+00  0.00000000000E+00 -0.11543073844E+04  0.11543073845E+04  0.25500000920E-02 0. -1.
    10030    2    1    2    0    0  0.00000000000E+00  0.00000000000E+00  0.30239707715E+03  0.26110118461E+04  0.25934415104E+04 0.  0.
        4    1    3    3  502    0  0.25519242199E+02 -0.10067330548E+04  0.97362977066E+03  0.14007566593E+04  0.12699999809E+01 0.  1.
       -4    1    3    3    0  502 -0.25519242199E+02  0.10067330548E+04 -0.67123269351E+03  0.12102551868E+04  0.12699999809E+01 0. -1.
</event>
<event>
 5   0  0.1497497E-05  0.2240458E+04  0.7818609E-02  0.8501775E-01
       -1   -1    0    0    0  501  0.00000000000E+00  0.00000000000E+00  0.79594937031E+03  0.79594937033E+03  0.50400001928E-02 0.  1.
        1   -1    0    0  501    0  0.00000000000E+00  0.00000000000E+00 -0.15766241861E+04  0.15766241861E+04  0.50400001928E-02 0. -1.
    10030    2    1    2    0    0  0.00000000000E+00  0.00000000000E+00 -0.78067481579E+03  0.23725735564E+04  0.22404580140E+04 0.  0.
        3    1    3    3  502    0 -0.85651058348E+03 -0.58711986761E+03  0.54672309540E+02  0.10398601782E+04  0.10100000352E+00 0.  1.
       -3    1    3    3    0  502  0.85651058348E+03  0.58711986761E+03 -0.83534712533E+03  0.13327133782E+04  0.10100000352E+00 0. -1.
</event>
<event>
 5   0  0.3849687E-05  0.2590670E+04  0.7818609E-02  0.8371377E-01
       -2   -1    0    0    0  501  0.00000000000E+00  0.00000000000E+00  0.92857776713E+03  0.92857776713E+03  0.25500000920E-02 0.  1.
        2   -1    0    0  501    0  0.00000000000E+00  0.00000000000E+00 -0.18069485001E+04  0.18069485001E+04  0.25500000920E-02 0. -1.
    10030    2    1    2    0    0  0.00000000000E+00  0.00000000000E+00 -0.87837073299E+03  0.27355262673E+04  0.25906695687E+04 0.  0.
        1    1    3    3  502    0  0.61911667561E+03  0.52598161274E+03 -0.15045244045E+04  0.17098408694E+04  0.50400001928E-02 0. -1.
       -1    1    3    3    0  502 -0.61911667561E+03 -0.52598161274E+03  0.62615367152E+03  0.10256853978E+04  0.50400001928E-02 0.  1.
</event>
<event>
 5   0  0.1435062E-05  0.2627484E+04  0.7818609E-02  0.8358925E-01
       -1   -1    0    0    0  501  0.00000000000E+00  0.00000000000E+00  0.10585475578E+04  0.10585475578E+04  0.50400001928E-02 0.  1.
        1   -1    0    0  501    0  0.00000000000E+00  0.00000000000E+00 -0.16304587871E+04  0.16304587871E+04  0.50400001928E-02 0. -1.
    10030    2    1    2    0    0  0.00000000000E+00  0.00000000000E+00 -0.57191122927E+03  0.26890063449E+04  0.26274840949E+04 0.  0.
        2    1    3    3  502    0 -0.13880558044E+03  0.13373240311E+03  0.10439982486E+04  0.10616419772E+04  0.25500000920E-02 0.  1.
       -2    1    3    3    0  502  0.13880558044E+03 -0.13373240311E+03 -0.16159094778E+04  0.16273643677E+04  0.25500000920E-02 0. -1.
</event>
<event>
 5   0  0.1533248E-05  0.1868979E+04  0.7818609E-02  0.8670453E-01
        1   -1    0    0  501    0  0.00000000000E+00  0.00000000000E+00  0.11174377507E+04  0.11174377507E+04  0.50400001928E-02 0.  1.
       -1   -1    0    0    0  501  0.00000000000E+00  0.00000000000E+00 -0.78149403225E+03  0.78149403226E+03  0.50400001928E-02 0. -1.
    10030    2    1    2    0    0  0.00000000000E+00  0.00000000000E+00  0.33594371847E+03  0.18989317830E+04  0.18689793296E+04 0.  0.
        4    1    3    3  502    0  0.66307597452E+03 -0.33686412116E+03  0.74283269067E+03  0.10511656403E+04  0.12699999809E+01 0.  1.
       -4    1    3    3    0  502 -0.66307597452E+03  0.33686412116E+03 -0.40688897220E+03  0.84776614270E+03  0.12699999809E+01 0. -1.
</event>
<event>
 5   0  0.3441646E-05  0.2483495E+04  0.7818609E-02  0.8408889E-01
        2   -1    0    0  501    0  0.00000000000E+00  0.00000000000E+00  0.17972791638E+04  0.17972791638E+04  0.25500000920E-02 0. -1.
       -2   -1    0    0    0  501  0.00000000000E+00  0.00000000000E+00 -0.85792831553E+03  0.85792831553E+03  0.25500000920E-02 0.  1.
    10030    2    1    2    0    0  0.00000000000E+00  0.00000000000E+00  0.93935084823E+03  0.26552074793E+04  0.24834948645E+04 0.  0.
        4    1    3    3  502    0  0.69191299244E+03 -0.10300906880E+04  0.51872395057E+03  0.13449559712E+04  0.12699999809E+01 0. -1.
       -4    1    3    3    0  502 -0.69191299244E+03  0.10300906880E+04  0.42062689767E+03  0.13102515081E+04  0.12699999809E+01 0.  1.
</event>
<event>
 5   0  0.3499642E-05  0.2579858E+04  0.7818609E-02  0.8375075E-01
       -2   -1    0    0    0  501  0.00000000000E+00  0.00000000000E+00  0.66915562001E+03  0.66915562001E+03  0.25500000920E-02 0.  1.
        2   -1    0    0  501    0  0.00000000000E+00  0.00000000000E+00 -0.24865911126E+04  0.24865911126E+04  0.25500000920E-02 0. -1.
    10030    2    1    2    0    0  0.00000000000E+00  0.00000000000E+00 -0.18174354926E+04  0.31557467326E+04  0.25798576842E+04 0.  0.
        2    1    3    3  502    0 -0.99708306320E+03 -0.78773885778E+03 -0.63736771621E+03  0.14215993629E+04  0.25500000920E-02 0. -1.
       -2    1    3    3    0  502  0.99708306320E+03  0.78773885778E+03 -0.11800677764E+04  0.17341473697E+04  0.25500000920E-02 0.  1.
</event>
<event>
 5   0  0.1474554E-05  0.2604719E+04  0.7818609E-02  0.8366600E-01
       -1   -1    0    0    0  501  0.00000000000E+00  0.00000000000E+00  0.66767789692E+03  0.66767789694E+03  0.50400001928E-02 0. -1.
        1   -1    0    0  501    0  0.00000000000E+00  0.00000000000E+00 -0.25403561396E+04  0.25403561396E+04  0.50400001928E-02 0.  1.
    10030    2    1    2    0    0  0.00000000000E+00  0.00000000000E+00 -0.18726782427E+04  0.32080340365E+04  0.26047185220E+04 0.  0.
        5    1    3    3  502    0 -0.53158848949E+03  0.49981763039E+03 -0.22649604446E+04  0.23795949007E+04  0.46999998093E+01 0.  1.
       -5    1    3    3    0  502  0.53158848949E+03 -0.49981763039E+03  0.39228220194E+03  0.82843913583E+03  0.46999998093E+01 0. -1.
</event>
<event>
 5   0  0.3508470E-05  0.2575930E+04  0.7818609E-02  0.8376424E-01
       -2   -1    0    0    0  501  0.00000000000E+00  0.00000000000E+00  0.70961786020E+03  0.70961786021E+03  0.25500000920E-02 0.  1.
        2   -1    0    0  501    0  0.00000000000E+00  0.00000000000E+00 -0.23376717223E+04  0.23376717223E+04  0.25500000920E-02 0. -1.
    10030    2    1    2    0    0  0.00000000000E+00  0.00000000000E+00 -0.16280538621E+04  0.30472895825E+04  0.25759298169E+04 0.  0.
        5    1    3    3  502    0  0.11339844206E+04 -0.60458808314E+03 -0.71237199887E+03  0.14693343293E+04  0.46999998093E+01 0. -1.
       -5    1    3    3    0  502 -0.11339844206E+04  0.60458808314E+03 -0.91568186322E+03  0.15779552532E+04  0.46999998093E+01 0.  1.
</event>
<event>
 5   0  0.3499642E-05  0.2495871E+04  0.7818609E-02  0.8404458E-01
       -2   -1    0    0    0  501  0.00000000000E+00  0.00000000000E+00  0.14783295000E+04  0.14783295000E+04  0.25500000920E-02 0.  1.
        2   -1    0    0  501    0  0.00000000000E+00  0.00000000000E+00 -0.10534481761E+04  0.10534481761E+04  0.25500000920E-02 0. -1.
    10030    2    1    2    0    0  0.00000000000E+00  0.00000000000E+00  0.42488132385E+03  0.25317776761E+04  0.24958714033E+04 0.  0.
        2    1    3    3  502    0  0.55934292840E+02 -0.81805084909E+03  0.11667229880E+04  0.14260358928E+04  0.25500000920E-02 0.  1.
       -2    1    3    3    0  502 -0.55934292840E+02  0.81805084909E+03 -0.74184166413E+03  0.11057417834E+04  0.25500000920E-02 0. -1.
</event>
<event>
 5   0  0.1217200E-05  0.2595038E+04  0.7818609E-02  0.8369889E-01
       -4   -1    0    0    0  501  0.00000000000E+00  0.00000000000E+00  0.12667490301E+04  0.12667496667E+04  0.12699999809E+01 0.  1.
        4   -1    0    0  501    0  0.00000000000E+00  0.00000000000E+00 -0.13290354041E+04  0.13290360109E+04  0.12699999809E+01 0. -1.
    10030    2    1    2    0    0  0.00000000000E+00  0.00000000000E+00 -0.62286374025E+02  0.25957856776E+04  0.25950382833E+04 0.  0.
        1    1    3    3  502    0 -0.10607231354E+03 -0.36751755331E+03 -0.12713532651E+04  0.13276519169E+04  0.50400001928E-02 0. -1.
       -1    1    3    3    0  502  0.10607231354E+03  0.36751755331E+03  0.12090668911E+04  0.12681337607E+04  0.50400001928E-02 0.  1.
</event>
<event>
 5   0  0.1497497E-05  0.2608522E+04  0.7818609E-02  0.8365312E-01
       -1   -1    0    0    0  501  0.00000000000E+00  0.00000000000E+00  0.79018472223E+03  0.79018472225E+03  0.50400001928E-02 0. -1.
        1   -1    0    0  501    0  0.00000000000E+00  0.00000000000E+00 -0.21527839104E+04  0.21527839104E+04  0.50400001928E-02 0.  1.
    10030    2    1    2    0    0  0.00000000000E+00  0.00000000000E+00 -0.13625991881E+04  0.29429686326E+04  0.26085221535E+04 0.  0.
        3    1    3    3  502    0 -0.71816403768E+03  0.10942220350E+03  0.54080256095E+03  0.90564906214E+03  0.10100000352E+00 0. -1.
       -3    1    3    3    0  502  0.71816403768E+03 -0.10942220350E+03 -0.19034017491E+04  0.20373195705E+04  0.10100000352E+00 0.  1.
</event>
<event>
 5   0  0.3849687E-05  0.2604252E+04  0.7818609E-02  0.8366758E-01
       -2   -1    0    0    0  501  0.00000000000E+00  0.00000000000E+00  0.74894606634E+03  0.74894606635E+03  0.25500000920E-02 0. -1.
        2   -1    0    0  501    0  0.00000000000E+00  0.00000000000E+00 -0.22638913772E+04  0.22638913772E+04  0.25500000920E-02 0.  1.
    10030    2    1    2    0    0  0.00000000000E+00  0.00000000000E+00 -0.15149453108E+04  0.30128374435E+04  0.26042523238E+04 0.  0.
        1    1    3    3  502    0 -0.10351139214E+04 -0.78921038996E+03 -0.79785913614E+03  0.15267262593E+04  0.50400001928E-02 0.  1.
       -1    1    3    3    0  502  0.10351139214E+04  0.78921038996E+03 -0.71708617468E+03  0.14861111842E+04  0.50400001928E-02 0. -1.
</event>
<event>
 5   0  0.1497497E-05  0.2570663E+04  0.7818609E-02  0.8378235E-01
       -1   -1    0    0    0  501  0.00000000000E+00  0.00000000000E+00  0.11788765568E+04  0.11788765568E+04  0.50400001928E-02 0. -1.
        1   -1    0    0  501    0  0.00000000000E+00  0.00000000000E+00 -0.14013994668E+04  0.14013994668E+04  0.50400001928E-02 0.  1.
    10030    2    1    2    0    0  0.00000000000E+00  0.00000000000E+00 -0.22252291001E+03  0.25802760236E+04  0.25706629324E+04 0.  0.
        3    1    3    3  502    0  0.12720900889E+04  0.16953602356E+03 -0.18309240034E+03  0.12963327099E+04  0.10100000352E+00 0.  1.
       -3    1    3    3    0  502 -0.12720900889E+04 -0.16953602356E+03 -0.39430509663E+02  0.12839433137E+04  0.10100000352E+00 0. -1.
</event>
<event>
 5   0  0.3499642E-05  0.2416279E+04  0.7818609E-02  0.8433434E-01
       -2   -1    0    0    0  501  0.00000000000E+00  0.00000000000E+00  0.75260179053E+03  0.75260179053E+03  0.25500000920E-02 0.  1.
        2   -1    0    0  501    0  0.00000000000E+00  0.00000000000E+00 -0.19394073311E+04  0.19394073311E+04  0.25500000920E-02 0. -1.
    10030    2    1    2    0    0  0.00000000000E+00  0.00000000000E+00 -0.11868055406E+04  0.26920091216E+04  0.24162793133E+04 0.  0.
        2    1    3    3  502    0 -0.11271491959E+04 -0.47763106525E+01 -0.10890650245E+03  0.11324083845E+04  0.25500000920E-02 0. -1.
       -2    1    3    3    0  502  0.11271491959E+04  0.47763106525E+01 -0.10778990381E+04  0.15596007371E+04  0.25500000920E-02 0.  1.
</event>
<event>
 5   0  0.3647623E-05  0.2602871E+04  0.7818609E-02  0.8367227E-01
        2   -1    0    0  501    0  0.00000000000E+00  0.00000000000E+00  0.16891954932E+04  0.16891954933E+04  0.25500000920E-02 0. -1.
       -2   -1    0    0    0  501  0.00000000000E+00  0.00000000000E+00 -0.10026869876E+04  0.10026869876E+04  0.25500000920E-02 0.  1.
    10030    2    1    2    0    0  0.00000000000E+00  0.00000000000E+00  0.68650850563E+03  0.26918824809E+04  0.26028709846E+04 0.  0.
        3    1    3    3  502    0  0.83813185532E+03 -0.59668179227E+03  0.11675298220E+04  0.15561555396E+04  0.10100000352E+00 0. -1.
       -3    1    3    3    0  502 -0.83813185532E+03  0.59668179227E+03 -0.48102131632E+03  0.11357269413E+04  0.10100000352E+00 0.  1.
</event>
<event>
 5   0  0.3849687E-05  0.2617005E+04  0.7818609E-02  0.8362448E-01
       -2   -1    0    0    0  501  0.00000000000E+00  0.00000000000E+00  0.12767749091E+04  0.12767749091E+04  0.25500000920E-02 0. -1.
        2   -1    0    0  501    0  0.00000000000E+00  0.00000000000E+00 -0.13410183862E+04  0.13410183862E+04  0.25500000920E-02 0.  1.
    10030    2    1    2    0    0  0.00000000000E+00  0.00000000000E+00 -0.64243477063E+02  0.26177932953E+04  0.26170048744E+04 0.  0.
        1    1    3    3  502    0 -0.87369124768E+03  0.73448503072E+03  0.60789441087E+03  0.12931899595E+04  0.50400001928E-02 0.  1.
       -1    1    3    3    0  502  0.87369124768E+03 -0.73448503072E+03 -0.67213788793E+03  0.13246033357E+04  0.50400001928E-02 0. -1.
</event>
<event>
 5   0  0.3508470E-05  0.2554639E+04  0.7818609E-02  0.8383774E-01
        2   -1    0    0  501    0  0.00000000000E+00  0.00000000000E+00  0.14605938164E+04  0.14605938164E+04  0.25500000920E-02 0. -1.
       -2   -1    0    0    0  501  0.00000000000E+00  0.00000000000E+00 -0.11170426868E+04  0.11170426868E+04  0.25500000920E-02 0.  1.
    10030    2    1    2    0    0  0.00000000000E+00  0.00000000000E+00  0.34355112965E+03  0.25776365032E+04  0.25546394196E+04 0.  0.
        5    1    3    3  502    0  0.33485484722E+02  0.72451253312E+02  0.14580664819E+04  0.14602569696E+04  0.46999998093E+01 0. -1.
       -5    1    3    3    0  502 -0.33485484722E+02 -0.72451253312E+02 -0.11145153522E+04  0.11173795336E+04  0.46999998093E+01 0.  1.
</event>
<event>
 5   0  0.1533248E-05  0.2080378E+04  0.7818609E-02  0.8569937E-01
       -1   -1    0    0    0  501  0.00000000000E+00  0.00000000000E+00  0.59087684162E+03  0.59087684164E+03  0.50400001928E-02 0.  1.
        1   -1    0    0  501    0  0.00000000000E+00  0.00000000000E+00 -0.18311655409E+04  0.18311655409E+04  0.50400001928E-02 0. -1.
    10030    2    1    2    0    0  0.00000000000E+00  0.00000000000E+00 -0.12402886993E+04  0.24220423826E+04  0.20803781496E+04 0.  0.
        4    1    3    3  502    0  0.57318849491E+03 -0.36413670314E+03 -0.15374903789E+04  0.16807792441E+04  0.12699999809E+01 0. -1.
       -4    1    3    3    0  502 -0.57318849491E+03  0.36413670314E+03  0.29720167956E+03  0.74126313851E+03  0.12699999809E+01 0.  1.
</event>
<event>
 5   0  0.1474554E-05  0.2598965E+04  0.7818609E-02  0.8368553E-01
        1   -1    0    0  501    0  0.00000000000E+00  0.00000000000E+00  0.16461497228E+04  0.16461497229E+04  0.50400001928E-02 0.  1.
       -1   -1    0    0    0  501  0.00000000000E+00  0.00000000000E+00 -0.10258210005E+04  0.10258210005E+04  0.50400001928E-02 0. -1.
    10030    2    1    2    0    0  0.00000000000E+00  0.00000000000E+00  0.62032872234E+03  0.26719707234E+04  0.25989651446E+04 0.  0.
        5    1    3    3  502    0  0.22362059466E+03  0.55465059228E+02  0.16249749581E+04  0.16412337578E+04  0.46999998093E+01 0.  1.
       -5    1    3    3    0  502 -0.22362059466E+03 -0.55465059228E+02 -0.10046462358E+04  0.10307369656E+04  0.46999998093E+01 0. -1.
</event>
<event>
 5   0  0.3441646E-05  0.2521632E+04  0.7818609E-02  0.8395319E-01
        2   -1    0    0  501    0  0.00000000000E+00  0.00000000000E+00  0.13897458808E+04  0.13897458808E+04  0.25500000920E-02 0.  1.
       -2   -1    0    0    0  501  0.00000000000E+00  0.00000000000E+00 -0.11438470215E+04  0.11438470215E+04  0.25500000920E-02 0. -1.
    10030    2    1    2    0    0  0.00000000000E+00  0.00000000000E+00  0.24589885931E+03  0.25335929023E+04  0.25216317625E+04 0.  0.
        4    1    3    3  502    0  0.45333278024E+03  0.72690639300E+03  0.10524058189E+04  0.13570052079E+04  0.12699999809E+01 0.  1.
       -4    1    3    3    0  502 -0.45333278024E+03 -0.72690639300E+03 -0.80650695959E+03  0.11765876944E+04  0.12699999809E+01 0. -1.
</event>
<event>
 5   0  0.1533248E-05  0.2649121E+04  0.7818609E-02  0.8351705E-01
        1   -1    0    0  501    0  0.00000000000E+00  0.00000000000E+00  0.18978167398E+04  0.18978167398E+04  0.50400001928E-02 0.  1.
       -1   -1    0    0    0  501  0.00000000000E+00  0.00000000000E+00 -0.92446245875E+03  0.92446245876E+03  0.50400001928E-02 0. -1.
    10030    2    1    2    0    0  0.00000000000E+00  0.00000000000E+00  0.97335428109E+03  0.28222791986E+04  0.26491208576E+04 0.  0.
        4    1    3    3  502    0  0.12635522565E+04  0.34420107411E+03  0.69819969897E+03  0.14840899962E+04  0.12699999809E+01 0.  1.
       -4    1    3    3    0  502 -0.12635522565E+04 -0.34420107411E+03  0.27515458212E+03  0.13381892024E+04  0.12699999809E+01 0. -1.
</event>
<event>
 5   0  0.1451052E-05  0.2587494E+04  0.7818609E-02  0.8372462E-01
        1   -1    0    0  501    0  0.00000000000E+00  0.00000000000E+00  0.10582097980E+04  0.10582097980E+04  0.50400001928E-02 0. -1.
       -1   -1    0    0    0  501  0.00000000000E+00  0.00000000000E+00 -0.15817101386E+04  0.15817101386E+04  0.50400001928E-02 0.  1.
    10030    2    1    2    0    0  0.00000000000E+00  0.00000000000E+00 -0.52350034054E+03  0.26399199366E+04  0.25874938966E+04 0.  0.
        1    1    3    3  502    0  0.39437641646E+03 -0.12092682442E+04 -0.20487549709E+02  0.12721172052E+04  0.50400001928E-02 0. -1.
       -1    1    3    3    0  502 -0.39437641646E+03  0.12092682442E+04 -0.50301279083E+03  0.13678027314E+04  0.50400001928E-02 0.  1.
</event>
<event>
 5   0  0.3849687E-05  0.2647084E+04  0.7818609E-02  0.8352381E-01
        2   -1    0    0  501    0  0.00000000000E+00  0.00000000000E+00  0.66393045953E+03  0.66393045954E+03  0.25500000920E-02 0.  1.
       -2   -1    0    0    0  501  0.00000000000E+00  0.00000000000E+00 -0.26384742367E+04  0.26384742367E+04  0.25500000920E-02 0. -1.
    10030    2    1    2    0    0  0.00000000000E+00  0.00000000000E+00 -0.19745437772E+04  0.33024046963E+04  0.26470839900E+04 0.  0.
        1    1    3    3  502    0  0.96074665856E+03  0.45875303507E+03 -0.63071696142E+01  0.10646728462E+04  0.50400001928E-02 0.  1.
       -1    1    3    3    0  502 -0.96074665856E+03 -0.45875303507E+03 -0.19682366076E+04  0.22377318500E+04  0.50400001928E-02 0. -1.
</event>
<event>
 5   0  0.1474554E-05  0.2805392E+04  0.7818609E-02  0.8301596E-01
       -1   -1    0    0    0  501  0.00000000000E+00  0.00000000000E+00  0.82978634709E+03  0.82978634711E+03  0.50400001928E-02 0. -1.
        1   -1    0    0  501    0  0.00000000000E+00  0.00000000000E+00 -0.23711598311E+04  0.23711598311E+04  0.50400001928E-02 0.  1.
    10030    2    1    2    0    0  0.00000000000E+00  0.00000000000E+00 -0.15413734840E+04  0.32009461782E+04  0.28053919902E+04 0.  0.
        5    1    3    3  502    0  0.13328010917E+04 -0.15046456408E+02 -0.12692764475E+04  0.18405623966E+04  0.46999998093E+01 0.  1.
       -5    1    3    3    0  502 -0.13328010917E+04  0.15046456408E+02 -0.27209703649E+03  0.13603837815E+04  0.46999998093E+01 0. -1.
</event>
<event>
 5   0  0.3441646E-05  0.2415990E+04  0.7818609E-02  0.8433541E-01
        2   -1    0    0  501    0  0.00000000000E+00  0.00000000000E+00  0.14216336314E+04  0.14216336314E+04  0.25500000920E-02 0.  1.
       -2   -1    0    0    0  501  0.00000000000E+00  0.00000000000E+00 -0.10264613072E+04  0.10264613072E+04  0.25500000920E-02 0. -1.
    10030    2    1    2    0    0  0.00000000000E+00  0.00000000000E+00  0.39517232417E+03  0.24480949386E+04  0.24159899964E+04 0.  0.
        4    1    3    3  502    0  0.40140935361E+03 -0.77618369112E+03 -0.64755946821E+03  0.10876237719E+04  0.12699999809E+01 0. -1.
       -4    1    3    3    0  502 -0.40140935361E+03  0.77618369112E+03  0.10427317924E+04  0.13604711666E+04  0.12699999809E+01 0.  1.
</event>
<event>
 5   0  0.3849687E-05  0.2629196E+04  0.7818609E-02  0.8358351E-01
        2   -1    0    0  501    0  0.00000000000E+00  0.00000000000E+00  0.12280395104E+04  0.12280395104E+04  0.25500000920E-02 0. -1.
       -2   -1    0    0    0  501  0.00000000000E+00  0.00000000000E+00 -0.14072576217E+04  0.14072576217E+04  0.25500000920E-02 0.  1.
    10030    2    1    2    0    0  0.00000000000E+00  0.00000000000E+00 -0.17921811131E+03  0.26352971321E+04  0.26291960450E+04 0.  0.
        1    1    3    3  502    0 -0.10627913347E+04 -0.16514970641E+03 -0.84725206295E+03  0.13691734386E+04  0.50400001928E-02 0.  1.
       -1    1    3    3    0  502  0.10627913347E+04  0.16514970641E+03  0.66803395164E+03  0.12661236935E+04  0.50400001928E-02 0. -1.
</event>
<event>
 5   0  0.3647623E-05  0.2596453E+04  0.7818609E-02  0.8369407E-01
       -2   -1    0    0    0  501  0.00000000000E+00  0.00000000000E+00  0.97246614962E+03  0.97246614963E+03  0.25500000920E-02 0.  1.
        2   -1    0    0  501    0  0.00000000000E+00  0.00000000000E+00 -0.17331111710E+04  0.17331111711E+04  0.25500000920E-02 0. -1.
    10030    2    1    2    0    0  0.00000000000E+00  0.00000000000E+00 -0.76064502143E+03  0.27055773207E+04  0.25964529246E+04 0.  0.
        3    1    3    3  502    0  0.21196807386E+03  0.11728232506E+04 -0.91668584079E+03  0.15035816514E+04  0.10100000352E+00 0. -1.
       -3    1    3    3    0  502 -0.21196807386E+03 -0.11728232506E+04  0.15604081937E+03  0.12019956693E+04  0.10100000352E+00 0.  1.
</event>
<event>
 5   0  0.3499642E-05  0.2688176E+04  0.7818609E-02  0.8338852E-01
        2   -1    0    0  501    0  0.00000000000E+00  0.00000000000E+00  0.16252410338E+04  0.16252410338E+04  0.25500000920E-02 0. -1.
       -2   -1    0    0    0  501  0.00000000000E+00  0.00000000000E+00 -0.11115723349E+04  0.11115723349E+04  0.25500000920E-02 0.  1.
    10030    2    1    2    0    0  0.00000000000E+00  0.00000000000E+00  0.51366869890E+03  0.27368133686E+04  0.26881763117E+04 0.  0.
        2    1    3    3  502    0 -0.25061894844E+03 -0.74458177072E+03  0.13671444686E+04  0.15767992480E+04  0.25500000920E-02 0. -1.
       -2    1    3    3    0  502  0.25061894844E+03  0.74458177072E+03 -0.85347576967E+03  0.11600141206E+04  0.25500000920E-02 0.  1.
</event>
<event>
 5   0  0.3849687E-05  0.2212600E+04  0.7818609E-02  0.8513202E-01
       -2   -1    0    0    0  501  0.00000000000E+00  0.00000000000E+00  0.59136260487E+03  0.59136260488E+03  0.25500000920E-02 0.  1.
        2   -1    0    0  501    0  0.00000000000E+00  0.00000000000E+00 -0.20696260897E+04  0.20696260897E+04  0.25500000920E-02 0. -1.
    10030    2    1    2    0    0  0.00000000000E+00  0.00000000000E+00 -0.14782634848E+04  0.26609886946E+04  0.22125998061E+04 0.  0.
        1    1    3    3  502    0 -0.75205011650E+03 -0.66823370257E+03 -0.12925921322E+04  0.16379591202E+04  0.50400001928E-02 0. -1.
       -1    1    3    3    0  502  0.75205011650E+03  0.66823370257E+03 -0.18567135262E+03  0.10230295744E+04  0.50400001928E-02 0.  1.
</event>
<event>
 5   0  0.3508470E-05  0.2359391E+04  0.7818609E-02  0.8454865E-01
        2   -1    0    0  501    0  0.00000000000E+00  0.00000000000E+00  0.13623159548E+04  0.13623159548E+04  0.25500000920E-02 0.  1.
       -2   -1    0    0    0  501  0.00000000000E+00  0.00000000000E+00 -0.10215559079E+04  0.10215559079E+04  0.25500000920E-02 0. -1.
    10030    2    1    2    0    0  0.00000000000E+00  0.00000000000E+00  0.34076004688E+03  0.23838718627E+04  0.23593913724E+04 0.  0.
        5    1    3    3  502    0 -0.87999280960E+03  0.71508454917E+03  0.49922057234E+03  0.12389416965E+04  0.46999998093E+01 0.  1.
       -5    1    3    3    0  502  0.87999280960E+03 -0.71508454917E+03 -0.15846052546E+03  0.11449301662E+04  0.46999998093E+01 0. -1.
</event>
<event>
 5   0  0.3499642E-05  0.2625998E+04  0.7818609E-02  0.8359423E-01
        2   -1    0    0  501    0  0.00000000000E+00  0.00000000000E+00  0.18549107720E+04  0.18549107720E+04  0.25500000920E-02 0. -1.
       -2   -1    0    0    0  501  0.00000000000E+00  0.00000000000E+00 -0.92940690756E+03  0.92940690756E+03  0.25500000920E-02 0.  1.
    10030    2    1    2    0    0  0.00000000000E+00  0.00000000000E+00  0.92550386441E+03  0.27843176795E+04  0.26259983887E+04 0.  0.
        2    1    3    3  502    0  0.43515173361E+03  0.10048801537E+04 -0.30537304781E+03  0.11368350157E+04  0.25500000920E-02 0.  1.
       -2    1    3    3    0  502 -0.43515173361E+03 -0.10048801537E+04  0.12308769122E+04  0.16474826638E+04  0.25500000920E-02 0. -1.
</event>
<event>
 5   0  0.1497497E-05  0.2243377E+04  0.7818609E-02  0.8500588E-01
       -1   -1    0    0    0  501  0.00000000000E+00  0.00000000000E+00  0.89025031317E+03  0.89025031318E+03  0.50400001928E-02 0.  1.
        1   -1    0    0  501    0  0.00000000000E+00  0.00000000000E+00 -0.14132935532E+04  0.14132935532E+04  0.50400001928E-02 0. -1.
    10030    2    1    2    0    0  0.00000000000E+00  0.00000000000E+00 -0.52304324005E+03  0.23035438664E+04  0.22433769441E+04 0.  0.
        3    1    3    3  502    0  0.50633157210E+03  0.18462544157E+03  0.74859291354E+03  0.92241507738E+03  0.10100000352E+00 0.  1.
       -3    1    3    3    0  502 -0.50633157210E+03 -0.18462544157E+03 -0.12716361536E+04  0.13811287890E+04  0.10100000352E+00 0. -1.
</event>
<event>
 5   0  0.1451052E-05  0.2616303E+04  0.7818609E-02  0.8362685E-01
        1   -1    0    0  501    0  0.00000000000E+00  0.00000000000E+00  0.18697521183E+04  0.18697521183E+04  0.50400001928E-02 0.  1.
       -1   -1    0    0    0  501  0.00000000000E+00  0.00000000000E+00 -0.91523355417E+03  0.91523355418E+03  0.50400001928E-02 0. -1.
    10030    2    1    2    0    0  0.00000000000E+00  0.00000000000E+00  0.95451856412E+03  0.27849856725E+04  0.26163026405E+04 0.  0.
        1    1    3    3  502    0  0.83226488953E+03  0.10119190975E+03  0.15461708149E+04  0.17588487251E+04  0.50400001928E-02 0.  1.
       -1    1    3    3    0  502 -0.83226488953E+03 -0.10119190975E+03 -0.59165225075E+03  0.10261369474E+04  0.50400001928E-02 0. -1.
</event>
<event>
 5   0  0.3499642E-05  0.2574138E+04  0.7818609E-02  0.8377039E-01
       -2   -1    0    0    0  501  0.00000000000E+00  0.00000000000E+00  0.13985719039E+04  0.13985719039E+04  0.25500000920E-02 0. -1.
        2   -1    0    0  501    0  0.00000000000E+00  0.00000000000E+00 -0.11844562336E+04  0.11844562336E+04  0.25500000920E-02 0.  1.
    10030    2    1    2    0    0  0.00000000000E+00  0.00000000000E+00  0.21411567027E+03  0.25830281375E+04  0.25741384653E+04 0.  0.
        2    1    3    3  502    0 -0.80778566984E+03  0.94331047991E+03 -0.23203648123E+03  0.12634054292E+04  0.25500000920E-02 0.  1.
       -2    1    3    3    0  502  0.80778566984E+03 -0.94331047991E+03  0.44615215150E+03  0.13196227083E+04  0.25500000920E-02 0. -1.
</event>
<event>
 5   0  0.3508470E-05  0.2620864E+04  0.7818609E-02  0.8361148E-01
        2   -1    0    0  501    0  0.00000000000E+00  0.00000000000E+00  0.11625278182E+04  0.11625278182E+04  0.25500000920E-02 0.  1.
       -2   -1    0    0    0  501  0.00000000000E+00  0.00000000000E+00 -0.14771537933E+04  0.14771537933E+04  0.25500000920E-02 0. -1.
    10030    2    1    2    0    0  0.00000000000E+00  0.00000000000E+00 -0.31462597513E+03  0.26396816115E+04  0.26208642669E+04 0.  0.
        5    1    3    3  502    0 -0.75798514842E+02 -0.82924722036E+03 -0.11764147020E+04  0.14413084363E+04  0.46999998093E+01 0. -1.
       -5    1    3    3    0  502  0.75798514842E+02  0.82924722036E+03  0.86178872687E+03  0.11983731752E+04  0.46999998093E+01 0.  1.
</event>
<event>
 5   0  0.3508470E-05  0.2594675E+04  0.7818609E-02  0.8370012E-01
        2   -1    0    0  501    0  0.00000000000E+00  0.00000000000E+00  0.22557302522E+04  0.22557302522E+04  0.25500000920E-02 0.  1.
       -2   -1    0    0    0  501  0.00000000000E+00  0.00000000000E+00 -0.74613713152E+03  0.74613713152E+03  0.25500000920E-02 0. -1.
    10030    2    1    2    0    0  0.00000000000E+00  0.00000000000E+00  0.15095931207E+04  0.30018673837E+04  0.25946746231E+04 0.  0.
        5    1    3    3  502    0  0.90570680776E+01  0.12641871538E+04  0.41787079156E+03  0.13314988842E+04  0.46999998093E+01 0. -1.
       -5    1    3    3    0  502 -0.90570680776E+01 -0.12641871538E+04  0.10917223291E+04  0.16703684995E+04  0.46999998093E+01 0.  1.
</event>
<event>
 5   0  0.1533248E-05  0.2292979E+04  0.7818609E-02  0.8480695E-01
        1   -1    0    0  501    0  0.00000000000E+00  0.00000000000E+00  0.10465607980E+04  0.10465607980E+04  0.50400001928E-02 0. -1.
       -1   -1    0    0    0  501  0.00000000000E+00  0.00000000000E+00 -0.12559597689E+04  0.12559597689E+04  0.50400001928E-02 0.  1.
    10030    2    1    2    0    0  0.00000000000E+00  0.00000000000E+00 -0.20939897091E+03  0.23025205669E+04  0.22929790736E+04 0.  0.
        4    1    3    3  502    0 -0.40279601894E+03  0.23699643221E+02 -0.11823054231E+04  0.12492613948E+04  0.12699999809E+01 0.  1.
       -4    1    3    3    0  502  0.40279601894E+03 -0.23699643221E+02  0.97290645223E+03  0.10532591721E+04  0.12699999809E+01 0. -1.
</event>
<event>
 5   0  0.1474554E-05  0.2605599E+04  0.7818609E-02  0.8366302E-01
        1   -1    0    0  501    0  0.00000000000E+00  0.00000000000E+00  0.18803053268E+04  0.18803053268E+04  0.50400001928E-02 0. -1.
       -1   -1    0    0    0  501  0.00000000000E+00  0.00000000000E+00 -0.90266544881E+03  0.90266544882E+03  0.50400001928E-02 0.  1.
    10030    2    1    2    0    0  0.00000000000E+00  0.00000000000E+00  0.97763987799E+03  0.27829707756E+04  0.26055990879E+04 0.  0.
        5    1    3    3  502    0 -0.49247289103E+03 -0.20361767202E+03 -0.78091879621E+03  0.94543427113E+03  0.46999998093E+01 0.  1.
       -5    1    3    3    0  502  0.49247289103E+03  0.20361767202E+03  0.17585586742E+04  0.18375365045E+04  0.46999998093E+01 0. -1.
</event>
<event>
 5   0  0.3849687E-05  0.1752027E+04  0.7818609E-02  0.8732235E-01
       -2   -1    0    0    0  501  0.00000000000E+00  0.00000000000E+00  0.27664283068E+03  0.27664283069E+03  0.25500000920E-02 0. -1.
        2   -1    0    0  501    0  0.00000000000E+00  0.00000000000E+00 -0.27739738663E+04  0.27739738663E+04  0.25500000920E-02 0.  1.
    10030    2    1    2    0    0  0.00000000000E+00  0.00000000000E+00 -0.24973310356E+04  0.30506166970E+04  0.17520273772E+04 0.  0.
        1    1    3    3  502    0 -0.59889926693E+03  0.56210661948E+03 -0.17789602222E+04  0.19594243174E+04  0.50400001928E-02 0.  1.
       -1    1    3    3    0  502  0.59889926693E+03 -0.56210661948E+03 -0.71837081341E+03  0.10911923795E+04  0.50400001928E-02 0. -1.
</event>
<event>
 5   0  0.3441646E-05  0.2592944E+04  0.7818609E-02  0.8370602E-01
        2   -1    0    0  501    0  0.00000000000E+00  0.00000000000E+00  0.18408714098E+04  0.18408714098E+04  0.25500000920E-02 0.  1.
       -2   -1    0    0    0  501  0.00000000000E+00  0.00000000000E+00 -0.91306745189E+03  0.91306745189E+03  0.25500000920E-02 0. -1.
    10030    2    1    2    0    0  0.00000000000E+00  0.00000000000E+00  0.92780395788E+03  0.27539388617E+04  0.25929440930E+04 0.  0.
        4    1    3    3  502    0 -0.12208175856E+04  0.14047047500E+03  0.90272703308E+03  0.15248099032E+04  0.12699999809E+01 0. -1.
       -4    1    3    3    0  502  0.12208175856E+04 -0.14047047500E+03  0.25076924805E+02  0.12291289585E+04  0.12699999809E+01 0.  1.
</event>
<event>
 5   0  0.3499642E-05  0.2413237E+04  0.7818609E-02  0.8434564E-01
       -2   -1    0    0    0  501  0.00000000000E+00  0.00000000000E+00  0.57907274726E+03  0.57907274727E+03  0.25500000920E-02 0.  1.
        2   -1    0    0  501    0  0.00000000000E+00  0.00000000000E+00 -0.25142403314E+04  0.25142403314E+04  0.25500000920E-02 0. -1.
    10030    2    1    2    0    0  0.00000000000E+00  0.00000000000E+00 -0.19351675841E+04  0.30933130787E+04  0.24132368769E+04 0.  0.
        2    1    3    3  502    0 -0.11310688914E+04  0.38138034955E+03 -0.11938524375E+04  0.16882095399E+04  0.25500000920E-02 0. -1.
       -2    1    3    3    0  502  0.11310688914E+04 -0.38138034955E+03 -0.74131514662E+03  0.14051035388E+04  0.25500000920E-02 0.  1.
</event>
<event>
 5   0  0.3499642E-05  0.2620813E+04  0.7818609E-02  0.8361166E-01
        2   -1    0    0  501    0  0.00000000000E+00  0.00000000000E+00  0.15189283277E+04  0.15189283277E+04  0.25500000920E-02 0. -1.
       -2   -1    0    0    0  501  0.00000000000E+00  0.00000000000E+00 -0.11305111747E+04  0.11305111747E+04  0.25500000920E-02 0.  1.
    10030    2    1    2    0    0  0.00000000000E+00  0.00000000000E+00  0.38841715302E+03  0.26494395023E+04  0.26208131928E+04 0.  0.
        2    1    3    3  502    0 -0.30389009722E+03 -0.59034211009E+02  0.14814316429E+04  0.15134311818E+04  0.25500000920E-02 0. -1.
       -2    1    3    3    0  502  0.30389009722E+03  0.59034211009E+02 -0.10930144899E+04  0.11360083206E+04  0.25500000920E-02 0.  1.
</event>
<event>
 5   0  0.1435062E-05  0.2640264E+04  0.7818609E-02  0.8354652E-01
        1   -1    0    0  501    0  0.00000000000E+00  0.00000000000E+00  0.19595113756E+04  0.19595113756E+04  0.50400001928E-02 0.  1.
       -1   -1    0    0    0  501  0.00000000000E+00  0.00000000000E+00 -0.88937893700E+03  0.88937893701E+03  0.50400001928E-02 0. -1.
    10030    2    1    2    0    0  0.00000000000E+00  0.00000000000E+00  0.10701324386E+04  0.28488903127E+04  0.26402637325E+04 0.  0.
        2    1    3    3  502    0 -0.53802366278E+03  0.42424046141E+03  0.17526351808E+04  0.18818021968E+04  0.25500000920E-02 0.  1.
       -2    1    3    3    0  502  0.53802366278E+03 -0.42424046141E+03 -0.68250274216E+03  0.96708811588E+03  0.25500000920E-02 0. -1.
</event>
<event>
 5   0  0.1497497E-05  0.2577928E+04  0.7818609E-02  0.8375738E-01
       -1   -1    0    0    0  501  0.00000000000E+00  0.00000000000E+00  0.13022035704E+04  0.13022035704E+04  0.50400001928E-02 0. -1.
        1   -1    0    0  501    0  0.00000000000E+00  0.00000000000E+00 -0.12758587659E+04  0.12758587659E+04  0.50400001928E-02 0.  1.
    10030    2    1    2    0    0  0.00000000000E+00  0.00000000000E+00  0.26344804437E+02  0.25780623363E+04  0.25779277261E+04 0.  0.
        3    1    3    3  502    0 -0.85435485110E+03 -0.38553301824E+03 -0.87167316047E+03  0.12799890736E+04  0.10100000352E+00 0.  1.
       -3    1    3    3    0  502  0.85435485110E+03  0.38553301824E+03  0.89801796491E+03  0.12980732627E+04  0.10100000352E+00 0. -1.
</event>
<event>
 5   0  0.3508470E-05  0.2919733E+04  0.7818609E-02  0.8267030E-01
        2   -1    0    0  501    0  0.00000000000E+00  0.00000000000E+00  0.13815433631E+04  0.13815433631E+04  0.25500000920E-02 0. -1.
       -2   -1    0    0    0  501  0.00000000000E+00  0.00000000000E+00 -0.15426304291E+04  0.15426304291E+04  0.25500000920E-02 0.  1.
    10030    2    1    2    0    0  0.00000000000E+00  0.00000000000E+00 -0.16108706603E+03  0.29241737922E+04  0.29197334338E+04 0.  0.
        5    1    3    3  502    0 -0.11618443589E+04  0.36934062689E+03 -0.88481770346E+03  0.15063928012E+04  0.46999998093E+01 0.  1.
       -5    1    3    3    0  502  0.11618443589E+04 -0.36934062689E+03  0.72373063742E+03  0.14177809911E+04  0.46999998093E+01 0. -1.
</event>
<event>
 5   0  0.3849687E-05  0.2597336E+04  0.7818609E-02  0.8369107E-01
        2   -1    0    0  501    0  0.00000000000E+00  0.00000000000E+00  0.14344024524E+04  0.14344024524E+04  0.25500000920E-02 0.  1.
       -2   -1    0    0    0  501  0.00000000000E+00  0.00000000000E+00 -0.11757779183E+04  0.11757779183E+04  0.25500000920E-02 0. -1.
    10030    2    1    2    0    0  0.00000000000E+00  0.00000000000E+00  0.25862453418E+03  0.26101803707E+04  0.25973361196E+04 0.  0.
        1    1    3    3  502    0  0.83652850500E+02 -0.54416765846E+03 -0.10526940023E+04  0.11879734435E+04  0.50400001928E-02 0. -1.
       -1    1    3    3    0  502 -0.83652850500E+02  0.54416765846E+03  0.13113185364E+04  0.14222069273E+04  0.50400001928E-02 0.  1.
</event>
<event>
 5   0  0.1533248E-05  0.2035208E+04  0.7818609E-02  0.8590334E-01
       -1   -1    0    0    0  501  0.00000000000E+00  0.00000000000E+00  0.81272239141E+03  0.81272239143E+03  0.50400001928E-02 0.  1.
        1   -1    0    0  501    0  0.00000000000E+00  0.00000000000E+00 -0.12741351280E+04  0.12741351280E+04  0.50400001928E-02 0. -1.
    10030    2    1    2    0    0  0.00000000000E+00  0.00000000000E+00 -0.46141273663E+03  0.20868575195E+04  0.20352082432E+04 0.  0.
        4    1    3    3  502    0 -0.96547585152E+03  0.27817720540E+03 -0.65399813255E+02  0.10068788040E+04  0.12699999809E+01 0.  1.
       -4    1    3    3    0  502  0.96547585152E+03 -0.27817720540E+03 -0.39601292337E+03  0.10799787155E+04  0.12699999809E+01 0. -1.
</event>
<event>
 5   0  0.1497497E-05  0.2609520E+04  0.7818609E-02  0.8364975E-01
       -1   -1    0    0    0  501  0.00000000000E+00  0.00000000000E+00  0.16948691199E+04  0.16948691200E+04  0.50400001928E-02 0.  1.
        1   -1    0    0  501    0  0.00000000000E+00  0.00000000000E+00 -0.10044428949E+04  0.10044428949E+04  0.50400001928E-02 0. -1.
    10030    2    1    2    0    0  0.00000000000E+00  0.00000000000E+00  0.69042622505E+03  0.26993120149E+04  0.26095204505E+04 0.  0.
        3    1    3    3  502    0  0.15190910665E+03  0.89786472808E+03 -0.62137120359E+03  0.11024244325E+04  0.10100000352E+00 0. -1.
       -3    1    3    3    0  502 -0.15190910665E+03 -0.89786472808E+03  0.13117974286E+04  0.15968875823E+04  0.10100000352E+00 0.  1.
</event>
<event>
 5   0  0.3508470E-05  0.2615551E+04  0.7818609E-02  0.8362938E-01
        2   -1    0    0  501    0  0.00000000000E+00  0.00000000000E+00  0.12091999696E+04  0.12091999696E+04  0.25500000920E-02 0.  1.
       -2   -1    0    0    0  501  0.00000000000E+00  0.00000000000E+00 -0.14143871285E+04  0.14143871285E+04  0.25500000920E-02 0. -1.
    10030    2    1    2    0    0  0.00000000000E+00  0.00000000000E+00 -0.20518715896E+03  0.26235870981E+04  0.26155510875E+04 0.  0.
        5    1    3    3  502    0 -0.86666517489E+03  0.51444386499E+03  0.73332976852E+03  0.12464171272E+04  0.46999998093E+01 0.  1.
       -5    1    3    3    0  502  0.86666517489E+03 -0.51444386499E+03 -0.93851692748E+03  0.13771699709E+04  0.46999998093E+01 0. -1.
</event>
<event>
 5   0  0.3508470E-05  0.1997451E+04  0.7818609E-02  0.8607813E-01
        2   -1    0    0  501    0  0.00000000000E+00  0.00000000000E+00  0.25315712937E+04  0.25315712937E+04  0.25500000920E-02 0. -1.
       -2   -1    0    0    0  501  0.00000000000E+00  0.00000000000E+00 -0.39400549065E+03  0.39400549066E+03  0.25500000920E-02 0.  1.
    10030    2    1    2    0    0  0.00000000000E+00  0.00000000000E+00  0.21375658031E+04  0.29255767844E+04  0.19974513658E+04 0.  0.
        5    1    3    3  502    0  0.61415405876E+03  0.78701454794E+03  0.11115797340E+04  0.14940577973E+04  0.46999998093E+01 0.  1.
       -5    1    3    3    0  502 -0.61415405876E+03 -0.78701454794E+03  0.10259860691E+04  0.14315189871E+04  0.46999998093E+01 0. -1.
</event>
<event>
 5   0  0.3499642E-05  0.1812227E+04  0.7818609E-02  0.8699824E-01
       -2   -1    0    0    0  501  0.00000000000E+00  0.00000000000E+00  0.50833898127E+03  0.50833898127E+03  0.25500000920E-02 0.  1.
        2   -1    0    0  501    0  0.00000000000E+00  0.00000000000E+00 -0.16151453918E+04  0.16151453918E+04  0.25500000920E-02 0. -1.
    10030    2    1    2    0    0  0.00000000000E+00  0.00000000000E+00 -0.11068064106E+04  0.21234843731E+04  0.18122266559E+04 0.  0.
        2    1    3    3  502    0  0.36898405311E+03 -0.72374092447E+03 -0.10237004901E+04  0.13068713979E+04  0.25500000920E-02 0. -1.
       -2    1    3    3    0  502 -0.36898405311E+03  0.72374092447E+03 -0.83105920414E+02  0.81661297517E+03  0.25500000920E-02 0.  1.
</event>
<event>
 5   0  0.3441646E-05  0.2619446E+04  0.7818609E-02  0.8361626E-01
        2   -1    0    0  501    0  0.00000000000E+00  0.00000000000E+00  0.17210529850E+04  0.17210529850E+04  0.25500000920E-02 0.  1.
       -2   -1    0    0    0  501  0.00000000000E+00  0.00000000000E+00 -0.99670073282E+03  0.99670073282E+03  0.25500000920E-02 0. -1.
    10030    2    1    2    0    0  0.00000000000E+00  0.00000000000E+00  0.72435225218E+03  0.27177537178E+04  0.26194463319E+04 0.  0.
        4    1    3    3  502    0 -0.53496525937E+03 -0.10756241775E+04  0.90350224208E+03  0.15031543881E+04  0.12699999809E+01 0.  1.
       -4    1    3    3    0  502  0.53496525937E+03  0.10756241775E+04 -0.17914998991E+03  0.12145993297E+04  0.12699999809E+01 0. -1.
</event>
<event>
 5   0  0.1451052E-05  0.2721271E+04  0.7818609E-02  0.8328136E-01
       -1   -1    0    0    0  501  0.00000000000E+00  0.00000000000E+00  0.14622377177E+04  0.14622377177E+04  0.50400001928E-02 0.  1.
        1   -1    0    0  501    0  0.00000000000E+00  0.00000000000E+00 -0.12660931376E+04  0.12660931377E+04  0.50400001928E-02 0. -1.
    10030    2    1    2    0    0  0.00000000000E+00  0.00000000000E+00  0.19614458006E+03  0.27283308554E+04  0.27212711295E+04 0.  0.
        1    1    3    3  502    0 -0.88316487175E+03  0.38740621126E+03 -0.86424346313E+03  0.12949828288E+04  0.50400001928E-02 0. -1.
       -1    1    3    3    0  502  0.88316487175E+03 -0.38740621126E+03  0.10603880432E+04  0.14333480266E+04  0.50400001928E-02 0.  1.
</event>
<event>
 5   0  0.1451052E-05  0.2642824E+04  0.7818609E-02  0.8353799E-01
       -1   -1    0    0    0  501  0.00000000000E+00  0.00000000000E+00  0.12380010685E+04  0.12380010685E+04  0.50400001928E-02 0. -1.
        1   -1    0    0  501    0  0.00000000000E+00  0.00000000000E+00 -0.14104429865E+04  0.14104429865E+04  0.50400001928E-02 0.  1.
    10030    2    1    2    0    0  0.00000000000E+00  0.00000000000E+00 -0.17244191798E+03  0.26484440550E+04  0.26428241897E+04 0.  0.
        1    1    3    3  502    0 -0.81452834489E+03 -0.13595218593E+03  0.94756878580E+03  0.12569113037E+04  0.50400001928E-02 0. -1.
       -1    1    3    3    0  502  0.81452834489E+03  0.13595218593E+03 -0.11200107038E+04  0.13915327514E+04  0.50400001928E-02 0.  1.
</event>
<event>
 5   0  0.1474554E-05  0.2632078E+04  0.7818609E-02  0.8357386E-01
       -1   -1    0    0    0  501  0.00000000000E+00  0.00000000000E+00  0.92484729496E+03  0.92484729498E+03  0.50400001928E-02 0.  1.
        1   -1    0    0  501    0  0.00000000000E+00  0.00000000000E+00 -0.18726975315E+04  0.18726975315E+04  0.50400001928E-02 0. -1.
    10030    2    1    2    0    0  0.00000000000E+00  0.00000000000E+00 -0.94785023654E+03  0.27975448265E+04  0.26320784535E+04 0.  0.
        5    1    3    3  502    0 -0.92091591392E+03 -0.95337478212E+02  0.52015898571E+03  0.10619617769E+04  0.46999998093E+01 0.  1.
       -5    1    3    3    0  502  0.92091591392E+03  0.95337478212E+02 -0.14680092222E+04  0.17355830495E+04  0.46999998093E+01 0. -1.
</event>
<event>
 5   0  0.3849687E-05  0.2598556E+04  0.7818609E-02  0.8368692E-01
        2   -1    0    0  501    0  0.00000000000E+00  0.00000000000E+00  0.14169155741E+04  0.14169155741E+04  0.25500000920E-02 0. -1.
       -2   -1    0    0    0  501  0.00000000000E+00  0.00000000000E+00 -0.11914068001E+04  0.11914068001E+04  0.25500000920E-02 0.  1.
    10030    2    1    2    0    0  0.00000000000E+00  0.00000000000E+00  0.22550877392E+03  0.26083223742E+04  0.25985556374E+04 0.  0.
        1    1    3    3  502    0 -0.79606552585E+03 -0.81384871202E+03 -0.51574018075E+03  0.12498231801E+04  0.50400001928E-02 0.  1.
       -1    1    3    3    0  502  0.79606552585E+03  0.81384871202E+03  0.74124895467E+03  0.13584991941E+04  0.50400001928E-02 0. -1.
</event>
<event>
 5   0  0.3441646E-05  0.2586098E+04  0.7818609E-02  0.8372939E-01
        2   -1    0    0  501    0  0.00000000000E+00  0.00000000000E+00  0.14913883708E+04  0.14913883708E+04  0.25500000920E-02 0. -1.
       -2   -1    0    0    0  501  0.00000000000E+00  0.00000000000E+00 -0.11210869965E+04  0.11210869965E+04  0.25500000920E-02 0.  1.
    10030    2    1    2    0    0  0.00000000000E+00  0.00000000000E+00  0.37030137433E+03  0.26124753673E+04  0.25860983038E+04 0.  0.
        4    1    3    3  502    0 -0.83690941118E+03 -0.96483454195E+03  0.38882916676E+03  0.13351077820E+04  0.12699999809E+01 0. -1.
       -4    1    3    3    0  502  0.83690941118E+03  0.96483454195E+03 -0.18527792429E+02  0.12773675853E+04  0.12699999809E+01 0.  1.
</event>
<event>
 5   0  0.1533248E-05  0.2389215E+04  0.7818609E-02  0.8443552E-01
        1   -1    0    0  501    0  0.00000000000E+00  0.00000000000E+00  0.56605818515E+03  0.56605818517E+03  0.50400001928E-02 0.  1.
       -1   -1    0    0    0  501  0.00000000000E+00  0.00000000000E+00 -0.25210957856E+04  0.25210957856E+04  0.50400001928E-02 0. -1.
    10030    2    1    2    0    0  0.00000000000E+00  0.00000000000E+00 -0.19550376004E+04  0.30871539708E+04  0.23892148543E+04 0.  0.
        4    1    3    3  502    0  0.85998492650E+03  0.81200125105E+03 -0.76066881317E+03  0.14062498931E+04  0.12699999809E+01 0.  1.
       -4    1    3    3    0  502 -0.85998492650E+03 -0.81200125105E+03 -0.11943687873E+04  0.16809040777E+04  0.12699999809E+01 0. -1.
</event>
<event>
 5   0  0.1474554E-05  0.2520134E+04  0.7818609E-02  0.8395848E-01
       -1   -1    0    0    0  501  0.00000000000E+00  0.00000000000E+00  0.78361985644E+03  0.78361985645E+03  0.50400001928E-02 0. -1.
        1   -1    0    0  501    0  0.00000000000E+00  0.00000000000E+00 -0.20261977311E+04  0.20261977311E+04  0.50400001928E-02 0.  1.
    10030    2    1    2    0    0  0.00000000000E+00  0.00000000000E+00 -0.12425778747E+04  0.28098175875E+04  0.25201339450E+04 0.  0.
        5    1    3    3  502    0  0.38564773392E+03 -0.80005497696E+03 -0.16178641988E+04  0.18456215204E+04  0.46999998093E+01 0.  1.
       -5    1    3    3    0  502 -0.38564773392E+03  0.80005497696E+03  0.37528632413E+03  0.96419606715E+03  0.46999998093E+01 0. -1.
</event>
<event>
 5   0  0.3849687E-05  0.2565201E+04  0.7818609E-02  0.8380119E-01
        2   -1    0    0  501    0  0.00000000000E+00  0.00000000000E+00  0.20226001871E+04  0.20226001871E+04  0.25500000920E-02 0. -1.
       -2   -1    0    0    0  501  0.00000000000E+00  0.00000000000E+00 -0.81334112444E+03  0.81334112445E+03  0.25500000920E-02 0.  1.
    10030    2    1    2    0    0  0.00000000000E+00  0.00000000000E+00  0.12092590627E+04  0.28359413116E+04  0.25652008970E+04 0.  0.
        1    1    3    3  502    0 -0.60960564914E+03 -0.27590325173E+03 -0.60508078450E+03  0.90214433855E+03  0.50400001928E-02 0.  1.
       -1    1    3    3    0  502  0.60960564914E+03  0.27590325173E+03  0.18143398472E+04  0.19337969730E+04  0.50400001928E-02 0. -1.
</event>
<event>
 5   0  0.1497497E-05  0.2544866E+04  0.7818609E-02  0.8387174E-01
       -1   -1    0    0    0  501  0.00000000000E+00  0.00000000000E+00  0.12089265520E+04  0.12089265520E+04  0.50400001928E-02 0.  1.
        1   -1    0    0  501    0  0.00000000000E+00  0.00000000000E+00 -0.13392757199E+04  0.13392757199E+04  0.50400001928E-02 0. -1.
    10030    2    1    2    0    0  0.00000000000E+00  0.00000000000E+00 -0.13034916783E+03  0.25482022719E+04  0.25448661876E+04 0.  0.
        3    1    3    3  502    0 -0.12612940094E+04  0.16727550525E+03 -0.80760821178E+02  0.12748984247E+04  0.10100000352E+00 0.  1.
       -3    1    3    3    0  502  0.12612940094E+04 -0.16727550525E+03 -0.49588346655E+02  0.12733038472E+04  0.10100000352E+00 0. -1.
</event>
<event>
 5   0  0.3499642E-05  0.2620663E+04  0.7818609E-02  0.8361216E-01
        2   -1    0    0  501    0  0.00000000000E+00  0.00000000000E+00  0.15391959553E+04  0.15391959553E+04  0.25500000920E-02 0. -1.
       -2   -1    0    0    0  501  0.00000000000E+00  0.00000000000E+00 -0.11154973963E+04  0.11154973963E+04  0.25500000920E-02 0.  1.
    10030    2    1    2    0    0  0.00000000000E+00  0.00000000000E+00  0.42369855898E+03  0.26546933516E+04  0.26206633363E+04 0.  0.
        2    1    3    3  502    0  0.46916338449E+03 -0.18109657461E+03 -0.10138456611E+04  0.11317213770E+04  0.25500000920E-02 0.  1.
       -2    1    3    3    0  502 -0.46916338449E+03  0.18109657461E+03  0.14375442201E+04  0.15229719746E+04  0.25500000920E-02 0. -1.
</event>
<event>
 5   0  0.3499642E-05  0.2308413E+04  0.7818609E-02  0.8474612E-01
        2   -1    0    0  501    0  0.00000000000E+00  0.00000000000E+00  0.17668886622E+04  0.17668886622E+04  0.25500000920E-02 0.  1.
       -2   -1    0    0    0  501  0.00000000000E+00  0.00000000000E+00 -0.75397626812E+03  0.75397626813E+03  0.25500000920E-02 0. -1.
    10030    2    1    2    0    0  0.00000000000E+00  0.00000000000E+00  0.10129123941E+04  0.25208649304E+04  0.23084125452E+04 0.  0.
        2    1    3    3  502    0  0.46062800451E+02 -0.25251405546E+03 -0.72241298429E+03  0.76665875699E+03  0.25500000920E-02 0. -1.
       -2    1    3    3    0  502 -0.46062800451E+02  0.25251405546E+03  0.17353253784E+04  0.17542061734E+04  0.25500000920E-02 0.  1.
</event>
<event>
 5   0  0.3441646E-05  0.2617053E+04  0.7818609E-02  0.8362432E-01
        2   -1    0    0  501    0  0.00000000000E+00  0.00000000000E+00  0.18186633070E+04  0.18186633070E+04  0.25500000920E-02 0. -1.
       -2   -1    0    0    0  501  0.00000000000E+00  0.00000000000E+00 -0.94148325843E+03  0.94148325843E+03  0.25500000920E-02 0.  1.
    10030    2    1    2    0    0  0.00000000000E+00  0.00000000000E+00  0.87718004854E+03  0.27601465654E+04  0.26170525835E+04 0.  0.
        4    1    3    3  502    0 -0.92497024029E+02  0.32503445857E+03  0.17718444110E+04  0.18037841691E+04  0.12699999809E+01 0. -1.
       -4    1    3    3    0  502  0.92497024029E+02 -0.32503445857E+03 -0.89466436250E+03  0.95636239634E+03  0.12699999809E+01 0.  1.
</event>
<event>
 5   0  0.3508470E-05  0.2587823E+04  0.7818609E-02  0.8372349E-01
        2   -1    0    0  501    0  0.00000000000E+00  0.00000000000E+00  0.15981672623E+04  0.15981672623E+04  0.25500000920E-02 0. -1.
       -2   -1    0    0    0  501  0.00000000000E+00  0.00000000000E+00 -0.10475793269E+04  0.10475793269E+04  0.25500000920E-02 0.  1.
    10030    2    1    2    0    0  0.00000000000E+00  0.00000000000E+00  0.55058793541E+03  0.26457465892E+04  0.25878230117E+04 0.  0.
        5    1    3    3  502    0  0.10891843576E+04  0.27343695905E+03 -0.38181654031E+03  0.11861265936E+04  0.46999998093E+01 0.  1.
       -5    1    3    3    0  502 -0.10891843576E+04 -0.27343695905E+03  0.93240447572E+03  0.14596199957E+04  0.46999998093E+01 0. -1.
</event>
<event>
 5   0  0.3849687E-05  0.2602632E+04  0.7818609E-02  0.8367308E-01
       -2   -1    0    0    0  501  0.00000000000E+00  0.00000000000E+00  0.63894472684E+03  0.63894472684E+03  0.25500000920E-02 0. -1.
        2   -1    0    0  501    0  0.00000000000E+00  0.00000000000E+00 -0.26503440482E+04  0.26503440482E+04  0.25500000920E-02 0.  1.
    10030    2    1    2    0    0  0.00000000000E+00  0.00000000000E+00 -0.20113993213E+04  0.32892887750E+04  0.26026320169E+04 0.  0.
        1    1    3    3  502    0 -0.74972841387E+02  0.39810230769E+03 -0.25686241282E+04  0.26003723361E+04  0.50400001928E-02 0.  1.
       -1    1    3    3    0  502  0.74972841387E+02 -0.39810230769E+03  0.55722480689E+03  0.68891643889E+03  0.50400001928E-02 0. -1.
</event>
<event>
 5   0  0.3508470E-05  0.2597035E+04  0.7818609E-02  0.8369209E-01
       -2   -1    0    0    0  501  0.00000000000E+00  0.00000000000E+00  0.90353370622E+03  0.90353370623E+03  0.25500000920E-02 0.  1.
        2   -1    0    0  501    0  0.00000000000E+00  0.00000000000E+00 -0.18661709371E+04  0.18661709371E+04  0.25500000920E-02 0. -1.
    10030    2    1    2    0    0  0.00000000000E+00  0.00000000000E+00 -0.96263723087E+03  0.27697046433E+04  0.25970354971E+04 0.  0.
        5    1    3    3  502    0 -0.83927592945E+03  0.83304527144E+03  0.90797491321E+02  0.11860079192E+04  0.46999998093E+01 0.  1.
       -5    1    3    3    0  502  0.83927592945E+03 -0.83304527144E+03 -0.10534347222E+04  0.15836967241E+04  0.46999998093E+01 0. -1.
</event>
<event>
 5   0  0.1533248E-05  0.2519313E+04  0.7818609E-02  0.8396137E-01
       -1   -1    0    0    0  501  0.00000000000E+00  0.00000000000E+00  0.66528481183E+03  0.66528481185E+03  0.50400001928E-02 0.  1.
        1   -1    0    0  501    0  0.00000000000E+00  0.00000000000E+00 -0.23850459521E+04  0.23850459521E+04  0.50400001928E-02 0. -1.
    10030    2    1    2    0    0  0.00000000000E+00  0.00000000000E+00 -0.17197611403E+04  0.30503307640E+04  0.25193132775E+04 0.  0.
        4    1    3    3  502    0 -0.10187618485E+04 -0.38529280147E+03 -0.16260337057E+04  0.19571186657E+04  0.12699999809E+01 0. -1.
       -4    1    3    3    0  502  0.10187618485E+04  0.38529280147E+03 -0.93727434631E+02  0.10932120982E+04  0.12699999809E+01 0.  1.
</event>
<event>
 5   0  0.1474554E-05  0.2459177E+04  0.7818609E-02  0.8417675E-01
       -1   -1    0    0    0  501  0.00000000000E+00  0.00000000000E+00  0.90762218924E+03  0.90762218925E+03  0.50400001928E-02 0. -1.
        1   -1    0    0  501    0  0.00000000000E+00  0.00000000000E+00 -0.16657673329E+04  0.16657673329E+04  0.50400001928E-02 0.  1.
    10030    2    1    2    0    0  0.00000000000E+00  0.00000000000E+00 -0.75814514362E+03  0.25733895221E+04  0.24591766048E+04 0.  0.
        5    1    3    3  502    0 -0.88890223520E+03  0.78097117938E+03 -0.29175054024E+02  0.11836116088E+04  0.46999998093E+01 0. -1.
       -5    1    3    3    0  502  0.88890223520E+03 -0.78097117938E+03 -0.72897008960E+03  0.13897779133E+04  0.46999998093E+01 0.  1.
</event>
<event>
 5   0  0.3441646E-05  0.2587317E+04  0.7818609E-02  0.8372522E-01
        2   -1    0    0  501    0  0.00000000000E+00  0.00000000000E+00  0.20079720573E+04  0.20079720573E+04  0.25500000920E-02 0.  1.
       -2   -1    0    0    0  501  0.00000000000E+00  0.00000000000E+00 -0.83345368258E+03  0.83345368258E+03  0.25500000920E-02 0. -1.
    10030    2    1    2    0    0  0.00000000000E+00  0.00000000000E+00  0.11745183747E+04  0.28414257399E+04  0.25873165293E+04 0.  0.
        4    1    3    3  502    0 -0.12506639843E+04 -0.17489200319E+03  0.89554723348E+03  0.15481453662E+04  0.12699999809E+01 0. -1.
       -4    1    3    3    0  502  0.12506639843E+04  0.17489200319E+03  0.27897114121E+03  0.12932803737E+04  0.12699999809E+01 0.  1.
</event>
<event>
 5   0  0.3499642E-05  0.2590580E+04  0.7818609E-02  0.8371408E-01
       -2   -1    0    0    0  501  0.00000000000E+00  0.00000000000E+00  0.11014820174E+04  0.11014820174E+04  0.25500000920E-02 0. -1.
        2   -1    0    0  501    0  0.00000000000E+00  0.00000000000E+00 -0.15231991805E+04  0.15231991805E+04  0.25500000920E-02 0.  1.
    10030    2    1    2    0    0  0.00000000000E+00  0.00000000000E+00 -0.42171716315E+03  0.26246811979E+04  0.25905802487E+04 0.  0.
        2    1    3    3  502    0 -0.33919485891E+03 -0.64788450456E+02  0.10539840924E+04  0.11091136833E+04  0.25500000920E-02 0. -1.
       -2    1    3    3    0  502  0.33919485891E+03  0.64788450456E+02 -0.14757012555E+04  0.15155675145E+04  0.25500000920E-02 0.  1.
</event>
<event>
 5   0  0.1474554E-05  0.2522074E+04  0.7818609E-02  0.8395163E-01
       -1   -1    0    0    0  501  0.00000000000E+00  0.00000000000E+00  0.11737365395E+04  0.11737365395E+04  0.50400001928E-02 0. -1.
        1   -1    0    0  501    0  0.00000000000E+00  0.00000000000E+00 -0.13548308241E+04  0.13548308241E+04  0.50400001928E-02 0.  1.
    10030    2    1    2    0    0  0.00000000000E+00  0.00000000000E+00 -0.18109428462E+03  0.25285673636E+04  0.25220741013E+04 0.  0.
        5    1    3    3  502    0  0.10434848126E+04  0.39764860231E+03  0.49680018892E+03  0.12222182631E+04  0.46999998093E+01 0. -1.
       -5    1    3    3    0  502 -0.10434848126E+04 -0.39764860231E+03 -0.67789447354E+03  0.13063491005E+04  0.46999998093E+01 0.  1.
</event>
<event>
 5   0  0.1533248E-05  0.2537818E+04  0.7818609E-02  0.8389635E-01
        1   -1    0    0  501    0  0.00000000000E+00  0.00000000000E+00  0.13696293859E+04  0.13696293859E+04  0.50400001928E-02 0. -1.
       -1   -1    0    0    0  501  0.00000000000E+00  0.00000000000E+00 -0.11755953457E+04  0.11755953457E+04  0.50400001928E-02 0.  1.
    10030    2    1    2    0    0  0.00000000000E+00  0.00000000000E+00  0.19403404016E+03  0.25452247316E+04  0.25378179063E+04 0.  0.
        4    1    3    3  502    0  0.84075134222E+03  0.94675350165E+03  0.18046627193E+03  0.12789740813E+04  0.12699999809E+01 0. -1.
       -4    1    3    3    0  502 -0.84075134222E+03 -0.94675350165E+03  0.13567768233E+02  0.12662506504E+04  0.12699999809E+01 0.  1.
</event>
<event>
 5   0  0.3508470E-05  0.2535822E+04  0.7818609E-02  0.8390334E-01
        2   -1    0    0  501    0  0.00000000000E+00  0.00000000000E+00  0.18768796948E+04  0.18768796948E+04  0.25500000920E-02 0. -1.
       -2   -1    0    0    0  501  0.00000000000E+00  0.00000000000E+00 -0.85652713335E+03  0.85652713335E+03  0.25500000920E-02 0.  1.
    10030    2    1    2    0    0  0.00000000000E+00  0.00000000000E+00  0.10203525614E+04  0.27334068281E+04  0.25358220636E+04 0.  0.
        5    1    3    3  502    0  0.44851837219E+03  0.77374565510E+03  0.14789387866E+04  0.17283324603E+04  0.46999998093E+01 0. -1.
       -5    1    3    3    0  502 -0.44851837219E+03 -0.77374565510E+03 -0.45858622512E+03  0.10050743678E+04  0.46999998093E+01 0.  1.
</event>
<event>
 5   0  0.1435062E-05  0.2605446E+04  0.7818609E-02  0.8366354E-01
       -1   -1    0    0    0  501  0.00000000000E+00  0.00000000000E+00  0.87832529910E+03  0.87832529912E+03  0.50400001928E-02 0.  1.
        1   -1    0    0  501    0  0.00000000000E+00  0.00000000000E+00 -0.19321857819E+04  0.19321857819E+04  0.50400001928E-02 0. -1.
    10030    2    1    2    0    0  0.00000000000E+00  0.00000000000E+00 -0.10538604828E+04  0.28105110811E+04  0.26054463379E+04 0.  0.
        2    1    3    3  502    0 -0.42017513423E+03 -0.29218742611E+03 -0.18192036027E+04  0.18898207279E+04  0.25500000920E-02 0. -1.
       -2    1    3    3    0  502  0.42017513423E+03  0.29218742611E+03  0.76534311984E+03  0.92069035321E+03  0.25500000920E-02 0.  1.
</event>
<event>
 5   0  0.1497497E-05  0.2620388E+04  0.7818609E-02  0.8361309E-01
        1   -1    0    0  501    0  0.00000000000E+00  0.00000000000E+00  0.12507841095E+04  0.12507841095E+04  0.50400001928E-02 0.  1.
       -1   -1    0    0    0  501  0.00000000000E+00  0.00000000000E+00 -0.13724261942E+04  0.13724261942E+04  0.50400001928E-02 0. -1.
    10030    2    1    2    0    0  0.00000000000E+00  0.00000000000E+00 -0.12164208467E+03  0.26232103037E+04  0.26203884256E+04 0.  0.
        3    1    3    3  502    0  0.11125544238E+04  0.28151945931E+03  0.57198175691E+03  0.12822611639E+04  0.10100000352E+00 0.  1.
       -3    1    3    3    0  502 -0.11125544238E+04 -0.28151945931E+03 -0.69362384158E+03  0.13409491399E+04  0.10100000352E+00 0. -1.
</event>
<event>
 5   0  0.1451052E-05  0.2650155E+04  0.7818609E-02  0.8351362E-01
       -1   -1    0    0    0  501  0.00000000000E+00  0.00000000000E+00  0.11134657812E+04  0.11134657812E+04  0.50400001928E-02 0.  1.
        1   -1    0    0  501    0  0.00000000000E+00  0.00000000000E+00 -0.15769052356E+04  0.15769052356E+04  0.50400001928E-02 0. -1.
    10030    2    1    2    0    0  0.00000000000E+00  0.00000000000E+00 -0.46343945447E+03  0.26903710168E+04  0.26501547276E+04 0.  0.
        1    1    3    3  502    0  0.25950006308E+03 -0.10689152146E+03  0.10829472540E+04  0.11187228589E+04  0.50400001928E-02 0.  1.
       -1    1    3    3    0  502 -0.25950006308E+03  0.10689152146E+03 -0.15463867085E+04  0.15716481579E+04  0.50400001928E-02 0. -1.
</event>
<event>
 5   0  0.3849687E-05  0.2583229E+04  0.7818609E-02  0.8373920E-01
        2   -1    0    0  501    0  0.00000000000E+00  0.00000000000E+00  0.20631317706E+04  0.20631317706E+04  0.25500000920E-02 0.  1.
       -2   -1    0    0    0  501  0.00000000000E+00  0.00000000000E+00 -0.80860943933E+03  0.80860943934E+03  0.25500000920E-02 0. -1.
    10030    2    1    2    0    0  0.00000000000E+00  0.00000000000E+00  0.12545223312E+04  0.28717412099E+04  0.25832288511E+04 0.  0.
        1    1    3    3  502    0 -0.27128335092E+03 -0.10214292470E+04  0.14527253947E+04  0.17964752811E+04  0.50400001928E-02 0.  1.
       -1    1    3    3    0  502  0.27128335092E+03  0.10214292470E+04 -0.19820306348E+03  0.10752659288E+04  0.50400001928E-02 0. -1.
</event>
<event>
 5   0  0.3647623E-05  0.2622957E+04  0.7818609E-02  0.8360445E-01
       -2   -1    0    0    0  501  0.00000000000E+00  0.00000000000E+00  0.32002570102E+04  0.32002570102E+04  0.25500000920E-02 0. -1.
        2   -1    0    0  501    0  0.00000000000E+00  0.00000000000E+00 -0.53744916862E+03  0.53744916863E+03  0.25500000920E-02 0.  1.
    10030    2    1    2    0    0  0.00000000000E+00  0.00000000000E+00  0.26628078416E+04  0.37377061788E+04  0.26229567053E+04 0.  0.
        3    1    3    3  502    0 -0.60938775208E+03 -0.89423278864E+03  0.27558791360E+03  0.11166711338E+04  0.10100000352E+00 0.  1.
       -3    1    3    3    0  502  0.60938775208E+03  0.89423278864E+03  0.23872199280E+04  0.26210350450E+04  0.10100000352E+00 0. -1.
</event>
<event>
 5   0  0.3508470E-05  0.1722971E+04  0.7818609E-02  0.8748371E-01
       -2   -1    0    0    0  501  0.00000000000E+00  0.00000000000E+00  0.11019777013E+04  0.11019777013E+04  0.25500000920E-02 0. -1.
        2   -1    0    0  501    0  0.00000000000E+00  0.00000000000E+00 -0.67347729816E+03  0.67347729817E+03  0.25500000920E-02 0.  1.
    10030    2    1    2    0    0  0.00000000000E+00  0.00000000000E+00  0.42850040314E+03  0.17754549995E+04  0.17229706497E+04 0.  0.
        5    1    3    3  502    0  0.87931386051E+02  0.13947708592E+03 -0.65705307706E+03  0.67744123156E+03  0.46999998093E+01 0.  1.
       -5    1    3    3    0  502 -0.87931386051E+02 -0.13947708592E+03  0.10855534802E+04  0.10980137679E+04  0.46999998093E+01 0. -1.
</event>
<event>
 5   0  0.3441646E-05  0.2656561E+04  0.7818609E-02  0.8349239E-01
        2   -1    0    0  501    0  0.00000000000E+00  0.00000000000E+00  0.23950203282E+04  0.23950203282E+04  0.25500000920E-02 0. -1.
       -2   -1    0    0    0  501  0.00000000000E+00  0.00000000000E+00 -0.73666566576E+03  0.73666566576E+03  0.25500000920E-02 0.  1.
    10030    2    1    2    0    0  0.00000000000E+00  0.00000000000E+00  0.16583546625E+04  0.31316859940E+04  0.26565611189E+04 0.  0.
        4    1    3    3  502    0  0.58425364006E+02 -0.66277406611E+03 -0.52606122385E+03  0.84818925365E+03  0.12699999809E+01 0.  1.
       -4    1    3    3    0  502 -0.58425364006E+02  0.66277406611E+03  0.21844158863E+04  0.22834967404E+04  0.12699999809E+01 0. -1.
</event>
<event>
 5   0  0.3849687E-05  0.2598678E+04  0.7818609E-02  0.8368650E-01
        2   -1    0    0  501    0  0.00000000000E+00  0.00000000000E+00  0.11307661478E+04  0.11307661478E+04  0.25500000920E-02 0. -1.
       -2   -1    0    0    0  501  0.00000000000E+00  0.00000000000E+00 -0.14930421117E+04  0.14930421117E+04  0.25500000920E-02 0.  1.
    10030    2    1    2    0    0  0.00000000000E+00  0.00000000000E+00 -0.36227596390E+03  0.26238082594E+04  0.25986777230E+04 0.  0.
        1    1    3    3  502    0  0.79303859492E+03  0.16872649176E+03  0.84401456775E+03  0.11703586769E+04  0.50400001928E-02 0. -1.
       -1    1    3    3    0  502 -0.79303859492E+03 -0.16872649176E+03 -0.12062905316E+04  0.14534495825E+04  0.50400001928E-02 0.  1.
</event>
<event>
 5   0  0.1435062E-05  0.2610096E+04  0.7818609E-02  0.8364780E-01
        1   -1    0    0  501    0  0.00000000000E+00  0.00000000000E+00  0.13828380429E+04  0.13828380429E+04  0.50400001928E-02 0. -1.
       -1   -1    0    0    0  501  0.00000000000E+00  0.00000000000E+00 -0.12316341090E+04  0.12316341090E+04  0.50400001928E-02 0.  1.
    10030    2    1    2    0    0  0.00000000000E+00  0.00000000000E+00  0.15120393397E+03  0.26144721519E+04  0.26100961675E+04 0.  0.
        2    1    3    3  502    0 -0.63269028956E+03  0.10243915838E+03 -0.10631239828E+04  0.12413796302E+04  0.25500000920E-02 0.  1.
       -2    1    3    3    0  502  0.63269028956E+03 -0.10243915838E+03  0.12143279167E+04  0.13730925217E+04  0.25500000920E-02 0. -1.
</event>
<event>
 5   0  0.1497497E-05  0.1690343E+04  0.7818609E-02  0.8766891E-01
        1   -1    0    0  501    0  0.00000000000E+00  0.00000000000E+00  0.10404942608E+04  0.10404942608E+04  0.50400001928E-02 0. -1.
       -1   -1    0    0    0  501  0.00000000000E+00  0.00000000000E+00 -0.68651490678E+03  0.68651490680E+03  0.50400001928E-02 0.  1.
    10030    2    1    2    0    0  0.00000000000E+00  0.00000000000E+00  0.35397935405E+03  0.17270091676E+04  0.16903429480E+04 0.  0.
        3    1    3    3  502    0 -0.12882479281E+03 -0.18179236120E+03  0.10099475272E+04  0.10342331979E+04  0.10100000352E+00 0. -1.
       -3    1    3    3    0  502  0.12882479281E+03  0.18179236120E+03 -0.65596817314E+03  0.69277596971E+03  0.10100000352E+00 0.  1.
</event>
<event>
 5   0  0.3647623E-05  0.2586828E+04  0.7818609E-02  0.8372689E-01
        2   -1    0    0  501    0  0.00000000000E+00  0.00000000000E+00  0.14947113657E+04  0.14947113657E+04  0.25500000920E-02 0. -1.
       -2   -1    0    0    0  501  0.00000000000E+00  0.00000000000E+00 -0.11192260626E+04  0.11192260626E+04  0.25500000920E-02 0.  1.
    10030    2    1    2    0    0  0.00000000000E+00  0.00000000000E+00  0.37548530313E+03  0.26139374284E+04  0.25868281092E+04 0.  0.
        3    1    3    3  502    0  0.75787484185E+03 -0.45324873075E+03 -0.76720681010E+03  0.11697927113E+04  0.10100000352E+00 0.  1.
       -3    1    3    3    0  502 -0.75787484185E+03  0.45324873075E+03  0.11426921132E+04  0.14441447170E+04  0.10100000352E+00 0. -1.
</event>
<event>
 5   0  0.3647623E-05  0.2278959E+04  0.7818609E-02  0.8486264E-01
       -2   -1    0    0    0  501  0.00000000000E+00  0.00000000000E+00  0.72182245525E+03  0.72182245525E+03  0.25500000920E-02 0. -1.
        2   -1    0    0  501    0  0.00000000000E+00  0.00000000000E+00 -0.17987991750E+04  0.17987991750E+04  0.25500000920E-02 0.  1.
    10030    2    1    2    0    0  0.00000000000E+00  0.00000000000E+00 -0.10769767198E+04  0.25206216303E+04  0.22789590931E+04 0.  0.
        3    1    3    3  502    0 -0.80605434012E+03  0.77160494305E+03 -0.79387563529E+03  0.13694291956E+04  0.10100000352E+00 0.  1.
       -3    1    3    3    0  502  0.80605434012E+03 -0.77160494305E+03 -0.28310108450E+03  0.11511924347E+04  0.10100000352E+00 0. -1.
</event>
<event>
 5   0  0.1533248E-05  0.2689374E+04  0.7818609E-02  0.8338461E-01
       -1   -1    0    0    0  501  0.00000000000E+00  0.00000000000E+00  0.13146726014E+04  0.13146726014E+04  0.50400001928E-02 0.  1.
        1   -1    0    0  501    0  0.00000000000E+00  0.00000000000E+00 -0.13753865570E+04  0.13753865570E+04  0.50400001928E-02 0. -1.
    10030    2    1    2    0    0  0.00000000000E+00  0.00000000000E+00 -0.60713955538E+02  0.26900591584E+04  0.26893739218E+04 0.  0.
        4    1    3    3  502    0  0.35001115675E+03 -0.11999638309E+04  0.46551161087E+03  0.13338379504E+04  0.12699999809E+01 0.  1.
       -4    1    3    3    0  502 -0.35001115675E+03  0.11999638309E+04 -0.52622556640E+03  0.13562212080E+04  0.12699999809E+01 0. -1.
</event>
<event>
 5   0  0.1451052E-05  0.2515054E+04  0.7818609E-02  0.8397642E-01
        1   -1    0    0  501    0  0.00000000000E+00  0.00000000000E+00  0.20127301183E+04  0.20127301183E+04  0.50400001928E-02 0. -1.
       -1   -1    0    0    0  501  0.00000000000E+00  0.00000000000E+00 -0.78568629819E+03  0.78568629821E+03  0.50400001928E-02 0.  1.
    10030    2    1    2    0    0  0.00000000000E+00  0.00000000000E+00  0.12270438201E+04  0.27984164165E+04  0.25150542546E+04 0.  0.
        1    1    3    3  502    0  0.21442744932E+03  0.25102942813E+03 -0.73660586999E+03  0.80720698246E+03  0.50400001928E-02 0.  1.
       -1    1    3    3    0  502 -0.21442744932E+03 -0.25102942813E+03  0.19636496900E+04  0.19912094340E+04  0.50400001928E-02 0. -1.
</event>
<event>
 5   0  0.3508470E-05  0.2558166E+04  0.7818609E-02  0.8382552E-01
        2   -1    0    0  501    0  0.00000000000E+00  0.00000000000E+00  0.95883851526E+03  0.95883851527E+03  0.25500000920E-02 0. -1.
       -2   -1    0    0    0  501  0.00000000000E+00  0.00000000000E+00 -0.17062860070E+04  0.17062860070E+04  0.25500000920E-02 0.  1.
    10030    2    1    2    0    0  0.00000000000E+00  0.00000000000E+00 -0.74744749171E+03  0.26651245222E+04  0.25581655471E+04 0.  0.
        5    1    3    3  502    0  0.16622761652E+03  0.71220792872E+03  0.71951208127E+03  0.10259588098E+04  0.46999998093E+01 0. -1.
       -5    1    3    3    0  502 -0.16622761652E+03 -0.71220792872E+03 -0.14669595730E+04  0.16391657125E+04  0.46999998093E+01 0.  1.
</event>
<event>
 5   0  0.1533248E-05  0.2406676E+04  0.7818609E-02  0.8437008E-01
        1   -1    0    0  501    0  0.00000000000E+00  0.00000000000E+00  0.99512044320E+03  0.99512044321E+03  0.50400001928E-02 0.  1.
       -1   -1    0    0    0  501  0.00000000000E+00  0.00000000000E+00 -0.14551224544E+04  0.14551224545E+04  0.50400001928E-02 0. -1.
    10030    2    1    2    0    0  0.00000000000E+00  0.00000000000E+00 -0.46000201124E+03  0.24502428977E+04  0.24066758002E+04 0.  0.
        4    1    3    3  502    0 -0.39485672440E+03 -0.97355435769E+03 -0.82739440260E+03  0.13372744784E+04  0.12699999809E+01 0. -1.
       -4    1    3    3    0  502  0.39485672440E+03  0.97355435769E+03  0.36739239136E+03  0.11129684193E+04  0.12699999809E+01 0.  1.
</event>
<event>
 5   0  0.1451052E-05  0.2441901E+04  0.7818609E-02  0.8423981E-01
       -1   -1    0    0    0  501  0.00000000000E+00  0.00000000000E+00  0.84880882852E+03  0.84880882853E+03  0.50400001928E-02 0.  1.
        1   -1    0    0  501    0  0.00000000000E+00  0.00000000000E+00 -0.17562493070E+04  0.17562493070E+04  0.50400001928E-02 0. -1.
    10030    2    1    2    0    0  0.00000000000E+00  0.00000000000E+00 -0.90744047851E+03  0.26050581356E+04  0.24419008308E+04 0.  0.
        1    1    3    3  502    0  0.24774447464E+03 -0.11154092851E+04 -0.91282883174E+03  0.14624539904E+04  0.50400001928E-02 0. -1.
       -1    1    3    3    0  502 -0.24774447464E+03  0.11154092851E+04  0.53883532316E+01  0.11426041451E+04  0.50400001928E-02 0.  1.
</event>
<event>
 5   0  0.3441646E-05  0.2590056E+04  0.7818609E-02  0.8371587E-01
       -2   -1    0    0    0  501  0.00000000000E+00  0.00000000000E+00  0.13493985043E+04  0.13493985043E+04  0.25500000920E-02 0.  1.
        2   -1    0    0  501    0  0.00000000000E+00  0.00000000000E+00 -0.12428478662E+04  0.12428478662E+04  0.25500000920E-02 0. -1.
    10030    2    1    2    0    0  0.00000000000E+00  0.00000000000E+00  0.10655063808E+03  0.25922463705E+04  0.25900556378E+04 0.  0.
        4    1    3    3  502    0 -0.34187643607E+03 -0.13897507605E+03 -0.11891053139E+04  0.12450568781E+04  0.12699999809E+01 0. -1.
       -4    1    3    3    0  502  0.34187643607E+03  0.13897507605E+03  0.12956559520E+04  0.13471894923E+04  0.12699999809E+01 0.  1.
</event>
<event>
 5   0  0.1497497E-05  0.2601479E+04  0.7818609E-02  0.8367699E-01
       -1   -1    0    0    0  501  0.00000000000E+00  0.00000000000E+00  0.81792724257E+03  0.81792724259E+03  0.50400001928E-02 0.  1.
        1   -1    0    0  501    0  0.00000000000E+00  0.00000000000E+00 -0.20685492795E+04  0.20685492795E+04  0.50400001928E-02 0. -1.
    10030    2    1    2    0    0  0.00000000000E+00  0.00000000000E+00 -0.12506220369E+04  0.28864765221E+04  0.26014786629E+04 0.  0.
        3    1    3    3  502    0 -0.19436814442E+03 -0.10811147596E+04 -0.13982913304E+04  0.17781470001E+04  0.10100000352E+00 0. -1.
       -3    1    3    3    0  502  0.19436814442E+03  0.10811147596E+04  0.14766929346E+03  0.11083295220E+04  0.10100000352E+00 0.  1.
</event>
<event>
 5   0  0.1451052E-05  0.2208858E+04  0.7818609E-02  0.8514750E-01
        1   -1    0    0  501    0  0.00000000000E+00  0.00000000000E+00  0.86952215849E+03  0.86952215851E+03  0.50400001928E-02 0.  1.
       -1   -1    0    0    0  501  0.00000000000E+00  0.00000000000E+00 -0.14027972919E+04  0.14027972919E+04  0.50400001928E-02 0. -1.
    10030    2    1    2    0    0  0.00000000000E+00  0.00000000000E+00 -0.53327513341E+03  0.22723194504E+04  0.22088579214E+04 0.  0.
        1    1    3    3  502    0  0.32517576855E+03  0.47242995714E+03  0.70431942240E+03  0.90829246042E+03  0.50400001928E-02 0.  1.
       -1    1    3    3    0  502 -0.32517576855E+03 -0.47242995714E+03 -0.12375945558E+04  0.13640269900E+04  0.50400001928E-02 0. -1.
</event>
<event>
 5   0  0.1451052E-05  0.2724858E+04  0.7818609E-02  0.8326984E-01
        1   -1    0    0  501    0  0.00000000000E+00  0.00000000000E+00  0.11568982852E+04  0.11568982853E+04  0.50400001928E-02 0.  1.
       -1   -1    0    0    0  501  0.00000000000E+00  0.00000000000E+00 -0.16044737527E+04  0.16044737527E+04  0.50400001928E-02 0. -1.
    10030    2    1    2    0    0  0.00000000000E+00  0.00000000000E+00 -0.44757546741E+03  0.27613720379E+04  0.27248581124E+04 0.  0.
        1    1    3    3  502    0 -0.32483388957E+02  0.10738429660E+04  0.62530569086E+03  0.12430611784E+04  0.50400001928E-02 0.  1.
       -1    1    3    3    0  502  0.32483388957E+02 -0.10738429660E+04 -0.10728811583E+04  0.15183108595E+04  0.50400001928E-02 0. -1.
</event>
<event>
 5   0  0.1474554E-05  0.2602300E+04  0.7818609E-02  0.8367420E-01
       -1   -1    0    0    0  501  0.00000000000E+00  0.00000000000E+00  0.84752711609E+03  0.84752711611E+03  0.50400001928E-02 0.  1.
        1   -1    0    0  501    0  0.00000000000E+00  0.00000000000E+00 -0.19975654153E+04  0.19975654153E+04  0.50400001928E-02 0. -1.
    10030    2    1    2    0    0  0.00000000000E+00  0.00000000000E+00 -0.11500382992E+04  0.28450925315E+04  0.26022996412E+04 0.  0.
        5    1    3    3  502    0 -0.81277883512E+03  0.81702797257E+03 -0.12353797670E+04  0.16894760731E+04  0.46999998093E+01 0.  1.
       -5    1    3    3    0  502  0.81277883512E+03 -0.81702797257E+03  0.85341467748E+02  0.11556164584E+04  0.46999998093E+01 0. -1.
</event>
<event>
 5   0  0.1474554E-05  0.1675526E+04  0.7818609E-02  0.8775447E-01
       -1   -1    0    0    0  501  0.00000000000E+00  0.00000000000E+00  0.39721570272E+03  0.39721570275E+03  0.50400001928E-02 0. -1.
        1   -1    0    0  501    0  0.00000000000E+00  0.00000000000E+00 -0.17669169306E+04  0.17669169306E+04  0.50400001928E-02 0.  1.
    10030    2    1    2    0    0  0.00000000000E+00  0.00000000000E+00 -0.13697012279E+04  0.21641326334E+04  0.16755263654E+04 0.  0.
        5    1    3    3  502    0  0.54879741052E+03  0.51255814672E+03 -0.20515810743E+03  0.77846412287E+03  0.46999998093E+01 0. -1.
       -5    1    3    3    0  502 -0.54879741052E+03 -0.51255814672E+03 -0.11645431205E+04  0.13856685105E+04  0.46999998093E+01 0.  1.
</event>
<event>
 5   0  0.1435062E-05  0.2607564E+04  0.7818609E-02  0.8365636E-01
       -1   -1    0    0    0  501  0.00000000000E+00  0.00000000000E+00  0.12902897842E+04  0.12902897842E+04  0.50400001928E-02 0.  1.
        1   -1    0    0  501    0  0.00000000000E+00  0.00000000000E+00 -0.13174157424E+04  0.13174157424E+04  0.50400001928E-02 0. -1.
    10030    2    1    2    0    0  0.00000000000E+00  0.00000000000E+00 -0.27125958270E+02  0.26077055266E+04  0.26075644376E+04 0.  0.
        2    1    3    3  502    0  0.58547727067E+03 -0.11648083631E+04  0.33470098403E+01  0.13036768617E+04  0.25500000920E-02 0.  1.
       -2    1    3    3    0  502 -0.58547727067E+03  0.11648083631E+04 -0.30472968111E+02  0.13040286649E+04  0.25500000920E-02 0. -1.
</event>
<event>
 5   0  0.1435062E-05  0.2658491E+04  0.7818609E-02  0.8348600E-01
       -1   -1    0    0    0  501  0.00000000000E+00  0.00000000000E+00  0.75440041840E+03  0.75440041842E+03  0.50400001928E-02 0. -1.
        1   -1    0    0  501    0  0.00000000000E+00  0.00000000000E+00 -0.23421158512E+04  0.23421158512E+04  0.50400001928E-02 0.  1.
    10030    2    1    2    0    0  0.00000000000E+00  0.00000000000E+00 -0.15877154328E+04  0.30965162696E+04  0.26584906832E+04 0.  0.
        2    1    3    3  502    0 -0.43575261570E+03 -0.55812625361E+03  0.51644203156E+03  0.87641179192E+03  0.25500000920E-02 0. -1.
       -2    1    3    3    0  502  0.43575261570E+03  0.55812625361E+03 -0.21041574644E+04  0.22201044777E+04  0.25500000920E-02 0.  1.
</event>
<event>
 5   0  0.1435062E-05  0.2549568E+04  0.7818609E-02  0.8385536E-01
       -1   -1    0    0    0  501  0.00000000000E+00  0.00000000000E+00  0.14945686453E+04  0.14945686453E+04  0.50400001928E-02 0.  1.
        1   -1    0    0  501    0  0.00000000000E+00  0.00000000000E+00 -0.10873199538E+04  0.10873199538E+04  0.50400001928E-02 0. -1.
    10030    2    1    2    0    0  0.00000000000E+00  0.00000000000E+00  0.40724869144E+03  0.25818885991E+04  0.25495680500E+04 0.  0.
        2    1    3    3  502    0 -0.88385932966E+03  0.90588052778E+02 -0.72210899849E+03  0.11449257249E+04  0.25500000920E-02 0. -1.
       -2    1    3    3    0  502  0.88385932966E+03 -0.90588052778E+02  0.11293576899E+04  0.14369628742E+04  0.25500000920E-02 0.  1.
</event>
<event>
 5   0  0.3508470E-05  0.2629164E+04  0.7818609E-02  0.8358362E-01
        2   -1    0    0  501    0  0.00000000000E+00  0.00000000000E+00  0.16663073887E+04  0.16663073887E+04  0.25500000920E-02 0. -1.
       -2   -1    0    0    0  501  0.00000000000E+00  0.00000000000E+00 -0.10370993888E+04  0.10370993888E+04  0.25500000920E-02 0.  1.
    10030    2    1    2    0    0  0.00000000000E+00  0.00000000000E+00  0.62920799986E+03  0.27034067775E+04  0.26291644105E+04 0.  0.
        5    1    3    3  502    0  0.11557948515E+04 -0.33610248408E+03  0.85799414324E+03  0.14781754491E+04  0.46999998093E+01 0.  1.
       -5    1    3    3    0  502 -0.11557948515E+04  0.33610248408E+03 -0.22878614338E+03  0.12252313284E+04  0.46999998093E+01 0. -1.
</event>
<event>
 5   0  0.1451052E-05  0.1890720E+04  0.7818609E-02  0.8659489E-01
        1   -1    0    0  501    0  0.00000000000E+00  0.00000000000E+00  0.95358533590E+03  0.95358533591E+03  0.50400001928E-02 0.  1.
       -1   -1    0    0    0  501  0.00000000000E+00  0.00000000000E+00 -0.93720571277E+03  0.93720571278E+03  0.50400001928E-02 0. -1.
    10030    2    1    2    0    0  0.00000000000E+00  0.00000000000E+00  0.16379623126E+02  0.18907910487E+04  0.18907201003E+04 0.  0.
        1    1    3    3  502    0 -0.77880775271E+03  0.48426870324E+03  0.23764979295E+03  0.94738329979E+03  0.50400001928E-02 0.  1.
       -1    1    3    3    0  502  0.77880775271E+03 -0.48426870324E+03 -0.22127016982E+03  0.94340774890E+03  0.50400001928E-02 0. -1.
</event>
<event>
 5   0  0.1217200E-05  0.2602201E+04  0.7818609E-02  0.8367454E-01
        3   -1    0    0  501    0  0.00000000000E+00  0.00000000000E+00  0.27559919633E+04  0.27559919652E+04  0.10100000352E+00 0. -1.
       -3   -1    0    0    0  501  0.00000000000E+00  0.00000000000E+00 -0.61424780762E+03  0.61424781592E+03  0.10100000352E+00 0.  1.
    10030    2    1    2    0    0  0.00000000000E+00  0.00000000000E+00  0.21417441557E+04  0.33702397811E+04  0.26022006367E+04 0.  0.
        5    1    3    3  502    0 -0.34908261102E+03 -0.92521826792E+02 -0.54802431063E+03  0.65633199891E+03  0.46999998093E+01 0.  1.
       -5    1    3    3    0  502  0.34908261102E+03  0.92521826792E+02  0.26897684663E+04  0.27139077822E+04  0.46999998093E+01 0. -1.
</event>
<event>
 5   0  0.3508470E-05  0.1663517E+04  0.7818609E-02  0.8782450E-01
       -2   -1    0    0    0  501  0.00000000000E+00  0.00000000000E+00  0.87244370637E+03  0.87244370637E+03  0.25500000920E-02 0.  1.
        2   -1    0    0  501    0  0.00000000000E+00  0.00000000000E+00 -0.79297058233E+03  0.79297058233E+03  0.25500000920E-02 0. -1.
    10030    2    1    2    0    0  0.00000000000E+00  0.00000000000E+00  0.79473124042E+02  0.16654142887E+04  0.16635169899E+04 0.  0.
        5    1    3    3  502    0  0.29147050499E+03 -0.42633352956E+03  0.69246542687E+03  0.86385519105E+03  0.46999998093E+01 0.  1.
       -5    1    3    3    0  502 -0.29147050499E+03  0.42633352956E+03 -0.61299230283E+03  0.80155909765E+03  0.46999998093E+01 0. -1.
</event>
<event>
 5   0  0.1533248E-05  0.2715774E+04  0.7818609E-02  0.8329905E-01
       -1   -1    0    0    0  501  0.00000000000E+00  0.00000000000E+00  0.14721860449E+04  0.14721860449E+04  0.50400001928E-02 0. -1.
        1   -1    0    0  501    0  0.00000000000E+00  0.00000000000E+00 -0.12524615755E+04  0.12524615755E+04  0.50400001928E-02 0.  1.
    10030    2    1    2    0    0  0.00000000000E+00  0.00000000000E+00  0.21972446940E+03  0.27246476205E+04  0.27157735203E+04 0.  0.
        4    1    3    3  502    0 -0.74772482038E+03 -0.77856266370E+02 -0.10246293212E+04  0.12708347115E+04  0.12699999809E+01 0.  1.
       -4    1    3    3    0  502  0.74772482038E+03  0.77856266370E+02  0.12443537906E+04  0.14538129090E+04  0.12699999809E+01 0. -1.
</event>
<event>
 5   0  0.3441646E-05  0.2533734E+04  0.7818609E-02  0.8391065E-01
       -2   -1    0    0    0  501  0.00000000000E+00  0.00000000000E+00  0.15631129888E+04  0.15631129888E+04  0.25500000920E-02 0. -1.
        2   -1    0    0  501    0  0.00000000000E+00  0.00000000000E+00 -0.10267666559E+04  0.10267666559E+04  0.25500000920E-02 0.  1.
    10030    2    1    2    0    0  0.00000000000E+00  0.00000000000E+00  0.53634633289E+03  0.25898796446E+04  0.25337342372E+04 0.  0.
        4    1    3    3  502    0 -0.63807723259E+03 -0.10917402758E+04  0.34676184355E+03  0.13112149990E+04  0.12699999809E+01 0.  1.
       -4    1    3    3    0  502  0.63807723259E+03  0.10917402758E+04  0.18958448933E+03  0.12786646457E+04  0.12699999809E+01 0. -1.
</event>
<event>
 5   0  0.3849687E-05  0.2597132E+04  0.7818609E-02  0.8369176E-01
        2   -1    0    0  501    0  0.00000000000E+00  0.00000000000E+00  0.11829653594E+04  0.11829653594E+04  0.25500000920E-02 0. -1.
       -2   -1    0    0    0  501  0.00000000000E+00  0.00000000000E+00 -0.14254635620E+04  0.14254635620E+04  0.25500000920E-02 0.  1.
    10030    2    1    2    0    0  0.00000000000E+00  0.00000000000E+00 -0.24249820261E+03  0.26084289213E+04  0.25971322761E+04 0.  0.
        1    1    3    3  502    0  0.40001505337E+03  0.12101998283E+04  0.12818240082E+03  0.12810255248E+04  0.50400001928E-02 0. -1.
       -1    1    3    3    0  502 -0.40001505337E+03 -0.12101998283E+04 -0.37068060343E+03  0.13274033965E+04  0.50400001928E-02 0.  1.
</event>
<event>
 5   0  0.1497497E-05  0.2085146E+04  0.7818609E-02  0.8567815E-01
        1   -1    0    0  501    0  0.00000000000E+00  0.00000000000E+00  0.18117496148E+04  0.18117496148E+04  0.50400001928E-02 0. -1.
       -1   -1    0    0    0  501  0.00000000000E+00  0.00000000000E+00 -0.59994936850E+03  0.59994936852E+03  0.50400001928E-02 0.  1.
    10030    2    1    2    0    0  0.00000000000E+00  0.00000000000E+00  0.12118002463E+04  0.24116989833E+04  0.20851455943E+04 0.  0.
        3    1    3    3  502    0 -0.17637079627E+03  0.20887072075E+03 -0.55775722055E+03  0.62114954966E+03  0.10100000352E+00 0.  1.
       -3    1    3    3    0  502  0.17637079627E+03 -0.20887072075E+03  0.17695574668E+04  0.17905494337E+04  0.10100000352E+00 0. -1.
</event>
<event>
 5   0  0.3647623E-05  0.1732325E+04  0.7818609E-02  0.8743140E-01
       -2   -1    0    0    0  501  0.00000000000E+00  0.00000000000E+00  0.10482994489E+04  0.10482994489E+04  0.25500000920E-02 0. -1.
        2   -1    0    0  501    0  0.00000000000E+00  0.00000000000E+00 -0.71567058350E+03  0.71567058351E+03  0.25500000920E-02 0.  1.
    10030    2    1    2    0    0  0.00000000000E+00  0.00000000000E+00  0.33262886536E+03  0.17639700324E+04  0.17323245403E+04 0.  0.
        3    1    3    3  502    0 -0.19679806943E+03  0.81631350835E+03  0.38265699648E+03  0.92278036996E+03  0.10100000352E+00 0. -1.
       -3    1    3    3    0  502  0.19679806943E+03 -0.81631350835E+03 -0.50028131113E+02  0.84118966241E+03  0.10100000352E+00 0.  1.
</event>
<event>
 5   0  0.1533248E-05  0.2520855E+04  0.7818609E-02  0.8395593E-01
       -1   -1    0    0    0  501  0.00000000000E+00  0.00000000000E+00  0.65935553354E+03  0.65935553356E+03  0.50400001928E-02 0. -1.
        1   -1    0    0  501    0  0.00000000000E+00  0.00000000000E+00 -0.24094405064E+04  0.24094405064E+04  0.50400001928E-02 0.  1.
    10030    2    1    2    0    0  0.00000000000E+00  0.00000000000E+00 -0.17500849729E+04  0.30687960400E+04  0.25208553554E+04 0.  0.
        4    1    3    3  502    0 -0.14944515877E+03  0.56928044694E+03  0.48179158167E+03  0.76061739647E+03  0.12699999809E+01 0. -1.
       -4    1    3    3    0  502  0.14944515877E+03 -0.56928044694E+03 -0.22318765546E+04  0.23081786435E+04  0.12699999809E+01 0.  1.
</event>
<event>
 5   0  0.3499642E-05  0.2603923E+04  0.7818609E-02  0.8366870E-01
       -2   -1    0    0    0  501  0.00000000000E+00  0.00000000000E+00  0.12151469814E+04  0.12151469814E+04  0.25500000920E-02 0. -1.
        2   -1    0    0  501    0  0.00000000000E+00  0.00000000000E+00 -0.13949783384E+04  0.13949783384E+04  0.25500000920E-02 0.  1.
    10030    2    1    2    0    0  0.00000000000E+00  0.00000000000E+00 -0.17983135694E+03  0.26101253198E+04  0.26039229766E+04 0.  0.
        2    1    3    3  502    0  0.95120072201E+03 -0.62824920159E+03 -0.72040023785E+03  0.13485015297E+04  0.25500000920E-02 0.  1.
       -2    1    3    3    0  502 -0.95120072201E+03  0.62824920159E+03  0.54056888091E+03  0.12616237902E+04  0.25500000920E-02 0. -1.
</event>
<event>
 5   0  0.1533248E-05  0.2657321E+04  0.7818609E-02  0.8348987E-01
       -1   -1    0    0    0  501  0.00000000000E+00  0.00000000000E+00  0.16510718588E+04  0.16510718588E+04  0.50400001928E-02 0. -1.
        1   -1    0    0  501    0  0.00000000000E+00  0.00000000000E+00 -0.10692079973E+04  0.10692079974E+04  0.50400001928E-02 0.  1.
    10030    2    1    2    0    0  0.00000000000E+00  0.00000000000E+00  0.58186386145E+03  0.27202798562E+04  0.26573213849E+04 0.  0.
        4    1    3    3  502    0 -0.70449374718E+03 -0.62695550482E+03 -0.66716599454E+03  0.11552041906E+04  0.12699999809E+01 0.  1.
       -4    1    3    3    0  502  0.70449374718E+03  0.62695550482E+03  0.12490298560E+04  0.15650756656E+04  0.12699999809E+01 0. -1.
</event>
<event>
 5   0  0.1533248E-05  0.2701420E+04  0.7818609E-02  0.8334545E-01
       -1   -1    0    0    0  501  0.00000000000E+00  0.00000000000E+00  0.95672660534E+03  0.95672660535E+03  0.50400001928E-02 0.  1.
        1   -1    0    0  501    0  0.00000000000E+00  0.00000000000E+00 -0.19069364572E+04  0.19069364572E+04  0.50400001928E-02 0. -1.
    10030    2    1    2    0    0  0.00000000000E+00  0.00000000000E+00 -0.95020985190E+03  0.28636630626E+04  0.27014195108E+04 0.  0.
        4    1    3    3  502    0 -0.34082154985E+03 -0.33963976358E+03 -0.18130067367E+04  0.18757690525E+04  0.12699999809E+01 0. -1.
       -4    1    3    3    0  502  0.34082154985E+03  0.33963976358E+03  0.86279688484E+03  0.98789401013E+03  0.12699999809E+01 0.  1.
</event>
<event>
 5   0  0.1435062E-05  0.2618063E+04  0.7818609E-02  0.8362091E-01
        1   -1    0    0  501    0  0.00000000000E+00  0.00000000000E+00  0.14578618113E+04  0.14578618113E+04  0.50400001928E-02 0.  1.
       -1   -1    0    0    0  501  0.00000000000E+00  0.00000000000E+00 -0.11753951069E+04  0.11753951069E+04  0.50400001928E-02 0. -1.
    10030    2    1    2    0    0  0.00000000000E+00  0.00000000000E+00  0.28246670437E+03  0.26332569182E+04  0.26180631311E+04 0.  0.
        2    1    3    3  502    0 -0.15432375904E+02 -0.13086882457E+04  0.11538289167E+03  0.13138555074E+04  0.25500000920E-02 0.  1.
       -2    1    3    3    0  502  0.15432375904E+02  0.13086882457E+04  0.16708381270E+03  0.13194014109E+04  0.25500000920E-02 0. -1.
</event>
<event>
 5   0  0.3499642E-05  0.2591701E+04  0.7818609E-02  0.8371026E-01
        2   -1    0    0  501    0  0.00000000000E+00  0.00000000000E+00  0.12680903680E+04  0.12680903680E+04  0.25500000920E-02 0.  1.
       -2   -1    0    0    0  501  0.00000000000E+00  0.00000000000E+00 -0.13242183765E+04  0.13242183765E+04  0.25500000920E-02 0. -1.
    10030    2    1    2    0    0  0.00000000000E+00  0.00000000000E+00 -0.56128008490E+02  0.25923087444E+04  0.25917010385E+04 0.  0.
        2    1    3    3  502    0 -0.11614591403E+04  0.55741365531E+03  0.11172301635E+03  0.12931277393E+04  0.25500000920E-02 0.  1.
       -2    1    3    3    0  502  0.11614591403E+04 -0.55741365531E+03 -0.16785102484E+03  0.12991810052E+04  0.25500000920E-02 0. -1.
</event>
<event>
 5   0  0.3849687E-05  0.2820106E+04  0.7818609E-02  0.8297053E-01
        2   -1    0    0  501    0  0.00000000000E+00  0.00000000000E+00  0.19413862656E+04  0.19413862656E+04  0.25500000920E-02 0. -1.
       -2   -1    0    0    0  501  0.00000000000E+00  0.00000000000E+00 -0.10241391208E+04  0.10241391208E+04  0.25500000920E-02 0.  1.
    10030    2    1    2    0    0  0.00000000000E+00  0.00000000000E+00  0.91724714480E+03  0.29655253864E+04  0.28201061137E+04 0.  0.
        1    1    3    3  502    0  0.28537949859E+03 -0.74108678051E+03  0.16838655810E+04  0.18617342371E+04  0.50400001928E-02 0. -1.
       -1    1    3    3    0  502 -0.28537949859E+03  0.74108678051E+03 -0.76661843624E+03  0.11037911493E+04  0.50400001928E-02 0.  1.
</event>
<event>
 5   0  0.1217200E-05  0.2602749E+04  0.7818609E-02  0.8367268E-01
        4   -1    0    0  501    0  0.00000000000E+00  0.00000000000E+00  0.15748318961E+04  0.15748324082E+04  0.12699999809E+01 0. -1.
       -4   -1    0    0    0  501  0.00000000000E+00  0.00000000000E+00 -0.10753996774E+04  0.10754004273E+04  0.12699999809E+01 0.  1.
    10030    2    1    2    0    0  0.00000000000E+00  0.00000000000E+00  0.49943221873E+03  0.26502328356E+04  0.26027488433E+04 0.  0.
        2    1    3    3  502    0 -0.96695657089E+02  0.69992835350E+03  0.13625059329E+04  0.15348199137E+04  0.25500000920E-02 0. -1.
       -2    1    3    3    0  502  0.96695657089E+02 -0.69992835350E+03 -0.86307371420E+03  0.11154129219E+04  0.25500000920E-02 0.  1.
</event>
<event>
 5   0  0.3849687E-05  0.2592751E+04  0.7818609E-02  0.8370668E-01
       -2   -1    0    0    0  501  0.00000000000E+00  0.00000000000E+00  0.11792650389E+04  0.11792650389E+04  0.25500000920E-02 0. -1.
        2   -1    0    0  501    0  0.00000000000E+00  0.00000000000E+00 -0.14251159067E+04  0.14251159067E+04  0.25500000920E-02 0.  1.
    10030    2    1    2    0    0  0.00000000000E+00  0.00000000000E+00 -0.24585086778E+03  0.26043809456E+04  0.25927509446E+04 0.  0.
        1    1    3    3  502    0 -0.82977675269E+03 -0.99124480869E+03 -0.22079777462E+03  0.13114295205E+04  0.50400001928E-02 0.  1.
       -1    1    3    3    0  502  0.82977675269E+03  0.99124480869E+03 -0.25053093157E+02  0.12929514251E+04  0.50400001928E-02 0. -1.
</event>
<event>
 5   0  0.1451052E-05  0.2628546E+04  0.7818609E-02  0.8358569E-01
       -1   -1    0    0    0  501  0.00000000000E+00  0.00000000000E+00  0.15478612826E+04  0.15478612826E+04  0.50400001928E-02 0.  1.
        1   -1    0    0  501    0  0.00000000000E+00  0.00000000000E+00 -0.11159356416E+04  0.11159356416E+04  0.50400001928E-02 0. -1.
    10030    2    1    2    0    0  0.00000000000E+00  0.00000000000E+00  0.43192564096E+03  0.26637969242E+04  0.26285460418E+04 0.  0.
        1    1    3    3  502    0  0.10897466962E+04  0.71713562335E+03  0.37773508453E+03  0.13581292863E+04  0.50400001928E-02 0. -1.
       -1    1    3    3    0  502 -0.10897466962E+04 -0.71713562335E+03  0.54190556437E+02  0.13056676379E+04  0.50400001928E-02 0.  1.
</event>
<event>
 5   0  0.3508470E-05  0.1892427E+04  0.7818609E-02  0.8658635E-01
       -2   -1    0    0    0  501  0.00000000000E+00  0.00000000000E+00  0.49207001959E+03  0.49207001960E+03  0.25500000920E-02 0. -1.
        2   -1    0    0  501    0  0.00000000000E+00  0.00000000000E+00 -0.18194966937E+04  0.18194966937E+04  0.25500000920E-02 0.  1.
    10030    2    1    2    0    0  0.00000000000E+00  0.00000000000E+00 -0.13274266742E+04  0.23115667133E+04  0.18924267740E+04 0.  0.
        5    1    3    3  502    0  0.91547924521E+03  0.23555040391E+03 -0.61318110154E+03  0.11267650130E+04  0.46999998093E+01 0.  1.
       -5    1    3    3    0  502 -0.91547924521E+03 -0.23555040391E+03 -0.71424557261E+03  0.11848017004E+04  0.46999998093E+01 0. -1.
</event>
<event>
 5   0  0.3441646E-05  0.2488767E+04  0.7818609E-02  0.8406998E-01
        2   -1    0    0  501    0  0.00000000000E+00  0.00000000000E+00  0.16803331881E+04  0.16803331881E+04  0.25500000920E-02 0. -1.
       -2   -1    0    0    0  501  0.00000000000E+00  0.00000000000E+00 -0.92153728376E+03  0.92153728377E+03  0.25500000920E-02 0.  1.
    10030    2    1    2    0    0  0.00000000000E+00  0.00000000000E+00  0.75879590433E+03  0.26018704719E+04  0.24887665073E+04 0.  0.
        4    1    3    3  502    0  0.25860747727E+03  0.11177119057E+03 -0.88775714933E+03  0.93138874560E+03  0.12699999809E+01 0.  1.
       -4    1    3    3    0  502 -0.25860747727E+03 -0.11177119057E+03  0.16465530537E+04  0.16704817263E+04  0.12699999809E+01 0. -1.
</event>
<event>
 5   0  0.3441646E-05  0.2459817E+04  0.7818609E-02  0.8417442E-01
       -2   -1    0    0    0  501  0.00000000000E+00  0.00000000000E+00  0.87175376060E+03  0.87175376060E+03  0.25500000920E-02 0. -1.
        2   -1    0    0  501    0  0.00000000000E+00  0.00000000000E+00 -0.17352086960E+04  0.17352086960E+04  0.25500000920E-02 0.  1.
    10030    2    1    2    0    0  0.00000000000E+00  0.00000000000E+00 -0.86345493541E+03  0.26069624566E+04  0.24598168275E+04 0.  0.
        4    1    3    3  502    0  0.79373686656E+03  0.63108035144E+03  0.30588916356E+03  0.10591744033E+04  0.12699999809E+01 0. -1.
       -4    1    3    3    0  502 -0.79373686656E+03 -0.63108035144E+03 -0.11693440990E+04  0.15477880533E+04  0.12699999809E+01 0.  1.
</event>
<event>
 5   0  0.1435062E-05  0.2684007E+04  0.7818609E-02  0.8340213E-01
       -1   -1    0    0    0  501  0.00000000000E+00  0.00000000000E+00  0.15887691446E+04  0.15887691446E+04  0.50400001928E-02 0.  1.
        1   -1    0    0  501    0  0.00000000000E+00  0.00000000000E+00 -0.11335653209E+04  0.11335653209E+04  0.50400001928E-02 0. -1.
    10030    2    1    2    0    0  0.00000000000E+00  0.00000000000E+00  0.45520382364E+03  0.27223344655E+04  0.26840071574E+04 0.  0.
        2    1    3    3  502    0  0.48431885417E+02 -0.10801018969E+04 -0.57873965494E+03  0.12263381848E+04  0.25500000920E-02 0. -1.
       -2    1    3    3    0  502 -0.48431885417E+02  0.10801018969E+04  0.10339434786E+04  0.14959962808E+04  0.25500000920E-02 0.  1.
</event>
<event>
 5   0  0.1497497E-05  0.2606296E+04  0.7818609E-02  0.8366066E-01
       -1   -1    0    0    0  501  0.00000000000E+00  0.00000000000E+00  0.19083509583E+04  0.19083509583E+04  0.50400001928E-02 0. -1.
        1   -1    0    0  501    0  0.00000000000E+00  0.00000000000E+00 -0.88987555590E+03  0.88987555592E+03  0.50400001928E-02 0.  1.
    10030    2    1    2    0    0  0.00000000000E+00  0.00000000000E+00  0.10184754024E+04  0.27982265142E+04  0.26062961228E+04 0.  0.
        3    1    3    3  502    0  0.57786251018E+03  0.11291837786E+04  0.82992005534E+03  0.15158325749E+04  0.10100000352E+00 0. -1.
       -3    1    3    3    0  502 -0.57786251018E+03 -0.11291837786E+04  0.18855534703E+03  0.12823939393E+04  0.10100000352E+00 0.  1.
</event>
<event>
 5   0  0.1474554E-05  0.2591344E+04  0.7818609E-02  0.8371147E-01
        1   -1    0    0  501    0  0.00000000000E+00  0.00000000000E+00  0.17429709277E+04  0.17429709277E+04  0.50400001928E-02 0. -1.
       -1   -1    0    0    0  501  0.00000000000E+00  0.00000000000E+00 -0.96316356493E+03  0.96316356495E+03  0.50400001928E-02 0.  1.
    10030    2    1    2    0    0  0.00000000000E+00  0.00000000000E+00  0.77980736279E+03  0.27061344927E+04  0.25913441241E+04 0.  0.
        5    1    3    3  502    0  0.88379996912E+03 -0.76386669964E+03 -0.19541491523E+03  0.11844001855E+04  0.46999998093E+01 0.  1.
       -5    1    3    3    0  502 -0.88379996912E+03  0.76386669964E+03  0.97522227801E+03  0.15217343072E+04  0.46999998093E+01 0. -1.
</event>
<event>
 5   0  0.3441646E-05  0.1875974E+04  0.7818609E-02  0.8666909E-01
       -2   -1    0    0    0  501  0.00000000000E+00  0.00000000000E+00  0.90083907689E+03  0.90083907690E+03  0.25500000920E-02 0. -1.
        2   -1    0    0  501    0  0.00000000000E+00  0.00000000000E+00 -0.97666675890E+03  0.97666675890E+03  0.25500000920E-02 0.  1.
    10030    2    1    2    0    0  0.00000000000E+00  0.00000000000E+00 -0.75827682004E+02  0.18775058358E+04  0.18759739673E+04 0.  0.
        4    1    3    3  502    0  0.43895111783E+01 -0.93117269788E+03 -0.15077164209E+03  0.94331095723E+03  0.12699999809E+01 0.  1.
       -4    1    3    3    0  502 -0.43895111783E+01  0.93117269788E+03  0.74943960086E+02  0.93419487856E+03  0.12699999809E+01 0. -1.
</event>
<event>
 5   0  0.3508470E-05  0.2164422E+04  0.7818609E-02  0.8533384E-01
       -2   -1    0    0    0  501  0.00000000000E+00  0.00000000000E+00  0.10631088718E+04  0.10631088718E+04  0.25500000920E-02 0. -1.
        2   -1    0    0  501    0  0.00000000000E+00  0.00000000000E+00 -0.11016564986E+04  0.11016564986E+04  0.25500000920E-02 0.  1.
    10030    2    1    2    0    0  0.00000000000E+00  0.00000000000E+00 -0.38547626872E+02  0.21647653704E+04  0.21644221375E+04 0.  0.
        5    1    3    3  502    0 -0.75728397672E+03 -0.33987186756E+02  0.75319868781E+03  0.10686273923E+04  0.46999998093E+01 0. -1.
       -5    1    3    3    0  502  0.75728397672E+03  0.33987186756E+02 -0.79174631468E+03  0.10961379781E+04  0.46999998093E+01 0.  1.
</event>
<event>
 5   0  0.3849687E-05  0.2598427E+04  0.7818609E-02  0.8368736E-01
        2   -1    0    0  501    0  0.00000000000E+00  0.00000000000E+00  0.25805749818E+04  0.25805749818E+04  0.25500000920E-02 0. -1.
       -2   -1    0    0    0  501  0.00000000000E+00  0.00000000000E+00 -0.65410060612E+03  0.65410060612E+03  0.25500000920E-02 0.  1.
    10030    2    1    2    0    0  0.00000000000E+00  0.00000000000E+00  0.19264743757E+04  0.32346755880E+04  0.25984269547E+04 0.  0.
        1    1    3    3  502    0 -0.77251819391E+03  0.83525490436E+03  0.17441524729E+04  0.20824271810E+04  0.50400001928E-02 0. -1.
       -1    1    3    3    0  502  0.77251819391E+03 -0.83525490436E+03  0.18232190281E+03  0.11522484070E+04  0.50400001928E-02 0.  1.
</event>
<event>
 5   0  0.3849687E-05  0.2546914E+04  0.7818609E-02  0.8386460E-01
        2   -1    0    0  501    0  0.00000000000E+00  0.00000000000E+00  0.13881336536E+04  0.13881336536E+04  0.25500000920E-02 0.  1.
       -2   -1    0    0    0  501  0.00000000000E+00  0.00000000000E+00 -0.11682538642E+04  0.11682538642E+04  0.25500000920E-02 0. -1.
    10030    2    1    2    0    0  0.00000000000E+00  0.00000000000E+00  0.21987978942E+03  0.25563875178E+04  0.25469138226E+04 0.  0.
        1    1    3    3  502    0  0.97753657597E+03 -0.59713302051E+03  0.66837880348E+03  0.13262261596E+04  0.50400001928E-02 0.  1.
       -1    1    3    3    0  502 -0.97753657597E+03  0.59713302051E+03 -0.44849901406E+03  0.12301613582E+04  0.50400001928E-02 0. -1.
</event>
<event>
 5   0  0.1217200E-05  0.2565557E+04  0.7818609E-02  0.8379996E-01
       -3   -1    0    0    0  501  0.00000000000E+00  0.00000000000E+00  0.85365981644E+03  0.85365982242E+03  0.10100000352E+00 0. -1.
        3   -1    0    0  501    0  0.00000000000E+00  0.00000000000E+00 -0.19276072659E+04  0.19276072686E+04  0.10100000352E+00 0.  1.
    10030    2    1    2    0    0  0.00000000000E+00  0.00000000000E+00 -0.10739474495E+04  0.27812670910E+04  0.25655571534E+04 0.  0.
        4    1    3    3  502    0 -0.10975013119E+04  0.59868877098E+03 -0.22544118812E+03  0.12703396067E+04  0.12699999809E+01 0. -1.
       -4    1    3    3    0  502  0.10975013119E+04 -0.59868877098E+03 -0.84850626135E+03  0.15109274843E+04  0.12699999809E+01 0.  1.
</event>
<event>
 5   0  0.1217200E-05  0.2588389E+04  0.7818609E-02  0.8372156E-01
        3   -1    0    0  501    0  0.00000000000E+00  0.00000000000E+00  0.22450552953E+04  0.22450552976E+04  0.10100000352E+00 0.  1.
       -3   -1    0    0    0  501  0.00000000000E+00  0.00000000000E+00 -0.74605693551E+03  0.74605694234E+03  0.10100000352E+00 0. -1.
    10030    2    1    2    0    0  0.00000000000E+00  0.00000000000E+00  0.14989983598E+04  0.29911122399E+04  0.25883887554E+04 0.  0.
        4    1    3    3  502    0  0.64302740989E+03  0.73756244914E+03 -0.22931554907E+03  0.10050223133E+04  0.12699999809E+01 0. -1.
       -4    1    3    3    0  502 -0.64302740989E+03 -0.73756244914E+03  0.17283139089E+04  0.19860899267E+04  0.12699999809E+01 0.  1.
</event>
<event>
 5   0  0.3441646E-05  0.2616317E+04  0.7818609E-02  0.8362680E-01
       -2   -1    0    0    0  501  0.00000000000E+00  0.00000000000E+00  0.16308798879E+04  0.16308798879E+04  0.25500000920E-02 0. -1.
        2   -1    0    0  501    0  0.00000000000E+00  0.00000000000E+00 -0.10492977530E+04  0.10492977530E+04  0.25500000920E-02 0.  1.
    10030    2    1    2    0    0  0.00000000000E+00  0.00000000000E+00  0.58158213491E+03  0.26801776409E+04  0.26163169547E+04 0.  0.
        4    1    3    3  502    0 -0.94919468857E+03  0.99115888819E+02 -0.62574410900E+03  0.11412063000E+04  0.12699999809E+01 0.  1.
       -4    1    3    3    0  502  0.94919468857E+03 -0.99115888819E+02  0.12073262439E+04  0.15389713410E+04  0.12699999809E+01 0. -1.
</event>
<event>
 5   0  0.1533248E-05  0.2528225E+04  0.7818609E-02  0.8392999E-01
       -1   -1    0    0    0  501  0.00000000000E+00  0.00000000000E+00  0.12728802873E+04  0.12728802873E+04  0.50400001928E-02 0. -1.
        1   -1    0    0  501    0  0.00000000000E+00  0.00000000000E+00 -0.12554049329E+04  0.12554049329E+04  0.50400001928E-02 0.  1.
    10030    2    1    2    0    0  0.00000000000E+00  0.00000000000E+00  0.17475354397E+02  0.25282852202E+04  0.25282248252E+04 0.  0.
        4    1    3    3  502    0  0.33371211898E+03 -0.15324178365E+02  0.12279386389E+04  0.12725696534E+04  0.12699999809E+01 0. -1.
       -4    1    3    3    0  502 -0.33371211898E+03  0.15324178365E+02 -0.12104632845E+04  0.12557155669E+04  0.12699999809E+01 0.  1.
</event>
<event>
 5   0  0.3441646E-05  0.2378043E+04  0.7818609E-02  0.8447770E-01
        2   -1    0    0  501    0  0.00000000000E+00  0.00000000000E+00  0.12444893505E+04  0.12444893505E+04  0.25500000920E-02 0. -1.
       -2   -1    0    0    0  501  0.00000000000E+00  0.00000000000E+00 -0.11360262922E+04  0.11360262922E+04  0.25500000920E-02 0.  1.
    10030    2    1    2    0    0  0.00000000000E+00  0.00000000000E+00  0.10846305832E+03  0.23805156427E+04  0.23780434164E+04 0.  0.
        4    1    3    3  502    0 -0.57788185479E+03  0.34812774377E+03 -0.92588319702E+03  0.11456010089E+04  0.12699999809E+01 0. -1.
       -4    1    3    3    0  502  0.57788185479E+03 -0.34812774377E+03  0.10343462553E+04  0.12349146339E+04  0.12699999809E+01 0.  1.
</event>
<event>
 5   0  0.1497497E-05  0.2074727E+04  0.7818609E-02  0.8572459E-01
       -1   -1    0    0    0  501  0.00000000000E+00  0.00000000000E+00  0.79970066776E+03  0.79970066778E+03  0.50400001928E-02 0.  1.
        1   -1    0    0  501    0  0.00000000000E+00  0.00000000000E+00 -0.13456575639E+04  0.13456575639E+04  0.50400001928E-02 0. -1.
    10030    2    1    2    0    0  0.00000000000E+00  0.00000000000E+00 -0.54595689613E+03  0.21453582317E+04  0.20747272133E+04 0.  0.
        3    1    3    3  502    0  0.64499014053E+03 -0.62581071062E+02 -0.11106140616E+04  0.12858430215E+04  0.10100000352E+00 0. -1.
       -3    1    3    3    0  502 -0.64499014053E+03  0.62581071062E+02  0.56465716548E+03  0.85951521020E+03  0.10100000352E+00 0.  1.
</event>
<event>
 5   0  0.1533248E-05  0.2613242E+04  0.7818609E-02  0.8363717E-01
       -1   -1    0    0    0  501  0.00000000000E+00  0.00000000000E+00  0.68469541388E+03  0.68469541390E+03  0.50400001928E-02 0. -1.
        1   -1    0    0  501    0  0.00000000000E+00  0.00000000000E+00 -0.24934559013E+04  0.24934559013E+04  0.50400001928E-02 0.  1.
    10030    2    1    2    0    0  0.00000000000E+00  0.00000000000E+00 -0.18087604874E+04  0.31781513152E+04  0.26132415276E+04 0.  0.
        4    1    3    3  502    0  0.16409401145E+03  0.85721809719E+03 -0.20869513895E+04  0.22621046452E+04  0.12699999809E+01 0.  1.
       -4    1    3    3    0  502 -0.16409401145E+03 -0.85721809719E+03  0.27819090208E+03  0.91604667001E+03  0.12699999809E+01 0. -1.
</event>
<event>
 5   0  0.1435062E-05  0.2513279E+04  0.7818609E-02  0.8398270E-01
       -1   -1    0    0    0  501  0.00000000000E+00  0.00000000000E+00  0.17002422282E+04  0.17002422282E+04  0.50400001928E-02 0. -1.
        1   -1    0    0  501    0  0.00000000000E+00  0.00000000000E+00 -0.92877551194E+03  0.92877551196E+03  0.50400001928E-02 0.  1.
    10030    2    1    2    0    0  0.00000000000E+00  0.00000000000E+00  0.77146671623E+03  0.26290177401E+04  0.25132794082E+04 0.  0.
        2    1    3    3  502    0 -0.11448084133E+03  0.11054780079E+04 -0.22775185337E+03  0.11344859610E+04  0.25500000920E-02 0.  1.
       -2    1    3    3    0  502  0.11448084133E+03 -0.11054780079E+04  0.99921856960E+03  0.14945317791E+04  0.25500000920E-02 0. -1.
</event>
<event>
 5   0  0.3849687E-05  0.2610613E+04  0.7818609E-02  0.8364605E-01
        2   -1    0    0  501    0  0.00000000000E+00  0.00000000000E+00  0.22585139416E+04  0.22585139416E+04  0.25500000920E-02 0.  1.
       -2   -1    0    0    0  501  0.00000000000E+00  0.00000000000E+00 -0.75440079449E+03  0.75440079449E+03  0.25500000920E-02 0. -1.
    10030    2    1    2    0    0  0.00000000000E+00  0.00000000000E+00  0.15041131471E+04  0.30129147361E+04  0.26106127341E+04 0.  0.
        1    1    3    3  502    0 -0.11689603066E+04  0.20942183487E+03  0.13772979474E+04  0.18185915812E+04  0.50400001928E-02 0.  1.
       -1    1    3    3    0  502  0.11689603066E+04 -0.20942183487E+03  0.12681519967E+03  0.11943231548E+04  0.50400001928E-02 0. -1.
</event>
<event>
 5   0  0.1451052E-05  0.2620167E+04  0.7818609E-02  0.8361383E-01
       -1   -1    0    0    0  501  0.00000000000E+00  0.00000000000E+00  0.86694381291E+03  0.86694381293E+03  0.50400001928E-02 0.  1.
        1   -1    0    0  501    0  0.00000000000E+00  0.00000000000E+00 -0.19797343283E+04  0.19797343283E+04  0.50400001928E-02 0. -1.
    10030    2    1    2    0    0  0.00000000000E+00  0.00000000000E+00 -0.11127905154E+04  0.28466781413E+04  0.26201667330E+04 0.  0.
        1    1    3    3  502    0  0.11077524398E+04  0.54942309884E+01 -0.13162674932E+04  0.17203795419E+04  0.50400001928E-02 0. -1.
       -1    1    3    3    0  502 -0.11077524398E+04 -0.54942309884E+01  0.20347697782E+03  0.11262985994E+04  0.50400001928E-02 0.  1.
</event>
<event>
 5   0  0.3849687E-05  0.2600575E+04  0.7818609E-02  0.8368006E-01
       -2   -1    0    0    0  501  0.00000000000E+00  0.00000000000E+00  0.12961963188E+04  0.12961963188E+04  0.25500000920E-02 0. -1.
        2   -1    0    0  501    0  0.00000000000E+00  0.00000000000E+00 -0.13043918012E+04  0.13043918012E+04  0.25500000920E-02 0.  1.
    10030    2    1    2    0    0  0.00000000000E+00  0.00000000000E+00 -0.81954823683E+01  0.26005881200E+04  0.26005752063E+04 0.  0.
        1    1    3    3  502    0 -0.10233894765E+03  0.55588026966E+03 -0.11751166715E+04  0.13039844041E+04  0.50400001928E-02 0.  1.
       -1    1    3    3    0  502  0.10233894765E+03 -0.55588026966E+03  0.11669211891E+04  0.12966037159E+04  0.50400001928E-02 0. -1.
</event>
<event>
 5   0  0.3499642E-05  0.2648778E+04  0.7818609E-02  0.8351819E-01
        2   -1    0    0  501    0  0.00000000000E+00  0.00000000000E+00  0.13738229045E+04  0.13738229045E+04  0.25500000920E-02 0. -1.
       -2   -1    0    0    0  501  0.00000000000E+00  0.00000000000E+00 -0.12767339359E+04  0.12767339359E+04  0.25500000920E-02 0.  1.
    10030    2    1    2    0    0  0.00000000000E+00  0.00000000000E+00  0.97088968654E+02  0.26505568404E+04  0.26487780761E+04 0.  0.
        2    1    3    3  502    0 -0.96970003350E+03 -0.12532111718E+01  0.95119603067E+03  0.13583422302E+04  0.25500000920E-02 0. -1.
       -2    1    3    3    0  502  0.96970003350E+03  0.12532111718E+01 -0.85410706201E+03  0.12922146102E+04  0.25500000920E-02 0.  1.
</event>
<event>
 5   0  0.3441646E-05  0.2607293E+04  0.7818609E-02  0.8365728E-01
        2   -1    0    0  501    0  0.00000000000E+00  0.00000000000E+00  0.10676426333E+04  0.10676426333E+04  0.25500000920E-02 0.  1.
       -2   -1    0    0    0  501  0.00000000000E+00  0.00000000000E+00 -0.15918195724E+04  0.15918195724E+04  0.25500000920E-02 0. -1.
    10030    2    1    2    0    0  0.00000000000E+00  0.00000000000E+00 -0.52417693906E+03  0.26594622057E+04  0.26072931865E+04 0.  0.
        4    1    3    3  502    0  0.99619427808E+03  0.33234528906E+03 -0.10499661988E+04  0.14850208963E+04  0.12699999809E+01 0. -1.
       -4    1    3    3    0  502 -0.99619427808E+03 -0.33234528906E+03  0.52578925971E+03  0.11744413095E+04  0.12699999809E+01 0.  1.
</event>
<event>
 5   0  0.1533248E-05  0.2613349E+04  0.7818609E-02  0.8363681E-01
        1   -1    0    0  501    0  0.00000000000E+00  0.00000000000E+00  0.23297163554E+04  0.23297163554E+04  0.50400001928E-02 0. -1.
       -1   -1    0    0    0  501  0.00000000000E+00  0.00000000000E+00 -0.73287827742E+03  0.73287827744E+03  0.50400001928E-02 0.  1.
    10030    2    1    2    0    0  0.00000000000E+00  0.00000000000E+00  0.15968380780E+04  0.30625946328E+04  0.26133491994E+04 0.  0.
        4    1    3    3  502    0  0.48231187573E+03 -0.11542184768E+04  0.35595445429E+03  0.13005961033E+04  0.12699999809E+01 0.  1.
       -4    1    3    3    0  502 -0.48231187573E+03  0.11542184768E+04  0.12408836237E+04  0.17619985295E+04  0.12699999809E+01 0. -1.
</event>
<event>
 5   0  0.1451052E-05  0.2596305E+04  0.7818609E-02  0.8369457E-01
        1   -1    0    0  501    0  0.00000000000E+00  0.00000000000E+00  0.13552225406E+04  0.13552225406E+04  0.50400001928E-02 0.  1.
       -1   -1    0    0    0  501  0.00000000000E+00  0.00000000000E+00 -0.12434854701E+04  0.12434854702E+04  0.50400001928E-02 0. -1.
    10030    2    1    2    0    0  0.00000000000E+00  0.00000000000E+00  0.11173707047E+03  0.25987080108E+04  0.25963047110E+04 0.  0.
        1    1    3    3  502    0 -0.73511001593E+03 -0.66482428686E+03  0.89498904040E+03  0.13354338061E+04  0.50400001928E-02 0.  1.
       -1    1    3    3    0  502  0.73511001593E+03  0.66482428686E+03 -0.78325196993E+03  0.12632742047E+04  0.50400001928E-02 0. -1.
</event>
<event>
 5   0  0.3441646E-05  0.2632852E+04  0.7818609E-02  0.8357127E-01
       -2   -1    0    0    0  501  0.00000000000E+00  0.00000000000E+00  0.98584957776E+03  0.98584957776E+03  0.25500000920E-02 0.  1.
        2   -1    0    0  501    0  0.00000000000E+00  0.00000000000E+00 -0.17578517082E+04  0.17578517082E+04  0.25500000920E-02 0. -1.
    10030    2    1    2    0    0  0.00000000000E+00  0.00000000000E+00 -0.77200213044E+03  0.27437012860E+04  0.26328519626E+04 0.  0.
        4    1    3    3  502    0  0.43482429211E+03  0.80087097953E+03 -0.13760034016E+04  0.16504100899E+04  0.12699999809E+01 0. -1.
       -4    1    3    3    0  502 -0.43482429211E+03 -0.80087097953E+03  0.60400127115E+03  0.10932911960E+04  0.12699999809E+01 0.  1.
</event>
<event>
 5   0  0.3508470E-05  0.2598665E+04  0.7818609E-02  0.8368655E-01
       -2   -1    0    0    0  501  0.00000000000E+00  0.00000000000E+00  0.67025470103E+03  0.67025470103E+03  0.25500000920E-02 0. -1.
        2   -1    0    0  501    0  0.00000000000E+00  0.00000000000E+00 -0.25188414314E+04  0.25188414314E+04  0.25500000920E-02 0.  1.
    10030    2    1    2    0    0  0.00000000000E+00  0.00000000000E+00 -0.18485867304E+04  0.31890961324E+04  0.25986652809E+04 0.  0.
        5    1    3    3  502    0 -0.96708168346E+03  0.84673993331E+03 -0.69135786760E+03  0.14595250214E+04  0.46999998093E+01 0.  1.
       -5    1    3    3    0  502  0.96708168346E+03 -0.84673993331E+03 -0.11572288628E+04  0.17295711110E+04  0.46999998093E+01 0. -1.
</event>
<event>
 5   0  0.1435062E-05  0.2604331E+04  0.7818609E-02  0.8366732E-01
       -1   -1    0    0    0  501  0.00000000000E+00  0.00000000000E+00  0.10621326582E+04  0.10621326582E+04  0.50400001928E-02 0. -1.
        1   -1    0    0  501    0  0.00000000000E+00  0.00000000000E+00 -0.15964436983E+04  0.15964436983E+04  0.50400001928E-02 0.  1.
    10030    2    1    2    0    0  0.00000000000E+00  0.00000000000E+00 -0.53431104009E+03  0.26585763566E+04  0.26043309997E+04 0.  0.
        2    1    3    3  502    0  0.57615786597E+03  0.77539475757E+03 -0.11585210074E+04  0.15084315832E+04  0.25500000920E-02 0.  1.
       -2    1    3    3    0  502 -0.57615786597E+03 -0.77539475757E+03  0.62420996726E+03  0.11501447734E+04  0.25500000920E-02 0. -1.
</event>
<event>
 5   0  0.1497497E-05  0.2592924E+04  0.7818609E-02  0.8370609E-01
        1   -1    0    0  501    0  0.00000000000E+00  0.00000000000E+00  0.12789361907E+04  0.12789361907E+04  0.50400001928E-02 0. -1.
       -1   -1    0    0    0  501  0.00000000000E+00  0.00000000000E+00 -0.13142282677E+04  0.13142282677E+04  0.50400001928E-02 0.  1.
    10030    2    1    2    0    0  0.00000000000E+00  0.00000000000E+00 -0.35292076988E+02  0.25931644585E+04  0.25929242908E+04 0.  0.
        3    1    3    3  502    0  0.53746504559E+03  0.63650711587E+03  0.97582611156E+03  0.12830614147E+04  0.10100000352E+00 0. -1.
       -3    1    3    3    0  502 -0.53746504559E+03 -0.63650711587E+03 -0.10111181886E+04  0.13101030437E+04  0.10100000352E+00 0.  1.
</event>
<event>
 5   0  0.3499642E-05  0.2608063E+04  0.7818609E-02  0.8365468E-01
        2   -1    0    0  501    0  0.00000000000E+00  0.00000000000E+00  0.25565892762E+04  0.25565892762E+04  0.25500000920E-02 0. -1.
       -2   -1    0    0    0  501  0.00000000000E+00  0.00000000000E+00 -0.66514313145E+03  0.66514313145E+03  0.25500000920E-02 0.  1.
    10030    2    1    2    0    0  0.00000000000E+00  0.00000000000E+00  0.18914461447E+04  0.32217324076E+04  0.26080627270E+04 0.  0.
        2    1    3    3  502    0 -0.78812920790E+03  0.81965298009E+03  0.17343024931E+04  0.20738331161E+04  0.25500000920E-02 0. -1.
       -2    1    3    3    0  502  0.78812920790E+03 -0.81965298009E+03  0.15714365165E+03  0.11478992915E+04  0.25500000920E-02 0.  1.
</event>
<event>
 5   0  0.3441646E-05  0.2652225E+04  0.7818609E-02  0.8350675E-01
        2   -1    0    0  501    0  0.00000000000E+00  0.00000000000E+00  0.17550900160E+04  0.17550900160E+04  0.25500000920E-02 0. -1.
       -2   -1    0    0    0  501  0.00000000000E+00  0.00000000000E+00 -0.10019852344E+04  0.10019852344E+04  0.25500000920E-02 0.  1.
    10030    2    1    2    0    0  0.00000000000E+00  0.00000000000E+00  0.75310478163E+03  0.27570752504E+04  0.26522249385E+04 0.  0.
        4    1    3    3  502    0 -0.17451369350E+03  0.75690937438E+03 -0.74074286024E+03  0.10733445058E+04  0.12699999809E+01 0.  1.
       -4    1    3    3    0  502  0.17451369350E+03 -0.75690937438E+03  0.14938476419E+04  0.16837307446E+04  0.12699999809E+01 0. -1.
</event>
<event>
 5   0  0.1451052E-05  0.2442796E+04  0.7818609E-02  0.8423653E-01
        1   -1    0    0  501    0  0.00000000000E+00  0.00000000000E+00  0.14156609358E+04  0.14156609358E+04  0.50400001928E-02 0. -1.
       -1   -1    0    0    0  501  0.00000000000E+00  0.00000000000E+00 -0.10537924411E+04  0.10537924411E+04  0.50400001928E-02 0.  1.
    10030    2    1    2    0    0  0.00000000000E+00  0.00000000000E+00  0.36186849467E+03  0.24694533769E+04  0.24427957699E+04 0.  0.
        1    1    3    3  502    0 -0.17428311392E+03  0.28805056456E+03  0.13678272061E+04  0.14086514818E+04  0.50400001928E-02 0. -1.
       -1    1    3    3    0  502  0.17428311392E+03 -0.28805056456E+03 -0.10059587114E+04  0.10608018951E+04  0.50400001928E-02 0.  1.
</event>
<event>
 5   0  0.1451052E-05  0.2608970E+04  0.7818609E-02  0.8365161E-01
       -1   -1    0    0    0  501  0.00000000000E+00  0.00000000000E+00  0.24408325584E+04  0.24408325584E+04  0.50400001928E-02 0. -1.
        1   -1    0    0  501    0  0.00000000000E+00  0.00000000000E+00 -0.69717266043E+03  0.69717266045E+03  0.50400001928E-02 0.  1.
    10030    2    1    2    0    0  0.00000000000E+00  0.00000000000E+00  0.17436598980E+04  0.31380052188E+04  0.26089704701E+04 0.  0.
        1    1    3    3  502    0  0.50490587774E+03  0.86987992839E+03  0.18709740832E+04  0.21241857394E+04  0.50400001928E-02 0. -1.
       -1    1    3    3    0  502 -0.50490587774E+03 -0.86987992839E+03 -0.12731418526E+03  0.10138194795E+04  0.50400001928E-02 0.  1.
</event>
<event>
 5   0  0.3647623E-05  0.2664659E+04  0.7818609E-02  0.8346564E-01
        2   -1    0    0  501    0  0.00000000000E+00  0.00000000000E+00  0.13548850490E+04  0.13548850490E+04  0.25500000920E-02 0. -1.
       -2   -1    0    0    0  501  0.00000000000E+00  0.00000000000E+00 -0.13101496780E+04  0.13101496780E+04  0.25500000920E-02 0.  1.
    10030    2    1    2    0    0  0.00000000000E+00  0.00000000000E+00  0.44735371042E+02  0.26650347270E+04  0.26646592358E+04 0.  0.
        3    1    3    3  502    0 -0.16414917701E+03  0.28270716580E+03 -0.12694156164E+04  0.13108334414E+04  0.10100000352E+00 0.  1.
       -3    1    3    3    0  502  0.16414917701E+03 -0.28270716580E+03  0.13141509874E+04  0.13542012856E+04  0.10100000352E+00 0. -1.
</event>
<event>
 5   0  0.1533248E-05  0.2595868E+04  0.7818609E-02  0.8369606E-01
        1   -1    0    0  501    0  0.00000000000E+00  0.00000000000E+00  0.13541845198E+04  0.13541845198E+04  0.50400001928E-02 0.  1.
       -1   -1    0    0    0  501  0.00000000000E+00  0.00000000000E+00 -0.12440197483E+04  0.12440197483E+04  0.50400001928E-02 0. -1.
    10030    2    1    2    0    0  0.00000000000E+00  0.00000000000E+00  0.11016477146E+03  0.25982042681E+04  0.25958677050E+04 0.  0.
        4    1    3    3  502    0 -0.37207251280E+03 -0.11682106046E+04  0.48146665571E+03  0.13171809765E+04  0.12699999809E+01 0. -1.
       -4    1    3    3    0  502  0.37207251280E+03  0.11682106046E+04 -0.37130188426E+03  0.12810232916E+04  0.12699999809E+01 0.  1.
</event>
<event>
 5   0  0.1497497E-05  0.2568686E+04  0.7818609E-02  0.8378916E-01
        1   -1    0    0  501    0  0.00000000000E+00  0.00000000000E+00  0.95861338478E+03  0.95861338479E+03  0.50400001928E-02 0. -1.
       -1   -1    0    0    0  501  0.00000000000E+00  0.00000000000E+00 -0.17207536107E+04  0.17207536107E+04  0.50400001928E-02 0.  1.
    10030    2    1    2    0    0  0.00000000000E+00  0.00000000000E+00 -0.76214022590E+03  0.26793669955E+04  0.25686863905E+04 0.  0.
        3    1    3    3  502    0 -0.24008828947E+02 -0.38703669929E+03  0.89609084370E+03  0.97639778822E+03  0.10100000352E+00 0. -1.
       -3    1    3    3    0  502  0.24008828947E+02  0.38703669929E+03 -0.16582310696E+04  0.17029692073E+04  0.10100000352E+00 0.  1.
</event>
<event>
 5   0  0.1451052E-05  0.2490375E+04  0.7818609E-02  0.8406422E-01
       -1   -1    0    0    0  501  0.00000000000E+00  0.00000000000E+00  0.13407343664E+04  0.13407343664E+04  0.50400001928E-02 0.  1.
        1   -1    0    0  501    0  0.00000000000E+00  0.00000000000E+00 -0.11564501389E+04  0.11564501389E+04  0.50400001928E-02 0. -1.
    10030    2    1    2    0    0  0.00000000000E+00  0.00000000000E+00  0.18428422742E+03  0.24971845053E+04  0.24903754290E+04 0.  0.
        1    1    3    3  502    0  0.29532567850E+03  0.11862792701E+04  0.32946766396E+03  0.12661061190E+04  0.50400001928E-02 0.  1.
       -1    1    3    3    0  502 -0.29532567850E+03 -0.11862792701E+04 -0.14518343654E+03  0.12310783863E+04  0.50400001928E-02 0. -1.
</event>
<event>
 5   0  0.1497497E-05  0.2559238E+04  0.7818609E-02  0.8382180E-01
        1   -1    0    0  501    0  0.00000000000E+00  0.00000000000E+00  0.97591136947E+03  0.97591136948E+03  0.50400001928E-02 0. -1.
       -1   -1    0    0    0  501  0.00000000000E+00  0.00000000000E+00 -0.16778423061E+04  0.16778423061E+04  0.50400001928E-02 0.  1.
    10030    2    1    2    0    0  0.00000000000E+00  0.00000000000E+00 -0.70193093663E+03  0.26537536756E+04  0.25592384670E+04 0.  0.
        3    1    3    3  502    0  0.89879443867E+03 -0.20654690458E+03  0.56888776909E+03  0.10835711194E+04  0.10100000352E+00 0. -1.
       -3    1    3    3    0  502 -0.89879443867E+03  0.20654690458E+03 -0.12708187057E+04  0.15701825562E+04  0.10100000352E+00 0.  1.
</event>
<event>
 5   0  0.3508470E-05  0.2574115E+04  0.7818609E-02  0.8377047E-01
        2   -1    0    0  501    0  0.00000000000E+00  0.00000000000E+00  0.19631040115E+04  0.19631040115E+04  0.25500000920E-02 0. -1.
       -2   -1    0    0    0  501  0.00000000000E+00  0.00000000000E+00 -0.84382549970E+03  0.84382549970E+03  0.25500000920E-02 0.  1.
    10030    2    1    2    0    0  0.00000000000E+00  0.00000000000E+00  0.11192785118E+04  0.28069295112E+04  0.25741151671E+04 0.  0.
        5    1    3    3  502    0  0.10522039650E+04 -0.46800391426E+03 -0.67090564039E+02  0.11535528083E+04  0.46999998093E+01 0.  1.
       -5    1    3    3    0  502 -0.10522039650E+04  0.46800391426E+03  0.11863690758E+04  0.16533767029E+04  0.46999998093E+01 0. -1.
</event>
<event>
 5   0  0.1533248E-05  0.2363187E+04  0.7818609E-02  0.8453416E-01
        1   -1    0    0  501    0  0.00000000000E+00  0.00000000000E+00  0.11542942716E+04  0.11542942716E+04  0.50400001928E-02 0.  1.
       -1   -1    0    0    0  501  0.00000000000E+00  0.00000000000E+00 -0.12095380932E+04  0.12095380932E+04  0.50400001928E-02 0. -1.
    10030    2    1    2    0    0  0.00000000000E+00  0.00000000000E+00 -0.55243821598E+02  0.23638323648E+04  0.23631867402E+04 0.  0.
        4    1    3    3  502    0  0.57407549501E+03  0.41802255109E+03  0.91701724265E+03  0.11598395421E+04  0.12699999809E+01 0.  1.
       -4    1    3    3    0  502 -0.57407549501E+03 -0.41802255109E+03 -0.97226106425E+03  0.12039928227E+04  0.12699999809E+01 0. -1.
</event>
<event>
 5   0  0.1451052E-05  0.2489763E+04  0.7818609E-02  0.8406642E-01
       -1   -1    0    0    0  501  0.00000000000E+00  0.00000000000E+00  0.88985406012E+03  0.88985406013E+03  0.50400001928E-02 0. -1.
        1   -1    0    0  501    0  0.00000000000E+00  0.00000000000E+00 -0.17415553974E+04  0.17415553974E+04  0.50400001928E-02 0.  1.
    10030    2    1    2    0    0  0.00000000000E+00  0.00000000000E+00 -0.85170133730E+03  0.26314094576E+04  0.24897631545E+04 0.  0.
        1    1    3    3  502    0  0.11754411831E+04  0.95251574813E+02 -0.44234865143E+01  0.11793025077E+04  0.50400001928E-02 0. -1.
       -1    1    3    3    0  502 -0.11754411831E+04 -0.95251574813E+02 -0.84727785079E+03  0.14521069499E+04  0.50400001928E-02 0.  1.
</event>
<event>
 5   0  0.1497497E-05  0.2559669E+04  0.7818609E-02  0.8382031E-01
       -1   -1    0    0    0  501  0.00000000000E+00  0.00000000000E+00  0.90888358144E+03  0.90888358145E+03  0.50400001928E-02 0.  1.
        1   -1    0    0  501    0  0.00000000000E+00  0.00000000000E+00 -0.18021847713E+04  0.18021847713E+04  0.50400001928E-02 0. -1.
    10030    2    1    2    0    0  0.00000000000E+00  0.00000000000E+00 -0.89330118990E+03  0.27110683528E+04  0.25596688453E+04 0.  0.
        3    1    3    3  502    0 -0.12431981564E+04  0.97175268351E+02 -0.75177248216E+03  0.14560723073E+04  0.10100000352E+00 0.  1.
       -3    1    3    3    0  502  0.12431981564E+04 -0.97175268351E+02 -0.14152870774E+03  0.12549960455E+04  0.10100000352E+00 0. -1.
</event>
<event>
 5   0  0.3508470E-05  0.2606532E+04  0.7818609E-02  0.8365986E-01
        2   -1    0    0  501    0  0.00000000000E+00  0.00000000000E+00  0.25063345300E+04  0.25063345300E+04  0.25500000920E-02 0. -1.
       -2   -1    0    0    0  501  0.00000000000E+00  0.00000000000E+00 -0.67768398125E+03  0.67768398126E+03  0.25500000920E-02 0.  1.
    10030    2    1    2    0    0  0.00000000000E+00  0.00000000000E+00  0.18286505487E+04  0.31840185113E+04  0.26065323805E+04 0.  0.
        5    1    3    3  502    0 -0.61261307216E+02  0.26887247072E+03 -0.64162658361E+03  0.69839252292E+03  0.46999998093E+01 0.  1.
       -5    1    3    3    0  502  0.61261307216E+02 -0.26887247072E+03  0.24702771324E+04  0.24856259883E+04  0.46999998093E+01 0. -1.
</event>
<event>
 5   0  0.3441646E-05  0.2593818E+04  0.7818609E-02  0.8370304E-01
       -2   -1    0    0    0  501  0.00000000000E+00  0.00000000000E+00  0.10991554204E+04  0.10991554204E+04  0.25500000920E-02 0.  1.
        2   -1    0    0  501    0  0.00000000000E+00  0.00000000000E+00 -0.15302413925E+04  0.15302413925E+04  0.25500000920E-02 0. -1.
    10030    2    1    2    0    0  0.00000000000E+00  0.00000000000E+00 -0.43108597205E+03  0.26293968129E+04  0.25938181287E+04 0.  0.
        4    1    3    3  502    0  0.25183607751E+03 -0.86988500660E+03  0.72554991547E+03  0.11604075264E+04  0.12699999809E+01 0.  1.
       -4    1    3    3    0  502 -0.25183607751E+03  0.86988500660E+03 -0.11566358875E+04  0.14689892865E+04  0.12699999809E+01 0. -1.
</event>
<event>
 5   0  0.1474554E-05  0.2301932E+04  0.7818609E-02  0.8477160E-01
        1   -1    0    0  501    0  0.00000000000E+00  0.00000000000E+00  0.11076450598E+04  0.11076450598E+04  0.50400001928E-02 0. -1.
       -1   -1    0    0    0  501  0.00000000000E+00  0.00000000000E+00 -0.11959811078E+04  0.11959811079E+04  0.50400001928E-02 0.  1.
    10030    2    1    2    0    0  0.00000000000E+00  0.00000000000E+00 -0.88336048070E+02  0.23036261677E+04  0.23019318545E+04 0.  0.
        5    1    3    3  502    0 -0.10871308537E+04  0.45310268636E+02 -0.41966941997E+03  0.11662122558E+04  0.46999998093E+01 0.  1.
       -5    1    3    3    0  502  0.10871308537E+04 -0.45310268636E+02  0.33133337190E+03  0.11374139118E+04  0.46999998093E+01 0. -1.
</event>
<event>
 5   0  0.3441646E-05  0.2588432E+04  0.7818609E-02  0.8372141E-01
       -2   -1    0    0    0  501  0.00000000000E+00  0.00000000000E+00  0.14775161240E+04  0.14775161240E+04  0.25500000920E-02 0. -1.
        2   -1    0    0  501    0  0.00000000000E+00  0.00000000000E+00 -0.11336558183E+04  0.11336558183E+04  0.25500000920E-02 0.  1.
    10030    2    1    2    0    0  0.00000000000E+00  0.00000000000E+00  0.34386030569E+03  0.26111719422E+04  0.25884317650E+04 0.  0.
        4    1    3    3  502    0 -0.55786546554E+03 -0.11633383995E+04  0.27492030657E+03  0.13191485501E+04  0.12699999809E+01 0. -1.
       -4    1    3    3    0  502  0.55786546554E+03  0.11633383995E+04  0.68939999120E+02  0.12920233921E+04  0.12699999809E+01 0.  1.
</event>
<event>
 5   0  0.1497497E-05  0.2620143E+04  0.7818609E-02  0.8361391E-01
       -1   -1    0    0    0  501  0.00000000000E+00  0.00000000000E+00  0.98233835351E+03  0.98233835352E+03  0.50400001928E-02 0. -1.
        1   -1    0    0  501    0  0.00000000000E+00  0.00000000000E+00 -0.17471447195E+04  0.17471447195E+04  0.50400001928E-02 0.  1.
    10030    2    1    2    0    0  0.00000000000E+00  0.00000000000E+00 -0.76480636602E+03  0.27294830731E+04  0.26201429481E+04 0.  0.
        3    1    3    3  502    0 -0.66061205543E+03  0.88311862312E+03 -0.11190035624E+04  0.15711383686E+04  0.10100000352E+00 0.  1.
       -3    1    3    3    0  502  0.66061205543E+03 -0.88311862312E+03  0.35419719641E+03  0.11583447045E+04  0.10100000352E+00 0. -1.
</event>
<event>
 5   0  0.3499642E-05  0.2495476E+04  0.7818609E-02  0.8404599E-01
        2   -1    0    0  501    0  0.00000000000E+00  0.00000000000E+00  0.25308228542E+04  0.25308228542E+04  0.25500000920E-02 0. -1.
       -2   -1    0    0    0  501  0.00000000000E+00  0.00000000000E+00 -0.61515566505E+03  0.61515566506E+03  0.25500000920E-02 0.  1.
    10030    2    1    2    0    0  0.00000000000E+00  0.00000000000E+00  0.19156671891E+04  0.31459785192E+04  0.24954759193E+04 0.  0.
        2    1    3    3  502    0  0.10144970030E+04 -0.49090784247E+03  0.16328003544E+04  0.19839938700E+04  0.25500000920E-02 0. -1.
       -2    1    3    3    0  502 -0.10144970030E+04  0.49090784247E+03  0.28286683475E+03  0.11619846492E+04  0.25500000920E-02 0.  1.
</event>
<event>
 5   0  0.3849687E-05  0.1720343E+04  0.7818609E-02  0.8749846E-01
       -2   -1    0    0    0  501  0.00000000000E+00  0.00000000000E+00  0.80639071582E+03  0.80639071583E+03  0.25500000920E-02 0. -1.
        2   -1    0    0  501    0  0.00000000000E+00  0.00000000000E+00 -0.91753949895E+03  0.91753949895E+03  0.25500000920E-02 0.  1.
    10030    2    1    2    0    0  0.00000000000E+00  0.00000000000E+00 -0.11114878313E+03  0.17239302148E+04  0.17203433766E+04 0.  0.
        1    1    3    3  502    0  0.79292863543E+03 -0.32337029183E+03 -0.13692966203E+03  0.86721041212E+03  0.50400001928E-02 0. -1.
       -1    1    3    3    0  502 -0.79292863543E+03  0.32337029183E+03  0.25780878898E+02  0.85671980266E+03  0.50400001928E-02 0.  1.
</event>
<event>
 5   0  0.1533248E-05  0.2375772E+04  0.7818609E-02  0.8448630E-01
       -1   -1    0    0    0  501  0.00000000000E+00  0.00000000000E+00  0.15261636014E+04  0.15261636014E+04  0.50400001928E-02 0.  1.
        1   -1    0    0  501    0  0.00000000000E+00  0.00000000000E+00 -0.92458801520E+03  0.92458801521E+03  0.50400001928E-02 0. -1.
    10030    2    1    2    0    0  0.00000000000E+00  0.00000000000E+00  0.60157558619E+03  0.24507516166E+04  0.23757715169E+04 0.  0.
        4    1    3    3  502    0 -0.55085364049E+03  0.95561716207E+03  0.75564281144E+03  0.13370271370E+04  0.12699999809E+01 0.  1.
       -4    1    3    3    0  502  0.55085364049E+03 -0.95561716207E+03 -0.15406722526E+03  0.11137244796E+04  0.12699999809E+01 0. -1.
</event>
<event>
 5   0  0.3849687E-05  0.2607736E+04  0.7818609E-02  0.8365578E-01
        2   -1    0    0  501    0  0.00000000000E+00  0.00000000000E+00  0.89035479071E+03  0.89035479071E+03  0.25500000920E-02 0.  1.
       -2   -1    0    0    0  501  0.00000000000E+00  0.00000000000E+00 -0.19094312820E+04  0.19094312820E+04  0.25500000920E-02 0. -1.
    10030    2    1    2    0    0  0.00000000000E+00  0.00000000000E+00 -0.10190764913E+04  0.27997860727E+04  0.26077356380E+04 0.  0.
        1    1    3    3  502    0 -0.39076523132E+03 -0.10179616280E+04  0.25804608500E+03  0.11205048523E+04  0.50400001928E-02 0.  1.
       -1    1    3    3    0  502  0.39076523132E+03  0.10179616280E+04 -0.12771225763E+04  0.16792812203E+04  0.50400001928E-02 0. -1.
</event>
<event>
 5   0  0.1435062E-05  0.2590665E+04  0.7818609E-02  0.8371379E-01
        1   -1    0    0  501    0  0.00000000000E+00  0.00000000000E+00  0.16649159389E+04  0.16649159389E+04  0.50400001928E-02 0.  1.
       -1   -1    0    0    0  501  0.00000000000E+00  0.00000000000E+00 -0.10077903146E+04  0.10077903146E+04  0.50400001928E-02 0. -1.
    10030    2    1    2    0    0  0.00000000000E+00  0.00000000000E+00  0.65712562432E+03  0.26727062535E+04  0.25906649014E+04 0.  0.
        2    1    3    3  502    0 -0.99466696132E+03 -0.50222649742E+03  0.10100046314E+04  0.15038959984E+04  0.25500000920E-02 0.  1.
       -2    1    3    3    0  502  0.99466696132E+03  0.50222649742E+03 -0.35287900708E+03  0.11688102550E+04  0.25500000920E-02 0. -1.
</event>
<event>
 5   0  0.3441646E-05  0.1767060E+04  0.7818609E-02  0.8724015E-01
        2   -1    0    0  501    0  0.00000000000E+00  0.00000000000E+00  0.11632360118E+04  0.11632360118E+04  0.25500000920E-02 0. -1.
       -2   -1    0    0    0  501  0.00000000000E+00  0.00000000000E+00 -0.67108084708E+03  0.67108084708E+03  0.25500000920E-02 0.  1.
    10030    2    1    2    0    0  0.00000000000E+00  0.00000000000E+00  0.49215516471E+03  0.18343168589E+04  0.17670601667E+04 0.  0.
        4    1    3    3  502    0 -0.44805865957E+02 -0.56693873347E+02  0.11601623851E+04  0.11624113444E+04  0.12699999809E+01 0. -1.
       -4    1    3    3    0  502  0.44805865957E+02  0.56693873347E+02 -0.66800722042E+03  0.67190551444E+03  0.12699999809E+01 0.  1.
</event>
<event>
 5   0  0.3647623E-05  0.2575221E+04  0.7818609E-02  0.8376667E-01
        2   -1    0    0  501    0  0.00000000000E+00  0.00000000000E+00  0.14682028798E+04  0.14682028798E+04  0.25500000920E-02 0.  1.
       -2   -1    0    0    0  501  0.00000000000E+00  0.00000000000E+00 -0.11292311695E+04  0.11292311695E+04  0.25500000920E-02 0. -1.
    10030    2    1    2    0    0  0.00000000000E+00  0.00000000000E+00  0.33897171030E+03  0.25974340493E+04  0.25752207323E+04 0.  0.
        3    1    3    3  502    0  0.60724048199E+03 -0.48687606217E+02  0.13136556594E+04  0.14480340768E+04  0.10100000352E+00 0.  1.
       -3    1    3    3    0  502 -0.60724048199E+03  0.48687606217E+02 -0.97468394910E+03  0.11493999725E+04  0.10100000352E+00 0. -1.
</event>
<event>
 5   0  0.1435062E-05  0.2599031E+04  0.7818609E-02  0.8368531E-01
       -1   -1    0    0    0  501  0.00000000000E+00  0.00000000000E+00  0.19785271374E+04  0.19785271374E+04  0.50400001928E-02 0.  1.
        1   -1    0    0  501    0  0.00000000000E+00  0.00000000000E+00 -0.85353390220E+03  0.85353390221E+03  0.50400001928E-02 0. -1.
    10030    2    1    2    0    0  0.00000000000E+00  0.00000000000E+00  0.11249932352E+04  0.28320610397E+04  0.25990305795E+04 0.  0.
        2    1    3    3  502    0  0.90485452114E+03  0.63310923898E+03  0.13088552014E+04  0.17125101317E+04  0.25500000920E-02 0.  1.
       -2    1    3    3    0  502 -0.90485452114E+03 -0.63310923898E+03 -0.18386196618E+03  0.11195509080E+04  0.25500000920E-02 0. -1.
</event>
<event>
 5   0  0.1533248E-05  0.2603666E+04  0.7818609E-02  0.8366957E-01
       -1   -1    0    0    0  501  0.00000000000E+00  0.00000000000E+00  0.12163281192E+04  0.12163281192E+04  0.50400001928E-02 0. -1.
        1   -1    0    0  501    0  0.00000000000E+00  0.00000000000E+00 -0.13933485979E+04  0.13933485979E+04  0.50400001928E-02 0.  1.
    10030    2    1    2    0    0  0.00000000000E+00  0.00000000000E+00 -0.17702047863E+03  0.26096767171E+04  0.26036659382E+04 0.  0.
        4    1    3    3  502    0  0.67612303217E+03 -0.59211392943E+03 -0.10325051976E+04  0.13688717456E+04  0.12699999809E+01 0.  1.
       -4    1    3    3    0  502 -0.67612303217E+03  0.59211392943E+03  0.85548471893E+03  0.12408049715E+04  0.12699999809E+01 0. -1.
</event>
<event>
 5   0  0.1497497E-05  0.2606375E+04  0.7818609E-02  0.8366039E-01
        1   -1    0    0  501    0  0.00000000000E+00  0.00000000000E+00  0.15793052822E+04  0.15793052822E+04  0.50400001928E-02 0. -1.
       -1   -1    0    0    0  501  0.00000000000E+00  0.00000000000E+00 -0.10753444549E+04  0.10753444549E+04  0.50400001928E-02 0.  1.
    10030    2    1    2    0    0  0.00000000000E+00  0.00000000000E+00  0.50396082732E+03  0.26546497371E+04  0.26063746298E+04 0.  0.
        3    1    3    3  502    0 -0.77835513991E+03 -0.18497379791E+03 -0.79578372091E+03  0.11284164880E+04  0.10100000352E+00 0.  1.
       -3    1    3    3    0  502  0.77835513991E+03  0.18497379791E+03  0.12997445482E+04  0.15262332491E+04  0.10100000352E+00 0. -1.
</event>
<event>
 5   0  0.1497497E-05  0.2609368E+04  0.7818609E-02  0.8365026E-01
       -1   -1    0    0    0  501  0.00000000000E+00  0.00000000000E+00  0.13284264399E+04  0.13284264399E+04  0.50400001928E-02 0. -1.
        1   -1    0    0  501    0  0.00000000000E+00  0.00000000000E+00 -0.12813658007E+04  0.12813658008E+04  0.50400001928E-02 0.  1.
    10030    2    1    2    0    0  0.00000000000E+00  0.00000000000E+00  0.47060639165E+02  0.26097922407E+04  0.26093678997E+04 0.  0.
        3    1    3    3  502    0  0.13344457695E+03  0.99480666459E+02 -0.12707034326E+04  0.12815580681E+04  0.10100000352E+00 0.  1.
       -3    1    3    3    0  502 -0.13344457695E+03 -0.99480666459E+02  0.13177640718E+04  0.13282341726E+04  0.10100000352E+00 0. -1.
</event>
<event>
 5   0  0.3647623E-05  0.2641593E+04  0.7818609E-02  0.8354209E-01
       -2   -1    0    0    0  501  0.00000000000E+00  0.00000000000E+00  0.11196307906E+04  0.11196307906E+04  0.25500000920E-02 0.  1.
        2   -1    0    0  501    0  0.00000000000E+00  0.00000000000E+00 -0.15581064993E+04  0.15581064993E+04  0.25500000920E-02 0. -1.
    10030    2    1    2    0    0  0.00000000000E+00  0.00000000000E+00 -0.43847570865E+03  0.26777372899E+04  0.26415934673E+04 0.  0.
        3    1    3    3  502    0 -0.11079022106E+04  0.56057997712E+03  0.23726471081E+03  0.12641169931E+04  0.10100000352E+00 0. -1.
       -3    1    3    3    0  502  0.11079022106E+04 -0.56057997712E+03 -0.67574041947E+03  0.14136202968E+04  0.10100000352E+00 0.  1.
</event>
<event>
 5   0  0.3508470E-05  0.2700774E+04  0.7818609E-02  0.8334754E-01
        2   -1    0    0  501    0  0.00000000000E+00  0.00000000000E+00  0.20836143250E+04  0.20836143250E+04  0.25500000920E-02 0.  1.
       -2   -1    0    0    0  501  0.00000000000E+00  0.00000000000E+00 -0.87518388273E+03  0.87518388273E+03  0.25500000920E-02 0. -1.
    10030    2    1    2    0    0  0.00000000000E+00  0.00000000000E+00  0.12084304422E+04  0.29587982077E+04  0.27007744630E+04 0.  0.
        5    1    3    3  502    0  0.10744007166E+04  0.81729115909E+03  0.56592081301E+03  0.14637589266E+04  0.46999998093E+01 0.  1.
       -5    1    3    3    0  502 -0.10744007166E+04 -0.81729115909E+03  0.64250962924E+03  0.14950392811E+04  0.46999998093E+01 0. -1.
</event>
<event>
 5   0  0.3499642E-05  0.2584089E+04  0.7818609E-02  0.8373626E-01
        2   -1    0    0  501    0  0.00000000000E+00  0.00000000000E+00  0.19139750071E+04  0.19139750071E+04  0.25500000920E-02 0. -1.
       -2   -1    0    0    0  501  0.00000000000E+00  0.00000000000E+00 -0.87220555269E+03  0.87220555269E+03  0.25500000920E-02 0.  1.
    10030    2    1    2    0    0  0.00000000000E+00  0.00000000000E+00  0.10417694544E+04  0.27861805598E+04  0.25840894945E+04 0.  0.
        2    1    3    3  502    0 -0.29875770851E+03  0.77855075652E+03 -0.54320245737E+03  0.99522176351E+03  0.25500000920E-02 0.  1.
       -2    1    3    3    0  502  0.29875770851E+03 -0.77855075652E+03  0.15849719118E+04  0.17909587963E+04  0.25500000920E-02 0. -1.
</event>
<event>
 5   0  0.1451052E-05  0.2532541E+04  0.7818609E-02  0.8391483E-01
       -1   -1    0    0    0  501  0.00000000000E+00  0.00000000000E+00  0.12104062938E+04  0.12104062938E+04  0.50400001928E-02 0. -1.
        1   -1    0    0  501    0  0.00000000000E+00  0.00000000000E+00 -0.13247133648E+04  0.13247133648E+04  0.50400001928E-02 0.  1.
    10030    2    1    2    0    0  0.00000000000E+00  0.00000000000E+00 -0.11430707099E+03  0.25351196586E+04  0.25325413278E+04 0.  0.
        1    1    3    3  502    0  0.11865878992E+04 -0.12807924579E+01 -0.49969966787E+03  0.12875139770E+04  0.50400001928E-02 0.  1.
       -1    1    3    3    0  502 -0.11865878992E+04  0.12807924579E+01  0.38539259688E+03  0.12476056816E+04  0.50400001928E-02 0. -1.
</event>
<event>
 5   0  0.3499642E-05  0.1974050E+04  0.7818609E-02  0.8618850E-01
       -2   -1    0    0    0  501  0.00000000000E+00  0.00000000000E+00  0.76116060812E+03  0.76116060812E+03  0.25500000920E-02 0.  1.
        2   -1    0    0  501    0  0.00000000000E+00  0.00000000000E+00 -0.12799113356E+04  0.12799113356E+04  0.25500000920E-02 0. -1.
    10030    2    1    2    0    0  0.00000000000E+00  0.00000000000E+00 -0.51875072752E+03  0.20410719438E+04  0.19740497365E+04 0.  0.
        2    1    3    3  502    0  0.26538060104E+02  0.23716132342E+03 -0.12496335052E+04  0.12722160427E+04  0.25500000920E-02 0. -1.
       -2    1    3    3    0  502 -0.26538060104E+02 -0.23716132342E+03  0.73088277766E+03  0.76885590109E+03  0.25500000920E-02 0.  1.
</event>
<event>
 5   0  0.1451052E-05  0.2558750E+04  0.7818609E-02  0.8382349E-01
       -1   -1    0    0    0  501  0.00000000000E+00  0.00000000000E+00  0.97339659700E+03  0.97339659701E+03  0.50400001928E-02 0. -1.
        1   -1    0    0  501    0  0.00000000000E+00  0.00000000000E+00 -0.16815346696E+04  0.16815346696E+04  0.50400001928E-02 0.  1.
    10030    2    1    2    0    0  0.00000000000E+00  0.00000000000E+00 -0.70813807256E+03  0.26549312666E+04  0.25587497925E+04 0.  0.
        1    1    3    3  502    0  0.84391175428E+03  0.88595410404E+03 -0.74188097996E+03  0.14309049975E+04  0.50400001928E-02 0.  1.
       -1    1    3    3    0  502 -0.84391175428E+03 -0.88595410404E+03  0.33742907401E+02  0.12240262690E+04  0.50400001928E-02 0. -1.
</event>
<event>
 5   0  0.1474554E-05  0.2444719E+04  0.7818609E-02  0.8422949E-01
       -1   -1    0    0    0  501  0.00000000000E+00  0.00000000000E+00  0.85263048517E+03  0.85263048519E+03  0.50400001928E-02 0. -1.
        1   -1    0    0  501    0  0.00000000000E+00  0.00000000000E+00 -0.17524150290E+04  0.17524150290E+04  0.50400001928E-02 0.  1.
    10030    2    1    2    0    0  0.00000000000E+00  0.00000000000E+00 -0.89978454379E+03  0.26050455142E+04  0.24447187784E+04 0.  0.
        5    1    3    3  502    0  0.29533715020E+03 -0.54014493703E+02 -0.17125038677E+04  0.17386296860E+04  0.46999998093E+01 0.  1.
       -5    1    3    3    0  502 -0.29533715020E+03  0.54014493703E+02  0.81271932396E+03  0.86641582820E+03  0.46999998093E+01 0. -1.
</event>
<event>
 5   0  0.3441646E-05  0.2607334E+04  0.7818609E-02  0.8365714E-01
        2   -1    0    0  501    0  0.00000000000E+00  0.00000000000E+00  0.11253478536E+04  0.11253478536E+04  0.25500000920E-02 0. -1.
       -2   -1    0    0    0  501  0.00000000000E+00  0.00000000000E+00 -0.15102425859E+04  0.15102425859E+04  0.25500000920E-02 0.  1.
    10030    2    1    2    0    0  0.00000000000E+00  0.00000000000E+00 -0.38489473225E+03  0.26355904395E+04  0.26073344645E+04 0.  0.
        4    1    3    3  502    0  0.23151268908E+02  0.11578547229E+04 -0.79758608086E+03  0.14061680944E+04  0.12699999809E+01 0.  1.
       -4    1    3    3    0  502 -0.23151268908E+02 -0.11578547229E+04  0.41269134862E+03  0.12294223451E+04  0.12699999809E+01 0. -1.
</event>
<event>
 5   0  0.1497497E-05  0.2631200E+04  0.7818609E-02  0.8357680E-01
        1   -1    0    0  501    0  0.00000000000E+00  0.00000000000E+00  0.93012389931E+03  0.93012389933E+03  0.50400001928E-02 0.  1.
       -1   -1    0    0    0  501  0.00000000000E+00  0.00000000000E+00 -0.18608309611E+04  0.18608309611E+04  0.50400001928E-02 0. -1.
    10030    2    1    2    0    0  0.00000000000E+00  0.00000000000E+00 -0.93070706179E+03  0.27909548604E+04  0.26311999920E+04 0.  0.
        3    1    3    3  502    0  0.11802667595E+04 -0.51570875782E+03 -0.18109324418E+03  0.13006844044E+04  0.10100000352E+00 0.  1.
       -3    1    3    3    0  502 -0.11802667595E+04  0.51570875782E+03 -0.74961381761E+03  0.14902704561E+04  0.10100000352E+00 0. -1.
</event>
<event>
 5   0  0.1217200E-05  0.1903422E+04  0.7818609E-02  0.8653155E-01
        3   -1    0    0  501    0  0.00000000000E+00  0.00000000000E+00  0.12148197680E+04  0.12148197722E+04  0.10100000352E+00 0. -1.
       -3   -1    0    0    0  501  0.00000000000E+00  0.00000000000E+00 -0.74558723035E+03  0.74558723719E+03  0.10100000352E+00 0.  1.
    10030    2    1    2    0    0  0.00000000000E+00  0.00000000000E+00  0.46923253763E+03  0.19604070094E+04  0.19034223042E+04 0.  0.
        5    1    3    3  502    0  0.20043655644E+03 -0.50418764705E+03  0.10399145499E+04  0.11729553946E+04  0.46999998093E+01 0. -1.
       -5    1    3    3    0  502 -0.20043655644E+03  0.50418764705E+03 -0.57068201223E+03  0.78745161482E+03  0.46999998093E+01 0.  1.
</event>
<event>
 5   0  0.1451052E-05  0.2616819E+04  0.7818609E-02  0.8362510E-01
       -1   -1    0    0    0  501  0.00000000000E+00  0.00000000000E+00  0.15676658536E+04  0.15676658536E+04  0.50400001928E-02 0.  1.
        1   -1    0    0  501    0  0.00000000000E+00  0.00000000000E+00 -0.10920284785E+04  0.10920284785E+04  0.50400001928E-02 0. -1.
    10030    2    1    2    0    0  0.00000000000E+00  0.00000000000E+00  0.47563737510E+03  0.26596943321E+04  0.26168192577E+04 0.  0.
        1    1    3    3  502    0  0.70580365695E+03 -0.99736493503E+03  0.71350412463E+03  0.14149147507E+04  0.50400001928E-02 0.  1.
       -1    1    3    3    0  502 -0.70580365695E+03  0.99736493503E+03 -0.23786674953E+03  0.12447795814E+04  0.50400001928E-02 0. -1.
</event>
<event>
 5   0  0.1435062E-05  0.2538915E+04  0.7818609E-02  0.8389251E-01
        1   -1    0    0  501    0  0.00000000000E+00  0.00000000000E+00  0.22587689254E+04  0.22587689254E+04  0.50400001928E-02 0.  1.
       -1   -1    0    0    0  501  0.00000000000E+00  0.00000000000E+00 -0.71345180411E+03  0.71345180413E+03  0.50400001928E-02 0. -1.
    10030    2    1    2    0    0  0.00000000000E+00  0.00000000000E+00  0.15453171213E+04  0.29722207295E+04  0.25389153313E+04 0.  0.
        2    1    3    3  502    0 -0.81725438509E+03 -0.70654387563E+03 -0.77582258912E+01  0.10803560377E+04  0.25500000920E-02 0. -1.
       -2    1    3    3    0  502  0.81725438509E+03  0.70654387563E+03  0.15530753472E+04  0.18918646918E+04  0.25500000920E-02 0.  1.
</event>
<event>
 5   0  0.1533248E-05  0.1922909E+04  0.7818609E-02  0.8643536E-01
       -1   -1    0    0    0  501  0.00000000000E+00  0.00000000000E+00  0.88926094677E+03  0.88926094678E+03  0.50400001928E-02 0. -1.
        1   -1    0    0  501    0  0.00000000000E+00  0.00000000000E+00 -0.10395093129E+04  0.10395093129E+04  0.50400001928E-02 0.  1.
    10030    2    1    2    0    0  0.00000000000E+00  0.00000000000E+00 -0.15024836610E+03  0.19287702597E+04  0.19229092914E+04 0.  0.
        4    1    3    3  502    0 -0.78354973204E+03  0.48638349731E+02 -0.63186329165E+03  0.10077542875E+04  0.12699999809E+01 0.  1.
       -4    1    3    3    0  502  0.78354973204E+03 -0.48638349731E+02  0.48161492555E+03  0.92101597220E+03  0.12699999809E+01 0. -1.
</event>
<event>
 5   0  0.1217200E-05  0.2589459E+04  0.7818609E-02  0.8371791E-01
       -3   -1    0    0    0  501  0.00000000000E+00  0.00000000000E+00  0.13552321651E+04  0.13552321689E+04  0.10100000352E+00 0.  1.
        3   -1    0    0  501    0  0.00000000000E+00  0.00000000000E+00 -0.12369275232E+04  0.12369275274E+04  0.10100000352E+00 0. -1.
    10030    2    1    2    0    0  0.00000000000E+00  0.00000000000E+00  0.11830464186E+03  0.25921596962E+04  0.25894586119E+04 0.  0.
        4    1    3    3  502    0  0.69365713493E+03  0.91684749484E+03  0.65521680777E+03  0.13232838802E+04  0.12699999809E+01 0. -1.
       -4    1    3    3    0  502 -0.69365713493E+03 -0.91684749484E+03 -0.53691216591E+03  0.12688758160E+04  0.12699999809E+01 0.  1.
</event>
<event>
 5   0  0.3849687E-05  0.2546960E+04  0.7818609E-02  0.8386444E-01
       -2   -1    0    0    0  501  0.00000000000E+00  0.00000000000E+00  0.95200355388E+03  0.95200355388E+03  0.25500000920E-02 0. -1.
        2   -1    0    0  501    0  0.00000000000E+00  0.00000000000E+00 -0.17035140519E+04  0.17035140519E+04  0.25500000920E-02 0.  1.
    10030    2    1    2    0    0  0.00000000000E+00  0.00000000000E+00 -0.75151049800E+03  0.26555176058E+04  0.25469600951E+04 0.  0.
        1    1    3    3  502    0  0.97451584916E+03  0.15572801756E+03 -0.12149329025E+04  0.15652457677E+04  0.50400001928E-02 0.  1.
       -1    1    3    3    0  502 -0.97451584916E+03 -0.15572801756E+03  0.46342240454E+03  0.10902718380E+04  0.50400001928E-02 0. -1.
</event>
<event>
 5   0  0.1435062E-05  0.2821458E+04  0.7818609E-02  0.8296637E-01
       -1   -1    0    0    0  501  0.00000000000E+00  0.00000000000E+00  0.94855289759E+03  0.94855289761E+03  0.50400001928E-02 0.  1.
        1   -1    0    0  501    0  0.00000000000E+00  0.00000000000E+00 -0.20980970371E+04  0.20980970371E+04  0.50400001928E-02 0. -1.
    10030    2    1    2    0    0  0.00000000000E+00  0.00000000000E+00 -0.11495441395E+04  0.30466499347E+04  0.28214577962E+04 0.  0.
        2    1    3    3  502    0  0.11805782989E+04  0.41901357652E+03  0.12570903253E+03  0.12590235336E+04  0.25500000920E-02 0.  1.
       -2    1    3    3    0  502 -0.11805782989E+04 -0.41901357652E+03 -0.12752531720E+04  0.17876264011E+04  0.25500000920E-02 0. -1.
</event>
<event>
 5   0  0.3647623E-05  0.2556986E+04  0.7818609E-02  0.8382961E-01
       -2   -1    0    0    0  501  0.00000000000E+00  0.00000000000E+00  0.12378928976E+04  0.12378928976E+04  0.25500000920E-02 0.  1.
        2   -1    0    0  501    0  0.00000000000E+00  0.00000000000E+00 -0.13204244420E+04  0.13204244420E+04  0.25500000920E-02 0. -1.
    10030    2    1    2    0    0  0.00000000000E+00  0.00000000000E+00 -0.82531544406E+02  0.25583173397E+04  0.25569857557E+04 0.  0.
        3    1    3    3  502    0  0.97712038977E+03  0.41958484647E+02  0.78258228218E+03  0.12525812585E+04  0.10100000352E+00 0.  1.
       -3    1    3    3    0  502 -0.97712038977E+03 -0.41958484647E+02 -0.86511382659E+03  0.13057360812E+04  0.10100000352E+00 0. -1.
</event>
<event>
 5   0  0.1533248E-05  0.2528610E+04  0.7818609E-02  0.8392863E-01
       -1   -1    0    0    0  501  0.00000000000E+00  0.00000000000E+00  0.13510568101E+04  0.13510568101E+04  0.50400001928E-02 0. -1.
        1   -1    0    0  501    0  0.00000000000E+00  0.00000000000E+00 -0.11831233768E+04  0.11831233768E+04  0.50400001928E-02 0.  1.
    10030    2    1    2    0    0  0.00000000000E+00  0.00000000000E+00  0.16793343325E+03  0.25341801869E+04  0.25286098121E+04 0.  0.
        4    1    3    3  502    0 -0.16489846866E+03 -0.86626584063E+03 -0.82404091141E+03  0.12069188242E+04  0.12699999809E+01 0.  1.
       -4    1    3    3    0  502  0.16489846866E+03  0.86626584063E+03  0.99197434467E+03  0.13272613627E+04  0.12699999809E+01 0. -1.
</event>
<event>
 5   0  0.3849687E-05  0.2671755E+04  0.7818609E-02  0.8344228E-01
        2   -1    0    0  501    0  0.00000000000E+00  0.00000000000E+00  0.14318774359E+04  0.14318774359E+04  0.25500000920E-02 0. -1.
       -2   -1    0    0    0  501  0.00000000000E+00  0.00000000000E+00 -0.12463142882E+04  0.12463142882E+04  0.25500000920E-02 0.  1.
    10030    2    1    2    0    0  0.00000000000E+00  0.00000000000E+00  0.18556314773E+03  0.26781917241E+04  0.26717554584E+04 0.  0.
        1    1    3    3  502    0 -0.57818817419E+03 -0.10969226534E+04  0.59099844719E+03  0.13736156802E+04  0.50400001928E-02 0. -1.
       -1    1    3    3    0  502  0.57818817419E+03  0.10969226534E+04 -0.40543529946E+03  0.13045760439E+04  0.50400001928E-02 0.  1.
</event>
<event>
 5   0  0.1497497E-05  0.2615189E+04  0.7818609E-02  0.8363060E-01
        1   -1    0    0  501    0  0.00000000000E+00  0.00000000000E+00  0.19557051875E+04  0.19557051875E+04  0.50400001928E-02 0. -1.
       -1   -1    0    0    0  501  0.00000000000E+00  0.00000000000E+00 -0.87426441102E+03  0.87426441103E+03  0.50400001928E-02 0.  1.
    10030    2    1    2    0    0  0.00000000000E+00  0.00000000000E+00  0.10814407764E+04  0.28299695985E+04  0.26151890516E+04 0.  0.
        3    1    3    3  502    0  0.78008339984E+03  0.64658432211E+03  0.14351645981E+04  0.17567865067E+04  0.10100000352E+00 0. -1.
       -3    1    3    3    0  502 -0.78008339984E+03 -0.64658432211E+03 -0.35372382166E+03  0.10731830918E+04  0.10100000352E+00 0.  1.
</event>
<event>
 5   0  0.3441646E-05  0.2593592E+04  0.7818609E-02  0.8370381E-01
       -2   -1    0    0    0  501  0.00000000000E+00  0.00000000000E+00  0.10135254525E+04  0.10135254525E+04  0.25500000920E-02 0.  1.
        2   -1    0    0  501    0  0.00000000000E+00  0.00000000000E+00 -0.16592374072E+04  0.16592374072E+04  0.25500000920E-02 0. -1.
    10030    2    1    2    0    0  0.00000000000E+00  0.00000000000E+00 -0.64571195475E+03  0.26727628597E+04  0.25935915978E+04 0.  0.
        4    1    3    3  502    0 -0.10461797858E+04  0.12525869668E+03 -0.11019060567E+04  0.15245918982E+04  0.12699999809E+01 0. -1.
       -4    1    3    3    0  502  0.10461797858E+04 -0.12525869668E+03  0.45619410194E+03  0.11481709615E+04  0.12699999809E+01 0.  1.
</event>
<event>
 5   0  0.3441646E-05  0.2574410E+04  0.7818609E-02  0.8376946E-01
        2   -1    0    0  501    0  0.00000000000E+00  0.00000000000E+00  0.16826646423E+04  0.16826646423E+04  0.25500000920E-02 0.  1.
       -2   -1    0    0    0  501  0.00000000000E+00  0.00000000000E+00 -0.98468657714E+03  0.98468657714E+03  0.25500000920E-02 0. -1.
    10030    2    1    2    0    0  0.00000000000E+00  0.00000000000E+00  0.69797806515E+03  0.26673512194E+04  0.25744104468E+04 0.  0.
        4    1    3    3  502    0 -0.88558806150E+03  0.64580747049E+03 -0.35033143971E+03  0.11506812044E+04  0.12699999809E+01 0.  1.
       -4    1    3    3    0  502  0.88558806150E+03 -0.64580747049E+03  0.10483095049E+04  0.15166700150E+04  0.12699999809E+01 0. -1.
</event>
<event>
 5   0  0.3508470E-05  0.2647656E+04  0.7818609E-02  0.8352191E-01
        2   -1    0    0  501    0  0.00000000000E+00  0.00000000000E+00  0.17255418057E+04  0.17255418057E+04  0.25500000920E-02 0. -1.
       -2   -1    0    0    0  501  0.00000000000E+00  0.00000000000E+00 -0.10156349965E+04  0.10156349965E+04  0.25500000920E-02 0.  1.
    10030    2    1    2    0    0  0.00000000000E+00  0.00000000000E+00  0.70990680914E+03  0.27411768022E+04  0.26476560545E+04 0.  0.
        5    1    3    3  502    0 -0.37391421149E+03  0.90906188607E+03 -0.56309957014E+03  0.11328320997E+04  0.46999998093E+01 0.  1.
       -5    1    3    3    0  502  0.37391421149E+03 -0.90906188607E+03  0.12730063793E+04  0.16083447025E+04  0.46999998093E+01 0. -1.
</event>
<event>
 5   0  0.3499642E-05  0.2599695E+04  0.7818609E-02  0.8368305E-01
        2   -1    0    0  501    0  0.00000000000E+00  0.00000000000E+00  0.17439880503E+04  0.17439880503E+04  0.25500000920E-02 0. -1.
       -2   -1    0    0    0  501  0.00000000000E+00  0.00000000000E+00 -0.96881610711E+03  0.96881610711E+03  0.25500000920E-02 0.  1.
    10030    2    1    2    0    0  0.00000000000E+00  0.00000000000E+00  0.77517194317E+03  0.27128041574E+04  0.25996951465E+04 0.  0.
        2    1    3    3  502    0  0.21293503063E+03 -0.95107619532E+03 -0.50990204689E+03  0.10999487961E+04  0.25500000920E-02 0.  1.
       -2    1    3    3    0  502 -0.21293503063E+03  0.95107619532E+03  0.12850739901E+04  0.16128553613E+04  0.25500000920E-02 0. -1.
</event>
<event>
 5   0  0.3647623E-05  0.2596757E+04  0.7818609E-02  0.8369304E-01
       -2   -1    0    0    0  501  0.00000000000E+00  0.00000000000E+00  0.73217096384E+03  0.73217096385E+03  0.25500000920E-02 0. -1.
        2   -1    0    0  501    0  0.00000000000E+00  0.00000000000E+00 -0.23024487132E+04  0.23024487132E+04  0.25500000920E-02 0.  1.
    10030    2    1    2    0    0  0.00000000000E+00  0.00000000000E+00 -0.15702777494E+04  0.30346196771E+04  0.25967565104E+04 0.  0.
        3    1    3    3  502    0  0.53915742851E+03  0.18769909012E+03  0.57762572368E+03  0.81214110104E+03  0.10100000352E+00 0. -1.
       -3    1    3    3    0  502 -0.53915742851E+03 -0.18769909012E+03 -0.21479034731E+04  0.22224785760E+04  0.10100000352E+00 0.  1.
</event>
<event>
 5   0  0.3647623E-05  0.2622813E+04  0.7818609E-02  0.8360493E-01
        2   -1    0    0  501    0  0.00000000000E+00  0.00000000000E+00  0.16648832742E+04  0.16648832742E+04  0.25500000920E-02 0. -1.
       -2   -1    0    0    0  501  0.00000000000E+00  0.00000000000E+00 -0.10329771641E+04  0.10329771641E+04  0.25500000920E-02 0.  1.
    10030    2    1    2    0    0  0.00000000000E+00  0.00000000000E+00  0.63190611011E+03  0.26978604383E+04  0.26228125386E+04 0.  0.
        3    1    3    3  502    0 -0.42773886516E+03  0.11154959019E+04  0.87225588017E+03  0.14792301966E+04  0.10100000352E+00 0. -1.
       -3    1    3    3    0  502  0.42773886516E+03 -0.11154959019E+04 -0.24034977006E+03  0.12186302417E+04  0.10100000352E+00 0.  1.
</event>
<event>
 5   0  0.3499642E-05  0.2527960E+04  0.7818609E-02  0.8393092E-01
       -2   -1    0    0    0  501  0.00000000000E+00  0.00000000000E+00  0.71885486114E+03  0.71885486114E+03  0.25500000920E-02 0. -1.
        2   -1    0    0  501    0  0.00000000000E+00  0.00000000000E+00 -0.22224871695E+04  0.22224871695E+04  0.25500000920E-02 0.  1.
    10030    2    1    2    0    0  0.00000000000E+00  0.00000000000E+00 -0.15036323084E+04  0.29413420307E+04  0.25279602098E+04 0.  0.
        2    1    3    3  502    0 -0.11262500429E+04  0.56080526804E+03 -0.61072720183E+03  0.13985454669E+04  0.25500000920E-02 0. -1.
       -2    1    3    3    0  502  0.11262500429E+04 -0.56080526804E+03 -0.89290510656E+03  0.15427965638E+04  0.25500000920E-02 0.  1.
</event>
<event>
 5   0  0.1217200E-05  0.2397629E+04  0.7818609E-02  0.8440392E-01
       -4   -1    0    0    0  501  0.00000000000E+00  0.00000000000E+00  0.97217013511E+03  0.97217096464E+03  0.12699999809E+01 0. -1.
        4   -1    0    0  501    0  0.00000000000E+00  0.00000000000E+00 -0.14782952785E+04  0.14782958241E+04  0.12699999809E+01 0.  1.
    10030    2    1    2    0    0  0.00000000000E+00  0.00000000000E+00 -0.50612514343E+03  0.24504667887E+04  0.23976290000E+04 0.  0.
        4    1    3    3  502    0  0.73410286830E+03  0.88568095630E+03  0.91739647250E+02  0.11540171374E+04  0.12699999809E+01 0. -1.
       -4    1    3    3    0  502 -0.73410286830E+03 -0.88568095630E+03 -0.59786479068E+03  0.12964496513E+04  0.12699999809E+01 0.  1.
</event>
<event>
 5   0  0.3647623E-05  0.2625452E+04  0.7818609E-02  0.8359607E-01
       -2   -1    0    0    0  501  0.00000000000E+00  0.00000000000E+00  0.12829640323E+04  0.12829640323E+04  0.25500000920E-02 0. -1.
        2   -1    0    0  501    0  0.00000000000E+00  0.00000000000E+00 -0.13431787692E+04  0.13431787692E+04  0.25500000920E-02 0.  1.
    10030    2    1    2    0    0  0.00000000000E+00  0.00000000000E+00 -0.60214736903E+02  0.26261428015E+04  0.26254523799E+04 0.  0.
        3    1    3    3  502    0  0.57328602642E+03  0.11785186935E+04  0.45323738807E+02  0.13113418435E+04  0.10100000352E+00 0.  1.
       -3    1    3    3    0  502 -0.57328602642E+03 -0.11785186935E+04 -0.10553847571E+03  0.13148009580E+04  0.10100000352E+00 0. -1.
</event>
<event>
 5   0  0.1451052E-05  0.2597604E+04  0.7818609E-02  0.8369015E-01
       -1   -1    0    0    0  501  0.00000000000E+00  0.00000000000E+00  0.64249242578E+03  0.64249242580E+03  0.50400001928E-02 0. -1.
        1   -1    0    0  501    0  0.00000000000E+00  0.00000000000E+00 -0.26255355849E+04  0.26255355849E+04  0.50400001928E-02 0.  1.
    10030    2    1    2    0    0  0.00000000000E+00  0.00000000000E+00 -0.19830431591E+04  0.32680280107E+04  0.25976040706E+04 0.  0.
        1    1    3    3  502    0 -0.74217150020E+03  0.99631690910E+03 -0.51506986265E+03  0.13449025550E+04  0.50400001928E-02 0. -1.
       -1    1    3    3    0  502  0.74217150020E+03 -0.99631690910E+03 -0.14679732964E+04  0.19231254557E+04  0.50400001928E-02 0.  1.
</event>
<event>
 5   0  0.3849687E-05  0.2705072E+04  0.7818609E-02  0.8333361E-01
        2   -1    0    0  501    0  0.00000000000E+00  0.00000000000E+00  0.22667775635E+04  0.22667775635E+04  0.25500000920E-02 0. -1.
       -2   -1    0    0    0  501  0.00000000000E+00  0.00000000000E+00 -0.80702803047E+03  0.80702803048E+03  0.25500000920E-02 0.  1.
    10030    2    1    2    0    0  0.00000000000E+00  0.00000000000E+00  0.14597495331E+04  0.30738055940E+04  0.27050715574E+04 0.  0.
        1    1    3    3  502    0  0.68159500870E+03 -0.72735284743E+03  0.17686773052E+04  0.20302298713E+04  0.50400001928E-02 0. -1.
       -1    1    3    3    0  502 -0.68159500870E+03  0.72735284743E+03 -0.30892777213E+03  0.10435757227E+04  0.50400001928E-02 0.  1.
</event>
<event>
 5   0  0.3499642E-05  0.2604820E+04  0.7818609E-02  0.8366566E-01
        2   -1    0    0  501    0  0.00000000000E+00  0.00000000000E+00  0.16481245809E+04  0.16481245809E+04  0.25500000920E-02 0.  1.
       -2   -1    0    0    0  501  0.00000000000E+00  0.00000000000E+00 -0.10292130489E+04  0.10292130489E+04  0.25500000920E-02 0. -1.
    10030    2    1    2    0    0  0.00000000000E+00  0.00000000000E+00  0.61891153202E+03  0.26773376297E+04  0.26048196289E+04 0.  0.
        2    1    3    3  502    0  0.78307240322E+03  0.10375012574E+04  0.22557447422E+03  0.13192782463E+04  0.25500000920E-02 0.  1.
       -2    1    3    3    0  502 -0.78307240322E+03 -0.10375012574E+04  0.39333705780E+03  0.13580593834E+04  0.25500000920E-02 0. -1.
</event>
<event>
 5   0  0.1435062E-05  0.2482612E+04  0.7818609E-02  0.8409206E-01
       -1   -1    0    0    0  501  0.00000000000E+00  0.00000000000E+00  0.15838421963E+04  0.15838421963E+04  0.50400001928E-02 0.  1.
        1   -1    0    0  501    0  0.00000000000E+00  0.00000000000E+00 -0.97284961715E+03  0.97284961716E+03  0.50400001928E-02 0. -1.
    10030    2    1    2    0    0  0.00000000000E+00  0.00000000000E+00  0.61099257914E+03  0.25566918135E+04  0.24826117492E+04 0.  0.
        2    1    3    3  502    0  0.88379448015E+03  0.90463179099E+02  0.11982929566E+04  0.14917044881E+04  0.25500000920E-02 0.  1.
       -2    1    3    3    0  502 -0.88379448015E+03 -0.90463179099E+02 -0.58730037744E+03  0.10649873254E+04  0.25500000920E-02 0. -1.
</event>
<event>
 5   0  0.3508470E-05  0.2744443E+04  0.7818609E-02  0.8320727E-01
        2   -1    0    0  501    0  0.00000000000E+00  0.00000000000E+00  0.17132483194E+04  0.17132483194E+04  0.25500000920E-02 0.  1.
       -2   -1    0    0    0  501  0.00000000000E+00  0.00000000000E+00 -0.10990773965E+04  0.10990773965E+04  0.25500000920E-02 0. -1.
    10030    2    1    2    0    0  0.00000000000E+00  0.00000000000E+00  0.61417092293E+03  0.28123257159E+04  0.27444434790E+04 0.  0.
        5    1    3    3  502    0 -0.63445486674E+03  0.77975557966E+03 -0.65005087204E+03  0.11971382410E+04  0.46999998093E+01 0. -1.
       -5    1    3    3    0  502  0.63445486674E+03 -0.77975557966E+03  0.12642217950E+04  0.16151874748E+04  0.46999998093E+01 0.  1.
</event>
<event>
 5   0  0.1497497E-05  0.1732016E+04  0.7818609E-02  0.8743312E-01
        1   -1    0    0  501    0  0.00000000000E+00  0.00000000000E+00  0.13891559048E+04  0.13891559048E+04  0.50400001928E-02 0.  1.
       -1   -1    0    0    0  501  0.00000000000E+00  0.00000000000E+00 -0.53987465370E+03  0.53987465372E+03  0.50400001928E-02 0. -1.
    10030    2    1    2    0    0  0.00000000000E+00  0.00000000000E+00  0.84928125106E+03  0.19290305585E+04  0.17320162390E+04 0.  0.
        3    1    3    3  502    0  0.36654878905E+02  0.86290146153E+03  0.35395890713E+03  0.93339671662E+03  0.10100000352E+00 0.  1.
       -3    1    3    3    0  502 -0.36654878905E+02 -0.86290146153E+03  0.49532234393E+03  0.99563384186E+03  0.10100000352E+00 0. -1.
</event>
<event>
 5   0  0.1497497E-05  0.2577383E+04  0.7818609E-02  0.8375925E-01
       -1   -1    0    0    0  501  0.00000000000E+00  0.00000000000E+00  0.89806955036E+03  0.89806955038E+03  0.50400001928E-02 0.  1.
        1   -1    0    0  501    0  0.00000000000E+00  0.00000000000E+00 -0.18492167999E+04  0.18492167999E+04  0.50400001928E-02 0. -1.
    10030    2    1    2    0    0  0.00000000000E+00  0.00000000000E+00 -0.95114724954E+03  0.27472863503E+04  0.25773826259E+04 0.  0.
        3    1    3    3  502    0  0.55838708893E+03  0.40760423761E+02  0.76166077536E+03  0.94529609126E+03  0.10100000352E+00 0.  1.
       -3    1    3    3    0  502 -0.55838708893E+03 -0.40760423761E+02 -0.17128080249E+04  0.18019902590E+04  0.10100000352E+00 0. -1.
</event>
<event>
 5   0  0.1533248E-05  0.2595985E+04  0.7818609E-02  0.8369566E-01
        1   -1    0    0  501    0  0.00000000000E+00  0.00000000000E+00  0.10413915164E+04  0.10413915164E+04  0.50400001928E-02 0. -1.
       -1   -1    0    0    0  501  0.00000000000E+00  0.00000000000E+00 -0.16178198770E+04  0.16178198770E+04  0.50400001928E-02 0.  1.
    10030    2    1    2    0    0  0.00000000000E+00  0.00000000000E+00 -0.57642836059E+03  0.26592113934E+04  0.25959845107E+04 0.  0.
        4    1    3    3  502    0  0.33356785120E+03  0.84203415264E+03 -0.12406409004E+04  0.15360600516E+04  0.12699999809E+01 0.  1.
       -4    1    3    3    0  502 -0.33356785120E+03 -0.84203415264E+03  0.66421253983E+03  0.11231513418E+04  0.12699999809E+01 0. -1.
</event>
<event>
 5   0  0.3441646E-05  0.2602593E+04  0.7818609E-02  0.8367321E-01
        2   -1    0    0  501    0  0.00000000000E+00  0.00000000000E+00  0.21772478938E+04  0.21772478938E+04  0.25500000920E-02 0. -1.
       -2   -1    0    0    0  501  0.00000000000E+00  0.00000000000E+00 -0.77775852407E+03  0.77775852408E+03  0.25500000920E-02 0.  1.
    10030    2    1    2    0    0  0.00000000000E+00  0.00000000000E+00  0.13994893697E+04  0.29550064179E+04  0.26025934054E+04 0.  0.
        4    1    3    3  502    0 -0.11768217300E+04 -0.29487355443E+03  0.12341249816E+04  0.17305854155E+04  0.12699999809E+01 0.  1.
       -4    1    3    3    0  502  0.11768217300E+04  0.29487355443E+03  0.16536438815E+03  0.12244210024E+04  0.12699999809E+01 0. -1.
</event>
<event>
 5   0  0.3499642E-05  0.2620710E+04  0.7818609E-02  0.8361200E-01
       -2   -1    0    0    0  501  0.00000000000E+00  0.00000000000E+00  0.20241069296E+04  0.20241069296E+04  0.25500000920E-02 0.  1.
        2   -1    0    0  501    0  0.00000000000E+00  0.00000000000E+00 -0.84829051451E+03  0.84829051451E+03  0.25500000920E-02 0. -1.
    10030    2    1    2    0    0  0.00000000000E+00  0.00000000000E+00  0.11758164151E+04  0.28723974441E+04  0.26207103684E+04 0.  0.
        2    1    3    3  502    0  0.23720712699E+03  0.12409717605E+04  0.96877552686E+03  0.15921068283E+04  0.25500000920E-02 0. -1.
       -2    1    3    3    0  502 -0.23720712699E+03 -0.12409717605E+04  0.20704088822E+03  0.12802906158E+04  0.25500000920E-02 0.  1.
</event>
<event>
 5   0  0.3441646E-05  0.2572598E+04  0.7818609E-02  0.8377569E-01
       -2   -1    0    0    0  501  0.00000000000E+00  0.00000000000E+00  0.55953638661E+03  0.55953638662E+03  0.25500000920E-02 0.  1.
        2   -1    0    0  501    0  0.00000000000E+00  0.00000000000E+00 -0.29570294365E+04  0.29570294365E+04  0.25500000920E-02 0. -1.
    10030    2    1    2    0    0  0.00000000000E+00  0.00000000000E+00 -0.23974930499E+04  0.35165658232E+04  0.25725983488E+04 0.  0.
        4    1    3    3  502    0  0.88218552786E+03 -0.51450649076E+02 -0.24764184507E+04  0.26293627423E+04  0.12699999809E+01 0. -1.
       -4    1    3    3    0  502 -0.88218552786E+03  0.51450649076E+02  0.78925400774E+02  0.88720308083E+03  0.12699999809E+01 0.  1.
</event>
<event>
 5   0  0.3849687E-05  0.2575211E+04  0.7818609E-02  0.8376670E-01
       -2   -1    0    0    0  501  0.00000000000E+00  0.00000000000E+00  0.10342830033E+04  0.10342830033E+04  0.25500000920E-02 0.  1.
        2   -1    0    0  501    0  0.00000000000E+00  0.00000000000E+00 -0.16029735082E+04  0.16029735082E+04  0.25500000920E-02 0. -1.
    10030    2    1    2    0    0  0.00000000000E+00  0.00000000000E+00 -0.56869050488E+03  0.26372565115E+04  0.25752112567E+04 0.  0.
        1    1    3    3  502    0  0.11418299871E+04  0.34837974195E+03 -0.77844673685E+03  0.14251748967E+04  0.50400001928E-02 0. -1.
       -1    1    3    3    0  502 -0.11418299871E+04 -0.34837974195E+03  0.20975623197E+03  0.12120816148E+04  0.50400001928E-02 0.  1.
</event>
<event>
 5   0  0.3647623E-05  0.2605736E+04  0.7818609E-02  0.8366255E-01
        2   -1    0    0  501    0  0.00000000000E+00  0.00000000000E+00  0.14866554633E+04  0.14866554633E+04  0.25500000920E-02 0. -1.
       -2   -1    0    0    0  501  0.00000000000E+00  0.00000000000E+00 -0.11418016588E+04  0.11418016588E+04  0.25500000920E-02 0.  1.
    10030    2    1    2    0    0  0.00000000000E+00  0.00000000000E+00  0.34485380447E+03  0.26284571222E+04  0.26057364979E+04 0.  0.
        3    1    3    3  502    0 -0.10621159218E+04 -0.68994886476E+03 -0.13576288954E+03  0.12737940334E+04  0.10100000352E+00 0. -1.
       -3    1    3    3    0  502  0.10621159218E+04  0.68994886476E+03  0.48061669402E+03  0.13546630887E+04  0.10100000352E+00 0.  1.
</event>
<event>
 5   0  0.1451052E-05  0.2678815E+04  0.7818609E-02  0.8341911E-01
       -1   -1    0    0    0  501  0.00000000000E+00  0.00000000000E+00  0.14710697063E+04  0.14710697063E+04  0.50400001928E-02 0.  1.
        1   -1    0    0  501    0  0.00000000000E+00  0.00000000000E+00 -0.12195296202E+04  0.12195296202E+04  0.50400001928E-02 0. -1.
    10030    2    1    2    0    0  0.00000000000E+00  0.00000000000E+00  0.25154008605E+03  0.26905993265E+04  0.26788154697E+04 0.  0.
        1    1    3    3  502    0 -0.46064473250E+03 -0.27295132854E+03 -0.11073590425E+04  0.12300162789E+04  0.50400001928E-02 0. -1.
       -1    1    3    3    0  502  0.46064473250E+03  0.27295132854E+03  0.13588991286E+04  0.14605830476E+04  0.50400001928E-02 0.  1.
</event>
<event>
 5   0  0.3499642E-05  0.2599498E+04  0.7818609E-02  0.8368372E-01
        2   -1    0    0  501    0  0.00000000000E+00  0.00000000000E+00  0.17946684346E+04  0.17946684346E+04  0.25500000920E-02 0. -1.
       -2   -1    0    0    0  501  0.00000000000E+00  0.00000000000E+00 -0.94131448348E+03  0.94131448349E+03  0.25500000920E-02 0.  1.
    10030    2    1    2    0    0  0.00000000000E+00  0.00000000000E+00  0.85335395113E+03  0.27359829181E+04  0.25994979443E+04 0.  0.
        2    1    3    3  502    0 -0.27244269280E+03  0.74748312268E+03  0.15084504339E+04  0.17053969482E+04  0.25500000920E-02 0. -1.
       -2    1    3    3    0  502  0.27244269280E+03 -0.74748312268E+03 -0.65509648276E+03  0.10305859699E+04  0.25500000920E-02 0.  1.
</event>
<event>
 5   0  0.1435062E-05  0.2670581E+04  0.7818609E-02  0.8344614E-01
       -1   -1    0    0    0  501  0.00000000000E+00  0.00000000000E+00  0.10862199114E+04  0.10862199114E+04  0.50400001928E-02 0. -1.
        1   -1    0    0  501    0  0.00000000000E+00  0.00000000000E+00 -0.16414730120E+04  0.16414730120E+04  0.50400001928E-02 0.  1.
    10030    2    1    2    0    0  0.00000000000E+00  0.00000000000E+00 -0.55525310062E+03  0.27276929235E+04  0.26705809628E+04 0.  0.
        2    1    3    3  502    0  0.10715896118E+04  0.77209962557E+03 -0.77063914291E+02  0.13230196426E+04  0.25500000920E-02 0.  1.
       -2    1    3    3    0  502 -0.10715896118E+04 -0.77209962557E+03 -0.47818918633E+03  0.14046732808E+04  0.25500000920E-02 0. -1.
</event>
<event>
 5   0  0.3499642E-05  0.2647822E+04  0.7818609E-02  0.8352136E-01
       -2   -1    0    0    0  501  0.00000000000E+00  0.00000000000E+00  0.10068158983E+04  0.10068158983E+04  0.25500000920E-02 0. -1.
        2   -1    0    0  501    0  0.00000000000E+00  0.00000000000E+00 -0.17408742538E+04  0.17408742538E+04  0.25500000920E-02 0.  1.
    10030    2    1    2    0    0  0.00000000000E+00  0.00000000000E+00 -0.73405835550E+03  0.27476901522E+04  0.26478216524E+04 0.  0.
        2    1    3    3  502    0  0.15491905957E+03 -0.82560301479E+03  0.69485506668E+03  0.10901577027E+04  0.25500000920E-02 0. -1.
       -2    1    3    3    0  502 -0.15491905957E+03  0.82560301479E+03 -0.14289134222E+04  0.16575324495E+04  0.25500000920E-02 0.  1.
</event>
<event>
 5   0  0.3441646E-05  0.2070948E+04  0.7818609E-02  0.8574150E-01
       -2   -1    0    0    0  501  0.00000000000E+00  0.00000000000E+00  0.76115297054E+03  0.76115297054E+03  0.25500000920E-02 0.  1.
        2   -1    0    0  501    0  0.00000000000E+00  0.00000000000E+00 -0.14086613400E+04  0.14086613400E+04  0.25500000920E-02 0. -1.
    10030    2    1    2    0    0  0.00000000000E+00  0.00000000000E+00 -0.64750836947E+03  0.21698143106E+04  0.20709483465E+04 0.  0.
        4    1    3    3  502    0  0.12266263383E+03  0.56960978868E+03  0.57309103941E+03  0.81727375184E+03  0.12699999809E+01 0.  1.
       -4    1    3    3    0  502 -0.12266263383E+03 -0.56960978868E+03 -0.12205994089E+04  0.13525405587E+04  0.12699999809E+01 0. -1.
</event>
<event>
 5   0  0.1451052E-05  0.2598935E+04  0.7818609E-02  0.8368563E-01
        1   -1    0    0  501    0  0.00000000000E+00  0.00000000000E+00  0.17033869649E+04  0.17033869649E+04  0.50400001928E-02 0. -1.
       -1   -1    0    0    0  501  0.00000000000E+00  0.00000000000E+00 -0.99132803753E+03  0.99132803754E+03  0.50400001928E-02 0.  1.
    10030    2    1    2    0    0  0.00000000000E+00  0.00000000000E+00  0.71205892738E+03  0.26947150025E+04  0.25989345949E+04 0.  0.
        1    1    3    3  502    0  0.26638677114E+03 -0.10290791624E+04  0.11310035260E+04  0.15521387857E+04  0.50400001928E-02 0. -1.
       -1    1    3    3    0  502 -0.26638677114E+03  0.10290791624E+04 -0.41894459860E+03  0.11425762167E+04  0.50400001928E-02 0.  1.
</event>
<event>
 5   0  0.1497497E-05  0.2793280E+04  0.7818609E-02  0.8305358E-01
        1   -1    0    0  501    0  0.00000000000E+00  0.00000000000E+00  0.28309099340E+04  0.28309099340E+04  0.50400001928E-02 0. -1.
       -1   -1    0    0    0  501  0.00000000000E+00  0.00000000000E+00 -0.68903769332E+03  0.68903769334E+03  0.50400001928E-02 0.  1.
    10030    2    1    2    0    0  0.00000000000E+00  0.00000000000E+00  0.21418722407E+04  0.35199476274E+04  0.27932802588E+04 0.  0.
        3    1    3    3  502    0 -0.11387273288E+04 -0.79165267201E+03  0.86314625418E+03  0.16335346182E+04  0.10100000352E+00 0. -1.
       -3    1    3    3    0  502  0.11387273288E+04  0.79165267201E+03  0.12787259865E+04  0.18864130092E+04  0.10100000352E+00 0.  1.
</event>
<event>
 5   0  0.3647623E-05  0.2619556E+04  0.7818609E-02  0.8361589E-01
        2   -1    0    0  501    0  0.00000000000E+00  0.00000000000E+00  0.15681038007E+04  0.15681038007E+04  0.25500000920E-02 0.  1.
       -2   -1    0    0    0  501  0.00000000000E+00  0.00000000000E+00 -0.10940084202E+04  0.10940084202E+04  0.25500000920E-02 0. -1.
    10030    2    1    2    0    0  0.00000000000E+00  0.00000000000E+00  0.47409538049E+03  0.26621122210E+04  0.26195562692E+04 0.  0.
        3    1    3    3  502    0 -0.74036469601E+02  0.89434466951E+03 -0.73248723034E+03  0.11583917038E+04  0.10100000352E+00 0. -1.
       -3    1    3    3    0  502  0.74036469601E+02 -0.89434466951E+03  0.12065826108E+04  0.15037205171E+04  0.10100000352E+00 0.  1.
</event>
<event>
 5   0  0.1474554E-05  0.2589773E+04  0.7818609E-02  0.8371684E-01
       -1   -1    0    0    0  501  0.00000000000E+00  0.00000000000E+00  0.12227843342E+04  0.12227843342E+04  0.50400001928E-02 0. -1.
        1   -1    0    0  501    0  0.00000000000E+00  0.00000000000E+00 -0.13712398177E+04  0.13712398177E+04  0.50400001928E-02 0.  1.
    10030    2    1    2    0    0  0.00000000000E+00  0.00000000000E+00 -0.14845548351E+03  0.25940241519E+04  0.25897726291E+04 0.  0.
        5    1    3    3  502    0 -0.58636669992E+03 -0.10539778459E+04 -0.54618410569E+03  0.13240220443E+04  0.46999998093E+01 0.  1.
       -5    1    3    3    0  502  0.58636669992E+03  0.10539778459E+04  0.39772862218E+03  0.12700021076E+04  0.46999998093E+01 0. -1.
</event>
<event>
 5   0  0.1533248E-05  0.1724898E+04  0.7818609E-02  0.8747290E-01
       -1   -1    0    0    0  501  0.00000000000E+00  0.00000000000E+00  0.88432054518E+03  0.88432054519E+03  0.50400001928E-02 0. -1.
        1   -1    0    0  501    0  0.00000000000E+00  0.00000000000E+00 -0.84111864924E+03  0.84111864925E+03  0.50400001928E-02 0.  1.
    10030    2    1    2    0    0  0.00000000000E+00  0.00000000000E+00  0.43201895939E+02  0.17254391944E+04  0.17248982607E+04 0.  0.
        4    1    3    3  502    0 -0.80512271598E+03  0.29581877044E+03 -0.68346975605E+02  0.86046746290E+03  0.12699999809E+01 0. -1.
       -4    1    3    3    0  502  0.80512271598E+03 -0.29581877044E+03  0.11154887154E+03  0.86497173155E+03  0.12699999809E+01 0.  1.
</event>
<event>
 5   0  0.3441646E-05  0.2529255E+04  0.7818609E-02  0.8392637E-01
        2   -1    0    0  501    0  0.00000000000E+00  0.00000000000E+00  0.12216608392E+04  0.12216608392E+04  0.25500000920E-02 0.  1.
       -2   -1    0    0    0  501  0.00000000000E+00  0.00000000000E+00 -0.13091051923E+04  0.13091051923E+04  0.25500000920E-02 0. -1.
    10030    2    1    2    0    0  0.00000000000E+00  0.00000000000E+00 -0.87444353073E+02  0.25307660315E+04  0.25292548688E+04 0.  0.
        4    1    3    3  502    0 -0.42414136101E+03 -0.58411174169E+02  0.11469354963E+04  0.12242427884E+04  0.12699999809E+01 0.  1.
       -4    1    3    3    0  502  0.42414136101E+03  0.58411174169E+02 -0.12343798493E+04  0.13065232431E+04  0.12699999809E+01 0. -1.
</event>
<event>
 5   0  0.3849687E-05  0.2638544E+04  0.7818609E-02  0.8355225E-01
       -2   -1    0    0    0  501  0.00000000000E+00  0.00000000000E+00  0.10160274784E+04  0.10160274784E+04  0.25500000920E-02 0.  1.
        2   -1    0    0  501    0  0.00000000000E+00  0.00000000000E+00 -0.17130236415E+04  0.17130236415E+04  0.25500000920E-02 0. -1.
    10030    2    1    2    0    0  0.00000000000E+00  0.00000000000E+00 -0.69699616316E+03  0.27290511199E+04  0.26385443645E+04 0.  0.
        1    1    3    3  502    0  0.42123521566E+03 -0.64774613893E+03 -0.14545071643E+04  0.16469988641E+04  0.50400001928E-02 0. -1.
       -1    1    3    3    0  502 -0.42123521566E+03  0.64774613893E+03  0.75751100112E+03  0.10820522558E+04  0.50400001928E-02 0.  1.
</event>
<event>
 5   0  0.1435062E-05  0.2508362E+04  0.7818609E-02  0.8400013E-01
       -1   -1    0    0    0  501  0.00000000000E+00  0.00000000000E+00  0.87577834368E+03  0.87577834370E+03  0.50400001928E-02 0.  1.
        1   -1    0    0  501    0  0.00000000000E+00  0.00000000000E+00 -0.17960818027E+04  0.17960818027E+04  0.50400001928E-02 0. -1.
    10030    2    1    2    0    0  0.00000000000E+00  0.00000000000E+00 -0.92030345898E+03  0.26718601464E+04  0.25083616536E+04 0.  0.
        2    1    3    3  502    0 -0.84480301812E+03 -0.11222404071E+03 -0.14402825211E+04  0.16735292394E+04  0.25500000920E-02 0. -1.
       -2    1    3    3    0  502  0.84480301812E+03  0.11222404071E+03  0.51997906209E+03  0.99833090694E+03  0.25500000920E-02 0.  1.
</event>
<event>
 5   0  0.3499642E-05  0.1867134E+04  0.7818609E-02  0.8671391E-01
       -2   -1    0    0    0  501  0.00000000000E+00  0.00000000000E+00  0.22487676135E+04  0.22487676135E+04  0.25500000920E-02 0.  1.
        2   -1    0    0  501    0  0.00000000000E+00  0.00000000000E+00 -0.38756657458E+03  0.38756657459E+03  0.25500000920E-02 0. -1.
    10030    2    1    2    0    0  0.00000000000E+00  0.00000000000E+00  0.18612010389E+04  0.26363341881E+04  0.18671338045E+04 0.  0.
        2    1    3    3  502    0 -0.57070947982E+03 -0.48810234686E+03  0.14750648779E+03  0.76531782634E+03  0.25500000920E-02 0. -1.
       -2    1    3    3    0  502  0.57070947982E+03  0.48810234686E+03  0.17136945511E+04  0.18710163617E+04  0.25500000920E-02 0.  1.
</event>
<event>
 5   0  0.3849687E-05  0.2578392E+04  0.7818609E-02  0.8375578E-01
        2   -1    0    0  501    0  0.00000000000E+00  0.00000000000E+00  0.15495681235E+04  0.15495681235E+04  0.25500000920E-02 0.  1.
       -2   -1    0    0    0  501  0.00000000000E+00  0.00000000000E+00 -0.10725740661E+04  0.10725740661E+04  0.25500000920E-02 0. -1.
    10030    2    1    2    0    0  0.00000000000E+00  0.00000000000E+00  0.47699405746E+03  0.26221421896E+04  0.25783921990E+04 0.  0.
        1    1    3    3  502    0  0.54893039396E+03 -0.10368052320E+04 -0.30511672555E+03  0.12121822812E+04  0.50400001928E-02 0. -1.
       -1    1    3    3    0  502 -0.54893039396E+03  0.10368052320E+04  0.78211078302E+03  0.14099599085E+04  0.50400001928E-02 0.  1.
</event>
<event>
 5   0  0.3647623E-05  0.2463565E+04  0.7818609E-02  0.8416082E-01
       -2   -1    0    0    0  501  0.00000000000E+00  0.00000000000E+00  0.13631786747E+04  0.13631786747E+04  0.25500000920E-02 0.  1.
        2   -1    0    0  501    0  0.00000000000E+00  0.00000000000E+00 -0.11130517792E+04  0.11130517792E+04  0.25500000920E-02 0. -1.
    10030    2    1    2    0    0  0.00000000000E+00  0.00000000000E+00  0.25012689553E+03  0.24762304539E+04  0.24635652613E+04 0.  0.
        3    1    3    3  502    0  0.34509534754E+03  0.46243563662E+03  0.12189371717E+04  0.13486086740E+04  0.10100000352E+00 0.  1.
       -3    1    3    3    0  502 -0.34509534754E+03 -0.46243563662E+03 -0.96881027619E+03  0.11276217798E+04  0.10100000352E+00 0. -1.
</event>
<event>
 5   0  0.3499642E-05  0.2426428E+04  0.7818609E-02  0.8429675E-01
        2   -1    0    0  501    0  0.00000000000E+00  0.00000000000E+00  0.22017090454E+04  0.22017090454E+04  0.25500000920E-02 0.  1.
       -2   -1    0    0    0  501  0.00000000000E+00  0.00000000000E+00 -0.66852059122E+03  0.66852059123E+03  0.25500000920E-02 0. -1.
    10030    2    1    2    0    0  0.00000000000E+00  0.00000000000E+00  0.15331884542E+04  0.28702296366E+04  0.24264276892E+04 0.  0.
        2    1    3    3  502    0 -0.71024203398E+02  0.12781912680E+03 -0.65805847445E+03  0.67410913245E+03  0.25500000920E-02 0. -1.
       -2    1    3    3    0  502  0.71024203398E+02 -0.12781912680E+03  0.21912469286E+04  0.21961205042E+04  0.25500000920E-02 0.  1.
</event>
<event>
 5   0  0.1474554E-05  0.2567730E+04  0.7818609E-02  0.8379246E-01
        1   -1    0    0  501    0  0.00000000000E+00  0.00000000000E+00  0.95063916291E+03  0.95063916292E+03  0.50400001928E-02 0. -1.
       -1   -1    0    0    0  501  0.00000000000E+00  0.00000000000E+00 -0.17338958315E+04  0.17338958315E+04  0.50400001928E-02 0.  1.
    10030    2    1    2    0    0  0.00000000000E+00  0.00000000000E+00 -0.78325666860E+03  0.26845349944E+04  0.25677299561E+04 0.  0.
        5    1    3    3  502    0 -0.33354167245E+03 -0.19885628306E+03 -0.16710160287E+04  0.17155496282E+04  0.46999998093E+01 0.  1.
       -5    1    3    3    0  502  0.33354167245E+03  0.19885628306E+03  0.88775936010E+03  0.96898536625E+03  0.46999998093E+01 0. -1.
</event>
<event>
 5   0  0.3441646E-05  0.2636528E+04  0.7818609E-02  0.8355898E-01
        2   -1    0    0  501    0  0.00000000000E+00  0.00000000000E+00  0.14774138607E+04  0.14774138607E+04  0.25500000920E-02 0.  1.
       -2   -1    0    0    0  501  0.00000000000E+00  0.00000000000E+00 -0.11762580130E+04  0.11762580130E+04  0.25500000920E-02 0. -1.
    10030    2    1    2    0    0  0.00000000000E+00  0.00000000000E+00  0.30115584771E+03  0.26536718738E+04  0.26365279382E+04 0.  0.
        4    1    3    3  502    0 -0.91110157735E+02 -0.46915662520E+03  0.13871469143E+04  0.14671697838E+04  0.12699999809E+01 0.  1.
       -4    1    3    3    0  502  0.91110157735E+02  0.46915662520E+03 -0.10859910666E+04  0.11865020899E+04  0.12699999809E+01 0. -1.
</event>
<event>
 5   0  0.1497497E-05  0.2567592E+04  0.7818609E-02  0.8379294E-01
        1   -1    0    0  501    0  0.00000000000E+00  0.00000000000E+00  0.14865514414E+04  0.14865514414E+04  0.50400001928E-02 0. -1.
       -1   -1    0    0    0  501  0.00000000000E+00  0.00000000000E+00 -0.11086948937E+04  0.11086948937E+04  0.50400001928E-02 0.  1.
    10030    2    1    2    0    0  0.00000000000E+00  0.00000000000E+00  0.37785654773E+03  0.25952463351E+04  0.25675918618E+04 0.  0.
        3    1    3    3  502    0 -0.28231348677E+03  0.20848038751E+03 -0.10592678211E+04  0.11158912599E+04  0.10100000352E+00 0.  1.
       -3    1    3    3    0  502  0.28231348677E+03 -0.20848038751E+03  0.14371243688E+04  0.14793550752E+04  0.10100000352E+00 0. -1.
</event>
<event>
 5   0  0.1497497E-05  0.1702588E+04  0.7818609E-02  0.8759889E-01
       -1   -1    0    0    0  501  0.00000000000E+00  0.00000000000E+00  0.60492589316E+03  0.60492589319E+03  0.50400001928E-02 0.  1.
        1   -1    0    0  501    0  0.00000000000E+00  0.00000000000E+00 -0.11980009428E+04  0.11980009428E+04  0.50400001928E-02 0. -1.
    10030    2    1    2    0    0  0.00000000000E+00  0.00000000000E+00 -0.59307504963E+03  0.18029268360E+04  0.17025883711E+04 0.  0.
        3    1    3    3  502    0  0.71029122077E+03 -0.19693343049E+03 -0.74755516544E+03  0.10498262380E+04  0.10100000352E+00 0. -1.
       -3    1    3    3    0  502 -0.71029122077E+03  0.19693343049E+03  0.15448011581E+03  0.75310059802E+03  0.10100000352E+00 0.  1.
</event>
<event>
 5   0  0.3647623E-05  0.2483925E+04  0.7818609E-02  0.8408735E-01
       -2   -1    0    0    0  501  0.00000000000E+00  0.00000000000E+00  0.13176561300E+04  0.13176561300E+04  0.25500000920E-02 0.  1.
        2   -1    0    0  501    0  0.00000000000E+00  0.00000000000E+00 -0.11706172451E+04  0.11706172451E+04  0.25500000920E-02 0. -1.
    10030    2    1    2    0    0  0.00000000000E+00  0.00000000000E+00  0.14703888483E+03  0.24882733751E+04  0.24839251107E+04 0.  0.
        3    1    3    3  502    0 -0.58071923530E+03  0.18941452657E+03 -0.10097422697E+04  0.11801237878E+04  0.10100000352E+00 0. -1.
       -3    1    3    3    0  502  0.58071923530E+03 -0.18941452657E+03  0.11567811545E+04  0.13081495873E+04  0.10100000352E+00 0.  1.
</event>
<event>
 5   0  0.1217200E-05  0.2664290E+04  0.7818609E-02  0.8346686E-01
        3   -1    0    0  501    0  0.00000000000E+00  0.00000000000E+00  0.22561116468E+04  0.22561116490E+04  0.10100000352E+00 0.  1.
       -3   -1    0    0    0  501  0.00000000000E+00  0.00000000000E+00 -0.78657900557E+03  0.78657901206E+03  0.10100000352E+00 0. -1.
    10030    2    1    2    0    0  0.00000000000E+00  0.00000000000E+00  0.14695326412E+04  0.30426906611E+04  0.26642898257E+04 0.  0.
        5    1    3    3  502    0  0.10413644715E+04  0.83053999459E+03  0.71336028479E+03  0.15110068269E+04  0.46999998093E+01 0. -1.
       -5    1    3    3    0  502 -0.10413644715E+04 -0.83053999459E+03  0.75617235639E+03  0.15316838341E+04  0.46999998093E+01 0.  1.
</event>
<event>
 5   0  0.1497497E-05  0.2369950E+04  0.7818609E-02  0.8450840E-01
        1   -1    0    0  501    0  0.00000000000E+00  0.00000000000E+00  0.13173642275E+04  0.13173642275E+04  0.50400001928E-02 0.  1.
       -1   -1    0    0    0  501  0.00000000000E+00  0.00000000000E+00 -0.10658907003E+04  0.10658907003E+04  0.50400001928E-02 0. -1.
    10030    2    1    2    0    0  0.00000000000E+00  0.00000000000E+00  0.25147352718E+03  0.23832549278E+04  0.23699504459E+04 0.  0.
        3    1    3    3  502    0  0.92665841711E+03 -0.73674045491E+03  0.17783444011E+03  0.11971246461E+04  0.10100000352E+00 0.  1.
       -3    1    3    3    0  502 -0.92665841711E+03  0.73674045491E+03  0.73639087074E+02  0.11861302817E+04  0.10100000352E+00 0. -1.
</event>
<event>
 5   0  0.1533248E-05  0.2599504E+04  0.7818609E-02  0.8368370E-01
        1   -1    0    0  501    0  0.00000000000E+00  0.00000000000E+00  0.23491500062E+04  0.23491500062E+04  0.50400001928E-02 0.  1.
       -1   -1    0    0    0  501  0.00000000000E+00  0.00000000000E+00 -0.71913471877E+03  0.71913471879E+03  0.50400001928E-02 0. -1.
    10030    2    1    2    0    0  0.00000000000E+00  0.00000000000E+00  0.16300152874E+04  0.30682847250E+04  0.25995040520E+04 0.  0.
        4    1    3    3  502    0 -0.10057348292E+04 -0.20665001829E+03 -0.12567312230E+03  0.10344090696E+04  0.12699999809E+01 0. -1.
       -4    1    3    3    0  502  0.10057348292E+04  0.20665001829E+03  0.17556884097E+04  0.20338756554E+04  0.12699999809E+01 0.  1.
</event>
<event>
 5   0  0.1474554E-05  0.2610008E+04  0.7818609E-02  0.8364810E-01
       -1   -1    0    0    0  501  0.00000000000E+00  0.00000000000E+00  0.12180896948E+04  0.12180896948E+04  0.50400001928E-02 0. -1.
        1   -1    0    0  501    0  0.00000000000E+00  0.00000000000E+00 -0.13981199647E+04  0.13981199647E+04  0.50400001928E-02 0.  1.
    10030    2    1    2    0    0  0.00000000000E+00  0.00000000000E+00 -0.18003026986E+03  0.26162096595E+04  0.26100080621E+04 0.  0.
        5    1    3    3  502    0 -0.66363115519E+03 -0.64458519126E+03 -0.10125916774E+04  0.13715904542E+04  0.46999998093E+01 0.  1.
       -5    1    3    3    0  502  0.66363115519E+03  0.64458519126E+03  0.83256140750E+03  0.12446192053E+04  0.46999998093E+01 0. -1.
</event>
<event>
 5   0  0.1533248E-05  0.2571251E+04  0.7818609E-02  0.8378033E-01
       -1   -1    0    0    0  501  0.00000000000E+00  0.00000000000E+00  0.27684573334E+04  0.27684573334E+04  0.50400001928E-02 0.  1.
        1   -1    0    0  501    0  0.00000000000E+00  0.00000000000E+00 -0.59702309300E+03  0.59702309302E+03  0.50400001928E-02 0. -1.
    10030    2    1    2    0    0  0.00000000000E+00  0.00000000000E+00  0.21714342404E+04  0.33654804265E+04  0.25712510263E+04 0.  0.
        4    1    3    3  502    0  0.98463118198E+03  0.58501007951E+03  0.18501527088E+04  0.21759600218E+04  0.12699999809E+01 0.  1.
       -4    1    3    3    0  502 -0.98463118198E+03 -0.58501007951E+03  0.32128153163E+03  0.11895204047E+04  0.12699999809E+01 0. -1.
</event>
<event>
 5   0  0.3647623E-05  0.2649627E+04  0.7818609E-02  0.8351537E-01
        2   -1    0    0  501    0  0.00000000000E+00  0.00000000000E+00  0.17642741030E+04  0.17642741030E+04  0.25500000920E-02 0. -1.
       -2   -1    0    0    0  501  0.00000000000E+00  0.00000000000E+00 -0.99481750397E+03  0.99481750397E+03  0.25500000920E-02 0.  1.
    10030    2    1    2    0    0  0.00000000000E+00  0.00000000000E+00  0.76945659902E+03  0.27590916070E+04  0.26496269620E+04 0.  0.
        3    1    3    3  502    0 -0.48698658317E+03  0.95004566572E+03  0.12016038828E+04  0.16073564012E+04  0.10100000352E+00 0.  1.
       -3    1    3    3    0  502  0.48698658317E+03 -0.95004566572E+03 -0.43214728376E+03  0.11517352058E+04  0.10100000352E+00 0. -1.
</event>
<event>
 5   0  0.1451052E-05  0.2633955E+04  0.7818609E-02  0.8356758E-01
        1   -1    0    0  501    0  0.00000000000E+00  0.00000000000E+00  0.82560342249E+03  0.82560342251E+03  0.50400001928E-02 0.  1.
       -1   -1    0    0    0  501  0.00000000000E+00  0.00000000000E+00 -0.21008026614E+04  0.21008026614E+04  0.50400001928E-02 0. -1.
    10030    2    1    2    0    0  0.00000000000E+00  0.00000000000E+00 -0.12751992389E+04  0.29264060839E+04  0.26339551000E+04 0.  0.
        1    1    3    3  502    0 -0.71694344691E+03 -0.11264869535E+03  0.58338882044E+03  0.93114990763E+03  0.50400001928E-02 0.  1.
       -1    1    3    3    0  502  0.71694344691E+03  0.11264869535E+03 -0.18585880593E+04  0.19952561762E+04  0.50400001928E-02 0. -1.
</event>
<event>
 5   0  0.3647623E-05  0.2588019E+04  0.7818609E-02  0.8372282E-01
        2   -1    0    0  501    0  0.00000000000E+00  0.00000000000E+00  0.10608963307E+04  0.10608963307E+04  0.25500000920E-02 0.  1.
       -2   -1    0    0    0  501  0.00000000000E+00  0.00000000000E+00 -0.15783447438E+04  0.15783447438E+04  0.25500000920E-02 0. -1.
    10030    2    1    2    0    0  0.00000000000E+00  0.00000000000E+00 -0.51744841311E+03  0.26392410745E+04  0.25880186609E+04 0.  0.
        3    1    3    3  502    0  0.11451242007E+04 -0.29268712213E+03 -0.79591848094E+03  0.14249426041E+04  0.10100000352E+00 0.  1.
       -3    1    3    3    0  502 -0.11451242007E+04  0.29268712213E+03  0.27847006782E+03  0.12142984704E+04  0.10100000352E+00 0. -1.
</event>
<event>
 5   0  0.3441646E-05  0.2605098E+04  0.7818609E-02  0.8366471E-01
       -2   -1    0    0    0  501  0.00000000000E+00  0.00000000000E+00  0.15418673125E+04  0.15418673125E+04  0.25500000920E-02 0.  1.
        2   -1    0    0  501    0  0.00000000000E+00  0.00000000000E+00 -0.11003764551E+04  0.11003764551E+04  0.25500000920E-02 0. -1.
    10030    2    1    2    0    0  0.00000000000E+00  0.00000000000E+00  0.44149085733E+03  0.26422437676E+04  0.26050984531E+04 0.  0.
        4    1    3    3  502    0 -0.83853418940E+03  0.74893235880E+03  0.88784212683E+03  0.14325866536E+04  0.12699999809E+01 0.  1.
       -4    1    3    3    0  502  0.83853418940E+03 -0.74893235880E+03 -0.44635126950E+03  0.12096571140E+04  0.12699999809E+01 0. -1.
</event>
<event>
 5   0  0.1533248E-05  0.2622945E+04  0.7818609E-02  0.8360449E-01
        1   -1    0    0  501    0  0.00000000000E+00  0.00000000000E+00  0.26120895393E+04  0.26120895393E+04  0.50400001928E-02 0.  1.
       -1   -1    0    0    0  501  0.00000000000E+00  0.00000000000E+00 -0.65846115508E+03  0.65846115510E+03  0.50400001928E-02 0. -1.
    10030    2    1    2    0    0  0.00000000000E+00  0.00000000000E+00  0.19536283842E+04  0.32705506944E+04  0.26229445249E+04 0.  0.
        4    1    3    3  502    0  0.17669712191E+03  0.72947720784E+03 -0.36416854915E+03  0.83425368728E+03  0.12699999809E+01 0. -1.
       -4    1    3    3    0  502 -0.17669712191E+03 -0.72947720784E+03  0.23177969333E+04  0.24362970071E+04  0.12699999809E+01 0.  1.
</event>
<event>
 5   0  0.1451052E-05  0.2668269E+04  0.7818609E-02  0.8345375E-01
        1   -1    0    0  501    0  0.00000000000E+00  0.00000000000E+00  0.24790922421E+04  0.24790922422E+04  0.50400001928E-02 0.  1.
       -1   -1    0    0    0  501  0.00000000000E+00  0.00000000000E+00 -0.71797037828E+03  0.71797037829E+03  0.50400001928E-02 0. -1.
    10030    2    1    2    0    0  0.00000000000E+00  0.00000000000E+00  0.17611218639E+04  0.31970626204E+04  0.26682689481E+04 0.  0.
        1    1    3    3  502    0  0.30245860765E+01  0.58109405983E+03  0.23194907334E+04  0.23911747567E+04  0.50400001928E-02 0.  1.
       -1    1    3    3    0  502 -0.30245860765E+01 -0.58109405983E+03 -0.55836886954E+03  0.80588786378E+03  0.50400001928E-02 0. -1.
</event>
<event>
 5   0  0.3499642E-05  0.2546649E+04  0.7818609E-02  0.8386553E-01
       -2   -1    0    0    0  501  0.00000000000E+00  0.00000000000E+00  0.88732334135E+03  0.88732334135E+03  0.25500000920E-02 0. -1.
        2   -1    0    0  501    0  0.00000000000E+00  0.00000000000E+00 -0.18272429505E+04  0.18272429505E+04  0.25500000920E-02 0.  1.
    10030    2    1    2    0    0  0.00000000000E+00  0.00000000000E+00 -0.93991960913E+03  0.27145662918E+04  0.25466490298E+04 0.  0.
        2    1    3    3  502    0  0.29096308264E+03 -0.24948057737E+03  0.82437656121E+03  0.90911868787E+03  0.25500000920E-02 0. -1.
       -2    1    3    3    0  502 -0.29096308264E+03  0.24948057737E+03 -0.17642961703E+04  0.18054476040E+04  0.25500000920E-02 0.  1.
</event>
<event>
 5   0  0.3647623E-05  0.2567354E+04  0.7818609E-02  0.8379376E-01
        2   -1    0    0  501    0  0.00000000000E+00  0.00000000000E+00  0.15034150776E+04  0.15034150776E+04  0.25500000920E-02 0.  1.
       -2   -1    0    0    0  501  0.00000000000E+00  0.00000000000E+00 -0.10960556485E+04  0.10960556485E+04  0.25500000920E-02 0. -1.
    10030    2    1    2    0    0  0.00000000000E+00  0.00000000000E+00  0.40735942909E+03  0.25994707261E+04  0.25673539591E+04 0.  0.
        3    1    3    3  502    0  0.19197435147E+02 -0.73265764952E+03  0.12707471353E+04  0.14669540091E+04  0.10100000352E+00 0.  1.
       -3    1    3    3    0  502 -0.19197435147E+02  0.73265764952E+03 -0.86338770618E+03  0.11325167170E+04  0.10100000352E+00 0. -1.
</event>
<event>
 5   0  0.1533248E-05  0.2582396E+04  0.7818609E-02  0.8374205E-01
       -1   -1    0    0    0  501  0.00000000000E+00  0.00000000000E+00  0.87994428831E+03  0.87994428832E+03  0.50400001928E-02 0. -1.
        1   -1    0    0  501    0  0.00000000000E+00  0.00000000000E+00 -0.18946571621E+04  0.18946571621E+04  0.50400001928E-02 0.  1.
    10030    2    1    2    0    0  0.00000000000E+00  0.00000000000E+00 -0.10147128737E+04  0.27746014504E+04  0.25823963662E+04 0.  0.
        4    1    3    3  502    0 -0.10634494473E+04  0.21236832311E+03 -0.12603511047E+04  0.16626820356E+04  0.12699999809E+01 0.  1.
       -4    1    3    3    0  502  0.10634494473E+04 -0.21236832311E+03  0.24563823096E+03  0.11119194148E+04  0.12699999809E+01 0. -1.
</event>
<event>
 5   0  0.1435062E-05  0.2565595E+04  0.7818609E-02  0.8379982E-01
       -1   -1    0    0    0  501  0.00000000000E+00  0.00000000000E+00  0.13134286431E+04  0.13134286431E+04  0.50400001928E-02 0. -1.
        1   -1    0    0  501    0  0.00000000000E+00  0.00000000000E+00 -0.12528811963E+04  0.12528811963E+04  0.50400001928E-02 0.  1.
    10030    2    1    2    0    0  0.00000000000E+00  0.00000000000E+00  0.60547446826E+02  0.25663098394E+04  0.25655954861E+04 0.  0.
        2    1    3    3  502    0 -0.14609494206E+02  0.79063993747E+03  0.10406267933E+04  0.13069923760E+04  0.25500000920E-02 0. -1.
       -2    1    3    3    0  502  0.14609494206E+02 -0.79063993747E+03 -0.98007934649E+03  0.12593174633E+04  0.25500000920E-02 0.  1.
</event>
<event>
 5   0  0.1451052E-05  0.2656228E+04  0.7818609E-02  0.8349349E-01
        1   -1    0    0  501    0  0.00000000000E+00  0.00000000000E+00  0.12201869642E+04  0.12201869642E+04  0.50400001928E-02 0. -1.
       -1   -1    0    0    0  501  0.00000000000E+00  0.00000000000E+00 -0.14455871540E+04  0.14455871540E+04  0.50400001928E-02 0.  1.
    10030    2    1    2    0    0  0.00000000000E+00  0.00000000000E+00 -0.22540018980E+03  0.26657741183E+04  0.26562278524E+04 0.  0.
        1    1    3    3  502    0  0.90126267957E+03  0.63336725532E+03 -0.85729516339E+03  0.13958450827E+04  0.50400001928E-02 0.  1.
       -1    1    3    3    0  502 -0.90126267957E+03 -0.63336725532E+03  0.63189497359E+03  0.12699290356E+04  0.50400001928E-02 0. -1.
</event>
<event>
 5   0  0.3499642E-05  0.2601370E+04  0.7818609E-02  0.8367736E-01
       -2   -1    0    0    0  501  0.00000000000E+00  0.00000000000E+00  0.98837665994E+03  0.98837665994E+03  0.25500000920E-02 0.  1.
        2   -1    0    0  501    0  0.00000000000E+00  0.00000000000E+00 -0.17116770591E+04  0.17116770591E+04  0.25500000920E-02 0. -1.
    10030    2    1    2    0    0  0.00000000000E+00  0.00000000000E+00 -0.72330039914E+03  0.27000537190E+04  0.26013701425E+04 0.  0.
        2    1    3    3  502    0 -0.99073813750E+03 -0.83031930627E+03 -0.21199503010E+03  0.13099366780E+04  0.25500000920E-02 0. -1.
       -2    1    3    3    0  502  0.99073813750E+03  0.83031930627E+03 -0.51130536904E+03  0.13901170411E+04  0.25500000920E-02 0.  1.
</event>
<event>
 5   0  0.1474554E-05  0.1713579E+04  0.7818609E-02  0.8753658E-01
       -1   -1    0    0    0  501  0.00000000000E+00  0.00000000000E+00  0.51016760264E+03  0.51016760267E+03  0.50400001928E-02 0.  1.
        1   -1    0    0  501    0  0.00000000000E+00  0.00000000000E+00 -0.14389153623E+04  0.14389153623E+04  0.50400001928E-02 0. -1.
    10030    2    1    2    0    0  0.00000000000E+00  0.00000000000E+00 -0.92874775967E+03  0.19490829650E+04  0.17135787123E+04 0.  0.
        5    1    3    3  502    0 -0.89401156451E+02  0.85144589851E+03 -0.50232441747E+03  0.99262510307E+03  0.46999998093E+01 0. -1.
       -5    1    3    3    0  502  0.89401156451E+02 -0.85144589851E+03 -0.42642334221E+03  0.95645786193E+03  0.46999998093E+01 0.  1.
</event>
<event>
 5   0  0.1497497E-05  0.2581051E+04  0.7818609E-02  0.8374666E-01
       -1   -1    0    0    0  501  0.00000000000E+00  0.00000000000E+00  0.94662696900E+03  0.94662696901E+03  0.50400001928E-02 0.  1.
        1   -1    0    0  501    0  0.00000000000E+00  0.00000000000E+00 -0.17593584385E+04  0.17593584385E+04  0.50400001928E-02 0. -1.
    10030    2    1    2    0    0  0.00000000000E+00  0.00000000000E+00 -0.81273146952E+03  0.27059854075E+04  0.25810510619E+04 0.  0.
        3    1    3    3  502    0 -0.58719744369E+03  0.93598459696E+03  0.29268353536E+03  0.11430361611E+04  0.10100000352E+00 0.  1.
       -3    1    3    3    0  502  0.58719744369E+03 -0.93598459696E+03 -0.11054150049E+04  0.15629492464E+04  0.10100000352E+00 0. -1.
</event>
<event>
 5   0  0.3647623E-05  0.2515866E+04  0.7818609E-02  0.8397355E-01
        2   -1    0    0  501    0  0.00000000000E+00  0.00000000000E+00  0.12216771171E+04  0.12216771171E+04  0.25500000920E-02 0. -1.
       -2   -1    0    0    0  501  0.00000000000E+00  0.00000000000E+00 -0.12952651275E+04  0.12952651275E+04  0.25500000920E-02 0.  1.
    10030    2    1    2    0    0  0.00000000000E+00  0.00000000000E+00 -0.73588010362E+02  0.25169422446E+04  0.25158662658E+04 0.  0.
        3    1    3    3  502    0  0.20633171618E+03 -0.10320156556E+04 -0.72612182761E+03  0.12786250464E+04  0.10100000352E+00 0.  1.
       -3    1    3    3    0  502 -0.20633171618E+03  0.10320156556E+04  0.65253381725E+03  0.12383171982E+04  0.10100000352E+00 0. -1.
</event>
<event>
 5   0  0.3647623E-05  0.1999371E+04  0.7818609E-02  0.8606915E-01
       -2   -1    0    0    0  501  0.00000000000E+00  0.00000000000E+00  0.90231993852E+03  0.90231993852E+03  0.25500000920E-02 0. -1.
        2   -1    0    0  501    0  0.00000000000E+00  0.00000000000E+00 -0.11075569999E+04  0.11075569999E+04  0.25500000920E-02 0.  1.
    10030    2    1    2    0    0  0.00000000000E+00  0.00000000000E+00 -0.20523706136E+03  0.20098769384E+04  0.19993706650E+04 0.  0.
        3    1    3    3  502    0  0.71837549448E+03  0.19092131978E+03  0.56936738079E+03  0.93631913679E+03  0.10100000352E+00 0. -1.
       -3    1    3    3    0  502 -0.71837549448E+03 -0.19092131978E+03 -0.77460444215E+03  0.10735578016E+04  0.10100000352E+00 0.  1.
</event>
<event>
 5   0  0.1451052E-05  0.2626649E+04  0.7818609E-02  0.8359205E-01
       -1   -1    0    0    0  501  0.00000000000E+00  0.00000000000E+00  0.11154442300E+04  0.11154442300E+04  0.50400001928E-02 0.  1.
        1   -1    0    0  501    0  0.00000000000E+00  0.00000000000E+00 -0.15463090684E+04  0.15463090684E+04  0.50400001928E-02 0. -1.
    10030    2    1    2    0    0  0.00000000000E+00  0.00000000000E+00 -0.43086483837E+03  0.26617532984E+04  0.26266492176E+04 0.  0.
        1    1    3    3  502    0 -0.80009273498E+03  0.29653204764E+03  0.79627999298E+03  0.11671081643E+04  0.50400001928E-02 0.  1.
       -1    1    3    3    0  502  0.80009273498E+03 -0.29653204764E+03 -0.12271448313E+04  0.14946451341E+04  0.50400001928E-02 0. -1.
</event>
<event>
 5   0  0.3849687E-05  0.2593082E+04  0.7818609E-02  0.8370555E-01
       -2   -1    0    0    0  501  0.00000000000E+00  0.00000000000E+00  0.15600416335E+04  0.15600416335E+04  0.25500000920E-02 0.  1.
        2   -1    0    0  501    0  0.00000000000E+00  0.00000000000E+00 -0.10775475736E+04  0.10775475736E+04  0.25500000920E-02 0. -1.
    10030    2    1    2    0    0  0.00000000000E+00  0.00000000000E+00  0.48249405997E+03  0.26375892071E+04  0.25930823951E+04 0.  0.
        1    1    3    3  502    0  0.12912829252E+04 -0.47826038709E+01  0.12269351393E+03  0.12971076149E+04  0.50400001928E-02 0.  1.
       -1    1    3    3    0  502 -0.12912829252E+04  0.47826038709E+01  0.35980054603E+03  0.13404815922E+04  0.50400001928E-02 0. -1.
</event>
<event>
 5   0  0.1435062E-05  0.2610526E+04  0.7818609E-02  0.8364635E-01
       -1   -1    0    0    0  501  0.00000000000E+00  0.00000000000E+00  0.17536522446E+04  0.17536522446E+04  0.50400001928E-02 0.  1.
        1   -1    0    0  501    0  0.00000000000E+00  0.00000000000E+00 -0.97152179526E+03  0.97152179527E+03  0.50400001928E-02 0. -1.
    10030    2    1    2    0    0  0.00000000000E+00  0.00000000000E+00  0.78213044938E+03  0.27251740399E+04  0.26105259064E+04 0.  0.
        2    1    3    3  502    0  0.11787236857E+04  0.15342815839E+03 -0.17185873506E+03  0.12010267074E+04  0.25500000920E-02 0. -1.
       -2    1    3    3    0  502 -0.11787236857E+04 -0.15342815839E+03  0.95398918444E+03  0.15241473325E+04  0.25500000920E-02 0.  1.
</event>
<event>
 5   0  0.1451052E-05  0.2735960E+04  0.7818609E-02  0.8323431E-01
        1   -1    0    0  501    0  0.00000000000E+00  0.00000000000E+00  0.17260079218E+04  0.17260079218E+04  0.50400001928E-02 0. -1.
       -1   -1    0    0    0  501  0.00000000000E+00  0.00000000000E+00 -0.10842183078E+04  0.10842183078E+04  0.50400001928E-02 0.  1.
    10030    2    1    2    0    0  0.00000000000E+00  0.00000000000E+00  0.64178961407E+03  0.28102262296E+04  0.27359600788E+04 0.  0.
        1    1    3    3  502    0 -0.11139989618E+04 -0.78194455580E+03  0.17954236417E+03  0.13728315395E+04  0.50400001928E-02 0. -1.
       -1    1    3    3    0  502  0.11139989618E+04  0.78194455580E+03  0.46224724990E+03  0.14373946902E+04  0.50400001928E-02 0.  1.
</event>
<event>
 5   0  0.1217200E-05  0.2546166E+04  0.7818609E-02  0.8386721E-01
       -4   -1    0    0    0  501  0.00000000000E+00  0.00000000000E+00  0.66482744933E+03  0.66482866235E+03  0.12699999809E+01 0.  1.
        4   -1    0    0  501    0  0.00000000000E+00  0.00000000000E+00 -0.24378324534E+04  0.24378327842E+04  0.12699999809E+01 0. -1.
    10030    2    1    2    0    0  0.00000000000E+00  0.00000000000E+00 -0.17730050041E+04  0.31026614466E+04  0.25461660016E+04 0.  0.
        5    1    3    3  502    0 -0.12579279744E+04 -0.17447013029E+03 -0.99478065550E+03  0.16132058944E+04  0.46999998093E+01 0.  1.
       -5    1    3    3    0  502  0.12579279744E+04  0.17447013029E+03 -0.77822434857E+03  0.14894555522E+04  0.46999998093E+01 0. -1.
</event>
<event>
 5   0  0.3849687E-05  0.2712195E+04  0.7818609E-02  0.8331059E-01
       -2   -1    0    0    0  501  0.00000000000E+00  0.00000000000E+00  0.15167971813E+04  0.15167971813E+04  0.25500000920E-02 0. -1.
        2   -1    0    0  501    0  0.00000000000E+00  0.00000000000E+00 -0.12124238088E+04  0.12124238088E+04  0.25500000920E-02 0.  1.
    10030    2    1    2    0    0  0.00000000000E+00  0.00000000000E+00  0.30437337245E+03  0.27292209901E+04  0.27121954323E+04 0.  0.
        1    1    3    3  502    0 -0.13370016748E+03  0.13286874191E+04 -0.85335335281E+02  0.13381211125E+04  0.50400001928E-02 0.  1.
       -1    1    3    3    0  502  0.13370016748E+03 -0.13286874191E+04  0.38970870773E+03  0.13910998775E+04  0.50400001928E-02 0. -1.
</event>
<event>
 5   0  0.1533248E-05  0.2061261E+04  0.7818609E-02  0.8578503E-01
        1   -1    0    0  501    0  0.00000000000E+00  0.00000000000E+00  0.16702927462E+04  0.16702927462E+04  0.50400001928E-02 0.  1.
       -1   -1    0    0    0  501  0.00000000000E+00  0.00000000000E+00 -0.63593602815E+03  0.63593602817E+03  0.50400001928E-02 0. -1.
    10030    2    1    2    0    0  0.00000000000E+00  0.00000000000E+00  0.10343567180E+04  0.23062287744E+04  0.20612611042E+04 0.  0.
        4    1    3    3  502    0 -0.34712435106E+03  0.28843196625E+03  0.15538516454E+04  0.16180682504E+04  0.12699999809E+01 0.  1.
       -4    1    3    3    0  502  0.34712435106E+03 -0.28843196625E+03 -0.51949492736E+03  0.68816052394E+03  0.12699999809E+01 0. -1.
</event>
<event>
 5   0  0.1435062E-05  0.2613523E+04  0.7818609E-02  0.8363622E-01
       -1   -1    0    0    0  501  0.00000000000E+00  0.00000000000E+00  0.16761546196E+04  0.16761546196E+04  0.50400001928E-02 0. -1.
        1   -1    0    0  501    0  0.00000000000E+00  0.00000000000E+00 -0.10187757444E+04  0.10187757444E+04  0.50400001928E-02 0.  1.
    10030    2    1    2    0    0  0.00000000000E+00  0.00000000000E+00  0.65737887522E+03  0.26949303639E+04  0.26135230401E+04 0.  0.
        2    1    3    3  502    0 -0.11479560273E+03 -0.11670059258E+04 -0.26593985696E+03  0.12024162627E+04  0.25500000920E-02 0.  1.
       -2    1    3    3    0  502  0.11479560273E+03  0.11670059258E+04  0.92331873218E+03  0.14925141013E+04  0.25500000920E-02 0. -1.
</event>
<event>
 5   0  0.3499642E-05  0.2588602E+04  0.7818609E-02  0.8372083E-01
       -2   -1    0    0    0  501  0.00000000000E+00  0.00000000000E+00  0.67250820875E+03  0.67250820875E+03  0.25500000920E-02 0.  1.
        2   -1    0    0  501    0  0.00000000000E+00  0.00000000000E+00 -0.24909959618E+04  0.24909959618E+04  0.25500000920E-02 0. -1.
    10030    2    1    2    0    0  0.00000000000E+00  0.00000000000E+00 -0.18184877531E+04  0.31635041706E+04  0.25886021187E+04 0.  0.
        2    1    3    3  502    0 -0.37920049573E+03 -0.39863915052E+03 -0.23409725294E+04  0.24047574870E+04  0.25500000920E-02 0. -1.
       -2    1    3    3    0  502  0.37920049573E+03  0.39863915052E+03  0.52248477630E+03  0.75874668352E+03  0.25500000920E-02 0.  1.
</event>
<event>
 5   0  0.1497497E-05  0.2401545E+04  0.7818609E-02  0.8438925E-01
        1   -1    0    0  501    0  0.00000000000E+00  0.00000000000E+00  0.18951987433E+04  0.18951987434E+04  0.50400001928E-02 0.  1.
       -1   -1    0    0    0  501  0.00000000000E+00  0.00000000000E+00 -0.76079364479E+03  0.76079364480E+03  0.50400001928E-02 0. -1.
    10030    2    1    2    0    0  0.00000000000E+00  0.00000000000E+00  0.11344050986E+04  0.26559923882E+04  0.24015454687E+04 0.  0.
        3    1    3    3  502    0  0.40357562082E+03 -0.24280278833E+03  0.17887800673E+04  0.18497460947E+04  0.10100000352E+00 0.  1.
       -3    1    3    3    0  502 -0.40357562082E+03  0.24280278833E+03 -0.65437496872E+03  0.80624629341E+03  0.10100000352E+00 0. -1.
</event>
<event>
 5   0  0.3508470E-05  0.2649897E+04  0.7818609E-02  0.8351447E-01
       -2   -1    0    0    0  501  0.00000000000E+00  0.00000000000E+00  0.14425435268E+04  0.14425435268E+04  0.25500000920E-02 0.  1.
        2   -1    0    0  501    0  0.00000000000E+00  0.00000000000E+00 -0.12169401258E+04  0.12169401258E+04  0.25500000920E-02 0. -1.
    10030    2    1    2    0    0  0.00000000000E+00  0.00000000000E+00  0.22560340097E+03  0.26594836526E+04  0.26498974327E+04 0.  0.
        5    1    3    3  502    0  0.11995012503E+04 -0.35825883550E+03  0.54832359178E+03  0.13666870505E+04  0.46999998093E+01 0.  1.
       -5    1    3    3    0  502 -0.11995012503E+04  0.35825883550E+03 -0.32272019081E+03  0.12927966021E+04  0.46999998093E+01 0. -1.
</event>
<event>
 5   0  0.1497497E-05  0.2567242E+04  0.7818609E-02  0.8379414E-01
        1   -1    0    0  501    0  0.00000000000E+00  0.00000000000E+00  0.14185604093E+04  0.14185604093E+04  0.50400001928E-02 0.  1.
       -1   -1    0    0    0  501  0.00000000000E+00  0.00000000000E+00 -0.11615174781E+04  0.11615174781E+04  0.50400001928E-02 0. -1.
    10030    2    1    2    0    0  0.00000000000E+00  0.00000000000E+00  0.25704293117E+03  0.25800778874E+04  0.25672418734E+04 0.  0.
        3    1    3    3  502    0  0.50605719961E+03 -0.59728730607E+03 -0.89383403187E+03  0.11881857186E+04  0.10100000352E+00 0. -1.
       -3    1    3    3    0  502 -0.50605719961E+03  0.59728730607E+03  0.11508769630E+04  0.13918921688E+04  0.10100000352E+00 0.  1.
</event>
<event>
 5   0  0.3499642E-05  0.2648196E+04  0.7818609E-02  0.8352012E-01
        2   -1    0    0  501    0  0.00000000000E+00  0.00000000000E+00  0.12505719254E+04  0.12505719254E+04  0.25500000920E-02 0. -1.
       -2   -1    0    0    0  501  0.00000000000E+00  0.00000000000E+00 -0.14019466204E+04  0.14019466204E+04  0.25500000920E-02 0.  1.
    10030    2    1    2    0    0  0.00000000000E+00  0.00000000000E+00 -0.15137469499E+03  0.26525185459E+04  0.26481956759E+04 0.  0.
        2    1    3    3  502    0  0.17816285764E+02  0.13123165672E+04 -0.25131007419E+03  0.13362817615E+04  0.25500000920E-02 0.  1.
       -2    1    3    3    0  502 -0.17816285764E+02 -0.13123165672E+04  0.99935379197E+02  0.13162367844E+04  0.25500000920E-02 0. -1.
</event>
<event>
 5   0  0.3499642E-05  0.2586996E+04  0.7818609E-02  0.8372632E-01
       -2   -1    0    0    0  501  0.00000000000E+00  0.00000000000E+00  0.11969484549E+04  0.11969484549E+04  0.25500000920E-02 0.  1.
        2   -1    0    0  501    0  0.00000000000E+00  0.00000000000E+00 -0.13978356706E+04  0.13978356706E+04  0.25500000920E-02 0. -1.
    10030    2    1    2    0    0  0.00000000000E+00  0.00000000000E+00 -0.20088721576E+03  0.25947841255E+04  0.25869961316E+04 0.  0.
        2    1    3    3  502    0 -0.85757448990E+03  0.42996752475E+03 -0.97071408043E+03  0.13647680770E+04  0.25500000920E-02 0. -1.
       -2    1    3    3    0  502  0.85757448990E+03 -0.42996752475E+03  0.76982686467E+03  0.12300160485E+04  0.25500000920E-02 0.  1.
</event>
<event>
 5   0  0.1451052E-05  0.2585212E+04  0.7818609E-02  0.8373242E-01
       -1   -1    0    0    0  501  0.00000000000E+00  0.00000000000E+00  0.27577477843E+04  0.27577477843E+04  0.50400001928E-02 0. -1.
        1   -1    0    0  501    0  0.00000000000E+00  0.00000000000E+00 -0.60586786296E+03  0.60586786298E+03  0.50400001928E-02 0.  1.
    10030    2    1    2    0    0  0.00000000000E+00  0.00000000000E+00  0.21518799213E+04  0.33636156473E+04  0.25852123756E+04 0.  0.
        1    1    3    3  502    0 -0.85470826521E+03 -0.64317778418E+03  0.20201348545E+04  0.22858584189E+04  0.50400001928E-02 0. -1.
       -1    1    3    3    0  502  0.85470826521E+03  0.64317778418E+03  0.13174506678E+03  0.10777572284E+04  0.50400001928E-02 0.  1.
</event>
<event>
 5   0  0.3647623E-05  0.2666949E+04  0.7818609E-02  0.8345809E-01
       -2   -1    0    0    0  501  0.00000000000E+00  0.00000000000E+00  0.12612754121E+04  0.12612754121E+04  0.25500000920E-02 0.  1.
        2   -1    0    0  501    0  0.00000000000E+00  0.00000000000E+00 -0.14098063519E+04  0.14098063519E+04  0.25500000920E-02 0. -1.
    10030    2    1    2    0    0  0.00000000000E+00  0.00000000000E+00 -0.14853093979E+03  0.26710817641E+04  0.26669488841E+04 0.  0.
        3    1    3    3  502    0  0.18202631349E+03  0.12871663060E+04  0.22321905878E+03  0.13189986492E+04  0.10100000352E+00 0.  1.
       -3    1    3    3    0  502 -0.18202631349E+03 -0.12871663060E+04 -0.37174999857E+03  0.13520831149E+04  0.10100000352E+00 0. -1.
</event>
<event>
 5   0  0.3499642E-05  0.2626632E+04  0.7818609E-02  0.8359211E-01
       -2   -1    0    0    0  501  0.00000000000E+00  0.00000000000E+00  0.14259770194E+04  0.14259770194E+04  0.25500000920E-02 0.  1.
        2   -1    0    0  501    0  0.00000000000E+00  0.00000000000E+00 -0.12095557941E+04  0.12095557941E+04  0.25500000920E-02 0. -1.
    10030    2    1    2    0    0  0.00000000000E+00  0.00000000000E+00  0.21642122528E+03  0.26355328135E+04  0.26266318860E+04 0.  0.
        2    1    3    3  502    0 -0.75520047783E+03 -0.80818484139E+03 -0.60221997008E+03  0.12594282004E+04  0.25500000920E-02 0. -1.
       -2    1    3    3    0  502  0.75520047783E+03  0.80818484139E+03  0.81864119536E+03  0.13761046131E+04  0.25500000920E-02 0.  1.
</event>
<event>
 5   0  0.1497497E-05  0.2562252E+04  0.7818609E-02  0.8381138E-01
       -1   -1    0    0    0  501  0.00000000000E+00  0.00000000000E+00  0.72462967916E+03  0.72462967917E+03  0.50400001928E-02 0.  1.
        1   -1    0    0  501    0  0.00000000000E+00  0.00000000000E+00 -0.22649963295E+04  0.22649963295E+04  0.50400001928E-02 0. -1.
    10030    2    1    2    0    0  0.00000000000E+00  0.00000000000E+00 -0.15403666504E+04  0.29896260087E+04  0.25622517937E+04 0.  0.
        3    1    3    3  502    0 -0.36042715354E+03  0.69255894383E+03 -0.19553508852E+04  0.21054554657E+04  0.10100000352E+00 0. -1.
       -3    1    3    3    0  502  0.36042715354E+03 -0.69255894383E+03  0.41498423484E+03  0.88417054297E+03  0.10100000352E+00 0.  1.
</event>
<event>
 5   0  0.1497497E-05  0.2611873E+04  0.7818609E-02  0.8364180E-01
        1   -1    0    0  501    0  0.00000000000E+00  0.00000000000E+00  0.22485174575E+04  0.22485174575E+04  0.50400001928E-02 0. -1.
       -1   -1    0    0    0  501  0.00000000000E+00  0.00000000000E+00 -0.75848625603E+03  0.75848625605E+03  0.50400001928E-02 0.  1.
    10030    2    1    2    0    0  0.00000000000E+00  0.00000000000E+00  0.14900312014E+04  0.30070037135E+04  0.26118725757E+04 0.  0.
        3    1    3    3  502    0  0.66038926021E+03  0.11259079037E+04  0.79230228844E+03  0.15269333676E+04  0.10100000352E+00 0.  1.
       -3    1    3    3    0  502 -0.66038926021E+03 -0.11259079037E+04  0.69772891300E+03  0.14800703459E+04  0.10100000352E+00 0. -1.
</event>
<event>
 5   0  0.1533248E-05  0.2546216E+04  0.7818609E-02  0.8386704E-01
        1   -1    0    0  501    0  0.00000000000E+00  0.00000000000E+00  0.23952882096E+04  0.23952882096E+04  0.50400001928E-02 0.  1.
       -1   -1    0    0    0  501  0.00000000000E+00  0.00000000000E+00 -0.67666323074E+03  0.67666323076E+03  0.50400001928E-02 0. -1.
    10030    2    1    2    0    0  0.00000000000E+00  0.00000000000E+00  0.17186249789E+04  0.30719514404E+04  0.25462155907E+04 0.  0.
        4    1    3    3  502    0  0.36117713293E+03 -0.43108118936E+03  0.22372986818E+04  0.23068998499E+04  0.12699999809E+01 0.  1.
       -4    1    3    3    0  502 -0.36117713293E+03  0.43108118936E+03 -0.51867370287E+03  0.76505159049E+03  0.12699999809E+01 0. -1.
</event>
<event>
 5   0  0.3647623E-05  0.2770554E+04  0.7818609E-02  0.8312469E-01
       -2   -1    0    0    0  501  0.00000000000E+00  0.00000000000E+00  0.11614858189E+04  0.11614858189E+04  0.25500000920E-02 0. -1.
        2   -1    0    0  501    0  0.00000000000E+00  0.00000000000E+00 -0.16521880762E+04  0.16521880762E+04  0.25500000920E-02 0.  1.
    10030    2    1    2    0    0  0.00000000000E+00  0.00000000000E+00 -0.49070225731E+03  0.28136738951E+04  0.27705544721E+04 0.  0.
        3    1    3    3  502    0  0.59859268225E+03 -0.87256780858E+03 -0.11533041863E+04  0.15651831638E+04  0.10100000352E+00 0.  1.
       -3    1    3    3    0  502 -0.59859268225E+03  0.87256780858E+03  0.66260192899E+03  0.12484907314E+04  0.10100000352E+00 0. -1.
</event>
<event>
 5   0  0.3499642E-05  0.2620837E+04  0.7818609E-02  0.8361158E-01
       -2   -1    0    0    0  501  0.00000000000E+00  0.00000000000E+00  0.12708301671E+04  0.12708301671E+04  0.25500000920E-02 0.  1.
        2   -1    0    0  501    0  0.00000000000E+00  0.00000000000E+00 -0.13512399104E+04  0.13512399104E+04  0.25500000920E-02 0. -1.
    10030    2    1    2    0    0  0.00000000000E+00  0.00000000000E+00 -0.80409743333E+02  0.26220700775E+04  0.26208368443E+04 0.  0.
        2    1    3    3  502    0 -0.61562279312E+03  0.63072023478E+03 -0.10104018712E+04  0.13407875966E+04  0.25500000920E-02 0. -1.
       -2    1    3    3    0  502  0.61562279312E+03 -0.63072023478E+03  0.92999212783E+03  0.12812824809E+04  0.25500000920E-02 0.  1.
</event>
<event>
 5   0  0.3441646E-05  0.2553267E+04  0.7818609E-02  0.8384251E-01
       -2   -1    0    0    0  501  0.00000000000E+00  0.00000000000E+00  0.80108972198E+03  0.80108972198E+03  0.25500000920E-02 0. -1.
        2   -1    0    0  501    0  0.00000000000E+00  0.00000000000E+00 -0.20344693228E+04  0.20344693228E+04  0.25500000920E-02 0.  1.
    10030    2    1    2    0    0  0.00000000000E+00  0.00000000000E+00 -0.12333796008E+04  0.28355590448E+04  0.25532665072E+04 0.  0.
        4    1    3    3  502    0  0.10523012559E+03  0.12616641965E+04 -0.43447336168E+03  0.13385210640E+04  0.12699999809E+01 0.  1.
       -4    1    3    3    0  502 -0.10523012559E+03 -0.12616641965E+04 -0.79890623917E+03  0.14970379808E+04  0.12699999809E+01 0. -1.
</event>
<event>
 5   0  0.1435062E-05  0.2312985E+04  0.7818609E-02  0.8472819E-01
        1   -1    0    0  501    0  0.00000000000E+00  0.00000000000E+00  0.14855971221E+04  0.14855971221E+04  0.50400001928E-02 0. -1.
       -1   -1    0    0    0  501  0.00000000000E+00  0.00000000000E+00 -0.90029412989E+03  0.90029412991E+03  0.50400001928E-02 0.  1.
    10030    2    1    2    0    0  0.00000000000E+00  0.00000000000E+00  0.58530299220E+03  0.23858912520E+04  0.23129845382E+04 0.  0.
        2    1    3    3  502    0 -0.59850729086E+03 -0.86815696008E+03 -0.19725769268E+03  0.10727618943E+04  0.25500000920E-02 0.  1.
       -2    1    3    3    0  502  0.59850729086E+03  0.86815696008E+03  0.78256068488E+03  0.13131293577E+04  0.25500000920E-02 0. -1.
</event>
<event>
 5   0  0.3647623E-05  0.2650076E+04  0.7818609E-02  0.8351388E-01
        2   -1    0    0  501    0  0.00000000000E+00  0.00000000000E+00  0.18744867111E+04  0.18744867111E+04  0.25500000920E-02 0. -1.
       -2   -1    0    0    0  501  0.00000000000E+00  0.00000000000E+00 -0.93664330705E+03  0.93664330706E+03  0.25500000920E-02 0.  1.
    10030    2    1    2    0    0  0.00000000000E+00  0.00000000000E+00  0.93784340407E+03  0.28111300182E+04  0.26500757968E+04 0.  0.
        3    1    3    3  502    0  0.89666773867E+03 -0.94681229081E+03  0.71827990183E+03  0.14887553779E+04  0.10100000352E+00 0. -1.
       -3    1    3    3    0  502 -0.89666773867E+03  0.94681229081E+03  0.21956350224E+03  0.13223746403E+04  0.10100000352E+00 0.  1.
</event>
<event>
 5   0  0.3499642E-05  0.2605568E+04  0.7818609E-02  0.8366312E-01
        2   -1    0    0  501    0  0.00000000000E+00  0.00000000000E+00  0.15615223239E+04  0.15615223239E+04  0.25500000920E-02 0.  1.
       -2   -1    0    0    0  501  0.00000000000E+00  0.00000000000E+00 -0.10869179610E+04  0.10869179610E+04  0.25500000920E-02 0. -1.
    10030    2    1    2    0    0  0.00000000000E+00  0.00000000000E+00  0.47460436291E+03  0.26484402849E+04  0.26055683912E+04 0.  0.
        2    1    3    3  502    0 -0.99820308399E+03 -0.74241250331E+03 -0.15592356012E+03  0.12537535159E+04  0.25500000920E-02 0. -1.
       -2    1    3    3    0  502  0.99820308399E+03  0.74241250331E+03  0.63052792303E+03  0.13946867690E+04  0.25500000920E-02 0.  1.
</event>
<event>
 5   0  0.1451052E-05  0.2474413E+04  0.7818609E-02  0.8412158E-01
       -1   -1    0    0    0  501  0.00000000000E+00  0.00000000000E+00  0.16473619622E+04  0.16473619622E+04  0.50400001928E-02 0.  1.
        1   -1    0    0  501    0  0.00000000000E+00  0.00000000000E+00 -0.92917063698E+03  0.92917063700E+03  0.50400001928E-02 0. -1.
    10030    2    1    2    0    0  0.00000000000E+00  0.00000000000E+00  0.71819132524E+03  0.25765325992E+04  0.24744133558E+04 0.  0.
        1    1    3    3  502    0  0.34878200214E+02 -0.41174169874E+03  0.15733847459E+04  0.16267413052E+04  0.50400001928E-02 0.  1.
       -1    1    3    3    0  502 -0.34878200214E+02  0.41174169874E+03 -0.85519342070E+03  0.94979129400E+03  0.50400001928E-02 0. -1.
</event>
<event>
 5   0  0.1474554E-05  0.2602548E+04  0.7818609E-02  0.8367336E-01
        1   -1    0    0  501    0  0.00000000000E+00  0.00000000000E+00  0.10217464232E+04  0.10217464233E+04  0.50400001928E-02 0. -1.
       -1   -1    0    0    0  501  0.00000000000E+00  0.00000000000E+00 -0.16572738011E+04  0.16572738012E+04  0.50400001928E-02 0.  1.
    10030    2    1    2    0    0  0.00000000000E+00  0.00000000000E+00 -0.63552737790E+03  0.26790202244E+04  0.26025476585E+04 0.  0.
        5    1    3    3  502    0  0.31376057684E+03  0.74571996088E+03  0.73137355087E+03  0.10906297816E+04  0.46999998093E+01 0. -1.
       -5    1    3    3    0  502 -0.31376057684E+03 -0.74571996088E+03 -0.13669009288E+04  0.15883904428E+04  0.46999998093E+01 0.  1.
</event>
<event>
 5   0  0.1533248E-05  0.2475132E+04  0.7818609E-02  0.8411899E-01
        1   -1    0    0  501    0  0.00000000000E+00  0.00000000000E+00  0.64332465441E+03  0.64332465443E+03  0.50400001928E-02 0. -1.
       -1   -1    0    0    0  501  0.00000000000E+00  0.00000000000E+00 -0.23807093996E+04  0.23807093996E+04  0.50400001928E-02 0.  1.
    10030    2    1    2    0    0  0.00000000000E+00  0.00000000000E+00 -0.17373847452E+04  0.30240340541E+04  0.24751315535E+04 0.  0.
        4    1    3    3  502    0 -0.81069471881E+03  0.11662637873E+03  0.26481495807E+03  0.86078813552E+03  0.12699999809E+01 0. -1.
       -4    1    3    3    0  502  0.81069471881E+03 -0.11662637873E+03 -0.20021997033E+04  0.21632459185E+04  0.12699999809E+01 0.  1.
</event>
<event>
 5   0  0.1497497E-05  0.1745989E+04  0.7818609E-02  0.8735561E-01
       -1   -1    0    0    0  501  0.00000000000E+00  0.00000000000E+00  0.89544207698E+03  0.89544207700E+03  0.50400001928E-02 0. -1.
        1   -1    0    0  501    0  0.00000000000E+00  0.00000000000E+00 -0.85110947053E+03  0.85110947055E+03  0.50400001928E-02 0.  1.
    10030    2    1    2    0    0  0.00000000000E+00  0.00000000000E+00  0.44332606451E+02  0.17465515475E+04  0.17459888110E+04 0.  0.
        3    1    3    3  502    0  0.23809209764E+03  0.46299280835E+03  0.72315534084E+03  0.89106893377E+03  0.10100000352E+00 0. -1.
       -3    1    3    3    0  502 -0.23809209764E+03 -0.46299280835E+03 -0.67882273439E+03  0.85548261377E+03  0.10100000352E+00 0.  1.
</event>
<event>
 5   0  0.3647623E-05  0.1914424E+04  0.7818609E-02  0.8647710E-01
        2   -1    0    0  501    0  0.00000000000E+00  0.00000000000E+00  0.20184569575E+04  0.20184569575E+04  0.25500000920E-02 0. -1.
       -2   -1    0    0    0  501  0.00000000000E+00  0.00000000000E+00 -0.45393808700E+03  0.45393808701E+03  0.25500000920E-02 0.  1.
    10030    2    1    2    0    0  0.00000000000E+00  0.00000000000E+00  0.15645188705E+04  0.24723950445E+04  0.19144236626E+04 0.  0.
        3    1    3    3  502    0  0.62354056159E+03  0.72621600914E+03  0.77209411194E+03  0.12297649579E+04  0.10100000352E+00 0.  1.
       -3    1    3    3    0  502 -0.62354056159E+03 -0.72621600914E+03  0.79242475854E+03  0.12426300866E+04  0.10100000352E+00 0. -1.
</event>
<event>
 5   0  0.1435062E-05  0.2482885E+04  0.7818609E-02  0.8409108E-01
       -1   -1    0    0    0  501  0.00000000000E+00  0.00000000000E+00  0.87970046329E+03  0.87970046330E+03  0.50400001928E-02 0. -1.
        1   -1    0    0  501    0  0.00000000000E+00  0.00000000000E+00 -0.17519364936E+04  0.17519364936E+04  0.50400001928E-02 0.  1.
    10030    2    1    2    0    0  0.00000000000E+00  0.00000000000E+00 -0.87223603028E+03  0.26316369569E+04  0.24828848907E+04 0.  0.
        2    1    3    3  502    0  0.98297722672E+03 -0.53890658164E+03 -0.10014737896E+04  0.15032013449E+04  0.25500000920E-02 0.  1.
       -2    1    3    3    0  502 -0.98297722672E+03  0.53890658164E+03  0.12923775930E+03  0.11284356120E+04  0.25500000920E-02 0. -1.
</event>
<event>
 5   0  0.3849687E-05  0.2522605E+04  0.7818609E-02  0.8394976E-01
       -2   -1    0    0    0  501  0.00000000000E+00  0.00000000000E+00  0.70496094658E+03  0.70496094658E+03  0.25500000920E-02 0. -1.
        2   -1    0    0  501    0  0.00000000000E+00  0.00000000000E+00 -0.22566982874E+04  0.22566982874E+04  0.25500000920E-02 0.  1.
    10030    2    1    2    0    0  0.00000000000E+00  0.00000000000E+00 -0.15517373408E+04  0.29616592340E+04  0.25226051303E+04 0.  0.
        1    1    3    3  502    0  0.56766601967E+03  0.29510757075E+03 -0.20520489928E+04  0.21494739489E+04  0.50400001928E-02 0.  1.
       -1    1    3    3    0  502 -0.56766601967E+03 -0.29510757075E+03  0.50031165195E+03  0.81218528508E+03  0.50400001928E-02 0. -1.
</event>
<event>
 5   0  0.1435062E-05  0.2571138E+04  0.7818609E-02  0.8378071E-01
        1   -1    0    0  501    0  0.00000000000E+00  0.00000000000E+00  0.14908722355E+04  0.14908722355E+04  0.50400001928E-02 0.  1.
       -1   -1    0    0    0  501  0.00000000000E+00  0.00000000000E+00 -0.11085376175E+04  0.11085376175E+04  0.50400001928E-02 0. -1.
    10030    2    1    2    0    0  0.00000000000E+00  0.00000000000E+00  0.38233461801E+03  0.25994098530E+04  0.25711382351E+04 0.  0.
        2    1    3    3  502    0  0.86462147579E+02 -0.12211011719E+04 -0.20573600492E+03  0.12413263385E+04  0.25500000920E-02 0. -1.
       -2    1    3    3    0  502 -0.86462147579E+02  0.12211011719E+04  0.58807062292E+03  0.13580835145E+04  0.25500000920E-02 0.  1.
</event>
<event>
 5   0  0.1497497E-05  0.2580414E+04  0.7818609E-02  0.8374885E-01
       -1   -1    0    0    0  501  0.00000000000E+00  0.00000000000E+00  0.13424665134E+04  0.13424665134E+04  0.50400001928E-02 0. -1.
        1   -1    0    0  501    0  0.00000000000E+00  0.00000000000E+00 -0.12399817109E+04  0.12399817109E+04  0.50400001928E-02 0.  1.
    10030    2    1    2    0    0  0.00000000000E+00  0.00000000000E+00  0.10248480248E+03  0.25824482243E+04  0.25804138615E+04 0.  0.
        3    1    3    3  502    0  0.45618320321E+03 -0.10447983929E+04 -0.55332583405E+03  0.12672317410E+04  0.10100000352E+00 0.  1.
       -3    1    3    3    0  502 -0.45618320321E+03  0.10447983929E+04  0.65581063652E+03  0.13152164833E+04  0.10100000352E+00 0. -1.
</event>
<event>
 5   0  0.3441646E-05  0.2634617E+04  0.7818609E-02  0.8356537E-01
        2   -1    0    0  501    0  0.00000000000E+00  0.00000000000E+00  0.24657404868E+04  0.24657404868E+04  0.25500000920E-02 0. -1.
       -2   -1    0    0    0  501  0.00000000000E+00  0.00000000000E+00 -0.70376472925E+03  0.70376472925E+03  0.25500000920E-02 0.  1.
    10030    2    1    2    0    0  0.00000000000E+00  0.00000000000E+00  0.17619757576E+04  0.31695052161E+04  0.26346166219E+04 0.  0.
        4    1    3    3  502    0 -0.87174498875E+03  0.97697103889E+03  0.70711943064E+03  0.14880965151E+04  0.12699999809E+01 0. -1.
       -4    1    3    3    0  502  0.87174498875E+03 -0.97697103889E+03  0.10548563269E+04  0.16814087009E+04  0.12699999809E+01 0.  1.
</event>
<event>
 5   0  0.1533248E-05  0.2588464E+04  0.7818609E-02  0.8372130E-01
        1   -1    0    0  501    0  0.00000000000E+00  0.00000000000E+00  0.16048403204E+04  0.16048403204E+04  0.50400001928E-02 0. -1.
       -1   -1    0    0    0  501  0.00000000000E+00  0.00000000000E+00 -0.10437401258E+04  0.10437401258E+04  0.50400001928E-02 0.  1.
    10030    2    1    2    0    0  0.00000000000E+00  0.00000000000E+00  0.56110019461E+03  0.26485804462E+04  0.25884638208E+04 0.  0.
        4    1    3    3  502    0  0.45978380773E+03  0.39807972332E+02 -0.95668435131E+03  0.10621828399E+04  0.12699999809E+01 0.  1.
       -4    1    3    3    0  502 -0.45978380773E+03 -0.39807972332E+02  0.15177845459E+04  0.15863976063E+04  0.12699999809E+01 0. -1.
</event>
<event>
 5   0  0.3499642E-05  0.2445008E+04  0.7818609E-02  0.8422843E-01
        2   -1    0    0  501    0  0.00000000000E+00  0.00000000000E+00  0.18762231640E+04  0.18762231640E+04  0.25500000920E-02 0. -1.
       -2   -1    0    0    0  501  0.00000000000E+00  0.00000000000E+00 -0.79655580477E+03  0.79655580477E+03  0.25500000920E-02 0.  1.
    10030    2    1    2    0    0  0.00000000000E+00  0.00000000000E+00  0.10796673592E+04  0.26727789688E+04  0.24450083455E+04 0.  0.
        2    1    3    3  502    0  0.33513290720E+03 -0.11074438332E+04  0.97127860624E+03  0.15106713872E+04  0.25500000920E-02 0. -1.
       -2    1    3    3    0  502 -0.33513290720E+03  0.11074438332E+04  0.10838875299E+03  0.11621075815E+04  0.25500000920E-02 0.  1.
</event>
<event>
 5   0  0.1474554E-05  0.2283482E+04  0.7818609E-02  0.8484463E-01
       -1   -1    0    0    0  501  0.00000000000E+00  0.00000000000E+00  0.12330263014E+04  0.12330263015E+04  0.50400001928E-02 0.  1.
        1   -1    0    0  501    0  0.00000000000E+00  0.00000000000E+00 -0.10572137527E+04  0.10572137527E+04  0.50400001928E-02 0. -1.
    10030    2    1    2    0    0  0.00000000000E+00  0.00000000000E+00  0.17581254877E+03  0.22902400541E+04  0.22834818706E+04 0.  0.
        5    1    3    3  502    0  0.13019979237E+03 -0.98548218976E+03 -0.47538135550E+03  0.11018786936E+04  0.46999998093E+01 0. -1.
       -5    1    3    3    0  502 -0.13019979237E+03  0.98548218976E+03  0.65119390426E+03  0.11883613605E+04  0.46999998093E+01 0.  1.
</event>
<event>
 5   0  0.3647623E-05  0.2582801E+04  0.7818609E-02  0.8374067E-01
        2   -1    0    0  501    0  0.00000000000E+00  0.00000000000E+00  0.22634927410E+04  0.22634927410E+04  0.25500000920E-02 0.  1.
       -2   -1    0    0    0  501  0.00000000000E+00  0.00000000000E+00 -0.73678826762E+03  0.73678826763E+03  0.25500000920E-02 0. -1.
    10030    2    1    2    0    0  0.00000000000E+00  0.00000000000E+00  0.15267044734E+04  0.30002810086E+04  0.25828007243E+04 0.  0.
        3    1    3    3  502    0  0.74937016575E+03  0.50264521654E+03 -0.30983273835E+03  0.95404622267E+03  0.10100000352E+00 0. -1.
       -3    1    3    3    0  502 -0.74937016575E+03 -0.50264521654E+03  0.18365372117E+04  0.20462347860E+04  0.10100000352E+00 0.  1.
</event>
<event>
 5   0  0.1435062E-05  0.2625506E+04  0.7818609E-02  0.8359589E-01
       -1   -1    0    0    0  501  0.00000000000E+00  0.00000000000E+00  0.84854352878E+03  0.84854352880E+03  0.50400001928E-02 0. -1.
        1   -1    0    0  501    0  0.00000000000E+00  0.00000000000E+00 -0.20309161519E+04  0.20309161519E+04  0.50400001928E-02 0.  1.
    10030    2    1    2    0    0  0.00000000000E+00  0.00000000000E+00 -0.11823726231E+04  0.28794596807E+04  0.26255062431E+04 0.  0.
        2    1    3    3  502    0 -0.41071042739E+03 -0.93039753922E+03 -0.15015333119E+04  0.18135393359E+04  0.25500000920E-02 0.  1.
       -2    1    3    3    0  502  0.41071042739E+03  0.93039753922E+03  0.31916068878E+03  0.10659203448E+04  0.25500000920E-02 0. -1.
</event>
<event>
 5   0  0.3499642E-05  0.2607428E+04  0.7818609E-02  0.8365682E-01
       -2   -1    0    0    0  501  0.00000000000E+00  0.00000000000E+00  0.14420083108E+04  0.14420083108E+04  0.25500000920E-02 0.  1.
        2   -1    0    0  501    0  0.00000000000E+00  0.00000000000E+00 -0.11786830485E+04  0.11786830485E+04  0.25500000920E-02 0. -1.
    10030    2    1    2    0    0  0.00000000000E+00  0.00000000000E+00  0.26332526224E+03  0.26206913593E+04  0.26074284280E+04 0.  0.
        2    1    3    3  502    0  0.89908823712E+03 -0.34795923691E+03  0.10137573782E+04  0.13989779521E+04  0.25500000920E-02 0.  1.
       -2    1    3    3    0  502 -0.89908823712E+03  0.34795923691E+03 -0.75043211594E+03  0.12217134072E+04  0.25500000920E-02 0. -1.
</event>
<event>
 5   0  0.3849687E-05  0.2598820E+04  0.7818609E-02  0.8368602E-01
       -2   -1    0    0    0  501  0.00000000000E+00  0.00000000000E+00  0.17478434313E+04  0.17478434313E+04  0.25500000920E-02 0.  1.
        2   -1    0    0  501    0  0.00000000000E+00  0.00000000000E+00 -0.96602859511E+03  0.96602859512E+03  0.25500000920E-02 0. -1.
    10030    2    1    2    0    0  0.00000000000E+00  0.00000000000E+00  0.78181483621E+03  0.27138720264E+04  0.25988202973E+04 0.  0.
        1    1    3    3  502    0  0.80019747192E+03 -0.25857207956E+03 -0.64354869641E+03  0.10589289112E+04  0.50400001928E-02 0. -1.
       -1    1    3    3    0  502 -0.80019747192E+03  0.25857207956E+03  0.14253635326E+04  0.16549431152E+04  0.50400001928E-02 0.  1.
</event>
<event>
 5   0  0.1497497E-05  0.2681223E+04  0.7818609E-02  0.8341123E-01
        1   -1    0    0  501    0  0.00000000000E+00  0.00000000000E+00  0.13000767811E+04  0.13000767812E+04  0.50400001928E-02 0.  1.
       -1   -1    0    0    0  501  0.00000000000E+00  0.00000000000E+00 -0.13824096970E+04  0.13824096970E+04  0.50400001928E-02 0. -1.
    10030    2    1    2    0    0  0.00000000000E+00  0.00000000000E+00 -0.82332915896E+02  0.26824864782E+04  0.26812226682E+04 0.  0.
        3    1    3    3  502    0 -0.10392583755E+04  0.78980977463E+03 -0.34689401670E+03  0.13506268619E+04  0.10100000352E+00 0. -1.
       -3    1    3    3    0  502  0.10392583755E+04 -0.78980977463E+03  0.26456110081E+03  0.13318596163E+04  0.10100000352E+00 0.  1.
</event>
<event>
 5   0  0.1533248E-05  0.2521977E+04  0.7818609E-02  0.8395198E-01
       -1   -1    0    0    0  501  0.00000000000E+00  0.00000000000E+00  0.11250104830E+04  0.11250104830E+04  0.50400001928E-02 0. -1.
        1   -1    0    0  501    0  0.00000000000E+00  0.00000000000E+00 -0.14134018126E+04  0.14134018126E+04  0.50400001928E-02 0.  1.
    10030    2    1    2    0    0  0.00000000000E+00  0.00000000000E+00 -0.28839132960E+03  0.25384122956E+04  0.25219768880E+04 0.  0.
        4    1    3    3  502    0 -0.10636807093E+04 -0.48881361121E+03  0.32761801257E+03  0.12156029668E+04  0.12699999809E+01 0. -1.
       -4    1    3    3    0  502  0.10636807093E+04  0.48881361121E+03 -0.61600934217E+03  0.13228093288E+04  0.12699999809E+01 0.  1.
</event>
<event>
 5   0  0.3499642E-05  0.2649366E+04  0.7818609E-02  0.8351623E-01
       -2   -1    0    0    0  501  0.00000000000E+00  0.00000000000E+00  0.11227733861E+04  0.11227733861E+04  0.25500000920E-02 0.  1.
        2   -1    0    0  501    0  0.00000000000E+00  0.00000000000E+00 -0.15629022735E+04  0.15629022735E+04  0.25500000920E-02 0. -1.
    10030    2    1    2    0    0  0.00000000000E+00  0.00000000000E+00 -0.44012888740E+03  0.26856756595E+04  0.26493660205E+04 0.  0.
        2    1    3    3  502    0 -0.10479234517E+04 -0.38031314845E+03  0.50528625677E+03  0.12239672597E+04  0.25500000920E-02 0.  1.
       -2    1    3    3    0  502  0.10479234517E+04  0.38031314845E+03 -0.94541514417E+03  0.14617083999E+04  0.25500000920E-02 0. -1.
</event>
<event>
 5   0  0.3441646E-05  0.2637088E+04  0.7818609E-02  0.8355711E-01
       -2   -1    0    0    0  501  0.00000000000E+00  0.00000000000E+00  0.11247118957E+04  0.11247118957E+04  0.25500000920E-02 0. -1.
        2   -1    0    0  501    0  0.00000000000E+00  0.00000000000E+00 -0.15457812563E+04  0.15457812563E+04  0.25500000920E-02 0.  1.
    10030    2    1    2    0    0  0.00000000000E+00  0.00000000000E+00 -0.42106936057E+03  0.26704931520E+04  0.26370882178E+04 0.  0.
        4    1    3    3  502    0 -0.58256583345E+03  0.14103868774E+03 -0.13998399935E+04  0.15227700030E+04  0.12699999809E+01 0.  1.
       -4    1    3    3    0  502  0.58256583345E+03 -0.14103868774E+03  0.97877063297E+03  0.11477231489E+04  0.12699999809E+01 0. -1.
</event>
<event>
 5   0  0.3647623E-05  0.2607568E+04  0.7818609E-02  0.8365635E-01
        2   -1    0    0  501    0  0.00000000000E+00  0.00000000000E+00  0.10612876858E+04  0.10612876858E+04  0.25500000920E-02 0. -1.
       -2   -1    0    0    0  501  0.00000000000E+00  0.00000000000E+00 -0.16016894148E+04  0.16016894148E+04  0.25500000920E-02 0.  1.
    10030    2    1    2    0    0  0.00000000000E+00  0.00000000000E+00 -0.54040172895E+03  0.26629771006E+04  0.26075684094E+04 0.  0.
        3    1    3    3  502    0 -0.61403119609E+03  0.50007762803E+03  0.78753984916E+03  0.11168397235E+04  0.10100000352E+00 0. -1.
       -3    1    3    3    0  502  0.61403119609E+03 -0.50007762803E+03 -0.13279415781E+04  0.15461373771E+04  0.10100000352E+00 0.  1.
</event>
<event>
 5   0  0.3508470E-05  0.2637828E+04  0.7818609E-02  0.8355464E-01
        2   -1    0    0  501    0  0.00000000000E+00  0.00000000000E+00  0.17577373440E+04  0.17577373440E+04  0.25500000920E-02 0.  1.
       -2   -1    0    0    0  501  0.00000000000E+00  0.00000000000E+00 -0.98964379377E+03  0.98964379377E+03  0.25500000920E-02 0. -1.
    10030    2    1    2    0    0  0.00000000000E+00  0.00000000000E+00  0.76809355018E+03  0.27473811377E+04  0.26378277833E+04 0.  0.
        5    1    3    3  502    0 -0.84596722027E+03 -0.13540361631E+03 -0.66035403849E+03  0.10817043141E+04  0.46999998093E+01 0. -1.
       -5    1    3    3    0  502  0.84596722027E+03  0.13540361631E+03  0.14284475887E+04  0.16656768236E+04  0.46999998093E+01 0.  1.
</event>
<event>
 5   0  0.1533248E-05  0.2596007E+04  0.7818609E-02  0.8369559E-01
       -1   -1    0    0    0  501  0.00000000000E+00  0.00000000000E+00  0.10892580684E+04  0.10892580684E+04  0.50400001928E-02 0. -1.
        1   -1    0    0  501    0  0.00000000000E+00  0.00000000000E+00 -0.15467523888E+04  0.15467523888E+04  0.50400001928E-02 0.  1.
    10030    2    1    2    0    0  0.00000000000E+00  0.00000000000E+00 -0.45749432044E+03  0.26360104572E+04  0.25960065634E+04 0.  0.
        4    1    3    3  502    0 -0.21363800061E+03 -0.22230083531E+03 -0.15090303389E+04  0.15402055166E+04  0.12699999809E+01 0.  1.
       -4    1    3    3    0  502  0.21363800061E+03  0.22230083531E+03  0.10515360185E+04  0.10958049406E+04  0.12699999809E+01 0. -1.
</event>
<event>
 5   0  0.1474554E-05  0.2594927E+04  0.7818609E-02  0.8369927E-01
       -1   -1    0    0    0  501  0.00000000000E+00  0.00000000000E+00  0.89063195915E+03  0.89063195917E+03  0.50400001928E-02 0.  1.
        1   -1    0    0  501    0  0.00000000000E+00  0.00000000000E+00 -0.18901308043E+04  0.18901308043E+04  0.50400001928E-02 0. -1.
    10030    2    1    2    0    0  0.00000000000E+00  0.00000000000E+00 -0.99949884514E+03  0.27807627635E+04  0.25949265125E+04 0.  0.
        5    1    3    3  502    0 -0.54054658731E+03  0.11734739695E+04 -0.62725380853E+03  0.14362107089E+04  0.46999998093E+01 0.  1.
       -5    1    3    3    0  502  0.54054658731E+03 -0.11734739695E+04 -0.37224503661E+03  0.13445520545E+04  0.46999998093E+01 0. -1.
</event>
<event>
 5   0  0.1451052E-05  0.2631979E+04  0.7818609E-02  0.8357419E-01
        1   -1    0    0  501    0  0.00000000000E+00  0.00000000000E+00  0.17581796925E+04  0.17581796925E+04  0.50400001928E-02 0.  1.
       -1   -1    0    0    0  501  0.00000000000E+00  0.00000000000E+00 -0.98501200601E+03  0.98501200602E+03  0.50400001928E-02 0. -1.
    10030    2    1    2    0    0  0.00000000000E+00  0.00000000000E+00  0.77316768645E+03  0.27431916985E+04  0.26319788037E+04 0.  0.
        1    1    3    3  502    0 -0.11376715537E+04 -0.29577644002E+03  0.10032320473E+04  0.15453979447E+04  0.50400001928E-02 0.  1.
       -1    1    3    3    0  502  0.11376715537E+04  0.29577644002E+03 -0.23006436089E+03  0.11977937538E+04  0.50400001928E-02 0. -1.
</event>
<event>
 5   0  0.3441646E-05  0.2583806E+04  0.7818609E-02  0.8373723E-01
        2   -1    0    0  501    0  0.00000000000E+00  0.00000000000E+00  0.10061208796E+04  0.10061208796E+04  0.25500000920E-02 0.  1.
       -2   -1    0    0    0  501  0.00000000000E+00  0.00000000000E+00 -0.16588599491E+04  0.16588599491E+04  0.25500000920E-02 0. -1.
    10030    2    1    2    0    0  0.00000000000E+00  0.00000000000E+00 -0.65273906945E+03  0.26649808287E+04  0.25838062088E+04 0.  0.
        4    1    3    3  502    0  0.16663913993E+03  0.42146827108E+03  0.92143490317E+03  0.10268631847E+04  0.12699999809E+01 0.  1.
       -4    1    3    3    0  502 -0.16663913993E+03 -0.42146827108E+03 -0.15741739726E+04  0.16381176440E+04  0.12699999809E+01 0. -1.
</event>
<event>
 5   0  0.3441646E-05  0.2614495E+04  0.7818609E-02  0.8363294E-01
        2   -1    0    0  501    0  0.00000000000E+00  0.00000000000E+00  0.19525862139E+04  0.19525862139E+04  0.25500000920E-02 0.  1.
       -2   -1    0    0    0  501  0.00000000000E+00  0.00000000000E+00 -0.87519632239E+03  0.87519632240E+03  0.25500000920E-02 0. -1.
    10030    2    1    2    0    0  0.00000000000E+00  0.00000000000E+00  0.10773898915E+04  0.28277825363E+04  0.26144951892E+04 0.  0.
        4    1    3    3  502    0  0.53822089915E+03  0.43248707415E+03  0.17392804581E+04  0.18713163630E+04  0.12699999809E+01 0.  1.
       -4    1    3    3    0  502 -0.53822089915E+03 -0.43248707415E+03 -0.66189056660E+03  0.95646617329E+03  0.12699999809E+01 0. -1.
</event>
<event>
 5   0  0.1217200E-05  0.2574996E+04  0.7818609E-02  0.8376744E-01
       -3   -1    0    0    0  501  0.00000000000E+00  0.00000000000E+00  0.16926672578E+04  0.16926672608E+04  0.10100000352E+00 0. -1.
        3   -1    0    0  501    0  0.00000000000E+00  0.00000000000E+00 -0.97931304972E+03  0.97931305493E+03  0.10100000352E+00 0.  1.
    10030    2    1    2    0    0  0.00000000000E+00  0.00000000000E+00  0.71335420807E+03  0.26719803157E+04  0.25749960352E+04 0.  0.
        1    1    3    3  502    0  0.19655644330E+03 -0.12157789340E+04 -0.32824774417E+02  0.12320025639E+04  0.50400001928E-02 0. -1.
       -1    1    3    3    0  502 -0.19655644330E+03  0.12157789340E+04  0.74617898249E+03  0.14399777518E+04  0.50400001928E-02 0.  1.
</event>
<event>
 5   0  0.3499642E-05  0.2600596E+04  0.7818609E-02  0.8367999E-01
        2   -1    0    0  501    0  0.00000000000E+00  0.00000000000E+00  0.17504708938E+04  0.17504708938E+04  0.25500000920E-02 0. -1.
       -2   -1    0    0    0  501  0.00000000000E+00  0.00000000000E+00 -0.96589715792E+03  0.96589715792E+03  0.25500000920E-02 0.  1.
    10030    2    1    2    0    0  0.00000000000E+00  0.00000000000E+00  0.78457373591E+03  0.27163680518E+04  0.26005959789E+04 0.  0.
        2    1    3    3  502    0  0.96943924806E+03 -0.63973103689E+03  0.10028666432E+04  0.15345389403E+04  0.25500000920E-02 0. -1.
       -2    1    3    3    0  502 -0.96943924806E+03  0.63973103689E+03 -0.21829290732E+03  0.11818291114E+04  0.25500000920E-02 0.  1.
</event>
<event>
 5   0  0.1435062E-05  0.1817372E+04  0.7818609E-02  0.8697115E-01
       -1   -1    0    0    0  501  0.00000000000E+00  0.00000000000E+00  0.42168864000E+03  0.42168864003E+03  0.50400001928E-02 0. -1.
        1   -1    0    0  501    0  0.00000000000E+00  0.00000000000E+00 -0.19581044296E+04  0.19581044296E+04  0.50400001928E-02 0.  1.
    10030    2    1    2    0    0  0.00000000000E+00  0.00000000000E+00 -0.15364157896E+04  0.23797930697E+04  0.18173721622E+04 0.  0.
        2    1    3    3  502    0  0.27962221381E+02 -0.19115898401E+03 -0.19309006937E+04  0.19405414532E+04  0.25500000920E-02 0.  1.
       -2    1    3    3    0  502 -0.27962221381E+02  0.19115898401E+03  0.39448490405E+03  0.43925161641E+03  0.25500000920E-02 0. -1.
</event>
<event>
 5   0  0.1497497E-05  0.2548214E+04  0.7818609E-02  0.8386007E-01
        1   -1    0    0  501    0  0.00000000000E+00  0.00000000000E+00  0.95211765752E+03  0.95211765753E+03  0.50400001928E-02 0. -1.
       -1   -1    0    0    0  501  0.00000000000E+00  0.00000000000E+00 -0.17049880143E+04  0.17049880143E+04  0.50400001928E-02 0.  1.
    10030    2    1    2    0    0  0.00000000000E+00  0.00000000000E+00 -0.75287035683E+03  0.26571056719E+04  0.25482144292E+04 0.  0.
        3    1    3    3  502    0  0.41463940105E+03  0.45250894878E+03  0.78781602271E+03  0.99867125595E+03  0.10100000352E+00 0. -1.
       -3    1    3    3    0  502 -0.41463940105E+03 -0.45250894878E+03 -0.15406863795E+04  0.16584344159E+04  0.10100000352E+00 0.  1.
</event>
<event>
 5   0  0.3508470E-05  0.2588276E+04  0.7818609E-02  0.8372194E-01
        2   -1    0    0  501    0  0.00000000000E+00  0.00000000000E+00  0.16415686961E+04  0.16415686961E+04  0.25500000920E-02 0.  1.
       -2   -1    0    0    0  501  0.00000000000E+00  0.00000000000E+00 -0.10202397929E+04  0.10202397929E+04  0.25500000920E-02 0. -1.
    10030    2    1    2    0    0  0.00000000000E+00  0.00000000000E+00  0.62132890321E+03  0.26618084891E+04  0.25882764201E+04 0.  0.
        5    1    3    3  502    0 -0.24531815462E+03  0.43517467551E+03 -0.91707477592E+03  0.10443209420E+04  0.46999998093E+01 0. -1.
       -5    1    3    3    0  502  0.24531815462E+03 -0.43517467551E+03  0.15384036791E+04  0.16174875471E+04  0.46999998093E+01 0.  1.
</event>
<event>
 5   0  0.3849687E-05  0.2608025E+04  0.7818609E-02  0.8365480E-01
       -2   -1    0    0    0  501  0.00000000000E+00  0.00000000000E+00  0.12164871204E+04  0.12164871204E+04  0.25500000920E-02 0. -1.
        2   -1    0    0  501    0  0.00000000000E+00  0.00000000000E+00 -0.13978351841E+04  0.13978351841E+04  0.25500000920E-02 0.  1.
    10030    2    1    2    0    0  0.00000000000E+00  0.00000000000E+00 -0.18134806372E+03  0.26143223045E+04  0.26080249216E+04 0.  0.
        1    1    3    3  502    0  0.37804918814E+03  0.10670050798E+04  0.55821231733E+03  0.12621497614E+04  0.50400001928E-02 0.  1.
       -1    1    3    3    0  502 -0.37804918814E+03 -0.10670050798E+04 -0.73956038106E+03  0.13521725431E+04  0.50400001928E-02 0. -1.
</event>
<event>
 5   0  0.1533248E-05  0.2597509E+04  0.7818609E-02  0.8369048E-01
       -1   -1    0    0    0  501  0.00000000000E+00  0.00000000000E+00  0.12871914208E+04  0.12871914208E+04  0.50400001928E-02 0. -1.
        1   -1    0    0  501    0  0.00000000000E+00  0.00000000000E+00 -0.13104214267E+04  0.13104214267E+04  0.50400001928E-02 0.  1.
    10030    2    1    2    0    0  0.00000000000E+00  0.00000000000E+00 -0.23230005875E+02  0.25976128475E+04  0.25975089744E+04 0.  0.
        4    1    3    3  502    0  0.57844953200E+03  0.51439777056E+03  0.10312846379E+04  0.12894799512E+04  0.12699999809E+01 0. -1.
       -4    1    3    3    0  502 -0.57844953200E+03 -0.51439777056E+03 -0.10545146437E+04  0.13081328962E+04  0.12699999809E+01 0.  1.
</event>
<event>
 5   0  0.1533248E-05  0.2367877E+04  0.7818609E-02  0.8451629E-01
        1   -1    0    0  501    0  0.00000000000E+00  0.00000000000E+00  0.11164118338E+04  0.11164118339E+04  0.50400001928E-02 0. -1.
       -1   -1    0    0    0  501  0.00000000000E+00  0.00000000000E+00 -0.12555491893E+04  0.12555491893E+04  0.50400001928E-02 0.  1.
    10030    2    1    2    0    0  0.00000000000E+00  0.00000000000E+00 -0.13913735543E+03  0.23719610231E+04  0.23678766631E+04 0.  0.
        4    1    3    3  502    0  0.34363700536E+03  0.11191576901E+04  0.10711024755E+03  0.11756166657E+04  0.12699999809E+01 0. -1.
       -4    1    3    3    0  502 -0.34363700536E+03 -0.11191576901E+04 -0.24624760298E+03  0.11963443574E+04  0.12699999809E+01 0.  1.
</event>
<event>
 5   0  0.1474554E-05  0.2457559E+04  0.7818609E-02  0.8418263E-01
       -1   -1    0    0    0  501  0.00000000000E+00  0.00000000000E+00  0.68403064194E+03  0.68403064196E+03  0.50400001928E-02 0. -1.
        1   -1    0    0  501    0  0.00000000000E+00  0.00000000000E+00 -0.22073560877E+04  0.22073560877E+04  0.50400001928E-02 0.  1.
    10030    2    1    2    0    0  0.00000000000E+00  0.00000000000E+00 -0.15233254457E+04  0.28913867296E+04  0.24575591156E+04 0.  0.
        5    1    3    3  502    0 -0.51004510706E+03  0.86109312346E+03 -0.16004286688E+04  0.18875967240E+04  0.46999998093E+01 0.  1.
       -5    1    3    3    0  502  0.51004510706E+03 -0.86109312346E+03  0.77103223026E+02  0.10037900057E+04  0.46999998093E+01 0. -1.
</event>
<event>
 5   0  0.3441646E-05  0.2603070E+04  0.7818609E-02  0.8367159E-01
       -2   -1    0    0    0  501  0.00000000000E+00  0.00000000000E+00  0.86594262024E+03  0.86594262024E+03  0.25500000920E-02 0.  1.
        2   -1    0    0  501    0  0.00000000000E+00  0.00000000000E+00 -0.19562416068E+04  0.19562416068E+04  0.25500000920E-02 0. -1.
    10030    2    1    2    0    0  0.00000000000E+00  0.00000000000E+00 -0.10902989866E+04  0.28221842270E+04  0.26030697131E+04 0.  0.
        4    1    3    3  502    0  0.12707203814E+04 -0.22343494196E+03 -0.35944853749E+03  0.13393499636E+04  0.12699999809E+01 0.  1.
       -4    1    3    3    0  502 -0.12707203814E+04  0.22343494196E+03 -0.73085044907E+03  0.14828342634E+04  0.12699999809E+01 0. -1.
</event>
<event>
 5   0  0.1474554E-05  0.1911612E+04  0.7818609E-02  0.8649098E-01
       -1   -1    0    0    0  501  0.00000000000E+00  0.00000000000E+00  0.63374680045E+03  0.63374680047E+03  0.50400001928E-02 0.  1.
        1   -1    0    0  501    0  0.00000000000E+00  0.00000000000E+00 -0.14415298936E+04  0.14415298936E+04  0.50400001928E-02 0. -1.
    10030    2    1    2    0    0  0.00000000000E+00  0.00000000000E+00 -0.80778309312E+03  0.20752766941E+04  0.19116118412E+04 0.  0.
        5    1    3    3  502    0 -0.51714276170E+03  0.73040818550E+03 -0.76819643315E+03  0.11794408011E+04  0.46999998093E+01 0. -1.
       -5    1    3    3    0  502  0.51714276170E+03 -0.73040818550E+03 -0.39586659964E+02  0.89583589294E+03  0.46999998093E+01 0.  1.
</event>
<event>
 5   0  0.3647623E-05  0.2670966E+04  0.7818609E-02  0.8344487E-01
        2   -1    0    0  501    0  0.00000000000E+00  0.00000000000E+00  0.23566710282E+04  0.23566710282E+04  0.25500000920E-02 0.  1.
       -2   -1    0    0    0  501  0.00000000000E+00  0.00000000000E+00 -0.75679434303E+03  0.75679434303E+03  0.25500000920E-02 0. -1.
    10030    2    1    2    0    0  0.00000000000E+00  0.00000000000E+00  0.15998766852E+04  0.31134653713E+04  0.26709663439E+04 0.  0.
        3    1    3    3  502    0  0.52155720869E+03 -0.77281127688E+03  0.19145140100E+04  0.21294654485E+04  0.10100000352E+00 0. -1.
       -3    1    3    3    0  502 -0.52155720869E+03  0.77281127688E+03 -0.31463732482E+03  0.98399992276E+03  0.10100000352E+00 0.  1.
</event>
<event>
 5   0  0.3647623E-05  0.2553409E+04  0.7818609E-02  0.8384201E-01
        2   -1    0    0  501    0  0.00000000000E+00  0.00000000000E+00  0.11462847375E+04  0.11462847375E+04  0.25500000920E-02 0. -1.
       -2   -1    0    0    0  501  0.00000000000E+00  0.00000000000E+00 -0.14219634308E+04  0.14219634308E+04  0.25500000920E-02 0.  1.
    10030    2    1    2    0    0  0.00000000000E+00  0.00000000000E+00 -0.27567869333E+03  0.25682481683E+04  0.25534094682E+04 0.  0.
        3    1    3    3  502    0 -0.97481380575E+03  0.48797492160E+02 -0.96562379089E+03  0.13729794124E+04  0.10100000352E+00 0.  1.
       -3    1    3    3    0  502  0.97481380575E+03 -0.48797492160E+02  0.68994509756E+03  0.11952687560E+04  0.10100000352E+00 0. -1.
</event>
<event>
 5   0  0.1217200E-05  0.2391494E+04  0.7818609E-02  0.8442695E-01
       -3   -1    0    0    0  501  0.00000000000E+00  0.00000000000E+00  0.17540366107E+04  0.17540366136E+04  0.10100000352E+00 0.  1.
        3   -1    0    0  501    0  0.00000000000E+00  0.00000000000E+00 -0.81515427275E+03  0.81515427901E+03  0.10100000352E+00 0. -1.
    10030    2    1    2    0    0  0.00000000000E+00  0.00000000000E+00  0.93888233796E+03  0.25691908926E+04  0.23914936333E+04 0.  0.
        5    1    3    3  502    0  0.87920555972E+03 -0.18146300225E+03 -0.37909373908E+03  0.97450776828E+03  0.46999998093E+01 0. -1.
       -5    1    3    3    0  502 -0.87920555972E+03  0.18146300225E+03  0.13179760770E+04  0.15946831244E+04  0.46999998093E+01 0.  1.
</event>
<event>
 5   0  0.1474554E-05  0.2671698E+04  0.7818609E-02  0.8344247E-01
        1   -1    0    0  501    0  0.00000000000E+00  0.00000000000E+00  0.12275323648E+04  0.12275323648E+04  0.50400001928E-02 0. -1.
       -1   -1    0    0    0  501  0.00000000000E+00  0.00000000000E+00 -0.14537231370E+04  0.14537231370E+04  0.50400001928E-02 0.  1.
    10030    2    1    2    0    0  0.00000000000E+00  0.00000000000E+00 -0.22619077226E+03  0.26812555018E+04  0.26716977375E+04 0.  0.
        5    1    3    3  502    0  0.12168573656E+04  0.40832363192E+03 -0.48455472228E+03  0.13719640685E+04  0.46999998093E+01 0.  1.
       -5    1    3    3    0  502 -0.12168573656E+04 -0.40832363192E+03  0.25836395002E+03  0.13092914332E+04  0.46999998093E+01 0. -1.
</event>
<event>
 5   0  0.3647623E-05  0.2609178E+04  0.7818609E-02  0.8365090E-01
       -2   -1    0    0    0  501  0.00000000000E+00  0.00000000000E+00  0.88954442229E+03  0.88954442230E+03  0.25500000920E-02 0. -1.
        2   -1    0    0  501    0  0.00000000000E+00  0.00000000000E+00 -0.19132849782E+04  0.19132849782E+04  0.25500000920E-02 0.  1.
    10030    2    1    2    0    0  0.00000000000E+00  0.00000000000E+00 -0.10237405559E+04  0.28028294005E+04  0.26091776334E+04 0.  0.
        3    1    3    3  502    0 -0.61207560374E+03 -0.54634686458E+03  0.57771901842E+03  0.10034394429E+04  0.10100000352E+00 0. -1.
       -3    1    3    3    0  502  0.61207560374E+03  0.54634686458E+03 -0.16014595744E+04  0.17993899576E+04  0.10100000352E+00 0.  1.
</event>
<event>
 5   0  0.3499642E-05  0.2135136E+04  0.7818609E-02  0.8545922E-01
       -2   -1    0    0    0  501  0.00000000000E+00  0.00000000000E+00  0.71630213622E+03  0.71630213623E+03  0.25500000920E-02 0.  1.
        2   -1    0    0  501    0  0.00000000000E+00  0.00000000000E+00 -0.15910905595E+04  0.15910905595E+04  0.25500000920E-02 0. -1.
    10030    2    1    2    0    0  0.00000000000E+00  0.00000000000E+00 -0.87478842329E+03  0.23073926957E+04  0.21351361237E+04 0.  0.
        2    1    3    3  502    0  0.81367127148E+03  0.26739985000E+03  0.25130998722E+03  0.89259191543E+03  0.25500000920E-02 0.  1.
       -2    1    3    3    0  502 -0.81367127148E+03 -0.26739985000E+03 -0.11260984105E+04  0.14148007803E+04  0.25500000920E-02 0. -1.
</event>
<event>
 5   0  0.3849687E-05  0.2594969E+04  0.7818609E-02  0.8369912E-01
       -2   -1    0    0    0  501  0.00000000000E+00  0.00000000000E+00  0.58866083878E+03  0.58866083879E+03  0.25500000920E-02 0. -1.
        2   -1    0    0  501    0  0.00000000000E+00  0.00000000000E+00 -0.28598240010E+04  0.28598240010E+04  0.25500000920E-02 0.  1.
    10030    2    1    2    0    0  0.00000000000E+00  0.00000000000E+00 -0.22711631622E+04  0.34484848398E+04  0.25949692832E+04 0.  0.
        1    1    3    3  502    0  0.10652213735E+04  0.17800392756E+03 -0.17998007213E+03  0.10948857471E+04  0.50400001928E-02 0. -1.
       -1    1    3    3    0  502 -0.10652213735E+04 -0.17800392756E+03 -0.20911830901E+04  0.23535990927E+04  0.50400001928E-02 0.  1.
</event>
<event>
 5   0  0.1451052E-05  0.2481508E+04  0.7818609E-02  0.8409603E-01
        1   -1    0    0  501    0  0.00000000000E+00  0.00000000000E+00  0.23972408550E+04  0.23972408550E+04  0.50400001928E-02 0. -1.
       -1   -1    0    0    0  501  0.00000000000E+00  0.00000000000E+00 -0.64218425622E+03  0.64218425624E+03  0.50400001928E-02 0.  1.
    10030    2    1    2    0    0  0.00000000000E+00  0.00000000000E+00  0.17550565988E+04  0.30394251112E+04  0.24815078767E+04 0.  0.
        1    1    3    3  502    0 -0.20870674465E+03 -0.80039023782E+02 -0.61731908936E+03  0.65654216065E+03  0.50400001928E-02 0.  1.
       -1    1    3    3    0  502  0.20870674465E+03  0.80039023782E+02  0.23723756881E+04  0.23828829506E+04  0.50400001928E-02 0. -1.
</event>
<event>
 5   0  0.3441646E-05  0.2669074E+04  0.7818609E-02  0.8345110E-01
       -2   -1    0    0    0  501  0.00000000000E+00  0.00000000000E+00  0.11082714672E+04  0.11082714672E+04  0.25500000920E-02 0.  1.
        2   -1    0    0  501    0  0.00000000000E+00  0.00000000000E+00 -0.16069965044E+04  0.16069965044E+04  0.25500000920E-02 0. -1.
    10030    2    1    2    0    0  0.00000000000E+00  0.00000000000E+00 -0.49872503712E+03  0.27152679716E+04  0.26690735275E+04 0.  0.
        4    1    3    3  502    0 -0.13287598409E+04  0.10145697692E+03 -0.32194529344E+03  0.13709655787E+04  0.12699999809E+01 0.  1.
       -4    1    3    3    0  502  0.13287598409E+04 -0.10145697692E+03 -0.17677974368E+03  0.13443023929E+04  0.12699999809E+01 0. -1.
</event>
<event>
 5   0  0.3441646E-05  0.2153005E+04  0.7818609E-02  0.8538247E-01
        2   -1    0    0  501    0  0.00000000000E+00  0.00000000000E+00  0.10303290260E+04  0.10303290260E+04  0.25500000920E-02 0.  1.
       -2   -1    0    0    0  501  0.00000000000E+00  0.00000000000E+00 -0.11247455526E+04  0.11247455526E+04  0.25500000920E-02 0. -1.
    10030    2    1    2    0    0  0.00000000000E+00  0.00000000000E+00 -0.94416526595E+02  0.21550745787E+04  0.21530053319E+04 0.  0.
        4    1    3    3  502    0 -0.35346079187E+03  0.32088951536E+03 -0.10129940025E+04  0.11198495767E+04  0.12699999809E+01 0. -1.
       -4    1    3    3    0  502  0.35346079187E+03 -0.32088951536E+03  0.91857747593E+03  0.10352250019E+04  0.12699999809E+01 0.  1.
</event>
<event>
 5   0  0.3508470E-05  0.2568975E+04  0.7818609E-02  0.8378817E-01
       -2   -1    0    0    0  501  0.00000000000E+00  0.00000000000E+00  0.12490938353E+04  0.12490938353E+04  0.25500000920E-02 0.  1.
        2   -1    0    0  501    0  0.00000000000E+00  0.00000000000E+00 -0.13208843010E+04  0.13208843010E+04  0.25500000920E-02 0. -1.
    10030    2    1    2    0    0  0.00000000000E+00  0.00000000000E+00 -0.71790465741E+02  0.25699781363E+04  0.25689752334E+04 0.  0.
        5    1    3    3  502    0 -0.64998259254E+03  0.68044114352E+03  0.83875085504E+03  0.12605564673E+04  0.46999998093E+01 0.  1.
       -5    1    3    3    0  502  0.64998259254E+03 -0.68044114352E+03 -0.91054132078E+03  0.13094216690E+04  0.46999998093E+01 0. -1.
</event>
<event>
 5   0  0.1533248E-05  0.2464892E+04  0.7818609E-02  0.8415601E-01
        1   -1    0    0  501    0  0.00000000000E+00  0.00000000000E+00  0.20027600701E+04  0.20027600702E+04  0.50400001928E-02 0.  1.
       -1   -1    0    0    0  501  0.00000000000E+00  0.00000000000E+00 -0.75841478944E+03  0.75841478946E+03  0.50400001928E-02 0. -1.
    10030    2    1    2    0    0  0.00000000000E+00  0.00000000000E+00  0.12443452807E+04  0.27611748596E+04  0.24648917680E+04 0.  0.
        4    1    3    3  502    0 -0.50865606874E+03 -0.92143067820E+03  0.13404616837E+04  0.17042900661E+04  0.12699999809E+01 0.  1.
       -4    1    3    3    0  502  0.50865606874E+03  0.92143067820E+03 -0.96116402981E+02  0.10568847935E+04  0.12699999809E+01 0. -1.
</event>
<event>
 5   0  0.1435062E-05  0.2609698E+04  0.7818609E-02  0.8364914E-01
        1   -1    0    0  501    0  0.00000000000E+00  0.00000000000E+00  0.21102242377E+04  0.21102242377E+04  0.50400001928E-02 0.  1.
       -1   -1    0    0    0  501  0.00000000000E+00  0.00000000000E+00 -0.80684837361E+03  0.80684837362E+03  0.50400001928E-02 0. -1.
    10030    2    1    2    0    0  0.00000000000E+00  0.00000000000E+00  0.13033758641E+04  0.29170726113E+04  0.26096980624E+04 0.  0.
        2    1    3    3  502    0  0.18051909468E+03 -0.79091379615E+03  0.17940691023E+04  0.19689631079E+04  0.25500000920E-02 0.  1.
       -2    1    3    3    0  502 -0.18051909468E+03  0.79091379615E+03 -0.49069323819E+03  0.94810950343E+03  0.25500000920E-02 0. -1.
</event>
<event>
 5   0  0.3647623E-05  0.2577466E+04  0.7818609E-02  0.8375896E-01
       -2   -1    0    0    0  501  0.00000000000E+00  0.00000000000E+00  0.86281729539E+03  0.86281729540E+03  0.25500000920E-02 0.  1.
        2   -1    0    0  501    0  0.00000000000E+00  0.00000000000E+00 -0.19248949523E+04  0.19248949523E+04  0.25500000920E-02 0. -1.
    10030    2    1    2    0    0  0.00000000000E+00  0.00000000000E+00 -0.10620776569E+04  0.27877122477E+04  0.25774659312E+04 0.  0.
        3    1    3    3  502    0  0.79722566310E+02  0.10094138510E+04  0.33121177150E+03  0.10653512369E+04  0.10100000352E+00 0.  1.
       -3    1    3    3    0  502 -0.79722566310E+02 -0.10094138510E+04 -0.13932894284E+04  0.17223610108E+04  0.10100000352E+00 0. -1.
</event>
<event>
 5   0  0.3441646E-05  0.2584384E+04  0.7818609E-02  0.8373525E-01
       -2   -1    0    0    0  501  0.00000000000E+00  0.00000000000E+00  0.12968354836E+04  0.12968354836E+04  0.25500000920E-02 0.  1.
        2   -1    0    0  501    0  0.00000000000E+00  0.00000000000E+00 -0.12875652892E+04  0.12875652892E+04  0.25500000920E-02 0. -1.
    10030    2    1    2    0    0  0.00000000000E+00  0.00000000000E+00  0.92701943879E+01  0.25844007728E+04  0.25843841468E+04 0.  0.
        4    1    3    3  502    0 -0.21522652918E+03  0.31260622546E+03  0.12398408539E+04  0.12966310450E+04  0.12699999809E+01 0.  1.
       -4    1    3    3    0  502  0.21522652918E+03 -0.31260622546E+03 -0.12305706595E+04  0.12877697278E+04  0.12699999809E+01 0. -1.
</event>
<event>
 5   0  0.3441646E-05  0.2616240E+04  0.7818609E-02  0.8362706E-01
       -2   -1    0    0    0  501  0.00000000000E+00  0.00000000000E+00  0.79832670766E+03  0.79832670766E+03  0.25500000920E-02 0.  1.
        2   -1    0    0  501    0  0.00000000000E+00  0.00000000000E+00 -0.21434554631E+04  0.21434554631E+04  0.25500000920E-02 0. -1.
    10030    2    1    2    0    0  0.00000000000E+00  0.00000000000E+00 -0.13451287555E+04  0.29417821708E+04  0.26162398536E+04 0.  0.
        4    1    3    3  502    0 -0.26328541126E+03  0.23050978016E+03  0.74471977647E+03  0.82283845614E+03  0.12699999809E+01 0.  1.
       -4    1    3    3    0  502  0.26328541126E+03 -0.23050978016E+03 -0.20898485320E+04  0.21189437147E+04  0.12699999809E+01 0. -1.
</event>
<event>
 5   0  0.1497497E-05  0.2583000E+04  0.7818609E-02  0.8373999E-01
        1   -1    0    0  501    0  0.00000000000E+00  0.00000000000E+00  0.20162658240E+04  0.20162658240E+04  0.50400001928E-02 0. -1.
       -1   -1    0    0    0  501  0.00000000000E+00  0.00000000000E+00 -0.82725828103E+03  0.82725828105E+03  0.50400001928E-02 0.  1.
    10030    2    1    2    0    0  0.00000000000E+00  0.00000000000E+00  0.11890075430E+04  0.28435241051E+04  0.25830002708E+04 0.  0.
        3    1    3    3  502    0 -0.50291920868E+03  0.78837724025E+03 -0.38613175066E+03  0.10117134686E+04  0.10100000352E+00 0.  1.
       -3    1    3    3    0  502  0.50291920868E+03 -0.78837724025E+03  0.15751392936E+04  0.18318106365E+04  0.10100000352E+00 0. -1.
</event>
<event>
 5   0  0.1451052E-05  0.1598323E+04  0.7818609E-02  0.8821579E-01
        1   -1    0    0  501    0  0.00000000000E+00  0.00000000000E+00  0.20205581089E+04  0.20205581089E+04  0.50400001928E-02 0. -1.
       -1   -1    0    0    0  501  0.00000000000E+00  0.00000000000E+00 -0.31608058576E+03  0.31608058580E+03  0.50400001928E-02 0.  1.
    10030    2    1    2    0    0  0.00000000000E+00  0.00000000000E+00  0.17044775231E+04  0.23366386947E+04  0.15983231096E+04 0.  0.
        1    1    3    3  502    0  0.37091339790E+02  0.35913482467E+03 -0.19005330722E+03  0.40801207015E+03  0.50400001928E-02 0.  1.
       -1    1    3    3    0  502 -0.37091339790E+02 -0.35913482467E+03  0.18945308303E+04  0.19286266245E+04  0.50400001928E-02 0. -1.
</event>
<event>
 5   0  0.1533248E-05  0.2006212E+04  0.7818609E-02  0.8603722E-01
        1   -1    0    0  501    0  0.00000000000E+00  0.00000000000E+00  0.13248596973E+04  0.13248596973E+04  0.50400001928E-02 0. -1.
       -1   -1    0    0    0  501  0.00000000000E+00  0.00000000000E+00 -0.75949270797E+03  0.75949270799E+03  0.50400001928E-02 0.  1.
    10030    2    1    2    0    0  0.00000000000E+00  0.00000000000E+00  0.56536698929E+03  0.20843524053E+04  0.20062116331E+04 0.  0.
        4    1    3    3  502    0 -0.75315143091E+03  0.65433441635E+03  0.17456754108E+03  0.10128504557E+04  0.12699999809E+01 0. -1.
       -4    1    3    3    0  502  0.75315143091E+03 -0.65433441635E+03  0.39079944822E+03  0.10715019496E+04  0.12699999809E+01 0.  1.
</event>
<event>
 5   0  0.3849687E-05  0.2618158E+04  0.7818609E-02  0.8362059E-01
        2   -1    0    0  501    0  0.00000000000E+00  0.00000000000E+00  0.12443593716E+04  0.12443593716E+04  0.25500000920E-02 0.  1.
       -2   -1    0    0    0  501  0.00000000000E+00  0.00000000000E+00 -0.13771647347E+04  0.13771647347E+04  0.25500000920E-02 0. -1.
    10030    2    1    2    0    0  0.00000000000E+00  0.00000000000E+00 -0.13280536307E+03  0.26215241063E+04  0.26181580119E+04 0.  0.
        1    1    3    3  502    0  0.55831865728E+03  0.11742100556E+04  0.86104881463E+02  0.13030360810E+04  0.50400001928E-02 0. -1.
       -1    1    3    3    0  502 -0.55831865728E+03 -0.11742100556E+04 -0.21891024453E+03  0.13184880253E+04  0.50400001928E-02 0.  1.
</event>
<event>
 5   0  0.3441646E-05  0.2601906E+04  0.7818609E-02  0.8367554E-01
        2   -1    0    0  501    0  0.00000000000E+00  0.00000000000E+00  0.19762002453E+04  0.19762002453E+04  0.25500000920E-02 0.  1.
       -2   -1    0    0    0  501  0.00000000000E+00  0.00000000000E+00 -0.85643056447E+03  0.85643056448E+03  0.25500000920E-02 0. -1.
    10030    2    1    2    0    0  0.00000000000E+00  0.00000000000E+00  0.11197696808E+04  0.28326308098E+04  0.26019056798E+04 0.  0.
        4    1    3    3  502    0  0.12487871756E+04  0.51588556631E+02  0.95293420232E+03  0.15716920805E+04  0.12699999809E+01 0. -1.
       -4    1    3    3    0  502 -0.12487871756E+04 -0.51588556631E+02  0.16683547849E+03  0.12609387292E+04  0.12699999809E+01 0.  1.
</event>
<event>
 5   0  0.1474554E-05  0.2562149E+04  0.7818609E-02  0.8381173E-01
       -1   -1    0    0    0  501  0.00000000000E+00  0.00000000000E+00  0.14243747815E+04  0.14243747815E+04  0.50400001928E-02 0. -1.
        1   -1    0    0  501    0  0.00000000000E+00  0.00000000000E+00 -0.11521911308E+04  0.11521911309E+04  0.50400001928E-02 0.  1.
    10030    2    1    2    0    0  0.00000000000E+00  0.00000000000E+00  0.27218365068E+03  0.25765659124E+04  0.25621490903E+04 0.  0.
        5    1    3    3  502    0  0.68296337062E+03  0.96362308451E+03 -0.36280601424E+03  0.12355803125E+04  0.46999998093E+01 0.  1.
       -5    1    3    3    0  502 -0.68296337062E+03 -0.96362308451E+03  0.63498966492E+03  0.13409855999E+04  0.46999998093E+01 0. -1.
</event>
<event>
 5   0  0.3849687E-05  0.2148868E+04  0.7818609E-02  0.8540017E-01
       -2   -1    0    0    0  501  0.00000000000E+00  0.00000000000E+00  0.78029794595E+03  0.78029794596E+03  0.25500000920E-02 0. -1.
        2   -1    0    0  501    0  0.00000000000E+00  0.00000000000E+00 -0.14794453771E+04  0.14794453771E+04  0.25500000920E-02 0.  1.
    10030    2    1    2    0    0  0.00000000000E+00  0.00000000000E+00 -0.69914743111E+03  0.22597433230E+04  0.21488677846E+04 0.  0.
        1    1    3    3  502    0 -0.79985481208E+03 -0.64552811586E+03 -0.67866470098E+03  0.12316899144E+04  0.50400001928E-02 0. -1.
       -1    1    3    3    0  502  0.79985481208E+03  0.64552811586E+03 -0.20482730130E+02  0.10280534087E+04  0.50400001928E-02 0.  1.
</event>
<event>
 5   0  0.1497497E-05  0.2698606E+04  0.7818609E-02  0.8335458E-01
       -1   -1    0    0    0  501  0.00000000000E+00  0.00000000000E+00  0.16477096816E+04  0.16477096816E+04  0.50400001928E-02 0. -1.
        1   -1    0    0  501    0  0.00000000000E+00  0.00000000000E+00 -0.11049385671E+04  0.11049385671E+04  0.50400001928E-02 0.  1.
    10030    2    1    2    0    0  0.00000000000E+00  0.00000000000E+00  0.54277111445E+03  0.27526482487E+04  0.26986055470E+04 0.  0.
        3    1    3    3  502    0  0.40629722915E+03  0.90364485850E+03 -0.66290856791E+03  0.11920986739E+04  0.10100000352E+00 0.  1.
       -3    1    3    3    0  502 -0.40629722915E+03 -0.90364485850E+03  0.12056796824E+04  0.15605495748E+04  0.10100000352E+00 0. -1.
</event>
<event>
 5   0  0.1217200E-05  0.2626022E+04  0.7818609E-02  0.8359415E-01
        3   -1    0    0  501    0  0.00000000000E+00  0.00000000000E+00  0.18220027661E+04  0.18220027689E+04  0.10100000352E+00 0.  1.
       -3   -1    0    0    0  501  0.00000000000E+00  0.00000000000E+00 -0.94621070957E+03  0.94621071496E+03  0.10100000352E+00 0. -1.
    10030    2    1    2    0    0  0.00000000000E+00  0.00000000000E+00  0.87579205652E+03  0.27682134838E+04  0.26260224991E+04 0.  0.
        4    1    3    3  502    0  0.79395186151E+03  0.10456781360E+04  0.42319054770E+03  0.13794543034E+04  0.12699999809E+01 0.  1.
       -4    1    3    3    0  502 -0.79395186151E+03 -0.10456781360E+04  0.45260150882E+03  0.13887591805E+04  0.12699999809E+01 0. -1.
</event>
<event>
 5   0  0.1474554E-05  0.2564683E+04  0.7818609E-02  0.8380298E-01
        1   -1    0    0  501    0  0.00000000000E+00  0.00000000000E+00  0.18469672669E+04  0.18469672669E+04  0.50400001928E-02 0. -1.
       -1   -1    0    0    0  501  0.00000000000E+00  0.00000000000E+00 -0.89032417439E+03  0.89032417440E+03  0.50400001928E-02 0.  1.
    10030    2    1    2    0    0  0.00000000000E+00  0.00000000000E+00  0.95664309249E+03  0.27372914413E+04  0.25646829099E+04 0.  0.
        5    1    3    3  502    0 -0.11284544801E+04  0.16302395168E+03 -0.14802311649E+03  0.11497474747E+04  0.46999998093E+01 0.  1.
       -5    1    3    3    0  502  0.11284544801E+04 -0.16302395168E+03  0.11046662090E+04  0.15875439666E+04  0.46999998093E+01 0. -1.
</event>
<event>
 5   0  0.1217200E-05  0.2534946E+04  0.7818609E-02  0.8390641E-01
       -4   -1    0    0    0  501  0.00000000000E+00  0.00000000000E+00  0.14537703639E+04  0.14537709186E+04  0.12699999809E+01 0.  1.
        4   -1    0    0  501    0  0.00000000000E+00  0.00000000000E+00 -0.11050481235E+04  0.11050488533E+04  0.12699999809E+01 0. -1.
    10030    2    1    2    0    0  0.00000000000E+00  0.00000000000E+00  0.34872224045E+03  0.25588197719E+04  0.25349460397E+04 0.  0.
        2    1    3    3  502    0 -0.46646250261E+03 -0.81380878432E+03  0.10348067100E+04  0.13966735233E+04  0.25500000920E-02 0.  1.
       -2    1    3    3    0  502  0.46646250261E+03  0.81380878432E+03 -0.68608446950E+03  0.11621462486E+04  0.25500000920E-02 0. -1.
</event>
<event>
 5   0  0.3508470E-05  0.2567021E+04  0.7818609E-02  0.8379491E-01
        2   -1    0    0  501    0  0.00000000000E+00  0.00000000000E+00  0.26549129640E+04  0.26549129640E+04  0.25500000920E-02 0.  1.
       -2   -1    0    0    0  501  0.00000000000E+00  0.00000000000E+00 -0.62050959033E+03  0.62050959034E+03  0.25500000920E-02 0. -1.
    10030    2    1    2    0    0  0.00000000000E+00  0.00000000000E+00  0.20344033736E+04  0.32754225543E+04  0.25670208068E+04 0.  0.
        5    1    3    3  502    0 -0.19524604849E+03  0.34442137341E+03  0.25750416505E+04  0.26053039541E+04  0.46999998093E+01 0.  1.
       -5    1    3    3    0  502  0.19524604849E+03 -0.34442137341E+03 -0.54063827682E+03  0.67011860016E+03  0.46999998093E+01 0. -1.
</event>
<event>
 5   0  0.3499642E-05  0.1877128E+04  0.7818609E-02  0.8666326E-01
       -2   -1    0    0    0  501  0.00000000000E+00  0.00000000000E+00  0.10865532224E+04  0.10865532224E+04  0.25500000920E-02 0.  1.
        2   -1    0    0  501    0  0.00000000000E+00  0.00000000000E+00 -0.81073075197E+03  0.81073075198E+03  0.25500000920E-02 0. -1.
    10030    2    1    2    0    0  0.00000000000E+00  0.00000000000E+00  0.27582247039E+03  0.18972839743E+04  0.18771277112E+04 0.  0.
        2    1    3    3  502    0 -0.86023527947E+02  0.80851460710E+03 -0.33595796315E+03  0.87975205045E+03  0.25500000920E-02 0. -1.
       -2    1    3    3    0  502  0.86023527947E+02 -0.80851460710E+03  0.61178043354E+03  0.10175319239E+04  0.25500000920E-02 0.  1.
</event>
<event>
 5   0  0.1451052E-05  0.2476914E+04  0.7818609E-02  0.8411256E-01
       -1   -1    0    0    0  501  0.00000000000E+00  0.00000000000E+00  0.14998739487E+04  0.14998739487E+04  0.50400001928E-02 0. -1.
        1   -1    0    0  501    0  0.00000000000E+00  0.00000000000E+00 -0.10226034069E+04  0.10226034069E+04  0.50400001928E-02 0.  1.
    10030    2    1    2    0    0  0.00000000000E+00  0.00000000000E+00  0.47727054175E+03  0.25224773556E+04  0.24769143787E+04 0.  0.
        1    1    3    3  502    0  0.81799453725E+02  0.59685584112E+03 -0.86332660996E+03  0.10527397025E+04  0.50400001928E-02 0.  1.
       -1    1    3    3    0  502 -0.81799453725E+02 -0.59685584112E+03  0.13405971517E+04  0.14697376531E+04  0.50400001928E-02 0. -1.
</event>
<event>
 5   0  0.3508470E-05  0.2695194E+04  0.7818609E-02  0.8336566E-01
        2   -1    0    0  501    0  0.00000000000E+00  0.00000000000E+00  0.17514841458E+04  0.17514841458E+04  0.25500000920E-02 0.  1.
       -2   -1    0    0    0  501  0.00000000000E+00  0.00000000000E+00 -0.10368449817E+04  0.10368449817E+04  0.25500000920E-02 0. -1.
    10030    2    1    2    0    0  0.00000000000E+00  0.00000000000E+00  0.71463916407E+03  0.27883291275E+04  0.26951939056E+04 0.  0.
        5    1    3    3  502    0  0.44546571160E+03 -0.73071677742E+03 -0.71961735022E+03  0.11181493325E+04  0.46999998093E+01 0. -1.
       -5    1    3    3    0  502 -0.44546571160E+03  0.73071677742E+03  0.14342565143E+04  0.16701797951E+04  0.46999998093E+01 0.  1.
</event>
<event>
 5   0  0.1474554E-05  0.2628385E+04  0.7818609E-02  0.8358623E-01
        1   -1    0    0  501    0  0.00000000000E+00  0.00000000000E+00  0.16649310709E+04  0.16649310709E+04  0.50400001928E-02 0. -1.
       -1   -1    0    0    0  501  0.00000000000E+00  0.00000000000E+00 -0.10373414486E+04  0.10373414486E+04  0.50400001928E-02 0.  1.
    10030    2    1    2    0    0  0.00000000000E+00  0.00000000000E+00  0.62758962228E+03  0.27022725195E+04  0.26283850623E+04 0.  0.
        5    1    3    3  502    0 -0.13308293839E+03 -0.12472467441E+04 -0.89330271711E+02  0.12575124240E+04  0.46999998093E+01 0.  1.
       -5    1    3    3    0  502  0.13308293839E+03  0.12472467441E+04  0.71691989399E+03  0.14447600955E+04  0.46999998093E+01 0. -1.
</event>
<event>
 5   0  0.3647623E-05  0.1994416E+04  0.7818609E-02  0.8609236E-01
       -2   -1    0    0    0  501  0.00000000000E+00  0.00000000000E+00  0.11787165824E+04  0.11787165824E+04  0.25500000920E-02 0.  1.
        2   -1    0    0  501    0  0.00000000000E+00  0.00000000000E+00 -0.84364953115E+03  0.84364953116E+03  0.25500000920E-02 0. -1.
    10030    2    1    2    0    0  0.00000000000E+00  0.00000000000E+00  0.33506705122E+03  0.20223661135E+04  0.19944158965E+04 0.  0.
        3    1    3    3  502    0 -0.74577593999E+02  0.98013211409E+02 -0.83590786795E+03  0.84493217541E+03  0.10100000352E+00 0. -1.
       -3    1    3    3    0  502  0.74577593999E+02 -0.98013211409E+02  0.11709749192E+04  0.11774339381E+04  0.10100000352E+00 0.  1.
</event>
<event>
 5   0  0.3508470E-05  0.2342989E+04  0.7818609E-02  0.8461161E-01
       -2   -1    0    0    0  501  0.00000000000E+00  0.00000000000E+00  0.69381880800E+03  0.69381880801E+03  0.25500000920E-02 0. -1.
        2   -1    0    0  501    0  0.00000000000E+00  0.00000000000E+00 -0.19780373338E+04  0.19780373338E+04  0.25500000920E-02 0.  1.
    10030    2    1    2    0    0  0.00000000000E+00  0.00000000000E+00 -0.12842185258E+04  0.26718561418E+04  0.23429891209E+04 0.  0.
        5    1    3    3  502    0 -0.80476433403E+03  0.61281617397E+03  0.31755160085E+02  0.10120374383E+04  0.46999998093E+01 0.  1.
       -5    1    3    3    0  502  0.80476433403E+03 -0.61281617397E+03 -0.13159736859E+04  0.16598187034E+04  0.46999998093E+01 0. -1.
</event>
<event>
 5   0  0.1533248E-05  0.2707990E+04  0.7818609E-02  0.8332417E-01
       -1   -1    0    0    0  501  0.00000000000E+00  0.00000000000E+00  0.82422080347E+03  0.82422080348E+03  0.50400001928E-02 0. -1.
        1   -1    0    0  501    0  0.00000000000E+00  0.00000000000E+00 -0.22242859064E+04  0.22242859064E+04  0.50400001928E-02 0.  1.
    10030    2    1    2    0    0  0.00000000000E+00  0.00000000000E+00 -0.14000651029E+04  0.30485067099E+04  0.27079901897E+04 0.  0.
        4    1    3    3  502    0  0.20797190197E+03 -0.13288318150E+04 -0.52470954352E+03  0.14437340553E+04  0.12699999809E+01 0. -1.
       -4    1    3    3    0  502 -0.20797190197E+03  0.13288318150E+04 -0.87535555939E+03  0.16047726545E+04  0.12699999809E+01 0.  1.
</event>
<event>
 5   0  0.3647623E-05  0.2573352E+04  0.7818609E-02  0.8377310E-01
        2   -1    0    0  501    0  0.00000000000E+00  0.00000000000E+00  0.12377157910E+04  0.12377157910E+04  0.25500000920E-02 0.  1.
       -2   -1    0    0    0  501  0.00000000000E+00  0.00000000000E+00 -0.13375725980E+04  0.13375725980E+04  0.25500000920E-02 0. -1.
    10030    2    1    2    0    0  0.00000000000E+00  0.00000000000E+00 -0.99856807005E+02  0.25752883891E+04  0.25733516870E+04 0.  0.
        3    1    3    3  502    0 -0.10428196701E+04 -0.72571209971E+03 -0.25356077909E+03  0.12955400399E+04  0.10100000352E+00 0. -1.
       -3    1    3    3    0  502  0.10428196701E+04  0.72571209971E+03  0.15370397208E+03  0.12797483492E+04  0.10100000352E+00 0.  1.
</event>
<event>
 5   0  0.3499642E-05  0.2598987E+04  0.7818609E-02  0.8368545E-01
       -2   -1    0    0    0  501  0.00000000000E+00  0.00000000000E+00  0.11254801862E+04  0.11254801862E+04  0.25500000920E-02 0. -1.
        2   -1    0    0  501    0  0.00000000000E+00  0.00000000000E+00 -0.15004111720E+04  0.15004111720E+04  0.25500000920E-02 0.  1.
    10030    2    1    2    0    0  0.00000000000E+00  0.00000000000E+00 -0.37493098585E+03  0.26258913582E+04  0.25989867604E+04 0.  0.
        2    1    3    3  502    0 -0.64239983186E+03  0.10384277925E+04 -0.63667258717E+03  0.13770845317E+04  0.25500000920E-02 0.  1.
       -2    1    3    3    0  502  0.64239983186E+03 -0.10384277925E+04  0.26174160132E+03  0.12488068265E+04  0.25500000920E-02 0. -1.
</event>
<event>
 5   0  0.3441646E-05  0.2593876E+04  0.7818609E-02  0.8370284E-01
        2   -1    0    0  501    0  0.00000000000E+00  0.00000000000E+00  0.86309928913E+03  0.86309928913E+03  0.25500000920E-02 0. -1.
       -2   -1    0    0    0  501  0.00000000000E+00  0.00000000000E+00 -0.19488470490E+04  0.19488470490E+04  0.25500000920E-02 0.  1.
    10030    2    1    2    0    0  0.00000000000E+00  0.00000000000E+00 -0.10857477598E+04  0.28119463381E+04  0.25938762519E+04 0.  0.
        4    1    3    3  502    0  0.82079881605E+03 -0.49049465436E+03 -0.14927523059E+04  0.17727399025E+04  0.12699999809E+01 0.  1.
       -4    1    3    3    0  502 -0.82079881605E+03  0.49049465436E+03  0.40700454603E+03  0.10392064356E+04  0.12699999809E+01 0. -1.
</event>
<event>
 5   0  0.3508470E-05  0.2617035E+04  0.7818609E-02  0.8362438E-01
        2   -1    0    0  501    0  0.00000000000E+00  0.00000000000E+00  0.19232605020E+04  0.19232605020E+04  0.25500000920E-02 0. -1.
       -2   -1    0    0    0  501  0.00000000000E+00  0.00000000000E+00 -0.89026872618E+03  0.89026872619E+03  0.25500000920E-02 0.  1.
    10030    2    1    2    0    0  0.00000000000E+00  0.00000000000E+00  0.10329917758E+04  0.28135292282E+04  0.26170354810E+04 0.  0.
        5    1    3    3  502    0 -0.28367798212E+03 -0.11574080294E+04  0.10975678655E+04  0.16201061241E+04  0.46999998093E+01 0. -1.
       -5    1    3    3    0  502  0.28367798212E+03  0.11574080294E+04 -0.64576089667E+02  0.11934231041E+04  0.46999998093E+01 0.  1.
</event>
<event>
 5   0  0.3849687E-05  0.2598564E+04  0.7818609E-02  0.8368689E-01
       -2   -1    0    0    0  501  0.00000000000E+00  0.00000000000E+00  0.82358246451E+03  0.82358246452E+03  0.25500000920E-02 0.  1.
        2   -1    0    0  501    0  0.00000000000E+00  0.00000000000E+00 -0.20497445091E+04  0.20497445091E+04  0.25500000920E-02 0. -1.
    10030    2    1    2    0    0  0.00000000000E+00  0.00000000000E+00 -0.12261620446E+04  0.28733269736E+04  0.25985639376E+04 0.  0.
        1    1    3    3  502    0  0.93497393311E+03 -0.77968329950E+03 -0.11115541263E+03  0.12224720156E+04  0.50400001928E-02 0.  1.
       -1    1    3    3    0  502 -0.93497393311E+03  0.77968329950E+03 -0.11150066320E+04  0.16508549580E+04  0.50400001928E-02 0. -1.
</event>
<event>
 5   0  0.3849687E-05  0.2600338E+04  0.7818609E-02  0.8368087E-01
        2   -1    0    0  501    0  0.00000000000E+00  0.00000000000E+00  0.12404477039E+04  0.12404477039E+04  0.25500000920E-02 0.  1.
       -2   -1    0    0    0  501  0.00000000000E+00  0.00000000000E+00 -0.13627651927E+04  0.13627651927E+04  0.25500000920E-02 0. -1.
    10030    2    1    2    0    0  0.00000000000E+00  0.00000000000E+00 -0.12231748878E+03  0.26032128966E+04  0.26003376352E+04 0.  0.
        1    1    3    3  502    0 -0.81324649685E+03 -0.98637105829E+03  0.17604464355E+03  0.12904609432E+04  0.50400001928E-02 0.  1.
       -1    1    3    3    0  502  0.81324649685E+03  0.98637105829E+03 -0.29836213232E+03  0.13127519535E+04  0.50400001928E-02 0. -1.
</event>
<event>
 5   0  0.1451052E-05  0.1727680E+04  0.7818609E-02  0.8745733E-01
       -1   -1    0    0    0  501  0.00000000000E+00  0.00000000000E+00  0.67162183539E+03  0.67162183541E+03  0.50400001928E-02 0.  1.
        1   -1    0    0  501    0  0.00000000000E+00  0.00000000000E+00 -0.11110716006E+04  0.11110716007E+04  0.50400001928E-02 0. -1.
    10030    2    1    2    0    0  0.00000000000E+00  0.00000000000E+00 -0.43944976526E+03  0.17826934361E+04  0.17276804655E+04 0.  0.
        1    1    3    3  502    0 -0.29312076711E+03 -0.62960271556E+03  0.31034535279E+03  0.76067969710E+03  0.50400001928E-02 0.  1.
       -1    1    3    3    0  502  0.29312076711E+03  0.62960271556E+03 -0.74979511805E+03  0.10220137390E+04  0.50400001928E-02 0. -1.
</event>
<event>
 5   0  0.1435062E-05  0.2605221E+04  0.7818609E-02  0.8366430E-01
       -1   -1    0    0    0  501  0.00000000000E+00  0.00000000000E+00  0.12404546563E+04  0.12404546563E+04  0.50400001928E-02 0. -1.
        1   -1    0    0  501    0  0.00000000000E+00  0.00000000000E+00 -0.13678810274E+04  0.13678810274E+04  0.50400001928E-02 0.  1.
    10030    2    1    2    0    0  0.00000000000E+00  0.00000000000E+00 -0.12742637111E+03  0.26083356837E+04  0.26052212111E+04 0.  0.
        2    1    3    3  502    0  0.12135167575E+04  0.45446946114E+03  0.69219704020E+02  0.12976736027E+04  0.25500000920E-02 0.  1.
       -2    1    3    3    0  502 -0.12135167575E+04 -0.45446946114E+03 -0.19664607513E+03  0.13106620810E+04  0.25500000920E-02 0. -1.
</event>
<event>
 5   0  0.3849687E-05  0.2595353E+04  0.7818609E-02  0.8369782E-01
        2   -1    0    0  501    0  0.00000000000E+00  0.00000000000E+00  0.99494462749E+03  0.99494462750E+03  0.25500000920E-02 0. -1.
       -2   -1    0    0    0  501  0.00000000000E+00  0.00000000000E+00 -0.16925201494E+04  0.16925201494E+04  0.25500000920E-02 0.  1.
    10030    2    1    2    0    0  0.00000000000E+00  0.00000000000E+00 -0.69757552190E+03  0.26874647769E+04  0.25953526385E+04 0.  0.
        1    1    3    3  502    0 -0.25390577340E+03  0.12487412801E+04 -0.94847607055E+02  0.12778180602E+04  0.50400001928E-02 0. -1.
       -1    1    3    3    0  502  0.25390577340E+03 -0.12487412801E+04 -0.60272791485E+03  0.14096467167E+04  0.50400001928E-02 0.  1.
</event>
<event>
 5   0  0.1474554E-05  0.2664555E+04  0.7818609E-02  0.8346598E-01
       -1   -1    0    0    0  501  0.00000000000E+00  0.00000000000E+00  0.75972093976E+03  0.75972093978E+03  0.50400001928E-02 0. -1.
        1   -1    0    0  501    0  0.00000000000E+00  0.00000000000E+00 -0.23363367126E+04  0.23363367126E+04  0.50400001928E-02 0.  1.
    10030    2    1    2    0    0  0.00000000000E+00  0.00000000000E+00 -0.15766157728E+04  0.30960576523E+04  0.26645554398E+04 0.  0.
        5    1    3    3  502    0 -0.18120712204E+03 -0.10903445866E+04 -0.16525725439E+04  0.19881412026E+04  0.46999998093E+01 0.  1.
       -5    1    3    3    0  502  0.18120712204E+03  0.10903445866E+04  0.75956771075E+02  0.11079164498E+04  0.46999998093E+01 0. -1.
</event>
<event>
 5   0  0.3508470E-05  0.2675292E+04  0.7818609E-02  0.8343067E-01
       -2   -1    0    0    0  501  0.00000000000E+00  0.00000000000E+00  0.95832530327E+03  0.95832530327E+03  0.25500000920E-02 0.  1.
        2   -1    0    0  501    0  0.00000000000E+00  0.00000000000E+00 -0.18671074420E+04  0.18671074420E+04  0.25500000920E-02 0. -1.
    10030    2    1    2    0    0  0.00000000000E+00  0.00000000000E+00 -0.90878213869E+03  0.28254327452E+04  0.26752916144E+04 0.  0.
        5    1    3    3  502    0  0.10738273154E+04 -0.79730318151E+03 -0.43133109830E+03  0.14052992823E+04  0.46999998093E+01 0. -1.
       -5    1    3    3    0  502 -0.10738273154E+04  0.79730318151E+03 -0.47745104039E+03  0.14201334629E+04  0.46999998093E+01 0.  1.
</event>
<event>
 5   0  0.1497497E-05  0.2410982E+04  0.7818609E-02  0.8435403E-01
       -1   -1    0    0    0  501  0.00000000000E+00  0.00000000000E+00  0.60544579259E+03  0.60544579261E+03  0.50400001928E-02 0. -1.
        1   -1    0    0  501    0  0.00000000000E+00  0.00000000000E+00 -0.24002293055E+04  0.24002293055E+04  0.50400001928E-02 0.  1.
    10030    2    1    2    0    0  0.00000000000E+00  0.00000000000E+00 -0.17947835129E+04  0.30056750981E+04  0.24109821520E+04 0.  0.
        3    1    3    3  502    0  0.10437618721E+04  0.60210968850E+03 -0.94118132576E+03  0.15289856837E+04  0.10100000352E+00 0.  1.
       -3    1    3    3    0  502 -0.10437618721E+04 -0.60210968850E+03 -0.85360218713E+03  0.14766894144E+04  0.10100000352E+00 0. -1.
</event>
<event>
 5   0  0.3499642E-05  0.2560721E+04  0.7818609E-02  0.8381667E-01
       -2   -1    0    0    0  501  0.00000000000E+00  0.00000000000E+00  0.14177872634E+04  0.14177872634E+04  0.25500000920E-02 0. -1.
        2   -1    0    0  501    0  0.00000000000E+00  0.00000000000E+00 -0.11562549028E+04  0.11562549028E+04  0.25500000920E-02 0.  1.
    10030    2    1    2    0    0  0.00000000000E+00  0.00000000000E+00  0.26153236058E+03  0.25740421662E+04  0.25607213628E+04 0.  0.
        2    1    3    3  502    0  0.68881797241E+02  0.10321491954E+04 -0.62764309453E+03  0.12099638497E+04  0.25500000920E-02 0.  1.
       -2    1    3    3    0  502 -0.68881797241E+02 -0.10321491954E+04  0.88917545511E+03  0.13640783165E+04  0.25500000920E-02 0. -1.
</event>
<event>
 5   0  0.1533248E-05  0.2595106E+04  0.7818609E-02  0.8369865E-01
        1   -1    0    0  501    0  0.00000000000E+00  0.00000000000E+00  0.27456841321E+04  0.27456841321E+04  0.50400001928E-02 0. -1.
       -1   -1    0    0    0  501  0.00000000000E+00  0.00000000000E+00 -0.61319642414E+03  0.61319642416E+03  0.50400001928E-02 0.  1.
    10030    2    1    2    0    0  0.00000000000E+00  0.00000000000E+00  0.21324877079E+04  0.33588805562E+04  0.25951059259E+04 0.  0.
        4    1    3    3  502    0 -0.20522302640E+03  0.99367170158E+01  0.27244947382E+04  0.27322313995E+04  0.12699999809E+01 0. -1.
       -4    1    3    3    0  502  0.20522302640E+03 -0.99367170158E+01 -0.59200703026E+03  0.62664915677E+03  0.12699999809E+01 0.  1.
</event>
<event>
 5   0  0.1474554E-05  0.2631626E+04  0.7818609E-02  0.8357537E-01
       -1   -1    0    0    0  501  0.00000000000E+00  0.00000000000E+00  0.74155769997E+03  0.74155769999E+03  0.50400001928E-02 0.  1.
        1   -1    0    0  501    0  0.00000000000E+00  0.00000000000E+00 -0.23347665132E+04  0.23347665132E+04  0.50400001928E-02 0. -1.
    10030    2    1    2    0    0  0.00000000000E+00  0.00000000000E+00 -0.15932088132E+04  0.30763242132E+04  0.26316261783E+04 0.  0.
        5    1    3    3  502    0 -0.77823501749E-01 -0.97377306091E+03  0.23786759400E+03  0.10024156136E+04  0.46999998093E+01 0.  1.
       -5    1    3    3    0  502  0.77823501749E-01  0.97377306091E+03 -0.18310764072E+04  0.20739085996E+04  0.46999998093E+01 0. -1.
</event>
<event>
 5   0  0.1451052E-05  0.2983977E+04  0.7818609E-02  0.8248321E-01
        1   -1    0    0  501    0  0.00000000000E+00  0.00000000000E+00  0.15715402068E+04  0.15715402068E+04  0.50400001928E-02 0.  1.
       -1   -1    0    0    0  501  0.00000000000E+00  0.00000000000E+00 -0.14164640218E+04  0.14164640218E+04  0.50400001928E-02 0. -1.
    10030    2    1    2    0    0  0.00000000000E+00  0.00000000000E+00  0.15507618502E+03  0.29880042286E+04  0.29839773201E+04 0.  0.
        1    1    3    3  502    0  0.12267542778E+04 -0.52512563326E+03  0.74578204890E+03  0.15286836996E+04  0.50400001928E-02 0.  1.
       -1    1    3    3    0  502 -0.12267542778E+04  0.52512563326E+03 -0.59070586387E+03  0.14593205290E+04  0.50400001928E-02 0. -1.
</event>
<event>
 5   0  0.1435062E-05  0.2712790E+04  0.7818609E-02  0.8330867E-01
       -1   -1    0    0    0  501  0.00000000000E+00  0.00000000000E+00  0.10541101256E+04  0.10541101256E+04  0.50400001928E-02 0.  1.
        1   -1    0    0  501    0  0.00000000000E+00  0.00000000000E+00 -0.17453657153E+04  0.17453657153E+04  0.50400001928E-02 0. -1.
    10030    2    1    2    0    0  0.00000000000E+00  0.00000000000E+00 -0.69125558975E+03  0.27994758409E+04  0.27127902045E+04 0.  0.
        2    1    3    3  502    0 -0.23099433874E+02 -0.74363003853E+03 -0.15160153662E+04  0.16887337886E+04  0.25500000920E-02 0. -1.
       -2    1    3    3    0  502  0.23099433874E+02  0.74363003853E+03  0.82475977646E+03  0.11107420524E+04  0.25500000920E-02 0.  1.
</event>
<event>
 5   0  0.3647623E-05  0.2618222E+04  0.7818609E-02  0.8362038E-01
        2   -1    0    0  501    0  0.00000000000E+00  0.00000000000E+00  0.15492551300E+04  0.15492551300E+04  0.25500000920E-02 0.  1.
       -2   -1    0    0    0  501  0.00000000000E+00  0.00000000000E+00 -0.11061910853E+04  0.11061910853E+04  0.25500000920E-02 0. -1.
    10030    2    1    2    0    0  0.00000000000E+00  0.00000000000E+00  0.44306404465E+03  0.26554462153E+04  0.26182224609E+04 0.  0.
        3    1    3    3  502    0 -0.12501641955E+04 -0.34819466147E+03  0.39608986577E+03  0.13568482708E+04  0.10100000352E+00 0. -1.
       -3    1    3    3    0  502  0.12501641955E+04  0.34819466147E+03  0.46974178884E+02  0.12985979446E+04  0.10100000352E+00 0.  1.
</event>
<event>
 5   0  0.3849687E-05  0.2608416E+04  0.7818609E-02  0.8365348E-01
       -2   -1    0    0    0  501  0.00000000000E+00  0.00000000000E+00  0.94947923542E+03  0.94947923542E+03  0.25500000920E-02 0.  1.
        2   -1    0    0  501    0  0.00000000000E+00  0.00000000000E+00 -0.17914641186E+04  0.17914641186E+04  0.25500000920E-02 0. -1.
    10030    2    1    2    0    0  0.00000000000E+00  0.00000000000E+00 -0.84198488321E+03  0.27409433541E+04  0.26084155970E+04 0.  0.
        1    1    3    3  502    0 -0.78451332516E+03 -0.26306446797E+03  0.63834161191E+03  0.10450569770E+04  0.50400001928E-02 0.  1.
       -1    1    3    3    0  502  0.78451332516E+03  0.26306446797E+03 -0.14803264951E+04  0.16958863770E+04  0.50400001928E-02 0. -1.
</event>
<event>
 5   0  0.1435062E-05  0.2572717E+04  0.7818609E-02  0.8377528E-01
        1   -1    0    0  501    0  0.00000000000E+00  0.00000000000E+00  0.17576855413E+04  0.17576855413E+04  0.50400001928E-02 0.  1.
       -1   -1    0    0    0  501  0.00000000000E+00  0.00000000000E+00 -0.94141909097E+03  0.94141909099E+03  0.50400001928E-02 0. -1.
    10030    2    1    2    0    0  0.00000000000E+00  0.00000000000E+00  0.81626645033E+03  0.26991046323E+04  0.25727174151E+04 0.  0.
        2    1    3    3  502    0  0.10147900785E+04  0.72548415784E+03  0.73755302675E+03  0.14491758464E+04  0.25500000920E-02 0.  1.
       -2    1    3    3    0  502 -0.10147900785E+04 -0.72548415784E+03  0.78713423585E+02  0.12499287859E+04  0.25500000920E-02 0. -1.
</event>
<event>
 5   0  0.1533248E-05  0.2594107E+04  0.7818609E-02  0.8370206E-01
       -1   -1    0    0    0  501  0.00000000000E+00  0.00000000000E+00  0.72438554568E+03  0.72438554570E+03  0.50400001928E-02 0.  1.
        1   -1    0    0  501    0  0.00000000000E+00  0.00000000000E+00 -0.23224477593E+04  0.23224477593E+04  0.50400001928E-02 0. -1.
    10030    2    1    2    0    0  0.00000000000E+00  0.00000000000E+00 -0.15980622136E+04  0.30468333050E+04  0.25941068501E+04 0.  0.
        4    1    3    3  502    0  0.10264168332E+04 -0.69115688704E+03 -0.12556111704E+04  0.17628926179E+04  0.12699999809E+01 0. -1.
       -4    1    3    3    0  502 -0.10264168332E+04  0.69115688704E+03 -0.34245104316E+03  0.12839406871E+04  0.12699999809E+01 0.  1.
</event>
<event>
 5   0  0.1497497E-05  0.2547602E+04  0.7818609E-02  0.8386221E-01
       -1   -1    0    0    0  501  0.00000000000E+00  0.00000000000E+00  0.79808453426E+03  0.79808453428E+03  0.50400001928E-02 0. -1.
        1   -1    0    0  501    0  0.00000000000E+00  0.00000000000E+00 -0.20330786121E+04  0.20330786121E+04  0.50400001928E-02 0.  1.
    10030    2    1    2    0    0  0.00000000000E+00  0.00000000000E+00 -0.12349940778E+04  0.28311631464E+04  0.25476016936E+04 0.  0.
        3    1    3    3  502    0  0.10011849349E+04 -0.85696908216E+02  0.25248773291E+03  0.10360817050E+04  0.10100000352E+00 0. -1.
       -3    1    3    3    0  502 -0.10011849349E+04  0.85696908216E+02 -0.14874818107E+04  0.17950814414E+04  0.10100000352E+00 0.  1.
</event>
<event>
 5   0  0.1533248E-05  0.2415302E+04  0.7818609E-02  0.8433797E-01
        1   -1    0    0  501    0  0.00000000000E+00  0.00000000000E+00  0.18376963612E+04  0.18376963612E+04  0.50400001928E-02 0. -1.
       -1   -1    0    0    0  501  0.00000000000E+00  0.00000000000E+00 -0.79361390128E+03  0.79361390130E+03  0.50400001928E-02 0.  1.
    10030    2    1    2    0    0  0.00000000000E+00  0.00000000000E+00  0.10440824599E+04  0.26313102625E+04  0.24153023650E+04 0.  0.
        4    1    3    3  502    0 -0.92226274068E+03 -0.68597265599E+03  0.92570921292E+03  0.14758272959E+04  0.12699999809E+01 0. -1.
       -4    1    3    3    0  502  0.92226274068E+03  0.68597265599E+03  0.11837324702E+03  0.11554829666E+04  0.12699999809E+01 0.  1.
</event>
<event>
 5   0  0.3499642E-05  0.2584967E+04  0.7818609E-02  0.8373326E-01
        2   -1    0    0  501    0  0.00000000000E+00  0.00000000000E+00  0.17063028288E+04  0.17063028288E+04  0.25500000920E-02 0. -1.
       -2   -1    0    0    0  501  0.00000000000E+00  0.00000000000E+00 -0.97902502223E+03  0.97902502223E+03  0.25500000920E-02 0.  1.
    10030    2    1    2    0    0  0.00000000000E+00  0.00000000000E+00  0.72727780655E+03  0.26853278510E+04  0.25849666651E+04 0.  0.
        2    1    3    3  502    0 -0.92538230551E+03  0.19702823327E+02  0.13007675734E+04  0.15964701352E+04  0.25500000920E-02 0. -1.
       -2    1    3    3    0  502  0.92538230551E+03 -0.19702823327E+02 -0.57348976684E+03  0.10888577158E+04  0.25500000920E-02 0.  1.
</event>
<event>
 5   0  0.3849687E-05  0.2543868E+04  0.7818609E-02  0.8387522E-01
       -2   -1    0    0    0  501  0.00000000000E+00  0.00000000000E+00  0.88692351265E+03  0.88692351266E+03  0.25500000920E-02 0.  1.
        2   -1    0    0  501    0  0.00000000000E+00  0.00000000000E+00 -0.18240767022E+04  0.18240767022E+04  0.25500000920E-02 0. -1.
    10030    2    1    2    0    0  0.00000000000E+00  0.00000000000E+00 -0.93715318956E+03  0.27110002149E+04  0.25438683268E+04 0.  0.
        1    1    3    3  502    0  0.38533647276E+03 -0.41070092730E+03  0.74681527392E+03  0.93535688499E+03  0.50400001928E-02 0.  1.
       -1    1    3    3    0  502 -0.38533647276E+03  0.41070092730E+03 -0.16839684635E+04  0.17756433299E+04  0.50400001928E-02 0. -1.
</event>
<event>
 5   0  0.1451052E-05  0.2017382E+04  0.7818609E-02  0.8598537E-01
        1   -1    0    0  501    0  0.00000000000E+00  0.00000000000E+00  0.67423056252E+03  0.67423056254E+03  0.50400001928E-02 0.  1.
       -1   -1    0    0    0  501  0.00000000000E+00  0.00000000000E+00 -0.15090641331E+04  0.15090641331E+04  0.50400001928E-02 0. -1.
    10030    2    1    2    0    0  0.00000000000E+00  0.00000000000E+00 -0.83483357055E+03  0.21832946956E+04  0.20173816291E+04 0.  0.
        1    1    3    3  502    0 -0.21673491696E+02  0.92342210801E+03 -0.85606398604E+03  0.12593743201E+04  0.50400001928E-02 0. -1.
       -1    1    3    3    0  502  0.21673491696E+02 -0.92342210801E+03  0.21230415490E+02  0.92392037556E+03  0.50400001928E-02 0.  1.
</event>
<event>
 5   0  0.3499642E-05  0.2591028E+04  0.7818609E-02  0.8371255E-01
       -2   -1    0    0    0  501  0.00000000000E+00  0.00000000000E+00  0.16490259094E+04  0.16490259094E+04  0.25500000920E-02 0.  1.
        2   -1    0    0  501    0  0.00000000000E+00  0.00000000000E+00 -0.10177866576E+04  0.10177866576E+04  0.25500000920E-02 0. -1.
    10030    2    1    2    0    0  0.00000000000E+00  0.00000000000E+00  0.63123925179E+03  0.26668125671E+04  0.25910280344E+04 0.  0.
        2    1    3    3  502    0 -0.65037310414E+03 -0.95453487388E+02  0.14646320207E+04  0.16053795498E+04  0.25500000920E-02 0.  1.
       -2    1    3    3    0  502  0.65037310414E+03  0.95453487388E+02 -0.83339276893E+03  0.10614330173E+04  0.25500000920E-02 0. -1.
</event>
<event>
 5   0  0.1497497E-05  0.2598174E+04  0.7818609E-02  0.8368822E-01
        1   -1    0    0  501    0  0.00000000000E+00  0.00000000000E+00  0.86755731105E+03  0.86755731107E+03  0.50400001928E-02 0.  1.
       -1   -1    0    0    0  501  0.00000000000E+00  0.00000000000E+00 -0.19452621362E+04  0.19452621362E+04  0.50400001928E-02 0. -1.
    10030    2    1    2    0    0  0.00000000000E+00  0.00000000000E+00 -0.10777048252E+04  0.28128194473E+04  0.25981735032E+04 0.  0.
        3    1    3    3  502    0 -0.29829193044E+03  0.95155576172E+03 -0.14402156281E+04  0.17517584048E+04  0.10100000352E+00 0. -1.
       -3    1    3    3    0  502  0.29829193044E+03 -0.95155576172E+03  0.36251080288E+03  0.10610610425E+04  0.10100000352E+00 0.  1.
</event>
<event>
 5   0  0.3849687E-05  0.2610319E+04  0.7818609E-02  0.8364704E-01
       -2   -1    0    0    0  501  0.00000000000E+00  0.00000000000E+00  0.83165931950E+03  0.83165931951E+03  0.25500000920E-02 0.  1.
        2   -1    0    0  501    0  0.00000000000E+00  0.00000000000E+00 -0.20482447559E+04  0.20482447559E+04  0.25500000920E-02 0. -1.
    10030    2    1    2    0    0  0.00000000000E+00  0.00000000000E+00 -0.12165854364E+04  0.28799040754E+04  0.26103193980E+04 0.  0.
        1    1    3    3  502    0  0.12318521399E+04  0.36165201155E+03 -0.34910498592E+03  0.13304608838E+04  0.50400001928E-02 0.  1.
       -1    1    3    3    0  502 -0.12318521399E+04 -0.36165201155E+03 -0.86748045048E+03  0.15494431916E+04  0.50400001928E-02 0. -1.
</event>
<event>
 5   0  0.1497497E-05  0.2602711E+04  0.7818609E-02  0.8367281E-01
       -1   -1    0    0    0  501  0.00000000000E+00  0.00000000000E+00  0.24002753681E+04  0.24002753681E+04  0.50400001928E-02 0. -1.
        1   -1    0    0  501    0  0.00000000000E+00  0.00000000000E+00 -0.70555471175E+03  0.70555471177E+03  0.50400001928E-02 0.  1.
    10030    2    1    2    0    0  0.00000000000E+00  0.00000000000E+00  0.16947206563E+04  0.31058300799E+04  0.26027105836E+04 0.  0.
        3    1    3    3  502    0 -0.66620406129E+03  0.10549910560E+04  0.12885473580E+04  0.17936522192E+04  0.10100000352E+00 0. -1.
       -3    1    3    3    0  502  0.66620406129E+03 -0.10549910560E+04  0.40617329831E+03  0.13121778606E+04  0.10100000352E+00 0.  1.
</event>
<event>
 5   0  0.3508470E-05  0.2572106E+04  0.7818609E-02  0.8377738E-01
        2   -1    0    0  501    0  0.00000000000E+00  0.00000000000E+00  0.91561899494E+03  0.91561899494E+03  0.25500000920E-02 0.  1.
       -2   -1    0    0    0  501  0.00000000000E+00  0.00000000000E+00 -0.18063546339E+04  0.18063546339E+04  0.25500000920E-02 0. -1.
    10030    2    1    2    0    0  0.00000000000E+00  0.00000000000E+00 -0.89073563898E+03  0.27219736289E+04  0.25721062299E+04 0.  0.
        5    1    3    3  502    0  0.11810092875E+04 -0.19599844373E+03 -0.94254155659E+03  0.15236813981E+04  0.46999998093E+01 0. -1.
       -5    1    3    3    0  502 -0.11810092875E+04  0.19599844373E+03  0.51805917611E+02  0.11982922307E+04  0.46999998093E+01 0.  1.
</event>
<event>
 5   0  0.3849687E-05  0.2594709E+04  0.7818609E-02  0.8370001E-01
       -2   -1    0    0    0  501  0.00000000000E+00  0.00000000000E+00  0.71984475820E+03  0.71984475821E+03  0.25500000920E-02 0. -1.
        2   -1    0    0  501    0  0.00000000000E+00  0.00000000000E+00 -0.23381828569E+04  0.23381828569E+04  0.25500000920E-02 0.  1.
    10030    2    1    2    0    0  0.00000000000E+00  0.00000000000E+00 -0.16183380987E+04  0.30580276151E+04  0.25947089804E+04 0.  0.
        1    1    3    3  502    0 -0.64504480673E+03 -0.15830661090E+03  0.50427296287E+03  0.83392745899E+03  0.50400001928E-02 0. -1.
       -1    1    3    3    0  502  0.64504480673E+03  0.15830661090E+03 -0.21226110616E+04  0.22241001561E+04  0.50400001928E-02 0.  1.
</event>
<event>
 5   0  0.1435062E-05  0.2526950E+04  0.7818609E-02  0.8393447E-01
       -1   -1    0    0    0  501  0.00000000000E+00  0.00000000000E+00  0.77680914839E+03  0.77680914841E+03  0.50400001928E-02 0.  1.
        1   -1    0    0  501    0  0.00000000000E+00  0.00000000000E+00 -0.20550340308E+04  0.20550340308E+04  0.50400001928E-02 0. -1.
    10030    2    1    2    0    0  0.00000000000E+00  0.00000000000E+00 -0.12782248824E+04  0.28318431792E+04  0.25269501264E+04 0.  0.
        2    1    3    3  502    0  0.12473988726E+04 -0.20039130158E+03 -0.62292625221E+03  0.14086155390E+04  0.25500000920E-02 0. -1.
       -2    1    3    3    0  502 -0.12473988726E+04  0.20039130158E+03 -0.65529863015E+03  0.14232276402E+04  0.25500000920E-02 0.  1.
</event>
<event>
 5   0  0.3499642E-05  0.2621972E+04  0.7818609E-02  0.8360776E-01
        2   -1    0    0  501    0  0.00000000000E+00  0.00000000000E+00  0.15052501470E+04  0.15052501470E+04  0.25500000920E-02 0.  1.
       -2   -1    0    0    0  501  0.00000000000E+00  0.00000000000E+00 -0.11417931012E+04  0.11417931012E+04  0.25500000920E-02 0. -1.
    10030    2    1    2    0    0  0.00000000000E+00  0.00000000000E+00  0.36345704581E+03  0.26470432482E+04  0.26219719551E+04 0.  0.
        2    1    3    3  502    0 -0.10029878089E+04 -0.42352707851E+02  0.10329431256E+04  0.14403991798E+04  0.25500000920E-02 0.  1.
       -2    1    3    3    0  502  0.10029878089E+04  0.42352707851E+02 -0.66948607976E+03  0.12066440683E+04  0.25500000920E-02 0. -1.
</event>
<event>
 5   0  0.3849687E-05  0.2559417E+04  0.7818609E-02  0.8382119E-01
       -2   -1    0    0    0  501  0.00000000000E+00  0.00000000000E+00  0.71352335121E+03  0.71352335121E+03  0.25500000920E-02 0.  1.
        2   -1    0    0  501    0  0.00000000000E+00  0.00000000000E+00 -0.22951642568E+04  0.22951642568E+04  0.25500000920E-02 0. -1.
    10030    2    1    2    0    0  0.00000000000E+00  0.00000000000E+00 -0.15816409056E+04  0.30086876080E+04  0.25594165680E+04 0.  0.
        1    1    3    3  502    0  0.12147286324E+03 -0.12477732460E+04 -0.10927287175E+04  0.16630543527E+04  0.50400001928E-02 0. -1.
       -1    1    3    3    0  502 -0.12147286324E+03  0.12477732460E+04 -0.48891218806E+03  0.13456332553E+04  0.50400001928E-02 0.  1.
</event>
<event>
 5   0  0.1435062E-05  0.2625862E+04  0.7818609E-02  0.8359469E-01
        1   -1    0    0  501    0  0.00000000000E+00  0.00000000000E+00  0.19013736418E+04  0.19013736418E+04  0.50400001928E-02 0. -1.
       -1   -1    0    0    0  501  0.00000000000E+00  0.00000000000E+00 -0.90660114370E+03  0.90660114372E+03  0.50400001928E-02 0.  1.
    10030    2    1    2    0    0  0.00000000000E+00  0.00000000000E+00  0.99477249811E+03  0.28079747855E+04  0.26258617772E+04 0.  0.
        2    1    3    3  502    0 -0.11332230476E+04 -0.55510993383E+03  0.88508556644E+03  0.15413364247E+04  0.25500000920E-02 0. -1.
       -2    1    3    3    0  502  0.11332230476E+04  0.55510993383E+03  0.10968693167E+03  0.12666383608E+04  0.25500000920E-02 0.  1.
</event>
<event>
 5   0  0.1533248E-05  0.2577116E+04  0.7818609E-02  0.8376016E-01
       -1   -1    0    0    0  501  0.00000000000E+00  0.00000000000E+00  0.10142931249E+04  0.10142931249E+04  0.50400001928E-02 0.  1.
        1   -1    0    0  501    0  0.00000000000E+00  0.00000000000E+00 -0.16369841530E+04  0.16369841530E+04  0.50400001928E-02 0. -1.
    10030    2    1    2    0    0  0.00000000000E+00  0.00000000000E+00 -0.62269102810E+03  0.26512772778E+04  0.25771160407E+04 0.  0.
        4    1    3    3  502    0  0.28418555092E+03  0.51914693215E+03 -0.14888816946E+04  0.16022001367E+04  0.12699999809E+01 0. -1.
       -4    1    3    3    0  502 -0.28418555092E+03 -0.51914693215E+03  0.86619066649E+03  0.10490771412E+04  0.12699999809E+01 0.  1.
</event>
<event>
 5   0  0.3508470E-05  0.1688475E+04  0.7818609E-02  0.8767965E-01
       -2   -1    0    0    0  501  0.00000000000E+00  0.00000000000E+00  0.86320970498E+03  0.86320970498E+03  0.25500000920E-02 0.  1.
        2   -1    0    0  501    0  0.00000000000E+00  0.00000000000E+00 -0.82568225508E+03  0.82568225509E+03  0.25500000920E-02 0. -1.
    10030    2    1    2    0    0  0.00000000000E+00  0.00000000000E+00  0.37527449897E+02  0.16888919601E+04  0.16884749756E+04 0.  0.
        5    1    3    3  502    0  0.51567912167E+02 -0.49467979804E+03  0.70109602358E+03  0.85960751301E+03  0.46999998093E+01 0.  1.
       -5    1    3    3    0  502 -0.51567912167E+02  0.49467979804E+03 -0.66356857368E+03  0.82928444706E+03  0.46999998093E+01 0. -1.
</event>
<event>
 5   0  0.1474554E-05  0.2565548E+04  0.7818609E-02  0.8379999E-01
       -1   -1    0    0    0  501  0.00000000000E+00  0.00000000000E+00  0.13525891376E+04  0.13525891376E+04  0.50400001928E-02 0.  1.
        1   -1    0    0  501    0  0.00000000000E+00  0.00000000000E+00 -0.12165619653E+04  0.12165619653E+04  0.50400001928E-02 0. -1.
    10030    2    1    2    0    0  0.00000000000E+00  0.00000000000E+00  0.13602717229E+03  0.25691511029E+04  0.25655475045E+04 0.  0.
        5    1    3    3  502    0 -0.24129210768E+03  0.48158687106E+03 -0.10978117598E+04  0.12228493552E+04  0.46999998093E+01 0. -1.
       -5    1    3    3    0  502  0.24129210768E+03 -0.48158687106E+03  0.12338389321E+04  0.13463017477E+04  0.46999998093E+01 0.  1.
</event>
<event>
 5   0  0.1497497E-05  0.2633382E+04  0.7818609E-02  0.8356950E-01
       -1   -1    0    0    0  501  0.00000000000E+00  0.00000000000E+00  0.80912745636E+03  0.80912745638E+03  0.50400001928E-02 0. -1.
        1   -1    0    0  501    0  0.00000000000E+00  0.00000000000E+00 -0.21426482285E+04  0.21426482285E+04  0.50400001928E-02 0.  1.
    10030    2    1    2    0    0  0.00000000000E+00  0.00000000000E+00 -0.13335207721E+04  0.29517756849E+04  0.26333822442E+04 0.  0.
        3    1    3    3  502    0  0.12360176433E+03 -0.31638017050E+03  0.75917285107E+03  0.83169539884E+03  0.10100000352E+00 0. -1.
       -3    1    3    3    0  502 -0.12360176433E+03  0.31638017050E+03 -0.20926936232E+04  0.21200802860E+04  0.10100000352E+00 0.  1.
</event>
<event>
 5   0  0.3647623E-05  0.2663460E+04  0.7818609E-02  0.8346959E-01
        2   -1    0    0  501    0  0.00000000000E+00  0.00000000000E+00  0.11476234017E+04  0.11476234017E+04  0.25500000920E-02 0. -1.
       -2   -1    0    0    0  501  0.00000000000E+00  0.00000000000E+00 -0.15453723165E+04  0.15453723165E+04  0.25500000920E-02 0.  1.
    10030    2    1    2    0    0  0.00000000000E+00  0.00000000000E+00 -0.39774891486E+03  0.26929957182E+04  0.26634604819E+04 0.  0.
        3    1    3    3  502    0 -0.11540338947E+03 -0.55409737933E+03 -0.14177143417E+04  0.15265175443E+04  0.10100000352E+00 0.  1.
       -3    1    3    3    0  502  0.11540338947E+03  0.55409737933E+03  0.10199654268E+04  0.11664781739E+04  0.10100000352E+00 0. -1.
</event>
<event>
 5   0  0.3508470E-05  0.1616611E+04  0.7818609E-02  0.8810408E-01
       -2   -1    0    0    0  501  0.00000000000E+00  0.00000000000E+00  0.68988328310E+03  0.68988328311E+03  0.25500000920E-02 0. -1.
        2   -1    0    0  501    0  0.00000000000E+00  0.00000000000E+00 -0.94705563581E+03  0.94705563581E+03  0.25500000920E-02 0.  1.
    10030    2    1    2    0    0  0.00000000000E+00  0.00000000000E+00 -0.25717235270E+03  0.16369389189E+04  0.16166110866E+04 0.  0.
        5    1    3    3  502    0 -0.63689318290E+03 -0.23795173356E+03 -0.57121184087E+03  0.88800845215E+03  0.46999998093E+01 0.  1.
       -5    1    3    3    0  502  0.63689318290E+03  0.23795173356E+03  0.31403948817E+03  0.74893046677E+03  0.46999998093E+01 0. -1.
</event>
<event>
 5   0  0.1474554E-05  0.2563416E+04  0.7818609E-02  0.8380735E-01
       -1   -1    0    0    0  501  0.00000000000E+00  0.00000000000E+00  0.66921736570E+03  0.66921736572E+03  0.50400001928E-02 0. -1.
        1   -1    0    0  501    0  0.00000000000E+00  0.00000000000E+00 -0.24547711903E+04  0.24547711903E+04  0.50400001928E-02 0.  1.
    10030    2    1    2    0    0  0.00000000000E+00  0.00000000000E+00 -0.17855538246E+04  0.31239885560E+04  0.25634160875E+04 0.  0.
        5    1    3    3  502    0  0.34288659772E+03 -0.11158158892E+04 -0.24775325334E+03  0.11933231256E+04  0.46999998093E+01 0. -1.
       -5    1    3    3    0  502 -0.34288659772E+03  0.11158158892E+04 -0.15378005712E+04  0.19306654304E+04  0.46999998093E+01 0.  1.
</event>
<event>
 5   0  0.1435062E-05  0.2671062E+04  0.7818609E-02  0.8344456E-01
       -1   -1    0    0    0  501  0.00000000000E+00  0.00000000000E+00  0.12602794757E+04  0.12602794757E+04  0.50400001928E-02 0.  1.
        1   -1    0    0  501    0  0.00000000000E+00  0.00000000000E+00 -0.14152753167E+04  0.14152753167E+04  0.50400001928E-02 0. -1.
    10030    2    1    2    0    0  0.00000000000E+00  0.00000000000E+00 -0.15499584104E+03  0.26755547924E+04  0.26710615374E+04 0.  0.
        2    1    3    3  502    0  0.10142766975E+04  0.45048688979E+03  0.66668304326E+03  0.12946667282E+04  0.25500000920E-02 0.  1.
       -2    1    3    3    0  502 -0.10142766975E+04 -0.45048688979E+03 -0.82167888430E+03  0.13808880642E+04  0.25500000920E-02 0. -1.
</event>
<event>
 5   0  0.3441646E-05  0.1649282E+04  0.7818609E-02  0.8790831E-01
       -2   -1    0    0    0  501  0.00000000000E+00  0.00000000000E+00  0.91045267552E+03  0.91045267552E+03  0.25500000920E-02 0. -1.
        2   -1    0    0  501    0  0.00000000000E+00  0.00000000000E+00 -0.74691710899E+03  0.74691710900E+03  0.25500000920E-02 0.  1.
    10030    2    1    2    0    0  0.00000000000E+00  0.00000000000E+00  0.16353556652E+03  0.16573697845E+04  0.16492818804E+04 0.  0.
        4    1    3    3  502    0  0.23631596550E+03  0.25250169057E+03  0.83405680479E+03  0.90291456175E+03  0.12699999809E+01 0. -1.
       -4    1    3    3    0  502 -0.23631596550E+03 -0.25250169057E+03 -0.67052123827E+03  0.75445522277E+03  0.12699999809E+01 0.  1.
</event>
<event>
 5   0  0.3508470E-05  0.2652016E+04  0.7818609E-02  0.8350744E-01
       -2   -1    0    0    0  501  0.00000000000E+00  0.00000000000E+00  0.13211278160E+04  0.13211278160E+04  0.25500000920E-02 0. -1.
        2   -1    0    0  501    0  0.00000000000E+00  0.00000000000E+00 -0.13309062320E+04  0.13309062320E+04  0.25500000920E-02 0.  1.
    10030    2    1    2    0    0  0.00000000000E+00  0.00000000000E+00 -0.97784160531E+01  0.26520340480E+04  0.26520160208E+04 0.  0.
        5    1    3    3  502    0 -0.44805408048E+03 -0.21555152327E+03 -0.12341494646E+04  0.13305494765E+04  0.46999998093E+01 0.  1.
       -5    1    3    3    0  502  0.44805408048E+03  0.21555152327E+03  0.12243710486E+04  0.13214845716E+04  0.46999998093E+01 0. -1.
</event>
<event>
 5   0  0.1451052E-05  0.2769911E+04  0.7818609E-02  0.8312671E-01
       -1   -1    0    0    0  501  0.00000000000E+00  0.00000000000E+00  0.13552031648E+04  0.13552031648E+04  0.50400001928E-02 0. -1.
        1   -1    0    0  501    0  0.00000000000E+00  0.00000000000E+00 -0.14153611201E+04  0.14153611201E+04  0.50400001928E-02 0.  1.
    10030    2    1    2    0    0  0.00000000000E+00  0.00000000000E+00 -0.60157955326E+02  0.27705642849E+04  0.27699110956E+04 0.  0.
        1    1    3    3  502    0  0.17711028596E+03  0.13464554475E+04  0.24163107045E+03  0.13793824342E+04  0.50400001928E-02 0. -1.
       -1    1    3    3    0  502 -0.17711028596E+03 -0.13464554475E+04 -0.30178902578E+03  0.13911818507E+04  0.50400001928E-02 0.  1.
</event>
<event>
 5   0  0.3499642E-05  0.2343119E+04  0.7818609E-02  0.8461112E-01
       -2   -1    0    0    0  501  0.00000000000E+00  0.00000000000E+00  0.91445504932E+03  0.91445504933E+03  0.25500000920E-02 0.  1.
        2   -1    0    0  501    0  0.00000000000E+00  0.00000000000E+00 -0.15009497646E+04  0.15009497646E+04  0.25500000920E-02 0. -1.
    10030    2    1    2    0    0  0.00000000000E+00  0.00000000000E+00 -0.58649471525E+03  0.24154048139E+04  0.23431185126E+04 0.  0.
        2    1    3    3  502    0 -0.34439154218E+03 -0.11090155139E+04 -0.13344842181E+03  0.11689009477E+04  0.25500000920E-02 0. -1.
       -2    1    3    3    0  502  0.34439154218E+03  0.11090155139E+04 -0.45304629344E+03  0.12465038662E+04  0.25500000920E-02 0.  1.
</event>
<event>
 5   0  0.1435062E-05  0.2596880E+04  0.7818609E-02  0.8369262E-01
       -1   -1    0    0    0  501  0.00000000000E+00  0.00000000000E+00  0.16033548575E+04  0.16033548575E+04  0.50400001928E-02 0. -1.
        1   -1    0    0  501    0  0.00000000000E+00  0.00000000000E+00 -0.10515116022E+04  0.10515116022E+04  0.50400001928E-02 0.  1.
    10030    2    1    2    0    0  0.00000000000E+00  0.00000000000E+00  0.55184325525E+03  0.26548664597E+04  0.25968798471E+04 0.  0.
        2    1    3    3  502    0 -0.47107358513E+03 -0.34751351362E+03  0.14607966003E+04  0.15737225524E+04  0.25500000920E-02 0. -1.
       -2    1    3    3    0  502  0.47107358513E+03  0.34751351362E+03 -0.90895334501E+03  0.10811439072E+04  0.25500000920E-02 0.  1.
</event>
<event>
 5   0  0.3849687E-05  0.2595426E+04  0.7818609E-02  0.8369757E-01
       -2   -1    0    0    0  501  0.00000000000E+00  0.00000000000E+00  0.91276654694E+03  0.91276654694E+03  0.25500000920E-02 0. -1.
        2   -1    0    0  501    0  0.00000000000E+00  0.00000000000E+00 -0.18450051344E+04  0.18450051344E+04  0.25500000920E-02 0.  1.
    10030    2    1    2    0    0  0.00000000000E+00  0.00000000000E+00 -0.93223858742E+03  0.27577716813E+04  0.25954259501E+04 0.  0.
        1    1    3    3  502    0 -0.61973986347E+03  0.10185583942E+04 -0.10105355464E+04  0.15629205966E+04  0.50400001928E-02 0.  1.
       -1    1    3    3    0  502  0.61973986347E+03 -0.10185583942E+04  0.78296959010E+02  0.11948510847E+04  0.50400001928E-02 0. -1.
</event>
<event>
 5   0  0.1497497E-05  0.2650414E+04  0.7818609E-02  0.8351276E-01
       -1   -1    0    0    0  501  0.00000000000E+00  0.00000000000E+00  0.95156708626E+03  0.95156708628E+03  0.50400001928E-02 0.  1.
        1   -1    0    0  501    0  0.00000000000E+00  0.00000000000E+00 -0.18455595879E+04  0.18455595879E+04  0.50400001928E-02 0. -1.
    10030    2    1    2    0    0  0.00000000000E+00  0.00000000000E+00 -0.89399250161E+03  0.27971266742E+04  0.26504141258E+04 0.  0.
        3    1    3    3  502    0 -0.40193483535E+03  0.11552791223E+04 -0.98507422956E+03  0.15705389872E+04  0.10100000352E+00 0. -1.
       -3    1    3    3    0  502  0.40193483535E+03 -0.11552791223E+04  0.91081727950E+02  0.12265876869E+04  0.10100000352E+00 0.  1.
</event>
<event>
 5   0  0.1497497E-05  0.2568448E+04  0.7818609E-02  0.8378998E-01
        1   -1    0    0  501    0  0.00000000000E+00  0.00000000000E+00  0.13802137511E+04  0.13802137511E+04  0.50400001928E-02 0. -1.
       -1   -1    0    0    0  501  0.00000000000E+00  0.00000000000E+00 -0.11949097161E+04  0.11949097161E+04  0.50400001928E-02 0.  1.
    10030    2    1    2    0    0  0.00000000000E+00  0.00000000000E+00  0.18530403497E+03  0.25751234672E+04  0.25684476413E+04 0.  0.
        3    1    3    3  502    0  0.64788095241E+03  0.10974426333E+04 -0.66191934745E+02  0.12761314369E+04  0.10100000352E+00 0.  1.
       -3    1    3    3    0  502 -0.64788095241E+03 -0.10974426333E+04  0.25149596971E+03  0.12989920303E+04  0.10100000352E+00 0. -1.
</event>
<event>
 5   0  0.3441646E-05  0.2531863E+04  0.7818609E-02  0.8391721E-01
       -2   -1    0    0    0  501  0.00000000000E+00  0.00000000000E+00  0.16208201546E+04  0.16208201546E+04  0.25500000920E-02 0.  1.
        2   -1    0    0  501    0  0.00000000000E+00  0.00000000000E+00 -0.98874776145E+03  0.98874776146E+03  0.25500000920E-02 0. -1.
    10030    2    1    2    0    0  0.00000000000E+00  0.00000000000E+00  0.63207239316E+03  0.26095679161E+04  0.25318627922E+04 0.  0.
        4    1    3    3  502    0  0.91130777542E+02 -0.82227701567E+03 -0.67156597265E+03  0.10655734501E+04  0.12699999809E+01 0. -1.
       -4    1    3    3    0  502 -0.91130777542E+02  0.82227701567E+03  0.13036383658E+04  0.15439944659E+04  0.12699999809E+01 0.  1.
</event>
<event>
 5   0  0.3849687E-05  0.1980916E+04  0.7818609E-02  0.8615595E-01
       -2   -1    0    0    0  501  0.00000000000E+00  0.00000000000E+00  0.85540716059E+03  0.85540716059E+03  0.25500000920E-02 0. -1.
        2   -1    0    0  501    0  0.00000000000E+00  0.00000000000E+00 -0.11468306166E+04  0.11468306166E+04  0.25500000920E-02 0.  1.
    10030    2    1    2    0    0  0.00000000000E+00  0.00000000000E+00 -0.29142345605E+03  0.20022377772E+04  0.19809160724E+04 0.  0.
        1    1    3    3  502    0 -0.34975912507E+03  0.64462849803E+03  0.52713329114E+03  0.90318705300E+03  0.50400001928E-02 0. -1.
       -1    1    3    3    0  502  0.34975912507E+03 -0.64462849803E+03 -0.81855674719E+03  0.10990507242E+04  0.50400001928E-02 0.  1.
</event>
<event>
 5   0  0.1217200E-05  0.2623646E+04  0.7818609E-02  0.8360213E-01
        4   -1    0    0  501    0  0.00000000000E+00  0.00000000000E+00  0.16115031266E+04  0.16115036270E+04  0.12699999809E+01 0.  1.
       -4   -1    0    0    0  501  0.00000000000E+00  0.00000000000E+00 -0.10678714189E+04  0.10678721741E+04  0.12699999809E+01 0. -1.
    10030    2    1    2    0    0  0.00000000000E+00  0.00000000000E+00  0.54363170771E+03  0.26793758011E+04  0.26236461746E+04 0.  0.
        5    1    3    3  502    0  0.64492064347E+03 -0.81575962832E+03 -0.54483966063E+03  0.11739926547E+04  0.46999998093E+01 0. -1.
       -5    1    3    3    0  502 -0.64492064347E+03  0.81575962832E+03  0.10884713683E+04  0.15053831463E+04  0.46999998093E+01 0.  1.
</event>
<event>
 5   0  0.1533248E-05  0.2611392E+04  0.7818609E-02  0.8364342E-01
       -1   -1    0    0    0  501  0.00000000000E+00  0.00000000000E+00  0.83681054995E+03  0.83681054996E+03  0.50400001928E-02 0. -1.
        1   -1    0    0  501    0  0.00000000000E+00  0.00000000000E+00 -0.20373098024E+04  0.20373098024E+04  0.50400001928E-02 0.  1.
    10030    2    1    2    0    0  0.00000000000E+00  0.00000000000E+00 -0.12004992525E+04  0.28741203524E+04  0.26113922235E+04 0.  0.
        4    1    3    3  502    0  0.52357906181E+03 -0.93226637719E+03 -0.14250343878E+04  0.17815667968E+04  0.12699999809E+01 0.  1.
       -4    1    3    3    0  502 -0.52357906181E+03  0.93226637719E+03  0.22453513534E+03  0.10925535556E+04  0.12699999809E+01 0. -1.
</event>
<event>
 5   0  0.1474554E-05  0.2625672E+04  0.7818609E-02  0.8359533E-01
       -1   -1    0    0    0  501  0.00000000000E+00  0.00000000000E+00  0.69005472162E+03  0.69005472163E+03  0.50400001928E-02 0.  1.
        1   -1    0    0  501    0  0.00000000000E+00  0.00000000000E+00 -0.24976844336E+04  0.24976844336E+04  0.50400001928E-02 0. -1.
    10030    2    1    2    0    0  0.00000000000E+00  0.00000000000E+00 -0.18076297120E+04  0.31877391552E+04  0.26256724370E+04 0.  0.
        5    1    3    3  502    0 -0.73153596700E+03  0.29976089261E+03 -0.21762782667E+04  0.23154288259E+04  0.46999998093E+01 0. -1.
       -5    1    3    3    0  502  0.73153596700E+03 -0.29976089261E+03  0.36864855472E+03  0.87231032933E+03  0.46999998093E+01 0.  1.
</event>
<event>
 5   0  0.3499642E-05  0.2283707E+04  0.7818609E-02  0.8484373E-01
        2   -1    0    0  501    0  0.00000000000E+00  0.00000000000E+00  0.94260184225E+03  0.94260184225E+03  0.25500000920E-02 0. -1.
       -2   -1    0    0    0  501  0.00000000000E+00  0.00000000000E+00 -0.13832244419E+04  0.13832244419E+04  0.25500000920E-02 0.  1.
    10030    2    1    2    0    0  0.00000000000E+00  0.00000000000E+00 -0.44062259968E+03  0.23258262842E+04  0.22837074307E+04 0.  0.
        2    1    3    3  502    0 -0.99537066294E+02  0.46984906758E+03  0.83473102861E+03  0.96303772720E+03  0.25500000920E-02 0. -1.
       -2    1    3    3    0  502  0.99537066294E+02 -0.46984906758E+03 -0.12753536283E+04  0.13627885570E+04  0.25500000920E-02 0.  1.
</event>
<event>
 5   0  0.1533248E-05  0.2593577E+04  0.7818609E-02  0.8370386E-01
        1   -1    0    0  501    0  0.00000000000E+00  0.00000000000E+00  0.17827736080E+04  0.17827736080E+04  0.50400001928E-02 0.  1.
       -1   -1    0    0    0  501  0.00000000000E+00  0.00000000000E+00 -0.94328346880E+03  0.94328346881E+03  0.50400001928E-02 0. -1.
    10030    2    1    2    0    0  0.00000000000E+00  0.00000000000E+00  0.83949013916E+03  0.27260570768E+04  0.25935773542E+04 0.  0.
        4    1    3    3  502    0  0.39139798418E+02 -0.11658706428E+04 -0.17564599604E+03  0.11796776714E+04  0.12699999809E+01 0. -1.
       -4    1    3    3    0  502 -0.39139798418E+02  0.11658706428E+04  0.10151361352E+04  0.15463794054E+04  0.12699999809E+01 0.  1.
</event>
<event>
 5   0  0.3508470E-05  0.2584575E+04  0.7818609E-02  0.8373460E-01
        2   -1    0    0  501    0  0.00000000000E+00  0.00000000000E+00  0.12097925598E+04  0.12097925598E+04  0.25500000920E-02 0. -1.
       -2   -1    0    0    0  501  0.00000000000E+00  0.00000000000E+00 -0.13804077511E+04  0.13804077511E+04  0.25500000920E-02 0.  1.
    10030    2    1    2    0    0  0.00000000000E+00  0.00000000000E+00 -0.17061519124E+03  0.25902003109E+04  0.25845750341E+04 0.  0.
        5    1    3    3  502    0 -0.11141067488E+04  0.54117969885E+03 -0.45472298164E+03  0.13194333611E+04  0.46999998093E+01 0.  1.
       -5    1    3    3    0  502  0.11141067488E+04 -0.54117969885E+03  0.28410779040E+03  0.12707669498E+04  0.46999998093E+01 0. -1.
</event>
<event>
 5   0  0.1474554E-05  0.2602831E+04  0.7818609E-02  0.8367240E-01
       -1   -1    0    0    0  501  0.00000000000E+00  0.00000000000E+00  0.98233653978E+03  0.98233653979E+03  0.50400001928E-02 0. -1.
        1   -1    0    0  501    0  0.00000000000E+00  0.00000000000E+00 -0.17241369894E+04  0.17241369894E+04  0.50400001928E-02 0.  1.
    10030    2    1    2    0    0  0.00000000000E+00  0.00000000000E+00 -0.74180044962E+03  0.27064735292E+04  0.26028313540E+04 0.  0.
        5    1    3    3  502    0  0.12914285635E+04 -0.15649230188E+03 -0.40957113695E+03  0.13638358337E+04  0.46999998093E+01 0.  1.
       -5    1    3    3    0  502 -0.12914285635E+04  0.15649230188E+03 -0.33222931267E+03  0.13426376955E+04  0.46999998093E+01 0. -1.
</event>
<event>
 5   0  0.1451052E-05  0.2664602E+04  0.7818609E-02  0.8346583E-01
        1   -1    0    0  501    0  0.00000000000E+00  0.00000000000E+00  0.13017904528E+04  0.13017904528E+04  0.50400001928E-02 0.  1.
       -1   -1    0    0    0  501  0.00000000000E+00  0.00000000000E+00 -0.13635267478E+04  0.13635267478E+04  0.50400001928E-02 0. -1.
    10030    2    1    2    0    0  0.00000000000E+00  0.00000000000E+00 -0.61736294943E+02  0.26653172006E+04  0.26646021109E+04 0.  0.
        1    1    3    3  502    0 -0.97182613321E+03  0.38330966231E+03 -0.85792362360E+03  0.13518155475E+04  0.50400001928E-02 0. -1.
       -1    1    3    3    0  502  0.97182613321E+03 -0.38330966231E+03  0.79618732866E+03  0.13135016531E+04  0.50400001928E-02 0.  1.
</event>
<event>
 5   0  0.3499642E-05  0.2349900E+04  0.7818609E-02  0.8458502E-01
        2   -1    0    0  501    0  0.00000000000E+00  0.00000000000E+00  0.87210006396E+03  0.87210006396E+03  0.25500000920E-02 0.  1.
       -2   -1    0    0    0  501  0.00000000000E+00  0.00000000000E+00 -0.15829690947E+04  0.15829690947E+04  0.25500000920E-02 0. -1.
    10030    2    1    2    0    0  0.00000000000E+00  0.00000000000E+00 -0.71086903075E+03  0.24550691587E+04  0.23498999543E+04 0.  0.
        2    1    3    3  502    0  0.83806430925E+03 -0.43072683414E+03  0.37785387752E+03  0.10152098034E+04  0.25500000920E-02 0.  1.
       -2    1    3    3    0  502 -0.83806430925E+03  0.43072683414E+03 -0.10887229083E+04  0.14398593553E+04  0.25500000920E-02 0. -1.
</event>
<event>
 5   0  0.1474554E-05  0.2635486E+04  0.7818609E-02  0.8356246E-01
       -1   -1    0    0    0  501  0.00000000000E+00  0.00000000000E+00  0.12898881523E+04  0.12898881523E+04  0.50400001928E-02 0. -1.
        1   -1    0    0  501    0  0.00000000000E+00  0.00000000000E+00 -0.13461994689E+04  0.13461994689E+04  0.50400001928E-02 0.  1.
    10030    2    1    2    0    0  0.00000000000E+00  0.00000000000E+00 -0.56311316605E+02  0.26360876212E+04  0.26354860998E+04 0.  0.
        5    1    3    3  502    0  0.82796638989E+03  0.46025300179E+03  0.88805749664E+03  0.12984719388E+04  0.46999998093E+01 0. -1.
       -5    1    3    3    0  502 -0.82796638989E+03 -0.46025300179E+03 -0.94436881324E+03  0.13376156824E+04  0.46999998093E+01 0.  1.
</event>
<event>
 5   0  0.3849687E-05  0.2570530E+04  0.7818609E-02  0.8378281E-01
       -2   -1    0    0    0  501  0.00000000000E+00  0.00000000000E+00  0.97746412983E+03  0.97746412984E+03  0.25500000920E-02 0.  1.
        2   -1    0    0  501    0  0.00000000000E+00  0.00000000000E+00 -0.16899910079E+04  0.16899910079E+04  0.25500000920E-02 0. -1.
    10030    2    1    2    0    0  0.00000000000E+00  0.00000000000E+00 -0.71252687805E+03  0.26674551377E+04  0.25705295874E+04 0.  0.
        1    1    3    3  502    0  0.40948108290E+03 -0.21645363930E+03 -0.16003772538E+04  0.16660535075E+04  0.50400001928E-02 0. -1.
       -1    1    3    3    0  502 -0.40948108290E+03  0.21645363930E+03  0.88785037578E+03  0.10014016302E+04  0.50400001928E-02 0.  1.
</event>
<event>
 5   0  0.1451052E-05  0.2357545E+04  0.7818609E-02  0.8455571E-01
       -1   -1    0    0    0  501  0.00000000000E+00  0.00000000000E+00  0.11394915114E+04  0.11394915114E+04  0.50400001928E-02 0. -1.
        1   -1    0    0  501    0  0.00000000000E+00  0.00000000000E+00 -0.12194073547E+04  0.12194073548E+04  0.50400001928E-02 0.  1.
    10030    2    1    2    0    0  0.00000000000E+00  0.00000000000E+00 -0.79915843386E+02  0.23588988661E+04  0.23575447649E+04 0.  0.
        1    1    3    3  502    0 -0.34060148666E+03 -0.10289162143E+04  0.42380196355E+03  0.11637379658E+04  0.50400001928E-02 0. -1.
       -1    1    3    3    0  502  0.34060148666E+03  0.10289162143E+04 -0.50371780694E+03  0.11951609003E+04  0.50400001928E-02 0.  1.
</event>
<event>
 5   0  0.1435062E-05  0.2615878E+04  0.7818609E-02  0.8362828E-01
       -1   -1    0    0    0  501  0.00000000000E+00  0.00000000000E+00  0.14843588851E+04  0.14843588851E+04  0.50400001928E-02 0. -1.
        1   -1    0    0  501    0  0.00000000000E+00  0.00000000000E+00 -0.11524868449E+04  0.11524868449E+04  0.50400001928E-02 0.  1.
    10030    2    1    2    0    0  0.00000000000E+00  0.00000000000E+00  0.33187204020E+03  0.26368457301E+04  0.26158777405E+04 0.  0.
        2    1    3    3  502    0  0.20173566113E+03  0.66233981303E+03  0.12844759024E+04  0.14592017163E+04  0.25500000920E-02 0. -1.
       -2    1    3    3    0  502 -0.20173566113E+03 -0.66233981303E+03 -0.95260386223E+03  0.11776440138E+04  0.25500000920E-02 0.  1.
</event>
<event>
 5   0  0.3441646E-05  0.2118077E+04  0.7818609E-02  0.8553322E-01
        2   -1    0    0  501    0  0.00000000000E+00  0.00000000000E+00  0.95462699394E+03  0.95462699394E+03  0.25500000920E-02 0. -1.
       -2   -1    0    0    0  501  0.00000000000E+00  0.00000000000E+00 -0.11748704759E+04  0.11748704759E+04  0.25500000920E-02 0.  1.
    10030    2    1    2    0    0  0.00000000000E+00  0.00000000000E+00 -0.22024348194E+03  0.21294974698E+04  0.21180774969E+04 0.  0.
        4    1    3    3  502    0  0.94126745131E+02  0.41050127651E+02  0.94960901005E+03  0.95514597941E+03  0.12699999809E+01 0. -1.
       -4    1    3    3    0  502 -0.94126745131E+02 -0.41050127651E+02 -0.11698524920E+04  0.11743514904E+04  0.12699999809E+01 0.  1.
</event>
<event>
 5   0  0.3499642E-05  0.3094688E+04  0.7818609E-02  0.8217197E-01
       -2   -1    0    0    0  501  0.00000000000E+00  0.00000000000E+00  0.12369871035E+04  0.12369871035E+04  0.25500000920E-02 0. -1.
        2   -1    0    0  501    0  0.00000000000E+00  0.00000000000E+00 -0.19355685003E+04  0.19355685003E+04  0.25500000920E-02 0.  1.
    10030    2    1    2    0    0  0.00000000000E+00  0.00000000000E+00 -0.69858139682E+03  0.31725556038E+04  0.30946878827E+04 0.  0.
        2    1    3    3  502    0  0.13806738033E+04 -0.27211406079E+03  0.31030115096E+03  0.14410388674E+04  0.25500000920E-02 0. -1.
       -2    1    3    3    0  502 -0.13806738033E+04  0.27211406079E+03 -0.10088825478E+04  0.17315167364E+04  0.25500000920E-02 0.  1.
</event>
<event>
 5   0  0.3441646E-05  0.2374367E+04  0.7818609E-02  0.8449163E-01
       -2   -1    0    0    0  501  0.00000000000E+00  0.00000000000E+00  0.74573102289E+03  0.74573102290E+03  0.25500000920E-02 0. -1.
        2   -1    0    0  501    0  0.00000000000E+00  0.00000000000E+00 -0.18899646021E+04  0.18899646021E+04  0.25500000920E-02 0.  1.
    10030    2    1    2    0    0  0.00000000000E+00  0.00000000000E+00 -0.11442335793E+04  0.26356956250E+04  0.23743674829E+04 0.  0.
        4    1    3    3  502    0 -0.10215115377E+04  0.44075125525E+03 -0.11220241744E+03  0.11181853541E+04  0.12699999809E+01 0. -1.
       -4    1    3    3    0  502  0.10215115377E+04 -0.44075125525E+03 -0.10320311618E+04  0.15175102710E+04  0.12699999809E+01 0.  1.
</event>
<event>
 5   0  0.1435062E-05  0.2594293E+04  0.7818609E-02  0.8370142E-01
       -1   -1    0    0    0  501  0.00000000000E+00  0.00000000000E+00  0.19352276892E+04  0.19352276892E+04  0.50400001928E-02 0.  1.
        1   -1    0    0  501    0  0.00000000000E+00  0.00000000000E+00 -0.86945284209E+03  0.86945284211E+03  0.50400001928E-02 0. -1.
    10030    2    1    2    0    0  0.00000000000E+00  0.00000000000E+00  0.10657748471E+04  0.28046805313E+04  0.25942931326E+04 0.  0.
        2    1    3    3  502    0 -0.22768097254E+03  0.48099431303E+03  0.18117813418E+04  0.18883182425E+04  0.25500000920E-02 0.  1.
       -2    1    3    3    0  502  0.22768097254E+03 -0.48099431303E+03 -0.74600649463E+03  0.91636228887E+03  0.25500000920E-02 0. -1.
</event>
<event>
 5   0  0.3849687E-05  0.2655469E+04  0.7818609E-02  0.8349600E-01
       -2   -1    0    0    0  501  0.00000000000E+00  0.00000000000E+00  0.12469121457E+04  0.12469121457E+04  0.25500000920E-02 0. -1.
        2   -1    0    0  501    0  0.00000000000E+00  0.00000000000E+00 -0.14137952720E+04  0.14137952720E+04  0.25500000920E-02 0.  1.
    10030    2    1    2    0    0  0.00000000000E+00  0.00000000000E+00 -0.16688312628E+03  0.26607074178E+04  0.26554686941E+04 0.  0.
        1    1    3    3  502    0 -0.20510731626E+03 -0.12805045313E+04  0.20193188453E+03  0.13124547047E+04  0.50400001928E-02 0.  1.
       -1    1    3    3    0  502  0.20510731626E+03  0.12805045313E+04 -0.36881501081E+03  0.13482527130E+04  0.50400001928E-02 0. -1.
</event>
<event>
 5   0  0.1533248E-05  0.2788587E+04  0.7818609E-02  0.8306821E-01
       -1   -1    0    0    0  501  0.00000000000E+00  0.00000000000E+00  0.95187200183E+03  0.95187200184E+03  0.50400001928E-02 0. -1.
        1   -1    0    0  501    0  0.00000000000E+00  0.00000000000E+00 -0.20423479778E+04  0.20423479778E+04  0.50400001928E-02 0.  1.
    10030    2    1    2    0    0  0.00000000000E+00  0.00000000000E+00 -0.10904759760E+04  0.29942199797E+04  0.27885866371E+04 0.  0.
        4    1    3    3  502    0  0.79067986515E+03 -0.69467266597E+03 -0.15271725657E+04  0.18547243516E+04  0.12699999809E+01 0.  1.
       -4    1    3    3    0  502 -0.79067986515E+03  0.69467266597E+03  0.43669658974E+03  0.11394956281E+04  0.12699999809E+01 0. -1.
</event>
<event>
 5   0  0.1435062E-05  0.2034468E+04  0.7818609E-02  0.8590673E-01
        1   -1    0    0  501    0  0.00000000000E+00  0.00000000000E+00  0.11387647027E+04  0.11387647027E+04  0.50400001928E-02 0. -1.
       -1   -1    0    0    0  501  0.00000000000E+00  0.00000000000E+00 -0.90867338218E+03  0.90867338219E+03  0.50400001928E-02 0.  1.
    10030    2    1    2    0    0  0.00000000000E+00  0.00000000000E+00  0.23009132047E+03  0.20474380849E+04  0.20344681604E+04 0.  0.
        2    1    3    3  502    0  0.95716333327E+03 -0.28190347757E+03 -0.84038523975E+02  0.10013459396E+04  0.25500000920E-02 0. -1.
       -2    1    3    3    0  502 -0.95716333327E+03  0.28190347757E+03  0.31412984445E+03  0.10460921453E+04  0.25500000920E-02 0.  1.
</event>
<event>
 5   0  0.1451052E-05  0.2671116E+04  0.7818609E-02  0.8344438E-01
        1   -1    0    0  501    0  0.00000000000E+00  0.00000000000E+00  0.14576243963E+04  0.14576243963E+04  0.50400001928E-02 0.  1.
       -1   -1    0    0    0  501  0.00000000000E+00  0.00000000000E+00 -0.12237137939E+04  0.12237137939E+04  0.50400001928E-02 0. -1.
    10030    2    1    2    0    0  0.00000000000E+00  0.00000000000E+00  0.23391060242E+03  0.26813381902E+04  0.26711159317E+04 0.  0.
        1    1    3    3  502    0  0.10262439014E+04  0.69908128653E+03 -0.37668255491E+03  0.12976058483E+04  0.50400001928E-02 0. -1.
       -1    1    3    3    0  502 -0.10262439014E+04 -0.69908128653E+03  0.61059315734E+03  0.13837323419E+04  0.50400001928E-02 0.  1.
</event>
<event>
 5   0  0.3441646E-05  0.2604779E+04  0.7818609E-02  0.8366580E-01
       -2   -1    0    0    0  501  0.00000000000E+00  0.00000000000E+00  0.82067176760E+03  0.82067176761E+03  0.25500000920E-02 0.  1.
        2   -1    0    0  501    0  0.00000000000E+00  0.00000000000E+00 -0.20668661514E+04  0.20668661514E+04  0.25500000920E-02 0. -1.
    10030    2    1    2    0    0  0.00000000000E+00  0.00000000000E+00 -0.12461943838E+04  0.28875379190E+04  0.26047792213E+04 0.  0.
        4    1    3    3  502    0  0.72428852342E+03 -0.50937884667E+01 -0.18229996786E+04  0.19616190387E+04  0.12699999809E+01 0. -1.
       -4    1    3    3    0  502 -0.72428852342E+03  0.50937884667E+01  0.57680529484E+03  0.92591888030E+03  0.12699999809E+01 0.  1.
</event>
<event>
 5   0  0.1497497E-05  0.2588429E+04  0.7818609E-02  0.8372142E-01
       -1   -1    0    0    0  501  0.00000000000E+00  0.00000000000E+00  0.12242452182E+04  0.12242452182E+04  0.50400001928E-02 0.  1.
        1   -1    0    0  501    0  0.00000000000E+00  0.00000000000E+00 -0.13681830856E+04  0.13681830857E+04  0.50400001928E-02 0. -1.
    10030    2    1    2    0    0  0.00000000000E+00  0.00000000000E+00 -0.14393786748E+03  0.25924283038E+04  0.25884293309E+04 0.  0.
        3    1    3    3  502    0  0.72233976076E+03 -0.71244014697E+03  0.73279339695E+03  0.12515318077E+04  0.10100000352E+00 0.  1.
       -3    1    3    3    0  502 -0.72233976076E+03  0.71244014697E+03 -0.87673126443E+03  0.13408964961E+04  0.10100000352E+00 0. -1.
</event>
<event>
 5   0  0.1474554E-05  0.2609018E+04  0.7818609E-02  0.8365145E-01
        1   -1    0    0  501    0  0.00000000000E+00  0.00000000000E+00  0.20067058385E+04  0.20067058385E+04  0.50400001928E-02 0.  1.
       -1   -1    0    0    0  501  0.00000000000E+00  0.00000000000E+00 -0.84802834770E+03  0.84802834771E+03  0.50400001928E-02 0. -1.
    10030    2    1    2    0    0  0.00000000000E+00  0.00000000000E+00  0.11586774908E+04  0.28547341862E+04  0.26090177742E+04 0.  0.
        5    1    3    3  502    0 -0.43221645175E+03 -0.34502317035E+03 -0.71340074424E+03  0.90267090411E+03  0.46999998093E+01 0. -1.
       -5    1    3    3    0  502  0.43221645175E+03  0.34502317035E+03  0.18720782351E+04  0.19520632821E+04  0.46999998093E+01 0.  1.
</event>
<event>
 5   0  0.1497497E-05  0.2445727E+04  0.7818609E-02  0.8422580E-01
        1   -1    0    0  501    0  0.00000000000E+00  0.00000000000E+00  0.14653461025E+04  0.14653461025E+04  0.50400001928E-02 0.  1.
       -1   -1    0    0    0  501  0.00000000000E+00  0.00000000000E+00 -0.10205062160E+04  0.10205062160E+04  0.50400001928E-02 0. -1.
    10030    2    1    2    0    0  0.00000000000E+00  0.00000000000E+00  0.44483988654E+03  0.24858523186E+04  0.24457267274E+04 0.  0.
        3    1    3    3  502    0  0.12091204361E+04  0.11070588943E+03  0.37029493091E+03  0.12693881869E+04  0.10100000352E+00 0.  1.
       -3    1    3    3    0  502 -0.12091204361E+04 -0.11070588943E+03  0.74544955622E+02  0.12164641317E+04  0.10100000352E+00 0. -1.
</event>
<event>
 5   0  0.3499642E-05  0.2633261E+04  0.7818609E-02  0.8356990E-01
        2   -1    0    0  501    0  0.00000000000E+00  0.00000000000E+00  0.95196766305E+03  0.95196766305E+03  0.25500000920E-02 0. -1.
       -2   -1    0    0    0  501  0.00000000000E+00  0.00000000000E+00 -0.18209813492E+04  0.18209813492E+04  0.25500000920E-02 0.  1.
    10030    2    1    2    0    0  0.00000000000E+00  0.00000000000E+00 -0.86901368612E+03  0.27729490122E+04  0.26332606095E+04 0.  0.
        2    1    3    3  502    0  0.20433225605E+03 -0.29043523461E+03  0.90058615397E+03  0.96807009927E+03  0.25500000920E-02 0. -1.
       -2    1    3    3    0  502 -0.20433225605E+03  0.29043523461E+03 -0.17695998401E+04  0.18048789129E+04  0.25500000920E-02 0.  1.
</event>
<event>
 5   0  0.3499642E-05  0.2574541E+04  0.7818609E-02  0.8376901E-01
       -2   -1    0    0    0  501  0.00000000000E+00  0.00000000000E+00  0.24885010455E+04  0.24885010455E+04  0.25500000920E-02 0.  1.
        2   -1    0    0  501    0  0.00000000000E+00  0.00000000000E+00 -0.66588914233E+03  0.66588914233E+03  0.25500000920E-02 0. -1.
    10030    2    1    2    0    0  0.00000000000E+00  0.00000000000E+00  0.18226119032E+04  0.31543901879E+04  0.25745413781E+04 0.  0.
        2    1    3    3  502    0  0.60625866590E+03 -0.11109262267E+04  0.11995831843E+04  0.17437621590E+04  0.25500000920E-02 0.  1.
       -2    1    3    3    0  502 -0.60625866590E+03  0.11109262267E+04  0.62302871895E+03  0.14106280289E+04  0.25500000920E-02 0. -1.
</event>
<event>
 5   0  0.3441646E-05  0.2667592E+04  0.7818609E-02  0.8345597E-01
        2   -1    0    0  501    0  0.00000000000E+00  0.00000000000E+00  0.14537803895E+04  0.14537803895E+04  0.25500000920E-02 0. -1.
       -2   -1    0    0    0  501  0.00000000000E+00  0.00000000000E+00 -0.12237146634E+04  0.12237146634E+04  0.25500000920E-02 0.  1.
    10030    2    1    2    0    0  0.00000000000E+00  0.00000000000E+00  0.23006572612E+03  0.26774950528E+04  0.26675924576E+04 0.  0.
        4    1    3    3  502    0  0.12430505141E+04  0.21716216139E+02  0.59990438532E+03  0.13804104676E+04  0.12699999809E+01 0. -1.
       -4    1    3    3    0  502 -0.12430505141E+04 -0.21716216139E+02 -0.36983865920E+03  0.12970845853E+04  0.12699999809E+01 0.  1.
</event>
<event>
 5   0  0.1217200E-05  0.2664310E+04  0.7818609E-02  0.8346679E-01
        3   -1    0    0  501    0  0.00000000000E+00  0.00000000000E+00  0.19010931732E+04  0.19010931759E+04  0.10100000352E+00 0. -1.
       -3   -1    0    0    0  501  0.00000000000E+00  0.00000000000E+00 -0.93348245485E+03  0.93348246031E+03  0.10100000352E+00 0.  1.
    10030    2    1    2    0    0  0.00000000000E+00  0.00000000000E+00  0.96761071835E+03  0.28345756362E+04  0.26643101424E+04 0.  0.
        5    1    3    3  502    0  0.12945437104E+04 -0.12704101444E+03  0.17797686538E+03  0.13128902057E+04  0.46999998093E+01 0.  1.
       -5    1    3    3    0  502 -0.12945437104E+04  0.12704101444E+03  0.78963385297E+03  0.15216854305E+04  0.46999998093E+01 0. -1.
</event>
<event>
 5   0  0.1497497E-05  0.2650868E+04  0.7818609E-02  0.8351125E-01
       -1   -1    0    0    0  501  0.00000000000E+00  0.00000000000E+00  0.11968031271E+04  0.11968031271E+04  0.50400001928E-02 0.  1.
        1   -1    0    0  501    0  0.00000000000E+00  0.00000000000E+00 -0.14678895656E+04  0.14678895656E+04  0.50400001928E-02 0. -1.
    10030    2    1    2    0    0  0.00000000000E+00  0.00000000000E+00 -0.27108643850E+03  0.26646926928E+04  0.26508676485E+04 0.  0.
        3    1    3    3  502    0 -0.98181317526E+03  0.79151044212E+03 -0.54550462274E+03  0.13740528355E+04  0.10100000352E+00 0. -1.
       -3    1    3    3    0  502  0.98181317526E+03 -0.79151044212E+03  0.27441818424E+03  0.12906398573E+04  0.10100000352E+00 0.  1.
</event>
<event>
 5   0  0.1533248E-05  0.1792203E+04  0.7818609E-02  0.8710457E-01
       -1   -1    0    0    0  501  0.00000000000E+00  0.00000000000E+00  0.10784948060E+04  0.10784948060E+04  0.50400001928E-02 0.  1.
        1   -1    0    0  501    0  0.00000000000E+00  0.00000000000E+00 -0.74455436894E+03  0.74455436896E+03  0.50400001928E-02 0. -1.
    10030    2    1    2    0    0  0.00000000000E+00  0.00000000000E+00  0.33394043705E+03  0.18230491750E+04  0.17922031355E+04 0.  0.
        4    1    3    3  502    0  0.65356296914E+03  0.44017744201E+03 -0.26710097172E+03  0.83201278661E+03  0.12699999809E+01 0.  1.
       -4    1    3    3    0  502 -0.65356296914E+03 -0.44017744201E+03  0.60104140878E+03  0.99103638836E+03  0.12699999809E+01 0. -1.
</event>
<event>
 5   0  0.3508470E-05  0.2862971E+04  0.7818609E-02  0.8283981E-01
       -2   -1    0    0    0  501  0.00000000000E+00  0.00000000000E+00  0.10910180600E+04  0.10910180600E+04  0.25500000920E-02 0.  1.
        2   -1    0    0  501    0  0.00000000000E+00  0.00000000000E+00 -0.18782011840E+04  0.18782011840E+04  0.25500000920E-02 0. -1.
    10030    2    1    2    0    0  0.00000000000E+00  0.00000000000E+00 -0.78718312402E+03  0.29692192439E+04  0.28629714717E+04 0.  0.
        5    1    3    3  502    0 -0.11377040507E+04  0.50949641112E+03 -0.11233907622E+04  0.16780899840E+04  0.46999998093E+01 0. -1.
       -5    1    3    3    0  502  0.11377040507E+04 -0.50949641112E+03  0.33620763817E+03  0.12911292599E+04  0.46999998093E+01 0.  1.
</event>
<event>
 5   0  0.1474554E-05  0.2575751E+04  0.7818609E-02  0.8376485E-01
       -1   -1    0    0    0  501  0.00000000000E+00  0.00000000000E+00  0.13469868437E+04  0.13469868437E+04  0.50400001928E-02 0.  1.
        1   -1    0    0  501    0  0.00000000000E+00  0.00000000000E+00 -0.12313583356E+04  0.12313583357E+04  0.50400001928E-02 0. -1.
    10030    2    1    2    0    0  0.00000000000E+00  0.00000000000E+00  0.11562850806E+03  0.25783451794E+04  0.25757511355E+04 0.  0.
        5    1    3    3  502    0  0.12484609288E+04  0.23152621760E+03  0.27330369166E+03  0.12988364324E+04  0.46999998093E+01 0. -1.
       -5    1    3    3    0  502 -0.12484609288E+04 -0.23152621760E+03 -0.15767518360E+03  0.12795087470E+04  0.46999998093E+01 0.  1.
</event>
<event>
 5   0  0.1435062E-05  0.2622605E+04  0.7818609E-02  0.8360563E-01
       -1   -1    0    0    0  501  0.00000000000E+00  0.00000000000E+00  0.71887362913E+03  0.71887362914E+03  0.50400001928E-02 0. -1.
        1   -1    0    0  501    0  0.00000000000E+00  0.00000000000E+00 -0.23919560239E+04  0.23919560239E+04  0.50400001928E-02 0.  1.
    10030    2    1    2    0    0  0.00000000000E+00  0.00000000000E+00 -0.16730823948E+04  0.31108296530E+04  0.26226048941E+04 0.  0.
        2    1    3    3  502    0 -0.47838630807E+01  0.51427765376E+03 -0.22673325596E+04  0.23249303917E+04  0.25500000920E-02 0.  1.
       -2    1    3    3    0  502  0.47838630807E+01 -0.51427765376E+03  0.59425016485E+03  0.78589926131E+03  0.25500000920E-02 0. -1.
</event>
<event>
 5   0  0.3647623E-05  0.2409858E+04  0.7818609E-02  0.8435822E-01
        2   -1    0    0  501    0  0.00000000000E+00  0.00000000000E+00  0.19067560809E+04  0.19067560809E+04  0.25500000920E-02 0. -1.
       -2   -1    0    0    0  501  0.00000000000E+00  0.00000000000E+00 -0.76142613882E+03  0.76142613882E+03  0.25500000920E-02 0.  1.
    10030    2    1    2    0    0  0.00000000000E+00  0.00000000000E+00  0.11453299421E+04  0.26681822197E+04  0.24098580210E+04 0.  0.
        3    1    3    3  502    0  0.41875399040E+03 -0.10960271835E+04  0.26899589861E+03  0.12037397124E+04  0.10100000352E+00 0. -1.
       -3    1    3    3    0  502 -0.41875399040E+03  0.10960271835E+04  0.87633404346E+03  0.14644425074E+04  0.10100000352E+00 0.  1.
</event>
<event>
 5   0  0.1497497E-05  0.2666692E+04  0.7818609E-02  0.8345894E-01
       -1   -1    0    0    0  501  0.00000000000E+00  0.00000000000E+00  0.17319134363E+04  0.17319134363E+04  0.50400001928E-02 0. -1.
        1   -1    0    0  501    0  0.00000000000E+00  0.00000000000E+00 -0.10265014255E+04  0.10265014255E+04  0.50400001928E-02 0.  1.
    10030    2    1    2    0    0  0.00000000000E+00  0.00000000000E+00  0.70541201084E+03  0.27584148618E+04  0.26666920416E+04 0.  0.
        3    1    3    3  502    0 -0.21161990677E+03 -0.10093310432E+04  0.12269261313E+04  0.16027725608E+04  0.10100000352E+00 0. -1.
       -3    1    3    3    0  502  0.21161990677E+03  0.10093310432E+04 -0.52151412049E+03  0.11556423010E+04  0.10100000352E+00 0.  1.
</event>
<event>
 5   0  0.1497497E-05  0.2579306E+04  0.7818609E-02  0.8375265E-01
       -1   -1    0    0    0  501  0.00000000000E+00  0.00000000000E+00  0.18223131292E+04  0.18223131293E+04  0.50400001928E-02 0.  1.
        1   -1    0    0  501    0  0.00000000000E+00  0.00000000000E+00 -0.91268863640E+03  0.91268863641E+03  0.50400001928E-02 0. -1.
    10030    2    1    2    0    0  0.00000000000E+00  0.00000000000E+00  0.90962449285E+03  0.27350017657E+04  0.25793057089E+04 0.  0.
        3    1    3    3  502    0  0.57094163205E+03  0.10724142715E+04 -0.39194070989E+01  0.12149329566E+04  0.10100000352E+00 0. -1.
       -3    1    3    3    0  502 -0.57094163205E+03 -0.10724142715E+04  0.91354389995E+03  0.15200688091E+04  0.10100000352E+00 0.  1.
</event>
<event>
 5   0  0.1497497E-05  0.2927543E+04  0.7818609E-02  0.8264730E-01
       -1   -1    0    0    0  501  0.00000000000E+00  0.00000000000E+00  0.20354072696E+04  0.20354072696E+04  0.50400001928E-02 0. -1.
        1   -1    0    0  501    0  0.00000000000E+00  0.00000000000E+00 -0.10526770170E+04  0.10526770170E+04  0.50400001928E-02 0.  1.
    10030    2    1    2    0    0  0.00000000000E+00  0.00000000000E+00  0.98273025262E+03  0.30880842866E+04  0.29275426234E+04 0.  0.
        3    1    3    3  502    0  0.12888531199E+04 -0.19119133186E+03 -0.21224444791E+03  0.13201303746E+04  0.10100000352E+00 0.  1.
       -3    1    3    3    0  502 -0.12888531199E+04  0.19119133186E+03  0.11949747005E+04  0.17679539120E+04  0.10100000352E+00 0. -1.
</event>
<event>
 5   0  0.1435062E-05  0.2413125E+04  0.7818609E-02  0.8434606E-01
        1   -1    0    0  501    0  0.00000000000E+00  0.00000000000E+00  0.12565683671E+04  0.12565683671E+04  0.50400001928E-02 0.  1.
       -1   -1    0    0    0  501  0.00000000000E+00  0.00000000000E+00 -0.11585465797E+04  0.11585465797E+04  0.50400001928E-02 0. -1.
    10030    2    1    2    0    0  0.00000000000E+00  0.00000000000E+00  0.98021787482E+02  0.24151149468E+04  0.24131249316E+04 0.  0.
        2    1    3    3  502    0  0.59064278885E+03 -0.13696713011E+02 -0.10038768584E+04  0.11648241287E+04  0.25500000920E-02 0. -1.
       -2    1    3    3    0  502 -0.59064278885E+03  0.13696713011E+02  0.11018986459E+04  0.12502908181E+04  0.25500000920E-02 0.  1.
</event>
<event>
 5   0  0.1533248E-05  0.2208178E+04  0.7818609E-02  0.8515032E-01
       -1   -1    0    0    0  501  0.00000000000E+00  0.00000000000E+00  0.13848405343E+04  0.13848405343E+04  0.50400001928E-02 0.  1.
        1   -1    0    0  501    0  0.00000000000E+00  0.00000000000E+00 -0.88025518341E+03  0.88025518342E+03  0.50400001928E-02 0. -1.
    10030    2    1    2    0    0  0.00000000000E+00  0.00000000000E+00  0.50458535089E+03  0.22650957177E+04  0.22081784878E+04 0.  0.
        4    1    3    3  502    0 -0.26266301231E+03 -0.78735355737E+03  0.99913481360E+03  0.12989185775E+04  0.12699999809E+01 0.  1.
       -4    1    3    3    0  502  0.26266301231E+03  0.78735355737E+03 -0.49454946271E+03  0.96617714023E+03  0.12699999809E+01 0. -1.
</event>
<event>
 5   0  0.1533248E-05  0.2608660E+04  0.7818609E-02  0.8365266E-01
        1   -1    0    0  501    0  0.00000000000E+00  0.00000000000E+00  0.11609273784E+04  0.11609273785E+04  0.50400001928E-02 0.  1.
       -1   -1    0    0    0  501  0.00000000000E+00  0.00000000000E+00 -0.14654460414E+04  0.14654460414E+04  0.50400001928E-02 0. -1.
    10030    2    1    2    0    0  0.00000000000E+00  0.00000000000E+00 -0.30451866292E+03  0.26263734198E+04  0.26086597563E+04 0.  0.
        4    1    3    3  502    0 -0.66672247147E+03 -0.10501482632E+03 -0.12759599581E+04  0.14434758035E+04  0.12699999809E+01 0. -1.
       -4    1    3    3    0  502  0.66672247147E+03  0.10501482632E+03  0.97144129521E+03  0.11828976163E+04  0.12699999809E+01 0.  1.
</event>
<event>
 5   0  0.3647623E-05  0.2838341E+04  0.7818609E-02  0.8291463E-01
       -2   -1    0    0    0  501  0.00000000000E+00  0.00000000000E+00  0.18147036322E+04  0.18147036322E+04  0.25500000920E-02 0. -1.
        2   -1    0    0  501    0  0.00000000000E+00  0.00000000000E+00 -0.11098474831E+04  0.11098474831E+04  0.25500000920E-02 0.  1.
    10030    2    1    2    0    0  0.00000000000E+00  0.00000000000E+00  0.70485614905E+03  0.29245511153E+04  0.28383405425E+04 0.  0.
        3    1    3    3  502    0  0.50553029704E+03 -0.34966510030E+03 -0.96557146011E+03  0.11446199449E+04  0.10100000352E+00 0.  1.
       -3    1    3    3    0  502 -0.50553029704E+03  0.34966510030E+03  0.16704276092E+04  0.17799311704E+04  0.10100000352E+00 0. -1.
</event>
<event>
 5   0  0.3441646E-05  0.2456734E+04  0.7818609E-02  0.8418563E-01
       -2   -1    0    0    0  501  0.00000000000E+00  0.00000000000E+00  0.54073670116E+03  0.54073670117E+03  0.25500000920E-02 0.  1.
        2   -1    0    0  501    0  0.00000000000E+00  0.00000000000E+00 -0.27904262364E+04  0.27904262364E+04  0.25500000920E-02 0. -1.
    10030    2    1    2    0    0  0.00000000000E+00  0.00000000000E+00 -0.22496895352E+04  0.33311629375E+04  0.24567343185E+04 0.  0.
        4    1    3    3  502    0  0.43901538870E+03  0.11402766871E+04 -0.95376712394E+03  0.15500447653E+04  0.12699999809E+01 0.  1.
       -4    1    3    3    0  502 -0.43901538870E+03 -0.11402766871E+04 -0.12959224113E+04  0.17811181723E+04  0.12699999809E+01 0. -1.
</event>
<event>
 5   0  0.3441646E-05  0.2435300E+04  0.7818609E-02  0.8426405E-01
        2   -1    0    0  501    0  0.00000000000E+00  0.00000000000E+00  0.20116786020E+04  0.20116786020E+04  0.25500000920E-02 0.  1.
       -2   -1    0    0    0  501  0.00000000000E+00  0.00000000000E+00 -0.73703185316E+03  0.73703185316E+03  0.25500000920E-02 0. -1.
    10030    2    1    2    0    0  0.00000000000E+00  0.00000000000E+00  0.12746467488E+04  0.27487104551E+04  0.24352997417E+04 0.  0.
        4    1    3    3  502    0  0.86985373437E+03  0.74285329394E+02  0.15953890960E+04  0.18186346004E+04  0.12699999809E+01 0.  1.
       -4    1    3    3    0  502 -0.86985373437E+03 -0.74285329394E+02 -0.32074234717E+03  0.93007585472E+03  0.12699999809E+01 0. -1.
</event>
<event>
 5   0  0.1474554E-05  0.2587531E+04  0.7818609E-02  0.8372449E-01
       -1   -1    0    0    0  501  0.00000000000E+00  0.00000000000E+00  0.75573398930E+03  0.75573398932E+03  0.50400001928E-02 0. -1.
        1   -1    0    0  501    0  0.00000000000E+00  0.00000000000E+00 -0.22148386246E+04  0.22148386246E+04  0.50400001928E-02 0.  1.
    10030    2    1    2    0    0  0.00000000000E+00  0.00000000000E+00 -0.14591046353E+04  0.29705726140E+04  0.25875307376E+04 0.  0.
        5    1    3    3  502    0  0.10341169811E+04  0.10106793492E+03 -0.16145024861E+04  0.19199617250E+04  0.46999998093E+01 0.  1.
       -5    1    3    3    0  502 -0.10341169811E+04 -0.10106793492E+03  0.15539785074E+03  0.10506108890E+04  0.46999998093E+01 0. -1.
</event>
<event>
 5   0  0.1497497E-05  0.2606679E+04  0.7818609E-02  0.8365936E-01
       -1   -1    0    0    0  501  0.00000000000E+00  0.00000000000E+00  0.71149485743E+03  0.71149485745E+03  0.50400001928E-02 0.  1.
        1   -1    0    0  501    0  0.00000000000E+00  0.00000000000E+00 -0.23875003107E+04  0.23875003107E+04  0.50400001928E-02 0. -1.
    10030    2    1    2    0    0  0.00000000000E+00  0.00000000000E+00 -0.16760054533E+04  0.30989951682E+04  0.26066792616E+04 0.  0.
        3    1    3    3  502    0  0.49996039951E+02 -0.53530524538E+03  0.57351992629E+03  0.78611476630E+03  0.10100000352E+00 0.  1.
       -3    1    3    3    0  502 -0.49996039951E+02  0.53530524538E+03 -0.22495253796E+04  0.23128804019E+04  0.10100000352E+00 0. -1.
</event>
<event>
 5   0  0.3441646E-05  0.2765719E+04  0.7818609E-02  0.8313991E-01
       -2   -1    0    0    0  501  0.00000000000E+00  0.00000000000E+00  0.22481781298E+04  0.22481781298E+04  0.25500000920E-02 0.  1.
        2   -1    0    0  501    0  0.00000000000E+00  0.00000000000E+00 -0.85060002659E+03  0.85060002659E+03  0.25500000920E-02 0. -1.
    10030    2    1    2    0    0  0.00000000000E+00  0.00000000000E+00  0.13975781032E+04  0.30987781564E+04  0.27657189857E+04 0.  0.
        4    1    3    3  502    0  0.43178122670E+03 -0.10398497936E+04  0.15983271227E+04  0.19550892115E+04  0.12699999809E+01 0.  1.
       -4    1    3    3    0  502 -0.43178122670E+03  0.10398497936E+04 -0.20074901951E+03  0.11436889449E+04  0.12699999809E+01 0. -1.
</event>
<event>
 5   0  0.3508470E-05  0.2581118E+04  0.7818609E-02  0.8374643E-01
        2   -1    0    0  501    0  0.00000000000E+00  0.00000000000E+00  0.16385185482E+04  0.16385185482E+04  0.25500000920E-02 0.  1.
       -2   -1    0    0    0  501  0.00000000000E+00  0.00000000000E+00 -0.10164927250E+04  0.10164927250E+04  0.25500000920E-02 0. -1.
    10030    2    1    2    0    0  0.00000000000E+00  0.00000000000E+00  0.62202582321E+03  0.26550112732E+04  0.25811177300E+04 0.  0.
        5    1    3    3  502    0 -0.44105804285E+03  0.70357022115E+03 -0.70518503154E+03  0.10894270384E+04  0.46999998093E+01 0. -1.
       -5    1    3    3    0  502  0.44105804285E+03 -0.70357022115E+03  0.13272108547E+04  0.15655842348E+04  0.46999998093E+01 0.  1.
</event>
<event>
 5   0  0.1474554E-05  0.2559256E+04  0.7818609E-02  0.8382174E-01
       -1   -1    0    0    0  501  0.00000000000E+00  0.00000000000E+00  0.62042097597E+03  0.62042097599E+03  0.50400001928E-02 0. -1.
        1   -1    0    0  501    0  0.00000000000E+00  0.00000000000E+00 -0.26392522069E+04  0.26392522069E+04  0.50400001928E-02 0.  1.
    10030    2    1    2    0    0  0.00000000000E+00  0.00000000000E+00 -0.20188312309E+04  0.32596731829E+04  0.25592556965E+04 0.  0.
        5    1    3    3  502    0  0.45172241248E+03  0.55350504301E+03 -0.23615603487E+04  0.24672677887E+04  0.46999998093E+01 0.  1.
       -5    1    3    3    0  502 -0.45172241248E+03 -0.55350504301E+03  0.34272911778E+03  0.79240539419E+03  0.46999998093E+01 0. -1.
</event>
<event>
 5   0  0.1497497E-05  0.1768338E+04  0.7818609E-02  0.8723321E-01
       -1   -1    0    0    0  501  0.00000000000E+00  0.00000000000E+00  0.69190012204E+03  0.69190012206E+03  0.50400001928E-02 0.  1.
        1   -1    0    0  501    0  0.00000000000E+00  0.00000000000E+00 -0.11298663520E+04  0.11298663520E+04  0.50400001928E-02 0. -1.
    10030    2    1    2    0    0  0.00000000000E+00  0.00000000000E+00 -0.43796622994E+03  0.18217664741E+04  0.17683378262E+04 0.  0.
        3    1    3    3  502    0  0.51577257659E+03 -0.14106461307E+03 -0.94441335550E+03  0.10852820703E+04  0.10100000352E+00 0. -1.
       -3    1    3    3    0  502 -0.51577257659E+03  0.14106461307E+03  0.50644712555E+03  0.73648440378E+03  0.10100000352E+00 0.  1.
</event>
<event>
 5   0  0.3499642E-05  0.2587216E+04  0.7818609E-02  0.8372557E-01
        2   -1    0    0  501    0  0.00000000000E+00  0.00000000000E+00  0.12462553015E+04  0.12462553015E+04  0.25500000920E-02 0. -1.
       -2   -1    0    0    0  501  0.00000000000E+00  0.00000000000E+00 -0.13427594474E+04  0.13427594474E+04  0.25500000920E-02 0.  1.
    10030    2    1    2    0    0  0.00000000000E+00  0.00000000000E+00 -0.96504145915E+02  0.25890147490E+04  0.25872155535E+04 0.  0.
        2    1    3    3  502    0 -0.65969566984E+03  0.11115824698E+04 -0.99347506999E+02  0.12964119296E+04  0.25500000920E-02 0.  1.
       -2    1    3    3    0  502  0.65969566984E+03 -0.11115824698E+04  0.28433610831E+01  0.12926028194E+04  0.25500000920E-02 0. -1.
</event>
<event>
 5   0  0.3508470E-05  0.2600173E+04  0.7818609E-02  0.8368142E-01
       -2   -1    0    0    0  501  0.00000000000E+00  0.00000000000E+00  0.11115033263E+04  0.11115033263E+04  0.25500000920E-02 0. -1.
        2   -1    0    0  501    0  0.00000000000E+00  0.00000000000E+00 -0.15206657393E+04  0.15206657393E+04  0.25500000920E-02 0.  1.
    10030    2    1    2    0    0  0.00000000000E+00  0.00000000000E+00 -0.40916241304E+03  0.26321690656E+04  0.26001730923E+04 0.  0.
        5    1    3    3  502    0 -0.94849221996E+03 -0.17117709147E+03 -0.10878220106E+04  0.14533815414E+04  0.46999998093E+01 0.  1.
       -5    1    3    3    0  502  0.94849221996E+03  0.17117709147E+03  0.67865959759E+03  0.11787875243E+04  0.46999998093E+01 0. -1.
</event>
<event>
 5   0  0.3849687E-05  0.2511953E+04  0.7818609E-02  0.8398740E-01
        2   -1    0    0  501    0  0.00000000000E+00  0.00000000000E+00  0.17174547247E+04  0.17174547247E+04  0.25500000920E-02 0.  1.
       -2   -1    0    0    0  501  0.00000000000E+00  0.00000000000E+00 -0.91849688320E+03  0.91849688321E+03  0.25500000920E-02 0. -1.
    10030    2    1    2    0    0  0.00000000000E+00  0.00000000000E+00  0.79895784151E+03  0.26359516079E+04  0.25119528751E+04 0.  0.
        1    1    3    3  502    0  0.60797407909E+03 -0.76883396472E+03  0.12235725062E+04  0.15677588539E+04  0.50400001928E-02 0.  1.
       -1    1    3    3    0  502 -0.60797407909E+03  0.76883396472E+03 -0.42461466469E+03  0.10681927540E+04  0.50400001928E-02 0. -1.
</event>
<event>
 5   0  0.3441646E-05  0.2601547E+04  0.7818609E-02  0.8367676E-01
       -2   -1    0    0    0  501  0.00000000000E+00  0.00000000000E+00  0.65152192449E+03  0.65152192450E+03  0.25500000920E-02 0. -1.
        2   -1    0    0  501    0  0.00000000000E+00  0.00000000000E+00 -0.25970132781E+04  0.25970132781E+04  0.25500000920E-02 0.  1.
    10030    2    1    2    0    0  0.00000000000E+00  0.00000000000E+00 -0.19454913536E+04  0.32485352026E+04  0.26015465315E+04 0.  0.
        4    1    3    3  502    0 -0.12790178935E+03  0.99538141278E+00 -0.25891409995E+04  0.25922987071E+04  0.12699999809E+01 0.  1.
       -4    1    3    3    0  502  0.12790178935E+03 -0.99538141278E+00  0.64364964589E+03  0.65623649553E+03  0.12699999809E+01 0. -1.
</event>
<event>
 5   0  0.3508470E-05  0.2606472E+04  0.7818609E-02  0.8366006E-01
       -2   -1    0    0    0  501  0.00000000000E+00  0.00000000000E+00  0.10527200554E+04  0.10527200555E+04  0.25500000920E-02 0. -1.
        2   -1    0    0  501    0  0.00000000000E+00  0.00000000000E+00 -0.16133669808E+04  0.16133669808E+04  0.25500000920E-02 0.  1.
    10030    2    1    2    0    0  0.00000000000E+00  0.00000000000E+00 -0.56064692536E+03  0.26660870363E+04  0.26064717743E+04 0.  0.
        5    1    3    3  502    0  0.86986388566E+03 -0.15722409344E+03  0.69919017221E+03  0.11270632556E+04  0.46999998093E+01 0. -1.
       -5    1    3    3    0  502 -0.86986388566E+03  0.15722409344E+03 -0.12598370976E+04  0.15390237807E+04  0.46999998093E+01 0.  1.
</event>
<event>
 5   0  0.3647623E-05  0.2287438E+04  0.7818609E-02  0.8482891E-01
        2   -1    0    0  501    0  0.00000000000E+00  0.00000000000E+00  0.19329653642E+04  0.19329653642E+04  0.25500000920E-02 0. -1.
       -2   -1    0    0    0  501  0.00000000000E+00  0.00000000000E+00 -0.67672857694E+03  0.67672857694E+03  0.25500000920E-02 0.  1.
    10030    2    1    2    0    0  0.00000000000E+00  0.00000000000E+00  0.12562367872E+04  0.26096939411E+04  0.22874377807E+04 0.  0.
        3    1    3    3  502    0 -0.11357250619E+04  0.13224473460E+03  0.65900243731E+03  0.13197137223E+04  0.10100000352E+00 0.  1.
       -3    1    3    3    0  502  0.11357250619E+04 -0.13224473460E+03  0.59723434993E+03  0.12899802189E+04  0.10100000352E+00 0. -1.
</event>
<event>
 5   0  0.1533248E-05  0.2607558E+04  0.7818609E-02  0.8365638E-01
        1   -1    0    0  501    0  0.00000000000E+00  0.00000000000E+00  0.23282973528E+04  0.23282973528E+04  0.50400001928E-02 0.  1.
       -1   -1    0    0    0  501  0.00000000000E+00  0.00000000000E+00 -0.73007843356E+03  0.73007843358E+03  0.50400001928E-02 0. -1.
    10030    2    1    2    0    0  0.00000000000E+00  0.00000000000E+00  0.15982189192E+04  0.30583757864E+04  0.26075580026E+04 0.  0.
        4    1    3    3  502    0 -0.25866109068E+03  0.82703792391E+03  0.19416626442E+04  0.21262532126E+04  0.12699999809E+01 0.  1.
       -4    1    3    3    0  502  0.25866109068E+03 -0.82703792391E+03 -0.34344372495E+03  0.93212257377E+03  0.12699999809E+01 0. -1.
</event>
<event>
 5   0  0.3508470E-05  0.2718293E+04  0.7818609E-02  0.8329094E-01
       -2   -1    0    0    0  501  0.00000000000E+00  0.00000000000E+00  0.91826869904E+03  0.91826869905E+03  0.25500000920E-02 0. -1.
        2   -1    0    0  501    0  0.00000000000E+00  0.00000000000E+00 -0.20116975972E+04  0.20116975972E+04  0.25500000920E-02 0.  1.
    10030    2    1    2    0    0  0.00000000000E+00  0.00000000000E+00 -0.10934288982E+04  0.29299662963E+04  0.27182927991E+04 0.  0.
        5    1    3    3  502    0 -0.13230769318E+04  0.31060831245E+03 -0.52978282421E+03  0.14586644652E+04  0.46999998093E+01 0. -1.
       -5    1    3    3    0  502  0.13230769318E+04 -0.31060831245E+03 -0.56364607396E+03  0.14713018310E+04  0.46999998093E+01 0.  1.
</event>
<event>
 5   0  0.1474554E-05  0.2303401E+04  0.7818609E-02  0.8476581E-01
        1   -1    0    0  501    0  0.00000000000E+00  0.00000000000E+00  0.16129778258E+04  0.16129778258E+04  0.50400001928E-02 0. -1.
       -1   -1    0    0    0  501  0.00000000000E+00  0.00000000000E+00 -0.82233870833E+03  0.82233870835E+03  0.50400001928E-02 0.  1.
    10030    2    1    2    0    0  0.00000000000E+00  0.00000000000E+00  0.79063911744E+03  0.24353165341E+04  0.23034010522E+04 0.  0.
        5    1    3    3  502    0  0.47509816073E+03 -0.57413952249E+03 -0.53305583957E+03  0.91625600774E+03  0.46999998093E+01 0.  1.
       -5    1    3    3    0  502 -0.47509816073E+03  0.57413952249E+03  0.13236949570E+04  0.15190605264E+04  0.46999998093E+01 0. -1.
</event>
<event>
 5   0  0.1474554E-05  0.2648839E+04  0.7818609E-02  0.8351798E-01
        1   -1    0    0  501    0  0.00000000000E+00  0.00000000000E+00  0.84906046592E+03  0.84906046594E+03  0.50400001928E-02 0.  1.
       -1   -1    0    0    0  501  0.00000000000E+00  0.00000000000E+00 -0.20659150210E+04  0.20659150210E+04  0.50400001928E-02 0. -1.
    10030    2    1    2    0    0  0.00000000000E+00  0.00000000000E+00 -0.12168545551E+04  0.29149754870E+04  0.26488388176E+04 0.  0.
        5    1    3    3  502    0 -0.85456785979E+03  0.33912491001E+03 -0.16575034487E+04  0.18954238851E+04  0.46999998093E+01 0. -1.
       -5    1    3    3    0  502  0.85456785979E+03 -0.33912491001E+03  0.44064889359E+03  0.10195516019E+04  0.46999998093E+01 0.  1.
</event>
<event>
 5   0  0.1474554E-05  0.2586337E+04  0.7818609E-02  0.8372857E-01
       -1   -1    0    0    0  501  0.00000000000E+00  0.00000000000E+00  0.90342054379E+03  0.90342054380E+03  0.50400001928E-02 0. -1.
        1   -1    0    0  501    0  0.00000000000E+00  0.00000000000E+00 -0.18510590971E+04  0.18510590971E+04  0.50400001928E-02 0.  1.
    10030    2    1    2    0    0  0.00000000000E+00  0.00000000000E+00 -0.94763855333E+03  0.27544796409E+04  0.25863370361E+04 0.  0.
        5    1    3    3  502    0 -0.12501689450E+04  0.12934097392E+03 -0.14971384094E+03  0.12657360716E+04  0.46999998093E+01 0.  1.
       -5    1    3    3    0  502  0.12501689450E+04 -0.12934097392E+03 -0.79792471239E+03  0.14887435694E+04  0.46999998093E+01 0. -1.
</event>
<event>
 5   0  0.1451052E-05  0.2865502E+04  0.7818609E-02  0.8283216E-01
       -1   -1    0    0    0  501  0.00000000000E+00  0.00000000000E+00  0.18053114551E+04  0.18053114551E+04  0.50400001928E-02 0. -1.
        1   -1    0    0  501    0  0.00000000000E+00  0.00000000000E+00 -0.11370756512E+04  0.11370756512E+04  0.50400001928E-02 0.  1.
    10030    2    1    2    0    0  0.00000000000E+00  0.00000000000E+00  0.66823580385E+03  0.29423871063E+04  0.28655021888E+04 0.  0.
        1    1    3    3  502    0 -0.14092606769E+03  0.10818994833E+04 -0.61945898708E+03  0.12546298598E+04  0.50400001928E-02 0.  1.
       -1    1    3    3    0  502  0.14092606769E+03 -0.10818994833E+04  0.12876947909E+04  0.16877572465E+04  0.50400001928E-02 0. -1.
</event>
<event>
 5   0  0.3647623E-05  0.2662488E+04  0.7818609E-02  0.8347280E-01
       -2   -1    0    0    0  501  0.00000000000E+00  0.00000000000E+00  0.12618603587E+04  0.12618603587E+04  0.25500000920E-02 0. -1.
        2   -1    0    0  501    0  0.00000000000E+00  0.00000000000E+00 -0.14044424360E+04  0.14044424360E+04  0.25500000920E-02 0.  1.
    10030    2    1    2    0    0  0.00000000000E+00  0.00000000000E+00 -0.14258207732E+03  0.26663027947E+04  0.26624877360E+04 0.  0.
        3    1    3    3  502    0 -0.70141171570E+03 -0.11277025248E+04  0.21138812054E+02  0.13282086579E+04  0.10100000352E+00 0.  1.
       -3    1    3    3    0  502  0.70141171570E+03  0.11277025248E+04 -0.16372088937E+03  0.13380941369E+04  0.10100000352E+00 0. -1.
</event>
<event>
 5   0  0.1217200E-05  0.2560503E+04  0.7818609E-02  0.8381743E-01
       -4   -1    0    0    0  501  0.00000000000E+00  0.00000000000E+00  0.10796684684E+04  0.10796692153E+04  0.12699999809E+01 0.  1.
        4   -1    0    0  501    0  0.00000000000E+00  0.00000000000E+00 -0.15180977171E+04  0.15180982484E+04  0.12699999809E+01 0. -1.
    10030    2    1    2    0    0  0.00000000000E+00  0.00000000000E+00 -0.43842924877E+03  0.25977674637E+04  0.25605029953E+04 0.  0.
        1    1    3    3  502    0  0.77823610449E+03  0.10071261968E+04 -0.35938938836E+03  0.13225412444E+04  0.50400001928E-02 0. -1.
       -1    1    3    3    0  502 -0.77823610449E+03 -0.10071261968E+04 -0.79039860412E+02  0.12752262192E+04  0.50400001928E-02 0.  1.
</event>
<event>
 5   0  0.1533248E-05  0.2525270E+04  0.7818609E-02  0.8394038E-01
        1   -1    0    0  501    0  0.00000000000E+00  0.00000000000E+00  0.20889328526E+04  0.20889328526E+04  0.50400001928E-02 0.  1.
       -1   -1    0    0    0  501  0.00000000000E+00  0.00000000000E+00 -0.76318752845E+03  0.76318752846E+03  0.50400001928E-02 0. -1.
    10030    2    1    2    0    0  0.00000000000E+00  0.00000000000E+00  0.13257453241E+04  0.28521203811E+04  0.25252702833E+04 0.  0.
        4    1    3    3  502    0 -0.10391998168E+04  0.52182287079E+02 -0.14495659928E+03  0.10505585557E+04  0.12699999809E+01 0. -1.
       -4    1    3    3    0  502  0.10391998168E+04 -0.52182287079E+02  0.14707019234E+04  0.18015618254E+04  0.12699999809E+01 0.  1.
</event>
<event>
 5   0  0.3499642E-05  0.2601078E+04  0.7818609E-02  0.8367835E-01
       -2   -1    0    0    0  501  0.00000000000E+00  0.00000000000E+00  0.10030715380E+04  0.10030715380E+04  0.25500000920E-02 0. -1.
        2   -1    0    0  501    0  0.00000000000E+00  0.00000000000E+00 -0.16862225571E+04  0.16862225571E+04  0.25500000920E-02 0.  1.
    10030    2    1    2    0    0  0.00000000000E+00  0.00000000000E+00 -0.68315101912E+03  0.26892940951E+04  0.26010781255E+04 0.  0.
        2    1    3    3  502    0 -0.14274871184E+03 -0.91366943861E+03  0.60389612660E+03  0.11044725300E+04  0.25500000920E-02 0. -1.
       -2    1    3    3    0  502  0.14274871184E+03  0.91366943861E+03 -0.12870471457E+04  0.15848215651E+04  0.25500000920E-02 0.  1.
</event>
<event>
 5   0  0.3499642E-05  0.2415399E+04  0.7818609E-02  0.8433761E-01
       -2   -1    0    0    0  501  0.00000000000E+00  0.00000000000E+00  0.96506956670E+03  0.96506956670E+03  0.25500000920E-02 0.  1.
        2   -1    0    0  501    0  0.00000000000E+00  0.00000000000E+00 -0.15113300516E+04  0.15113300516E+04  0.25500000920E-02 0. -1.
    10030    2    1    2    0    0  0.00000000000E+00  0.00000000000E+00 -0.54626048493E+03  0.24763996183E+04  0.24153994602E+04 0.  0.
        2    1    3    3  502    0  0.17032803234E+03 -0.73251104165E+02 -0.14966510227E+04  0.15080920551E+04  0.25500000920E-02 0. -1.
       -2    1    3    3    0  502 -0.17032803234E+03  0.73251104165E+02  0.95039053774E+03  0.96830756327E+03  0.25500000920E-02 0.  1.
</event>
<event>
 5   0  0.1451052E-05  0.2608844E+04  0.7818609E-02  0.8365203E-01
        1   -1    0    0  501    0  0.00000000000E+00  0.00000000000E+00  0.15238247610E+04  0.15238247610E+04  0.50400001928E-02 0.  1.
       -1   -1    0    0    0  501  0.00000000000E+00  0.00000000000E+00 -0.11166094766E+04  0.11166094766E+04  0.50400001928E-02 0. -1.
    10030    2    1    2    0    0  0.00000000000E+00  0.00000000000E+00  0.40721528440E+03  0.26404342375E+04  0.26088443179E+04 0.  0.
        1    1    3    3  502    0  0.67372787041E+03 -0.94354917866E+03 -0.40139545850E+03  0.12269118184E+04  0.50400001928E-02 0. -1.
       -1    1    3    3    0  502 -0.67372787041E+03  0.94354917866E+03  0.80861074290E+03  0.14135224192E+04  0.50400001928E-02 0.  1.
</event>
<event>
 5   0  0.3508470E-05  0.2672498E+04  0.7818609E-02  0.8343984E-01
       -2   -1    0    0    0  501  0.00000000000E+00  0.00000000000E+00  0.74410879416E+03  0.74410879417E+03  0.25500000920E-02 0. -1.
        2   -1    0    0  501    0  0.00000000000E+00  0.00000000000E+00 -0.23995971817E+04  0.23995971817E+04  0.25500000920E-02 0.  1.
    10030    2    1    2    0    0  0.00000000000E+00  0.00000000000E+00 -0.16554883876E+04  0.31437059759E+04  0.26724979816E+04 0.  0.
        5    1    3    3  502    0  0.30065946168E+03  0.12968082739E+04 -0.96407255454E+03  0.16436440587E+04  0.46999998093E+01 0.  1.
       -5    1    3    3    0  502 -0.30065946168E+03 -0.12968082739E+04 -0.69141583301E+03  0.15000619172E+04  0.46999998093E+01 0. -1.
</event>
<event>
 5   0  0.1497497E-05  0.2399477E+04  0.7818609E-02  0.8439700E-01
        1   -1    0    0  501    0  0.00000000000E+00  0.00000000000E+00  0.19913473283E+04  0.19913473283E+04  0.50400001928E-02 0.  1.
       -1   -1    0    0    0  501  0.00000000000E+00  0.00000000000E+00 -0.72281317363E+03  0.72281317364E+03  0.50400001928E-02 0. -1.
    10030    2    1    2    0    0  0.00000000000E+00  0.00000000000E+00  0.12685341547E+04  0.27141605020E+04  0.23994766781E+04 0.  0.
        3    1    3    3  502    0  0.10265664295E+04  0.22044869850E+03  0.12908545281E+04  0.16639536309E+04  0.10100000352E+00 0.  1.
       -3    1    3    3    0  502 -0.10265664295E+04 -0.22044869850E+03 -0.22320373412E+02  0.10502068711E+04  0.10100000352E+00 0. -1.
</event>
<event>
 5   0  0.3441646E-05  0.2605683E+04  0.7818609E-02  0.8366273E-01
       -2   -1    0    0    0  501  0.00000000000E+00  0.00000000000E+00  0.11201778226E+04  0.11201778226E+04  0.25500000920E-02 0.  1.
        2   -1    0    0  501    0  0.00000000000E+00  0.00000000000E+00 -0.15152911759E+04  0.15152911759E+04  0.25500000920E-02 0. -1.
    10030    2    1    2    0    0  0.00000000000E+00  0.00000000000E+00 -0.39511335328E+03  0.26354689985E+04  0.26056826898E+04 0.  0.
        4    1    3    3  502    0 -0.11926992739E+04  0.32609521468E+03 -0.61276654112E+03  0.13799833673E+04  0.12699999809E+01 0. -1.
       -4    1    3    3    0  502  0.11926992739E+04 -0.32609521468E+03  0.21765318784E+03  0.12554856312E+04  0.12699999809E+01 0.  1.
</event>
<event>
 5   0  0.1217200E-05  0.2612865E+04  0.7818609E-02  0.8363844E-01
        4   -1    0    0  501    0  0.00000000000E+00  0.00000000000E+00  0.10685038696E+04  0.10685046243E+04  0.12699999809E+01 0. -1.
       -4   -1    0    0    0  501  0.00000000000E+00  0.00000000000E+00 -0.15973406516E+04  0.15973411564E+04  0.12699999809E+01 0.  1.
    10030    2    1    2    0    0  0.00000000000E+00  0.00000000000E+00 -0.52883678198E+03  0.26658457807E+04  0.26128653591E+04 0.  0.
        1    1    3    3  502    0  0.42129250231E+03  0.32529116041E+03 -0.14817007595E+04  0.15744011091E+04  0.50400001928E-02 0.  1.
       -1    1    3    3    0  502 -0.42129250231E+03 -0.32529116041E+03  0.95286397753E+03  0.10914446716E+04  0.50400001928E-02 0. -1.
</event>
<event>
 5   0  0.1451052E-05  0.2506054E+04  0.7818609E-02  0.8400832E-01
        1   -1    0    0  501    0  0.00000000000E+00  0.00000000000E+00  0.67967400957E+03  0.67967400959E+03  0.50400001928E-02 0. -1.
       -1   -1    0    0    0  501  0.00000000000E+00  0.00000000000E+00 -0.23100440410E+04  0.23100440410E+04  0.50400001928E-02 0.  1.
    10030    2    1    2    0    0  0.00000000000E+00  0.00000000000E+00 -0.16303700314E+04  0.29897180506E+04  0.25060541859E+04 0.  0.
        1    1    3    3  502    0 -0.39426145320E+03  0.47466198146E+03 -0.21162263980E+04  0.22043503029E+04  0.50400001928E-02 0.  1.
       -1    1    3    3    0  502  0.39426145320E+03 -0.47466198146E+03  0.48585636661E+03  0.78536774769E+03  0.50400001928E-02 0. -1.
</event>
<event>
 5   0  0.1451052E-05  0.2628390E+04  0.7818609E-02  0.8358621E-01
        1   -1    0    0  501    0  0.00000000000E+00  0.00000000000E+00  0.22180782775E+04  0.22180782775E+04  0.50400001928E-02 0. -1.
       -1   -1    0    0    0  501  0.00000000000E+00  0.00000000000E+00 -0.77865082611E+03  0.77865082613E+03  0.50400001928E-02 0.  1.
    10030    2    1    2    0    0  0.00000000000E+00  0.00000000000E+00  0.14394274514E+04  0.29967291036E+04  0.26283899887E+04 0.  0.
        1    1    3    3  502    0 -0.57623418252E+03  0.16493229972E+03 -0.61374170384E+03  0.85786209594E+03  0.50400001928E-02 0.  1.
       -1    1    3    3    0  502  0.57623418252E+03 -0.16493229972E+03  0.20531691552E+04  0.21388670077E+04  0.50400001928E-02 0. -1.
</event>
<event>
 5   0  0.1497497E-05  0.2678010E+04  0.7818609E-02  0.8342175E-01
       -1   -1    0    0    0  501  0.00000000000E+00  0.00000000000E+00  0.11613193146E+04  0.11613193147E+04  0.50400001928E-02 0. -1.
        1   -1    0    0  501    0  0.00000000000E+00  0.00000000000E+00 -0.15438771263E+04  0.15438771263E+04  0.50400001928E-02 0.  1.
    10030    2    1    2    0    0  0.00000000000E+00  0.00000000000E+00 -0.38255781167E+03  0.27051964410E+04  0.26780099524E+04 0.  0.
        3    1    3    3  502    0 -0.81840196692E+03 -0.36711530212E+03  0.81298615058E+03  0.12105791654E+04  0.10100000352E+00 0. -1.
       -3    1    3    3    0  502  0.81840196692E+03  0.36711530212E+03 -0.11955439623E+04  0.14946172756E+04  0.10100000352E+00 0.  1.
</event>
<event>
 5   0  0.3441646E-05  0.2632037E+04  0.7818609E-02  0.8357400E-01
        2   -1    0    0  501    0  0.00000000000E+00  0.00000000000E+00  0.13369261268E+04  0.13369261268E+04  0.25500000920E-02 0. -1.
       -2   -1    0    0    0  501  0.00000000000E+00  0.00000000000E+00 -0.12954376521E+04  0.12954376521E+04  0.25500000920E-02 0.  1.
    10030    2    1    2    0    0  0.00000000000E+00  0.00000000000E+00  0.41488474644E+02  0.26323637789E+04  0.26320368103E+04 0.  0.
        4    1    3    3  502    0  0.12353546638E+04  0.45358897252E+03  0.28408647612E+02  0.13163026876E+04  0.12699999809E+01 0.  1.
       -4    1    3    3    0  502 -0.12353546638E+04 -0.45358897252E+03  0.13079827032E+02  0.13160610913E+04  0.12699999809E+01 0. -1.
</event>
<event>
 5   0  0.3849687E-05  0.2603261E+04  0.7818609E-02  0.8367094E-01
       -2   -1    0    0    0  501  0.00000000000E+00  0.00000000000E+00  0.10538296053E+04  0.10538296053E+04  0.25500000920E-02 0.  1.
        2   -1    0    0  501    0  0.00000000000E+00  0.00000000000E+00 -0.16077006884E+04  0.16077006884E+04  0.25500000920E-02 0. -1.
    10030    2    1    2    0    0  0.00000000000E+00  0.00000000000E+00 -0.55387108306E+03  0.26615302937E+04  0.26032614789E+04 0.  0.
        1    1    3    3  502    0  0.78281310810E+03  0.86864111873E+03 -0.86149264845E+03  0.14524129367E+04  0.50400001928E-02 0.  1.
       -1    1    3    3    0  502 -0.78281310810E+03 -0.86864111873E+03  0.30762156539E+03  0.12091173570E+04  0.50400001928E-02 0. -1.
</event>
<event>
 5   0  0.1217200E-05  0.2600034E+04  0.7818609E-02  0.8368190E-01
        4   -1    0    0  501    0  0.00000000000E+00  0.00000000000E+00  0.19036069813E+04  0.19036074049E+04  0.12699999809E+01 0.  1.
       -4   -1    0    0    0  501  0.00000000000E+00  0.00000000000E+00 -0.88781057594E+03  0.88781148429E+03  0.12699999809E+01 0. -1.
    10030    2    1    2    0    0  0.00000000000E+00  0.00000000000E+00  0.10157964053E+04  0.27914188892E+04  0.26000340532E+04 0.  0.
        3    1    3    3  502    0 -0.57492000475E+03  0.77502021337E+03 -0.42734670671E+03  0.10553741332E+04  0.10100000352E+00 0. -1.
       -3    1    3    3    0  502  0.57492000475E+03 -0.77502021337E+03  0.14431431120E+04  0.17360447560E+04  0.10100000352E+00 0.  1.
</event>
<event>
 5   0  0.1435062E-05  0.2629593E+04  0.7818609E-02  0.8358218E-01
        1   -1    0    0  501    0  0.00000000000E+00  0.00000000000E+00  0.15675132161E+04  0.15675132161E+04  0.50400001928E-02 0.  1.
       -1   -1    0    0    0  501  0.00000000000E+00  0.00000000000E+00 -0.11028232329E+04  0.11028232330E+04  0.50400001928E-02 0. -1.
    10030    2    1    2    0    0  0.00000000000E+00  0.00000000000E+00  0.46468998318E+03  0.26703364491E+04  0.26295931189E+04 0.  0.
        2    1    3    3  502    0 -0.96484562819E+03  0.34293780688E+03  0.10698393245E+04  0.14809083718E+04  0.25500000920E-02 0.  1.
       -2    1    3    3    0  502  0.96484562819E+03 -0.34293780688E+03 -0.60514934129E+03  0.11894280772E+04  0.25500000920E-02 0. -1.
</event>
<event>
 5   0  0.1217200E-05  0.2551063E+04  0.7818609E-02  0.8385016E-01
       -3   -1    0    0    0  501  0.00000000000E+00  0.00000000000E+00  0.89371121566E+03  0.89371122137E+03  0.10100000352E+00 0.  1.
        3   -1    0    0  501    0  0.00000000000E+00  0.00000000000E+00 -0.18204773397E+04  0.18204773425E+04  0.10100000352E+00 0. -1.
    10030    2    1    2    0    0  0.00000000000E+00  0.00000000000E+00 -0.92676612401E+03  0.27141885638E+04  0.25510633296E+04 0.  0.
        4    1    3    3  502    0  0.24258063857E+03 -0.11850571998E+04 -0.89394989002E+03  0.15041123468E+04  0.12699999809E+01 0. -1.
       -4    1    3    3    0  502 -0.24258063857E+03  0.11850571998E+04 -0.32816233999E+02  0.12100762171E+04  0.12699999809E+01 0.  1.
</event>
<event>
 5   0  0.3441646E-05  0.2580992E+04  0.7818609E-02  0.8374687E-01
        2   -1    0    0  501    0  0.00000000000E+00  0.00000000000E+00  0.19084755767E+04  0.19084755767E+04  0.25500000920E-02 0. -1.
       -2   -1    0    0    0  501  0.00000000000E+00  0.00000000000E+00 -0.87262282006E+03  0.87262282006E+03  0.25500000920E-02 0.  1.
    10030    2    1    2    0    0  0.00000000000E+00  0.00000000000E+00  0.10358527567E+04  0.27810983968E+04  0.25809915457E+04 0.  0.
        4    1    3    3  502    0  0.23490192840E+03 -0.98719896983E+02  0.18811002754E+04  0.18982793243E+04  0.12699999809E+01 0. -1.
       -4    1    3    3    0  502 -0.23490192840E+03  0.98719896983E+02 -0.84524751871E+03  0.88281907252E+03  0.12699999809E+01 0.  1.
</event>
<event>
 5   0  0.1497497E-05  0.2472160E+04  0.7818609E-02  0.8412971E-01
       -1   -1    0    0    0  501  0.00000000000E+00  0.00000000000E+00  0.84026810649E+03  0.84026810651E+03  0.50400001928E-02 0.  1.
        1   -1    0    0  501    0  0.00000000000E+00  0.00000000000E+00 -0.18183413749E+04  0.18183413749E+04  0.50400001928E-02 0. -1.
    10030    2    1    2    0    0  0.00000000000E+00  0.00000000000E+00 -0.97807326839E+03  0.26586094814E+04  0.24721604026E+04 0.  0.
        3    1    3    3  502    0  0.50914039524E+03  0.11220488829E+04 -0.38324784105E+03  0.12903862040E+04  0.10100000352E+00 0. -1.
       -3    1    3    3    0  502 -0.50914039524E+03 -0.11220488829E+04 -0.59482542734E+03  0.13682232774E+04  0.10100000352E+00 0.  1.
</event>
<event>
 5   0  0.3441646E-05  0.2593892E+04  0.7818609E-02  0.8370279E-01
       -2   -1    0    0    0  501  0.00000000000E+00  0.00000000000E+00  0.10731595030E+04  0.10731595030E+04  0.25500000920E-02 0.  1.
        2   -1    0    0  501    0  0.00000000000E+00  0.00000000000E+00 -0.15673987011E+04  0.15673987011E+04  0.25500000920E-02 0. -1.
    10030    2    1    2    0    0  0.00000000000E+00  0.00000000000E+00 -0.49423919806E+03  0.26405582042E+04  0.25938919108E+04 0.  0.
        4    1    3    3  502    0 -0.11202892374E+04 -0.11609456411E+03  0.40752155124E+03  0.11977484506E+04  0.12699999809E+01 0. -1.
       -4    1    3    3    0  502  0.11202892374E+04  0.11609456411E+03 -0.90176074930E+03  0.14428097536E+04  0.12699999809E+01 0.  1.
</event>
<event>
 5   0  0.1497497E-05  0.2663453E+04  0.7818609E-02  0.8346961E-01
       -1   -1    0    0    0  501  0.00000000000E+00  0.00000000000E+00  0.13479119194E+04  0.13479119194E+04  0.50400001928E-02 0.  1.
        1   -1    0    0  501    0  0.00000000000E+00  0.00000000000E+00 -0.13157356557E+04  0.13157356557E+04  0.50400001928E-02 0. -1.
    10030    2    1    2    0    0  0.00000000000E+00  0.00000000000E+00  0.32176263657E+02  0.26636475751E+04  0.26634532270E+04 0.  0.
        3    1    3    3  502    0  0.10609178768E+04 -0.76170859006E+03  0.27639359244E+03  0.13349682190E+04  0.10100000352E+00 0.  1.
       -3    1    3    3    0  502 -0.10609178768E+04  0.76170859006E+03 -0.24421732879E+03  0.13286793561E+04  0.10100000352E+00 0. -1.
</event>
<event>
 5   0  0.1497497E-05  0.2448593E+04  0.7818609E-02  0.8421532E-01
       -1   -1    0    0    0  501  0.00000000000E+00  0.00000000000E+00  0.12148637882E+04  0.12148637882E+04  0.50400001928E-02 0. -1.
        1   -1    0    0  501    0  0.00000000000E+00  0.00000000000E+00 -0.12338022190E+04  0.12338022190E+04  0.50400001928E-02 0.  1.
    10030    2    1    2    0    0  0.00000000000E+00  0.00000000000E+00 -0.18938430864E+02  0.24486660072E+04  0.24485927695E+04 0.  0.
        3    1    3    3  502    0 -0.20301916021E+03 -0.46779349749E+03  0.11036023013E+04  0.12157243049E+04  0.10100000352E+00 0. -1.
       -3    1    3    3    0  502  0.20301916021E+03  0.46779349749E+03 -0.11225407322E+04  0.12329417023E+04  0.10100000352E+00 0.  1.
</event>
<event>
 5   0  0.3441646E-05  0.2606007E+04  0.7818609E-02  0.8366164E-01
        2   -1    0    0  501    0  0.00000000000E+00  0.00000000000E+00  0.90768116059E+03  0.90768116060E+03  0.25500000920E-02 0. -1.
       -2   -1    0    0    0  501  0.00000000000E+00  0.00000000000E+00 -0.18705008777E+04  0.18705008777E+04  0.25500000920E-02 0.  1.
    10030    2    1    2    0    0  0.00000000000E+00  0.00000000000E+00 -0.96281971712E+03  0.27781820383E+04  0.26060072199E+04 0.  0.
        4    1    3    3  502    0  0.10155655995E+04  0.57243650117E+02 -0.13495630484E+04  0.16899622354E+04  0.12699999809E+01 0. -1.
       -4    1    3    3    0  502 -0.10155655995E+04 -0.57243650117E+02  0.38674333133E+03  0.10882198030E+04  0.12699999809E+01 0.  1.
</event>
<event>
 5   0  0.3849687E-05  0.2608393E+04  0.7818609E-02  0.8365356E-01
       -2   -1    0    0    0  501  0.00000000000E+00  0.00000000000E+00  0.99093451357E+03  0.99093451357E+03  0.25500000920E-02 0.  1.
        2   -1    0    0  501    0  0.00000000000E+00  0.00000000000E+00 -0.17164899696E+04  0.17164899696E+04  0.25500000920E-02 0. -1.
    10030    2    1    2    0    0  0.00000000000E+00  0.00000000000E+00 -0.72555545603E+03  0.27074244832E+04  0.26083934926E+04 0.  0.
        1    1    3    3  502    0 -0.16978619746E+03 -0.11677176152E+04 -0.93932793380E+03  0.15082203913E+04  0.50400001928E-02 0.  1.
       -1    1    3    3    0  502  0.16978619746E+03  0.11677176152E+04  0.21377247778E+03  0.11992040918E+04  0.50400001928E-02 0. -1.
</event>
<event>
 5   0  0.3499642E-05  0.2595876E+04  0.7818609E-02  0.8369603E-01
       -2   -1    0    0    0  501  0.00000000000E+00  0.00000000000E+00  0.13283124429E+04  0.13283124429E+04  0.25500000920E-02 0. -1.
        2   -1    0    0  501    0  0.00000000000E+00  0.00000000000E+00 -0.12682580430E+04  0.12682580430E+04  0.25500000920E-02 0.  1.
    10030    2    1    2    0    0  0.00000000000E+00  0.00000000000E+00  0.60054399930E+02  0.25965704859E+04  0.25958759133E+04 0.  0.
        2    1    3    3  502    0 -0.37408076440E+03  0.25654516187E+03  0.12464492541E+04  0.13264190821E+04  0.25500000920E-02 0. -1.
       -2    1    3    3    0  502  0.37408076440E+03 -0.25654516187E+03 -0.11863948542E+04  0.12701514037E+04  0.25500000920E-02 0.  1.
</event>
<event>
 5   0  0.3441646E-05  0.2568203E+04  0.7818609E-02  0.8379083E-01
        2   -1    0    0  501    0  0.00000000000E+00  0.00000000000E+00  0.12646215857E+04  0.12646215857E+04  0.25500000920E-02 0.  1.
       -2   -1    0    0    0  501  0.00000000000E+00  0.00000000000E+00 -0.13038814391E+04  0.13038814391E+04  0.25500000920E-02 0. -1.
    10030    2    1    2    0    0  0.00000000000E+00  0.00000000000E+00 -0.39259853386E+02  0.25685030247E+04  0.25682029616E+04 0.  0.
        4    1    3    3  502    0  0.28934403392E+03  0.78431716748E+03 -0.99444458876E+03  0.12991516625E+04  0.12699999809E+01 0. -1.
       -4    1    3    3    0  502 -0.28934403392E+03 -0.78431716748E+03  0.95518473537E+03  0.12693513622E+04  0.12699999809E+01 0.  1.
</event>
<event>
 5   0  0.1451052E-05  0.2563246E+04  0.7818609E-02  0.8380794E-01
        1   -1    0    0  501    0  0.00000000000E+00  0.00000000000E+00  0.25757519766E+04  0.25757519766E+04  0.50400001928E-02 0. -1.
       -1   -1    0    0    0  501  0.00000000000E+00  0.00000000000E+00 -0.63770026823E+03  0.63770026825E+03  0.50400001928E-02 0.  1.
    10030    2    1    2    0    0  0.00000000000E+00  0.00000000000E+00  0.19380517083E+04  0.32134522448E+04  0.25632461656E+04 0.  0.
        1    1    3    3  502    0  0.23509541048E+02 -0.83096320254E+03  0.21919150645E+04  0.23442577061E+04  0.50400001928E-02 0. -1.
       -1    1    3    3    0  502 -0.23509541048E+02  0.83096320254E+03 -0.25386335619E+03  0.86919453872E+03  0.50400001928E-02 0.  1.
</event>
<event>
 5   0  0.1497497E-05  0.2626875E+04  0.7818609E-02  0.8359129E-01
        1   -1    0    0  501    0  0.00000000000E+00  0.00000000000E+00  0.32741974895E+04  0.32741974895E+04  0.50400001928E-02 0. -1.
       -1   -1    0    0    0  501  0.00000000000E+00  0.00000000000E+00 -0.52688287105E+03  0.52688287107E+03  0.50400001928E-02 0.  1.
    10030    2    1    2    0    0  0.00000000000E+00  0.00000000000E+00  0.27473146185E+04  0.38010803606E+04  0.26268753862E+04 0.  0.
        3    1    3    3  502    0 -0.39048781034E+02  0.10886349717E+04  0.31184589288E+03  0.11330925734E+04  0.10100000352E+00 0.  1.
       -3    1    3    3    0  502  0.39048781034E+02 -0.10886349717E+04  0.24354687256E+04  0.26679877872E+04  0.10100000352E+00 0. -1.
</event>
<event>
 5   0  0.3499642E-05  0.2406945E+04  0.7818609E-02  0.8436908E-01
       -2   -1    0    0    0  501  0.00000000000E+00  0.00000000000E+00  0.10074231285E+04  0.10074231285E+04  0.25500000920E-02 0. -1.
        2   -1    0    0  501    0  0.00000000000E+00  0.00000000000E+00 -0.14376742811E+04  0.14376742811E+04  0.25500000920E-02 0.  1.
    10030    2    1    2    0    0  0.00000000000E+00  0.00000000000E+00 -0.43025115257E+03  0.24450974095E+04  0.24069452191E+04 0.  0.
        2    1    3    3  502    0 -0.11581336489E+03  0.95331074634E+03  0.52172156601E+03  0.10928895219E+04  0.25500000920E-02 0. -1.
       -2    1    3    3    0  502  0.11581336489E+03 -0.95331074634E+03 -0.95197271858E+03  0.13522078877E+04  0.25500000920E-02 0.  1.
</event>
<event>
 5   0  0.1435062E-05  0.2582064E+04  0.7818609E-02  0.8374319E-01
       -1   -1    0    0    0  501  0.00000000000E+00  0.00000000000E+00  0.91020146384E+03  0.91020146386E+03  0.50400001928E-02 0. -1.
        1   -1    0    0  501    0  0.00000000000E+00  0.00000000000E+00 -0.18312023322E+04  0.18312023323E+04  0.50400001928E-02 0.  1.
    10030    2    1    2    0    0  0.00000000000E+00  0.00000000000E+00 -0.92100086840E+03  0.27414037961E+04  0.25820635495E+04 0.  0.
        2    1    3    3  502    0  0.12418362724E+04 -0.40865033878E+02 -0.88241433587E+02  0.12456379205E+04  0.25500000920E-02 0. -1.
       -2    1    3    3    0  502 -0.12418362724E+04  0.40865033878E+02 -0.83275943482E+03  0.14957658756E+04  0.25500000920E-02 0.  1.
</event>
<event>
 5   0  0.1533248E-05  0.2491392E+04  0.7818609E-02  0.8406059E-01
        1   -1    0    0  501    0  0.00000000000E+00  0.00000000000E+00  0.18725375632E+04  0.18725375632E+04  0.50400001928E-02 0.  1.
       -1   -1    0    0    0  501  0.00000000000E+00  0.00000000000E+00 -0.82869276461E+03  0.82869276463E+03  0.50400001928E-02 0. -1.
    10030    2    1    2    0    0  0.00000000000E+00  0.00000000000E+00  0.10438447986E+04  0.27012303278E+04  0.24913918440E+04 0.  0.
        4    1    3    3  502    0  0.61641795811E+03  0.27293901720E+01  0.16955823356E+04  0.18041562068E+04  0.12699999809E+01 0.  1.
       -4    1    3    3    0  502 -0.61641795811E+03 -0.27293901720E+01 -0.65173753702E+03  0.89707412108E+03  0.12699999809E+01 0. -1.
</event>
<event>
 5   0  0.1533248E-05  0.2733285E+04  0.7818609E-02  0.8324285E-01
       -1   -1    0    0    0  501  0.00000000000E+00  0.00000000000E+00  0.94640760936E+03  0.94640760937E+03  0.50400001928E-02 0.  1.
        1   -1    0    0  501    0  0.00000000000E+00  0.00000000000E+00 -0.19734744161E+04  0.19734744161E+04  0.50400001928E-02 0. -1.
    10030    2    1    2    0    0  0.00000000000E+00  0.00000000000E+00 -0.10270668067E+04  0.29198820254E+04  0.27332846206E+04 0.  0.
        4    1    3    3  502    0 -0.63879007458E+03 -0.77910768472E+03  0.47289449798E+03  0.11129655713E+04  0.12699999809E+01 0.  1.
       -4    1    3    3    0  502  0.63879007458E+03  0.77910768472E+03 -0.14999613047E+04  0.18069164541E+04  0.12699999809E+01 0. -1.
</event>
<event>
 5   0  0.3499642E-05  0.2578580E+04  0.7818609E-02  0.8375514E-01
        2   -1    0    0  501    0  0.00000000000E+00  0.00000000000E+00  0.18729640267E+04  0.18729640267E+04  0.25500000920E-02 0.  1.
       -2   -1    0    0    0  501  0.00000000000E+00  0.00000000000E+00 -0.88750690726E+03  0.88750690727E+03  0.25500000920E-02 0. -1.
    10030    2    1    2    0    0  0.00000000000E+00  0.00000000000E+00  0.98545711940E+03  0.27604709339E+04  0.25785798500E+04 0.  0.
        2    1    3    3  502    0 -0.10427943023E+04 -0.10003641925E+03 -0.31184508797E+03  0.10930117113E+04  0.25500000920E-02 0. -1.
       -2    1    3    3    0  502  0.10427943023E+04  0.10003641925E+03  0.12973022074E+04  0.16674592227E+04  0.25500000920E-02 0.  1.
</event>
<event>
 5   0  0.1451052E-05  0.2633341E+04  0.7818609E-02  0.8356963E-01
       -1   -1    0    0    0  501  0.00000000000E+00  0.00000000000E+00  0.72956864113E+03  0.72956864115E+03  0.50400001928E-02 0. -1.
        1   -1    0    0  501    0  0.00000000000E+00  0.00000000000E+00 -0.23762285758E+04  0.23762285758E+04  0.50400001928E-02 0.  1.
    10030    2    1    2    0    0  0.00000000000E+00  0.00000000000E+00 -0.16466599346E+04  0.31057972169E+04  0.26333414918E+04 0.  0.
        1    1    3    3  502    0 -0.13887326547E+03 -0.77668972332E+03  0.41986821452E+03  0.89376844191E+03  0.50400001928E-02 0. -1.
       -1    1    3    3    0  502  0.13887326547E+03  0.77668972332E+03 -0.20665281492E+04  0.22120287750E+04  0.50400001928E-02 0.  1.
</event>
<event>
 5   0  0.3499642E-05  0.2597260E+04  0.7818609E-02  0.8369132E-01
       -2   -1    0    0    0  501  0.00000000000E+00  0.00000000000E+00  0.80945380673E+03  0.80945380674E+03  0.25500000920E-02 0.  1.
        2   -1    0    0  501    0  0.00000000000E+00  0.00000000000E+00 -0.20834297247E+04  0.20834297247E+04  0.25500000920E-02 0. -1.
    10030    2    1    2    0    0  0.00000000000E+00  0.00000000000E+00 -0.12739759180E+04  0.28928835315E+04  0.25972601885E+04 0.  0.
        2    1    3    3  502    0 -0.45501735979E+03  0.11058616912E+04 -0.72917785183E+02  0.11980350084E+04  0.25500000920E-02 0.  1.
       -2    1    3    3    0  502  0.45501735979E+03 -0.11058616912E+04 -0.12010581328E+04  0.16948485231E+04  0.25500000920E-02 0. -1.
</event>
<event>
 5   0  0.3499642E-05  0.2620416E+04  0.7818609E-02  0.8361299E-01
        2   -1    0    0  501    0  0.00000000000E+00  0.00000000000E+00  0.14933128326E+04  0.14933128326E+04  0.25500000920E-02 0.  1.
       -2   -1    0    0    0  501  0.00000000000E+00  0.00000000000E+00 -0.11495547118E+04  0.11495547118E+04  0.25500000920E-02 0. -1.
    10030    2    1    2    0    0  0.00000000000E+00  0.00000000000E+00  0.34375812085E+03  0.26428675444E+04  0.26204158471E+04 0.  0.
        2    1    3    3  502    0 -0.63501132076E+03 -0.48363823812E+03  0.12197707574E+04  0.14577331798E+04  0.25500000920E-02 0.  1.
       -2    1    3    3    0  502  0.63501132076E+03  0.48363823812E+03 -0.87601263652E+03  0.11851343646E+04  0.25500000920E-02 0. -1.
</event>
<event>
 5   0  0.3499642E-05  0.2509556E+04  0.7818609E-02  0.8399589E-01
       -2   -1    0    0    0  501  0.00000000000E+00  0.00000000000E+00  0.61891182911E+03  0.61891182912E+03  0.25500000920E-02 0. -1.
        2   -1    0    0  501    0  0.00000000000E+00  0.00000000000E+00 -0.25439301203E+04  0.25439301204E+04  0.25500000920E-02 0.  1.
    10030    2    1    2    0    0  0.00000000000E+00  0.00000000000E+00 -0.19250182912E+04  0.31628419495E+04  0.25095564898E+04 0.  0.
        2    1    3    3  502    0 -0.89415894565E+03  0.23179469768E+03 -0.20328305905E+04  0.22328567378E+04  0.25500000920E-02 0.  1.
       -2    1    3    3    0  502  0.89415894565E+03 -0.23179469768E+03  0.10781229929E+03  0.92998521163E+03  0.25500000920E-02 0. -1.
</event>
<event>
 5   0  0.3849687E-05  0.2685280E+04  0.7818609E-02  0.8339797E-01
        2   -1    0    0  501    0  0.00000000000E+00  0.00000000000E+00  0.10497860910E+04  0.10497860910E+04  0.25500000920E-02 0.  1.
       -2   -1    0    0    0  501  0.00000000000E+00  0.00000000000E+00 -0.17171904960E+04  0.17171904960E+04  0.25500000920E-02 0. -1.
    10030    2    1    2    0    0  0.00000000000E+00  0.00000000000E+00 -0.66740440493E+03  0.27669765870E+04  0.26852803938E+04 0.  0.
        1    1    3    3  502    0 -0.13065207029E+04  0.28439287533E+03 -0.45908848338E+03  0.14137319018E+04  0.50400001928E-02 0.  1.
       -1    1    3    3    0  502  0.13065207029E+04 -0.28439287533E+03 -0.20831592155E+03  0.13532446851E+04  0.50400001928E-02 0. -1.
</event>
<event>
 5   0  0.1435062E-05  0.2604765E+04  0.7818609E-02  0.8366584E-01
        1   -1    0    0  501    0  0.00000000000E+00  0.00000000000E+00  0.22627257537E+04  0.22627257537E+04  0.50400001928E-02 0.  1.
       -1   -1    0    0    0  501  0.00000000000E+00  0.00000000000E+00 -0.74962702744E+03  0.74962702746E+03  0.50400001928E-02 0. -1.
    10030    2    1    2    0    0  0.00000000000E+00  0.00000000000E+00  0.15130987262E+04  0.30123527811E+04  0.26047651569E+04 0.  0.
        2    1    3    3  502    0 -0.51197508211E+03 -0.58736910596E+03  0.19634375464E+04  0.21123938908E+04  0.25500000920E-02 0.  1.
       -2    1    3    3    0  502  0.51197508211E+03  0.58736910596E+03 -0.45033882015E+03  0.89995889033E+03  0.25500000920E-02 0. -1.
</event>
<event>
 5   0  0.3441646E-05  0.2464686E+04  0.7818609E-02  0.8415675E-01
        2   -1    0    0  501    0  0.00000000000E+00  0.00000000000E+00  0.17192995452E+04  0.17192995452E+04  0.25500000920E-02 0. -1.
       -2   -1    0    0    0  501  0.00000000000E+00  0.00000000000E+00 -0.88330694530E+03  0.88330694531E+03  0.25500000920E-02 0.  1.
    10030    2    1    2    0    0  0.00000000000E+00  0.00000000000E+00  0.83599259989E+03  0.26026064905E+04  0.24646859673E+04 0.  0.
        4    1    3    3  502    0 -0.80609348498E+03  0.56421756009E+03  0.12015001598E+04  0.15529753406E+04  0.12699999809E+01 0. -1.
       -4    1    3    3    0  502  0.80609348498E+03 -0.56421756009E+03 -0.36550755989E+03  0.10496311499E+04  0.12699999809E+01 0.  1.
</event>
<event>
 5   0  0.3508470E-05  0.2599786E+04  0.7818609E-02  0.8368274E-01
       -2   -1    0    0    0  501  0.00000000000E+00  0.00000000000E+00  0.10834824757E+04  0.10834824757E+04  0.25500000920E-02 0.  1.
        2   -1    0    0  501    0  0.00000000000E+00  0.00000000000E+00 -0.15595282697E+04  0.15595282697E+04  0.25500000920E-02 0. -1.
    10030    2    1    2    0    0  0.00000000000E+00  0.00000000000E+00 -0.47604579398E+03  0.26430107455E+04  0.25997857994E+04 0.  0.
        5    1    3    3  502    0 -0.18301706736E+03 -0.68628241034E+03 -0.13448020479E+04  0.15208528633E+04  0.46999998093E+01 0. -1.
       -5    1    3    3    0  502  0.18301706736E+03  0.68628241034E+03  0.86875625396E+03  0.11221578822E+04  0.46999998093E+01 0.  1.
</event>
<event>
 5   0  0.1497497E-05  0.2593053E+04  0.7818609E-02  0.8370565E-01
        1   -1    0    0  501    0  0.00000000000E+00  0.00000000000E+00  0.10350258449E+04  0.10350258449E+04  0.50400001928E-02 0. -1.
       -1   -1    0    0    0  501  0.00000000000E+00  0.00000000000E+00 -0.16240956016E+04  0.16240956016E+04  0.50400001928E-02 0.  1.
    10030    2    1    2    0    0  0.00000000000E+00  0.00000000000E+00 -0.58906975664E+03  0.26591214465E+04  0.25930529669E+04 0.  0.
        3    1    3    3  502    0 -0.11057671908E+04 -0.42631114569E+03 -0.83378343322E+03  0.14490193570E+04  0.10100000352E+00 0.  1.
       -3    1    3    3    0  502  0.11057671908E+04  0.42631114569E+03  0.24471367658E+03  0.12101020895E+04  0.10100000352E+00 0. -1.
</event>
<event>
 5   0  0.3508470E-05  0.2666857E+04  0.7818609E-02  0.8345840E-01
       -2   -1    0    0    0  501  0.00000000000E+00  0.00000000000E+00  0.98516226243E+03  0.98516226244E+03  0.25500000920E-02 0.  1.
        2   -1    0    0  501    0  0.00000000000E+00  0.00000000000E+00 -0.18048103836E+04  0.18048103836E+04  0.25500000920E-02 0. -1.
    10030    2    1    2    0    0  0.00000000000E+00  0.00000000000E+00 -0.81964812120E+03  0.27899726461E+04  0.26668566372E+04 0.  0.
        5    1    3    3  502    0 -0.11599586248E+04  0.45652712148E+02  0.27652794234E+03  0.11933473821E+04  0.46999998093E+01 0.  1.
       -5    1    3    3    0  502  0.11599586248E+04 -0.45652712148E+02 -0.10961760635E+04  0.15966252640E+04  0.46999998093E+01 0. -1.
</event>
<event>
 5   0  0.1474554E-05  0.2653976E+04  0.7818609E-02  0.8350095E-01
       -1   -1    0    0    0  501  0.00000000000E+00  0.00000000000E+00  0.87794923809E+03  0.87794923810E+03  0.50400001928E-02 0. -1.
        1   -1    0    0  501    0  0.00000000000E+00  0.00000000000E+00 -0.20056932006E+04  0.20056932006E+04  0.50400001928E-02 0.  1.
    10030    2    1    2    0    0  0.00000000000E+00  0.00000000000E+00 -0.11277439625E+04  0.28836424387E+04  0.26539757477E+04 0.  0.
        5    1    3    3  502    0 -0.44367805890E+03 -0.11291575585E+03  0.78941153165E+03  0.91257484305E+03  0.46999998093E+01 0. -1.
       -5    1    3    3    0  502  0.44367805890E+03  0.11291575585E+03 -0.19171554942E+04  0.19710675957E+04  0.46999998093E+01 0.  1.
</event>
<event>
 5   0  0.3508470E-05  0.2442942E+04  0.7818609E-02  0.8423599E-01
       -2   -1    0    0    0  501  0.00000000000E+00  0.00000000000E+00  0.11781355882E+04  0.11781355882E+04  0.25500000920E-02 0.  1.
        2   -1    0    0  501    0  0.00000000000E+00  0.00000000000E+00 -0.12664004172E+04  0.12664004172E+04  0.25500000920E-02 0. -1.
    10030    2    1    2    0    0  0.00000000000E+00  0.00000000000E+00 -0.88264829068E+02  0.24445360054E+04  0.24429419972E+04 0.  0.
        5    1    3    3  502    0  0.94904463007E+02 -0.11972904671E+04 -0.26666904976E+03  0.12303031300E+04  0.46999998093E+01 0.  1.
       -5    1    3    3    0  502 -0.94904463007E+02  0.11972904671E+04  0.17840422069E+03  0.12142328754E+04  0.46999998093E+01 0. -1.
</event>
<event>
 5   0  0.3499642E-05  0.2423933E+04  0.7818609E-02  0.8430598E-01
       -2   -1    0    0    0  501  0.00000000000E+00  0.00000000000E+00  0.82703486691E+03  0.82703486691E+03  0.25500000920E-02 0. -1.
        2   -1    0    0  501    0  0.00000000000E+00  0.00000000000E+00 -0.17760586758E+04  0.17760586758E+04  0.25500000920E-02 0.  1.
    10030    2    1    2    0    0  0.00000000000E+00  0.00000000000E+00 -0.94902380887E+03  0.26030935427E+04  0.24239327140E+04 0.  0.
        2    1    3    3  502    0 -0.88958590726E+03 -0.93961895236E+02 -0.13526752489E+04  0.16217035034E+04  0.25500000920E-02 0.  1.
       -2    1    3    3    0  502  0.88958590726E+03  0.93961895236E+02  0.40365144000E+03  0.98139003926E+03  0.25500000920E-02 0. -1.
</event>
<event>
 5   0  0.1451052E-05  0.2618387E+04  0.7818609E-02  0.8361982E-01
       -1   -1    0    0    0  501  0.00000000000E+00  0.00000000000E+00  0.90472426128E+03  0.90472426130E+03  0.50400001928E-02 0. -1.
        1   -1    0    0  501    0  0.00000000000E+00  0.00000000000E+00 -0.18944868454E+04  0.18944868454E+04  0.50400001928E-02 0.  1.
    10030    2    1    2    0    0  0.00000000000E+00  0.00000000000E+00 -0.98976258408E+03  0.27992111067E+04  0.26183874516E+04 0.  0.
        1    1    3    3  502    0  0.11233256539E+04  0.19967514971E+03  0.19153255459E+03  0.11568990490E+04  0.50400001928E-02 0.  1.
       -1    1    3    3    0  502 -0.11233256539E+04 -0.19967514971E+03 -0.11812951387E+04  0.16423120577E+04  0.50400001928E-02 0. -1.
</event>
<event>
 5   0  0.1497497E-05  0.2374150E+04  0.7818609E-02  0.8449245E-01
       -1   -1    0    0    0  501  0.00000000000E+00  0.00000000000E+00  0.96736230127E+03  0.96736230128E+03  0.50400001928E-02 0.  1.
        1   -1    0    0  501    0  0.00000000000E+00  0.00000000000E+00 -0.14566905011E+04  0.14566905011E+04  0.50400001928E-02 0. -1.
    10030    2    1    2    0    0  0.00000000000E+00  0.00000000000E+00 -0.48932819980E+03  0.24240528024E+04  0.23741503536E+04 0.  0.
        3    1    3    3  502    0  0.81730857569E+03  0.21016656900E+03 -0.10970677760E+04  0.13840957373E+04  0.10100000352E+00 0. -1.
       -3    1    3    3    0  502 -0.81730857569E+03 -0.21016656900E+03  0.60773957616E+03  0.10399570651E+04  0.10100000352E+00 0.  1.
</event>
<event>
 5   0  0.3441646E-05  0.2619852E+04  0.7818609E-02  0.8361489E-01
        2   -1    0    0  501    0  0.00000000000E+00  0.00000000000E+00  0.15809369390E+04  0.15809369390E+04  0.25500000920E-02 0.  1.
       -2   -1    0    0    0  501  0.00000000000E+00  0.00000000000E+00 -0.10853733086E+04  0.10853733086E+04  0.25500000920E-02 0. -1.
    10030    2    1    2    0    0  0.00000000000E+00  0.00000000000E+00  0.49556363041E+03  0.26663102476E+04  0.26198524814E+04 0.  0.
        4    1    3    3  502    0 -0.55950373515E+01 -0.12317134703E+04 -0.20594423260E+03  0.12488250547E+04  0.12699999809E+01 0. -1.
       -4    1    3    3    0  502  0.55950373515E+01  0.12317134703E+04  0.70150786301E+03  0.14174851929E+04  0.12699999809E+01 0.  1.
</event>
<event>
 5   0  0.3441646E-05  0.2590436E+04  0.7818609E-02  0.8371457E-01
        2   -1    0    0  501    0  0.00000000000E+00  0.00000000000E+00  0.16716429610E+04  0.16716429610E+04  0.25500000920E-02 0. -1.
       -2   -1    0    0    0  501  0.00000000000E+00  0.00000000000E+00 -0.10035577829E+04  0.10035577829E+04  0.25500000920E-02 0.  1.
    10030    2    1    2    0    0  0.00000000000E+00  0.00000000000E+00  0.66808517803E+03  0.26752007439E+04  0.25904364912E+04 0.  0.
        4    1    3    3  502    0 -0.11476860676E+04  0.51742188583E+03  0.64843812936E+03  0.14161152277E+04  0.12699999809E+01 0. -1.
       -4    1    3    3    0  502  0.11476860676E+04 -0.51742188583E+03  0.19647048672E+02  0.12590855162E+04  0.12699999809E+01 0.  1.
</event>
<event>
 5   0  0.3849687E-05  0.2628536E+04  0.7818609E-02  0.8358572E-01
       -2   -1    0    0    0  501  0.00000000000E+00  0.00000000000E+00  0.61470558182E+03  0.61470558183E+03  0.25500000920E-02 0.  1.
        2   -1    0    0  501    0  0.00000000000E+00  0.00000000000E+00 -0.28099642738E+04  0.28099642738E+04  0.25500000920E-02 0. -1.
    10030    2    1    2    0    0  0.00000000000E+00  0.00000000000E+00 -0.21952586920E+04  0.34246698556E+04  0.26285362648E+04 0.  0.
        1    1    3    3  502    0 -0.84718818732E+03  0.83015812712E+03 -0.18351225599E+04  0.21850778363E+04  0.50400001928E-02 0. -1.
       -1    1    3    3    0  502  0.84718818732E+03 -0.83015812712E+03 -0.36013613209E+03  0.12395920193E+04  0.50400001928E-02 0.  1.
</event>
<event>
 5   0  0.3508470E-05  0.2576355E+04  0.7818609E-02  0.8376278E-01
        2   -1    0    0  501    0  0.00000000000E+00  0.00000000000E+00  0.10135589727E+04  0.10135589727E+04  0.25500000920E-02 0. -1.
       -2   -1    0    0    0  501  0.00000000000E+00  0.00000000000E+00 -0.16372022645E+04  0.16372022645E+04  0.25500000920E-02 0.  1.
    10030    2    1    2    0    0  0.00000000000E+00  0.00000000000E+00 -0.62364329186E+03  0.26507612372E+04  0.25763548244E+04 0.  0.
        5    1    3    3  502    0  0.35990010797E+03 -0.12254818080E+04 -0.13951808567E+03  0.12848428448E+04  0.46999998093E+01 0.  1.
       -5    1    3    3    0  502 -0.35990010797E+03  0.12254818080E+04 -0.48412520620E+03  0.13659183924E+04  0.46999998093E+01 0. -1.
</event>
<event>
 5   0  0.1497497E-05  0.2293238E+04  0.7818609E-02  0.8480592E-01
       -1   -1    0    0    0  501  0.00000000000E+00  0.00000000000E+00  0.11894532017E+04  0.11894532017E+04  0.50400001928E-02 0. -1.
        1   -1    0    0  501    0  0.00000000000E+00  0.00000000000E+00 -0.11053273450E+04  0.11053273450E+04  0.50400001928E-02 0.  1.
    10030    2    1    2    0    0  0.00000000000E+00  0.00000000000E+00  0.84125856689E+02  0.22947805468E+04  0.22932380160E+04 0.  0.
        3    1    3    3  502    0  0.80006085838E+03  0.31735742987E+03  0.80014892147E+03  0.11751814422E+04  0.10100000352E+00 0. -1.
       -3    1    3    3    0  502 -0.80006085838E+03 -0.31735742987E+03 -0.71602306478E+03  0.11195991045E+04  0.10100000352E+00 0.  1.
</event>
<event>
 5   0  0.1451052E-05  0.2514333E+04  0.7818609E-02  0.8397897E-01
       -1   -1    0    0    0  501  0.00000000000E+00  0.00000000000E+00  0.75958674577E+03  0.75958674578E+03  0.50400001928E-02 0.  1.
        1   -1    0    0  501    0  0.00000000000E+00  0.00000000000E+00 -0.20806940697E+04  0.20806940697E+04  0.50400001928E-02 0. -1.
    10030    2    1    2    0    0  0.00000000000E+00  0.00000000000E+00 -0.13211073239E+04  0.28402808155E+04  0.25143330228E+04 0.  0.
        1    1    3    3  502    0  0.12011413659E+04  0.35407241193E+03 -0.53496688546E+03  0.13617258984E+04  0.50400001928E-02 0. -1.
       -1    1    3    3    0  502 -0.12011413659E+04 -0.35407241193E+03 -0.78614043844E+03  0.14785549171E+04  0.50400001928E-02 0.  1.
</event>
<event>
 5   0  0.3499642E-05  0.2423805E+04  0.7818609E-02  0.8430645E-01
       -2   -1    0    0    0  501  0.00000000000E+00  0.00000000000E+00  0.71491249389E+03  0.71491249390E+03  0.25500000920E-02 0.  1.
        2   -1    0    0  501    0  0.00000000000E+00  0.00000000000E+00 -0.20543883834E+04  0.20543883834E+04  0.25500000920E-02 0. -1.
    10030    2    1    2    0    0  0.00000000000E+00  0.00000000000E+00 -0.13394758895E+04  0.27693008773E+04  0.24238052088E+04 0.  0.
        2    1    3    3  502    0 -0.23722569416E+03 -0.79658269693E+03  0.33796130856E+03  0.89723902563E+03  0.25500000920E-02 0.  1.
       -2    1    3    3    0  502  0.23722569416E+03  0.79658269693E+03 -0.16774371981E+04  0.18720618517E+04  0.25500000920E-02 0. -1.
</event>
<event>
 5   0  0.1474554E-05  0.2620681E+04  0.7818609E-02  0.8361210E-01
        1   -1    0    0  501    0  0.00000000000E+00  0.00000000000E+00  0.26896169937E+04  0.26896169937E+04  0.50400001928E-02 0.  1.
       -1   -1    0    0    0  501  0.00000000000E+00  0.00000000000E+00 -0.63837807541E+03  0.63837807543E+03  0.50400001928E-02 0. -1.
    10030    2    1    2    0    0  0.00000000000E+00  0.00000000000E+00  0.20512389183E+04  0.33279950691E+04  0.26206812245E+04 0.  0.
        5    1    3    3  502    0  0.15845318289E+03 -0.33544422690E+03 -0.57028291352E+03  0.68034912507E+03  0.46999998093E+01 0. -1.
       -5    1    3    3    0  502 -0.15845318289E+03  0.33544422690E+03  0.26215218318E+04  0.26476459441E+04  0.46999998093E+01 0.  1.
</event>
<event>
 5   0  0.1497497E-05  0.2576660E+04  0.7818609E-02  0.8376173E-01
       -1   -1    0    0    0  501  0.00000000000E+00  0.00000000000E+00  0.93285947814E+03  0.93285947816E+03  0.50400001928E-02 0. -1.
        1   -1    0    0  501    0  0.00000000000E+00  0.00000000000E+00 -0.17792540391E+04  0.17792540391E+04  0.50400001928E-02 0.  1.
    10030    2    1    2    0    0  0.00000000000E+00  0.00000000000E+00 -0.84639456094E+03  0.27121135172E+04  0.25766598490E+04 0.  0.
        3    1    3    3  502    0  0.52437446850E+03  0.48174078247E+03  0.70690712602E+03  0.10033745361E+04  0.10100000352E+00 0. -1.
       -3    1    3    3    0  502 -0.52437446850E+03 -0.48174078247E+03 -0.15533016870E+04  0.17087389811E+04  0.10100000352E+00 0.  1.
</event>
<event>
 5   0  0.1435062E-05  0.2777901E+04  0.7818609E-02  0.8310162E-01
       -1   -1    0    0    0  501  0.00000000000E+00  0.00000000000E+00  0.13868593759E+04  0.13868593759E+04  0.50400001928E-02 0.  1.
        1   -1    0    0  501    0  0.00000000000E+00  0.00000000000E+00 -0.13910451291E+04  0.13910451291E+04  0.50400001928E-02 0. -1.
    10030    2    1    2    0    0  0.00000000000E+00  0.00000000000E+00 -0.41857531196E+01  0.27779045050E+04  0.27779013515E+04 0.  0.
        2    1    3    3  502    0 -0.96602685742E+02  0.88419616384E+03  0.10647021499E+04  0.13873448032E+04  0.25500000920E-02 0.  1.
       -2    1    3    3    0  502  0.96602685742E+02 -0.88419616384E+03 -0.10688879030E+04  0.13905597018E+04  0.25500000920E-02 0. -1.
</event>
<event>
 5   0  0.3499642E-05  0.2597248E+04  0.7818609E-02  0.8369137E-01
       -2   -1    0    0    0  501  0.00000000000E+00  0.00000000000E+00  0.74370761565E+03  0.74370761566E+03  0.25500000920E-02 0. -1.
        2   -1    0    0  501    0  0.00000000000E+00  0.00000000000E+00 -0.22675908673E+04  0.22675908673E+04  0.25500000920E-02 0.  1.
    10030    2    1    2    0    0  0.00000000000E+00  0.00000000000E+00 -0.15238832516E+04  0.30112984829E+04  0.25972482339E+04 0.  0.
        2    1    3    3  502    0  0.17079202851E+02  0.63481633555E+02  0.74177719633E+03  0.74468451439E+03  0.25500000920E-02 0. -1.
       -2    1    3    3    0  502 -0.17079202851E+02 -0.63481633555E+02 -0.22656604480E+04  0.22666139685E+04  0.25500000920E-02 0.  1.
</event>
<event>
 5   0  0.3647623E-05  0.2267825E+04  0.7818609E-02  0.8490716E-01
       -2   -1    0    0    0  501  0.00000000000E+00  0.00000000000E+00  0.10742959186E+04  0.10742959186E+04  0.25500000920E-02 0.  1.
        2   -1    0    0  501    0  0.00000000000E+00  0.00000000000E+00 -0.11968372266E+04  0.11968372266E+04  0.25500000920E-02 0. -1.
    10030    2    1    2    0    0  0.00000000000E+00  0.00000000000E+00 -0.12254130801E+03  0.22711331452E+04  0.22678248149E+04 0.  0.
        3    1    3    3  502    0 -0.92724674942E+03 -0.26956814466E+01  0.59234027352E+03  0.11003003276E+04  0.10100000352E+00 0.  1.
       -3    1    3    3    0  502  0.92724674942E+03  0.26956814466E+01 -0.71488158153E+03  0.11708328176E+04  0.10100000352E+00 0. -1.
</event>
<event>
 5   0  0.1474554E-05  0.2617296E+04  0.7818609E-02  0.8362350E-01
       -1   -1    0    0    0  501  0.00000000000E+00  0.00000000000E+00  0.10832388134E+04  0.10832388134E+04  0.50400001928E-02 0.  1.
        1   -1    0    0  501    0  0.00000000000E+00  0.00000000000E+00 -0.15809616412E+04  0.15809616412E+04  0.50400001928E-02 0. -1.
    10030    2    1    2    0    0  0.00000000000E+00  0.00000000000E+00 -0.49772282780E+03  0.26642004546E+04  0.26172955601E+04 0.  0.
        5    1    3    3  502    0  0.11934340068E+04  0.49970055421E+03 -0.48997195251E+02  0.12947618266E+04  0.46999998093E+01 0. -1.
       -5    1    3    3    0  502 -0.11934340068E+04 -0.49970055421E+03 -0.44872563255E+03  0.13694386280E+04  0.46999998093E+01 0.  1.
</event>
<event>
 5   0  0.1451052E-05  0.2615344E+04  0.7818609E-02  0.8363008E-01
        1   -1    0    0  501    0  0.00000000000E+00  0.00000000000E+00  0.24915303552E+04  0.24915303552E+04  0.50400001928E-02 0. -1.
       -1   -1    0    0    0  501  0.00000000000E+00  0.00000000000E+00 -0.68632778781E+03  0.68632778782E+03  0.50400001928E-02 0.  1.
    10030    2    1    2    0    0  0.00000000000E+00  0.00000000000E+00  0.18052025674E+04  0.31778581430E+04  0.26153443498E+04 0.  0.
        1    1    3    3  502    0 -0.39164885556E+03  0.74912043549E+03 -0.30970500330E+03  0.90027076040E+03  0.50400001928E-02 0.  1.
       -1    1    3    3    0  502  0.39164885556E+03 -0.74912043549E+03  0.21149075707E+04  0.22775873826E+04  0.50400001928E-02 0. -1.
</event>
<event>
 5   0  0.1474554E-05  0.2584637E+04  0.7818609E-02  0.8373438E-01
        1   -1    0    0  501    0  0.00000000000E+00  0.00000000000E+00  0.16104011164E+04  0.16104011164E+04  0.50400001928E-02 0. -1.
       -1   -1    0    0    0  501  0.00000000000E+00  0.00000000000E+00 -0.10370629020E+04  0.10370629020E+04  0.50400001928E-02 0.  1.
    10030    2    1    2    0    0  0.00000000000E+00  0.00000000000E+00  0.57333821437E+03  0.26474640184E+04  0.25846371158E+04 0.  0.
        5    1    3    3  502    0 -0.84236457393E+03  0.73643916159E+03 -0.37569022361E+03  0.11802906202E+04  0.46999998093E+01 0.  1.
       -5    1    3    3    0  502  0.84236457393E+03 -0.73643916159E+03  0.94902843798E+03  0.14671733981E+04  0.46999998093E+01 0. -1.
</event>
<event>
 5   0  0.3508470E-05  0.2106764E+04  0.7818609E-02  0.8558270E-01
        2   -1    0    0  501    0  0.00000000000E+00  0.00000000000E+00  0.96538600273E+03  0.96538600273E+03  0.25500000920E-02 0. -1.
       -2   -1    0    0    0  501  0.00000000000E+00  0.00000000000E+00 -0.11493988633E+04  0.11493988633E+04  0.25500000920E-02 0.  1.
    10030    2    1    2    0    0  0.00000000000E+00  0.00000000000E+00 -0.18401286060E+03  0.21147848661E+04  0.21067639395E+04 0.  0.
        5    1    3    3  502    0  0.61247780415E+03  0.66870713151E+03  0.44603161714E+03  0.10105763612E+04  0.46999998093E+01 0. -1.
       -5    1    3    3    0  502 -0.61247780415E+03 -0.66870713151E+03 -0.63004447774E+03  0.11042085049E+04  0.46999998093E+01 0.  1.
</event>
<event>
 5   0  0.1217200E-05  0.2649020E+04  0.7818609E-02  0.8351738E-01
       -3   -1    0    0    0  501  0.00000000000E+00  0.00000000000E+00  0.12465468448E+04  0.12465468489E+04  0.10100000352E+00 0. -1.
        3   -1    0    0  501    0  0.00000000000E+00  0.00000000000E+00 -0.14073493724E+04  0.14073493760E+04  0.10100000352E+00 0.  1.
    10030    2    1    2    0    0  0.00000000000E+00  0.00000000000E+00 -0.16080252763E+03  0.26538962249E+04  0.26490201433E+04 0.  0.
        5    1    3    3  502    0  0.36629021413E+03  0.14641423488E+03  0.11863228953E+04  0.12501958850E+04  0.46999998093E+01 0. -1.
       -5    1    3    3    0  502 -0.36629021413E+03 -0.14641423488E+03 -0.13471254229E+04  0.14037003399E+04  0.46999998093E+01 0.  1.
</event>
<event>
 5   0  0.3499642E-05  0.2589160E+04  0.7818609E-02  0.8371892E-01
       -2   -1    0    0    0  501  0.00000000000E+00  0.00000000000E+00  0.11035903499E+04  0.11035903499E+04  0.25500000920E-02 0. -1.
        2   -1    0    0  501    0  0.00000000000E+00  0.00000000000E+00 -0.15186231873E+04  0.15186231873E+04  0.25500000920E-02 0.  1.
    10030    2    1    2    0    0  0.00000000000E+00  0.00000000000E+00 -0.41503283747E+03  0.26222135372E+04  0.25891604003E+04 0.  0.
        2    1    3    3  502    0 -0.44019232415E+03  0.10940259075E+04 -0.74844715717E+03  0.13967229917E+04  0.25500000920E-02 0.  1.
       -2    1    3    3    0  502  0.44019232415E+03 -0.10940259075E+04  0.33341431970E+03  0.12254905455E+04  0.25500000920E-02 0. -1.
</event>
<event>
 5   0  0.3499642E-05  0.2573443E+04  0.7818609E-02  0.8377278E-01
       -2   -1    0    0    0  501  0.00000000000E+00  0.00000000000E+00  0.11768112294E+04  0.11768112294E+04  0.25500000920E-02 0.  1.
        2   -1    0    0  501    0  0.00000000000E+00  0.00000000000E+00 -0.14068968494E+04  0.14068968494E+04  0.25500000920E-02 0. -1.
    10030    2    1    2    0    0  0.00000000000E+00  0.00000000000E+00 -0.23008561998E+03  0.25837080787E+04  0.25734428386E+04 0.  0.
        2    1    3    3  502    0 -0.11318287192E+04  0.16596932439E+03  0.47643358914E+03  0.12391815973E+04  0.25500000920E-02 0. -1.
       -2    1    3    3    0  502  0.11318287192E+04 -0.16596932439E+03 -0.70651920913E+03  0.13445264814E+04  0.25500000920E-02 0.  1.
</event>
<event>
 5   0  0.3508470E-05  0.2566179E+04  0.7818609E-02  0.8379781E-01
        2   -1    0    0  501    0  0.00000000000E+00  0.00000000000E+00  0.15079996720E+04  0.15079996720E+04  0.25500000920E-02 0. -1.
       -2   -1    0    0    0  501  0.00000000000E+00  0.00000000000E+00 -0.10917238224E+04  0.10917238224E+04  0.25500000920E-02 0.  1.
    10030    2    1    2    0    0  0.00000000000E+00  0.00000000000E+00  0.41627584960E+03  0.25997234944E+04  0.25661793905E+04 0.  0.
        5    1    3    3  502    0 -0.44473198332E+03  0.12033653615E+04  0.18731823600E+03  0.12965280336E+04  0.46999998093E+01 0. -1.
       -5    1    3    3    0  502  0.44473198332E+03 -0.12033653615E+04  0.22895761359E+03  0.13031954608E+04  0.46999998093E+01 0.  1.
</event>
<event>
 5   0  0.3849687E-05  0.2860947E+04  0.7818609E-02  0.8284593E-01
       -2   -1    0    0    0  501  0.00000000000E+00  0.00000000000E+00  0.11954947848E+04  0.11954947848E+04  0.25500000920E-02 0.  1.
        2   -1    0    0  501    0  0.00000000000E+00  0.00000000000E+00 -0.17116375734E+04  0.17116375734E+04  0.25500000920E-02 0. -1.
    10030    2    1    2    0    0  0.00000000000E+00  0.00000000000E+00 -0.51614278858E+03  0.29071323582E+04  0.28609465514E+04 0.  0.
        1    1    3    3  502    0  0.36366371143E+03 -0.64868352930E+03  0.98362614976E+03  0.12331107082E+04  0.50400001928E-02 0.  1.
       -1    1    3    3    0  502 -0.36366371143E+03  0.64868352930E+03 -0.14997689383E+04  0.16740216500E+04  0.50400001928E-02 0. -1.
</event>
<event>
 5   0  0.3499642E-05  0.2565301E+04  0.7818609E-02  0.8380084E-01
       -2   -1    0    0    0  501  0.00000000000E+00  0.00000000000E+00  0.97740556551E+03  0.97740556551E+03  0.25500000920E-02 0. -1.
        2   -1    0    0  501    0  0.00000000000E+00  0.00000000000E+00 -0.16832239841E+04  0.16832239841E+04  0.25500000920E-02 0.  1.
    10030    2    1    2    0    0  0.00000000000E+00  0.00000000000E+00 -0.70581841859E+03  0.26606295496E+04  0.25653011442E+04 0.  0.
        2    1    3    3  502    0 -0.45113091147E+02 -0.12728423500E+04 -0.51030377524E+03  0.13720687964E+04  0.25500000920E-02 0.  1.
       -2    1    3    3    0  502  0.45113091147E+02  0.12728423500E+04 -0.19551464335E+03  0.12885607532E+04  0.25500000920E-02 0. -1.
</event>
<event>
 5   0  0.3849687E-05  0.2388386E+04  0.7818609E-02  0.8443864E-01
       -2   -1    0    0    0  501  0.00000000000E+00  0.00000000000E+00  0.66804152996E+03  0.66804152996E+03  0.25500000920E-02 0.  1.
        2   -1    0    0  501    0  0.00000000000E+00  0.00000000000E+00 -0.21347429144E+04  0.21347429144E+04  0.25500000920E-02 0. -1.
    10030    2    1    2    0    0  0.00000000000E+00  0.00000000000E+00 -0.14667013844E+04  0.28027844443E+04  0.23883860011E+04 0.  0.
        1    1    3    3  502    0  0.35006149856E+03  0.25752257961E+03 -0.20386540462E+04  0.20844594628E+04  0.50400001928E-02 0. -1.
       -1    1    3    3    0  502 -0.35006149856E+03 -0.25752257961E+03  0.57195266180E+03  0.71832498157E+03  0.50400001928E-02 0.  1.
</event>
<event>
 5   0  0.1533248E-05  0.1677626E+04  0.7818609E-02  0.8774229E-01
        1   -1    0    0  501    0  0.00000000000E+00  0.00000000000E+00  0.15084277308E+04  0.15084277308E+04  0.50400001928E-02 0.  1.
       -1   -1    0    0    0  501  0.00000000000E+00  0.00000000000E+00 -0.46645065000E+03  0.46645065003E+03  0.50400001928E-02 0. -1.
    10030    2    1    2    0    0  0.00000000000E+00  0.00000000000E+00  0.10419770808E+04  0.19748783809E+04  0.16776258171E+04 0.  0.
        4    1    3    3  502    0  0.36626766948E+03 -0.34513403309E+03  0.13109639562E+04  0.14042427190E+04  0.12699999809E+01 0.  1.
       -4    1    3    3    0  502 -0.36626766948E+03  0.34513403309E+03 -0.26898687541E+03  0.57063566183E+03  0.12699999809E+01 0. -1.
</event>
<event>
 5   0  0.1533248E-05  0.2626420E+04  0.7818609E-02  0.8359282E-01
       -1   -1    0    0    0  501  0.00000000000E+00  0.00000000000E+00  0.78709191509E+03  0.78709191511E+03  0.50400001928E-02 0. -1.
        1   -1    0    0  501    0  0.00000000000E+00  0.00000000000E+00 -0.21910026297E+04  0.21910026297E+04  0.50400001928E-02 0.  1.
    10030    2    1    2    0    0  0.00000000000E+00  0.00000000000E+00 -0.14039107146E+04  0.29780945448E+04  0.26264199632E+04 0.  0.
        4    1    3    3  502    0  0.57789674112E+03 -0.90239789664E+03 -0.15626975364E+04  0.18948118140E+04  0.12699999809E+01 0.  1.
       -4    1    3    3    0  502 -0.57789674112E+03  0.90239789664E+03  0.15878682178E+03  0.10832827308E+04  0.12699999809E+01 0. -1.
</event>
<event>
 5   0  0.1533248E-05  0.2569817E+04  0.7818609E-02  0.8378526E-01
       -1   -1    0    0    0  501  0.00000000000E+00  0.00000000000E+00  0.17435233341E+04  0.17435233341E+04  0.50400001928E-02 0. -1.
        1   -1    0    0  501    0  0.00000000000E+00  0.00000000000E+00 -0.94692754865E+03  0.94692754866E+03  0.50400001928E-02 0.  1.
    10030    2    1    2    0    0  0.00000000000E+00  0.00000000000E+00  0.79659578548E+03  0.26904508828E+04  0.25698173296E+04 0.  0.
        4    1    3    3  502    0 -0.11899366139E+04 -0.47127055277E+03  0.27918737724E+03  0.13099588862E+04  0.12699999809E+01 0.  1.
       -4    1    3    3    0  502  0.11899366139E+04  0.47127055277E+03  0.51740840824E+03  0.13804919966E+04  0.12699999809E+01 0. -1.
</event>
<event>
 5   0  0.3441646E-05  0.2347249E+04  0.7818609E-02  0.8459521E-01
       -2   -1    0    0    0  501  0.00000000000E+00  0.00000000000E+00  0.15184260457E+04  0.15184260457E+04  0.25500000920E-02 0. -1.
        2   -1    0    0  501    0  0.00000000000E+00  0.00000000000E+00 -0.90711966579E+03  0.90711966579E+03  0.25500000920E-02 0.  1.
    10030    2    1    2    0    0  0.00000000000E+00  0.00000000000E+00  0.61130637990E+03  0.24255457115E+04  0.23472487104E+04 0.  0.
        4    1    3    3  502    0 -0.84965148433E+03  0.57456447978E+03  0.89508393698E+03  0.13613261378E+04  0.12699999809E+01 0. -1.
       -4    1    3    3    0  502  0.84965148433E+03 -0.57456447978E+03 -0.28377755708E+03  0.10642195737E+04  0.12699999809E+01 0.  1.
</event>
<event>
 5   0  0.1474554E-05  0.2569188E+04  0.7818609E-02  0.8378743E-01
        1   -1    0    0  501    0  0.00000000000E+00  0.00000000000E+00  0.66412049235E+03  0.66412049237E+03  0.50400001928E-02 0. -1.
       -1   -1    0    0    0  501  0.00000000000E+00  0.00000000000E+00 -0.24847626196E+04  0.24847626196E+04  0.50400001928E-02 0.  1.
    10030    2    1    2    0    0  0.00000000000E+00  0.00000000000E+00 -0.18206421272E+04  0.31488831119E+04  0.25691880230E+04 0.  0.
        5    1    3    3  502    0  0.32857627919E+02  0.89068030326E+03  0.22348516716E+03  0.91888994785E+03  0.46999998093E+01 0. -1.
       -5    1    3    3    0  502 -0.32857627919E+02 -0.89068030326E+03 -0.20441272944E+04  0.22299931641E+04  0.46999998093E+01 0.  1.
</event>
<event>
 5   0  0.1435062E-05  0.2486177E+04  0.7818609E-02  0.8407927E-01
        1   -1    0    0  501    0  0.00000000000E+00  0.00000000000E+00  0.18179216841E+04  0.18179216841E+04  0.50400001928E-02 0. -1.
       -1   -1    0    0    0  501  0.00000000000E+00  0.00000000000E+00 -0.85001957857E+03  0.85001957858E+03  0.50400001928E-02 0.  1.
    10030    2    1    2    0    0  0.00000000000E+00  0.00000000000E+00  0.96790210558E+03  0.26679412627E+04  0.24861770040E+04 0.  0.
        2    1    3    3  502    0 -0.88523135899E+03  0.78950336404E+03  0.88305404781E+03  0.14787611613E+04  0.25500000920E-02 0. -1.
       -2    1    3    3    0  502  0.88523135899E+03 -0.78950336404E+03  0.84848057764E+02  0.11891801014E+04  0.25500000920E-02 0.  1.
</event>
<event>
 5   0  0.1533248E-05  0.2558847E+04  0.7818609E-02  0.8382316E-01
        1   -1    0    0  501    0  0.00000000000E+00  0.00000000000E+00  0.10772367546E+04  0.10772367546E+04  0.50400001928E-02 0.  1.
       -1   -1    0    0    0  501  0.00000000000E+00  0.00000000000E+00 -0.15195584941E+04  0.15195584941E+04  0.50400001928E-02 0. -1.
    10030    2    1    2    0    0  0.00000000000E+00  0.00000000000E+00 -0.44232173954E+03  0.25967952487E+04  0.25588468188E+04 0.  0.
        4    1    3    3  502    0 -0.22371658134E+03  0.10494040899E+04  0.48604158020E+03  0.11779372153E+04  0.12699999809E+01 0.  1.
       -4    1    3    3    0  502  0.22371658134E+03 -0.10494040899E+04 -0.92836331974E+03  0.14188580334E+04  0.12699999809E+01 0. -1.
</event>
<event>
 5   0  0.1533248E-05  0.2408424E+04  0.7818609E-02  0.8436356E-01
        1   -1    0    0  501    0  0.00000000000E+00  0.00000000000E+00  0.11739137911E+04  0.11739137911E+04  0.50400001928E-02 0.  1.
       -1   -1    0    0    0  501  0.00000000000E+00  0.00000000000E+00 -0.12352923461E+04  0.12352923461E+04  0.50400001928E-02 0. -1.
    10030    2    1    2    0    0  0.00000000000E+00  0.00000000000E+00 -0.61378555016E+02  0.24092061372E+04  0.24084241496E+04 0.  0.
        4    1    3    3  502    0  0.60374715869E+03  0.77212415684E+03 -0.73051543082E+03  0.12224323101E+04  0.12699999809E+01 0. -1.
       -4    1    3    3    0  502 -0.60374715869E+03 -0.77212415684E+03  0.66913687580E+03  0.11867738271E+04  0.12699999809E+01 0.  1.
</event>
<event>
 5   0  0.3647623E-05  0.2337597E+04  0.7818609E-02  0.8463243E-01
        2   -1    0    0  501    0  0.00000000000E+00  0.00000000000E+00  0.11993393037E+04  0.11993393037E+04  0.25500000920E-02 0. -1.
       -2   -1    0    0    0  501  0.00000000000E+00  0.00000000000E+00 -0.11390355040E+04  0.11390355040E+04  0.25500000920E-02 0.  1.
    10030    2    1    2    0    0  0.00000000000E+00  0.00000000000E+00  0.60303799673E+02  0.23383748077E+04  0.23375970981E+04 0.  0.
        3    1    3    3  502    0 -0.39594565500E+03 -0.54626123992E+02  0.11288492564E+04  0.11975214524E+04  0.10100000352E+00 0. -1.
       -3    1    3    3    0  502  0.39594565500E+03  0.54626123992E+02 -0.10685454567E+04  0.11408533553E+04  0.10100000352E+00 0.  1.
</event>
<event>
 5   0  0.1435062E-05  0.2570520E+04  0.7818609E-02  0.8378284E-01
       -1   -1    0    0    0  501  0.00000000000E+00  0.00000000000E+00  0.82373446509E+03  0.82373446511E+03  0.50400001928E-02 0. -1.
        1   -1    0    0  501    0  0.00000000000E+00  0.00000000000E+00 -0.20053705725E+04  0.20053705725E+04  0.50400001928E-02 0.  1.
    10030    2    1    2    0    0  0.00000000000E+00  0.00000000000E+00 -0.11816361074E+04  0.28291050376E+04  0.25705196797E+04 0.  0.
        2    1    3    3  502    0 -0.89444370619E+03 -0.91257258149E+03 -0.43881377558E+03  0.13510646874E+04  0.25500000920E-02 0. -1.
       -2    1    3    3    0  502  0.89444370619E+03  0.91257258149E+03 -0.74282233182E+03  0.14780403502E+04  0.25500000920E-02 0.  1.
</event>
<event>
 5   0  0.3647623E-05  0.2617840E+04  0.7818609E-02  0.8362167E-01
       -2   -1    0    0    0  501  0.00000000000E+00  0.00000000000E+00  0.83326344584E+03  0.83326344584E+03  0.25500000920E-02 0. -1.
        2   -1    0    0  501    0  0.00000000000E+00  0.00000000000E+00 -0.20560977742E+04  0.20560977742E+04  0.25500000920E-02 0.  1.
    10030    2    1    2    0    0  0.00000000000E+00  0.00000000000E+00 -0.12228343283E+04  0.28893612200E+04  0.26178396561E+04 0.  0.
        3    1    3    3  502    0 -0.55364413701E+02 -0.42214864010E+03  0.75469913057E+03  0.86651340470E+03  0.10100000352E+00 0. -1.
       -3    1    3    3    0  502  0.55364413701E+02  0.42214864010E+03 -0.19775334589E+04  0.20228478153E+04  0.10100000352E+00 0.  1.
</event>
<event>
 5   0  0.1474554E-05  0.2689997E+04  0.7818609E-02  0.8338258E-01
       -1   -1    0    0    0  501  0.00000000000E+00  0.00000000000E+00  0.96271368219E+03  0.96271368221E+03  0.50400001928E-02 0. -1.
        1   -1    0    0  501    0  0.00000000000E+00  0.00000000000E+00 -0.18790853155E+04  0.18790853155E+04  0.50400001928E-02 0.  1.
    10030    2    1    2    0    0  0.00000000000E+00  0.00000000000E+00 -0.91637163331E+03  0.28417989977E+04  0.26899971325E+04 0.  0.
        5    1    3    3  502    0  0.12181117516E+04  0.50922093472E+03 -0.18699568692E+03  0.13334510402E+04  0.46999998093E+01 0. -1.
       -5    1    3    3    0  502 -0.12181117516E+04 -0.50922093472E+03 -0.72937594640E+03  0.15083479575E+04  0.46999998093E+01 0.  1.
</event>
<event>
 5   0  0.3647623E-05  0.2534789E+04  0.7818609E-02  0.8390696E-01
        2   -1    0    0  501    0  0.00000000000E+00  0.00000000000E+00  0.11813824805E+04  0.11813824805E+04  0.25500000920E-02 0.  1.
       -2   -1    0    0    0  501  0.00000000000E+00  0.00000000000E+00 -0.13596684680E+04  0.13596684680E+04  0.25500000920E-02 0. -1.
    10030    2    1    2    0    0  0.00000000000E+00  0.00000000000E+00 -0.17828598753E+03  0.25410509486E+04  0.25347887545E+04 0.  0.
        3    1    3    3  502    0  0.11334291619E+04  0.56654571046E+03 -0.63530115873E+02  0.12687284158E+04  0.10100000352E+00 0.  1.
       -3    1    3    3    0  502 -0.11334291619E+04 -0.56654571046E+03 -0.11475587166E+03  0.12723225328E+04  0.10100000352E+00 0. -1.
</event>
<event>
 5   0  0.1497497E-05  0.2590270E+04  0.7818609E-02  0.8371514E-01
        1   -1    0    0  501    0  0.00000000000E+00  0.00000000000E+00  0.16637446281E+04  0.16637446281E+04  0.50400001928E-02 0. -1.
       -1   -1    0    0    0  501  0.00000000000E+00  0.00000000000E+00 -0.10081920213E+04  0.10081920213E+04  0.50400001928E-02 0.  1.
    10030    2    1    2    0    0  0.00000000000E+00  0.00000000000E+00  0.65555260679E+03  0.26719366493E+04  0.25902695300E+04 0.  0.
        3    1    3    3  502    0  0.51938929723E+03 -0.50664911874E+03  0.14344075161E+04  0.16074773728E+04  0.10100000352E+00 0. -1.
       -3    1    3    3    0  502 -0.51938929723E+03  0.50664911874E+03 -0.77885490927E+03  0.10644592766E+04  0.10100000352E+00 0.  1.
</event>
<event>
 5   0  0.1474554E-05  0.2624234E+04  0.7818609E-02  0.8360016E-01
        1   -1    0    0  501    0  0.00000000000E+00  0.00000000000E+00  0.18603954283E+04  0.18603954283E+04  0.50400001928E-02 0. -1.
       -1   -1    0    0    0  501  0.00000000000E+00  0.00000000000E+00 -0.92542240492E+03  0.92542240494E+03  0.50400001928E-02 0.  1.
    10030    2    1    2    0    0  0.00000000000E+00  0.00000000000E+00  0.93497302337E+03  0.27858178332E+04  0.26242344494E+04 0.  0.
        5    1    3    3  502    0 -0.81771551541E+03  0.27431490841E+03 -0.58219565121E+03  0.10406157790E+04  0.46999998093E+01 0.  1.
       -5    1    3    3    0  502  0.81771551541E+03 -0.27431490841E+03  0.15171686746E+04  0.17452020543E+04  0.46999998093E+01 0. -1.
</event>
<event>
 5   0  0.3508470E-05  0.2612556E+04  0.7818609E-02  0.8363949E-01
        2   -1    0    0  501    0  0.00000000000E+00  0.00000000000E+00  0.16879734688E+04  0.16879734688E+04  0.25500000920E-02 0.  1.
       -2   -1    0    0    0  501  0.00000000000E+00  0.00000000000E+00 -0.10108941326E+04  0.10108941326E+04  0.25500000920E-02 0. -1.
    10030    2    1    2    0    0  0.00000000000E+00  0.00000000000E+00  0.67707933620E+03  0.26988676013E+04  0.26125562007E+04 0.  0.
        5    1    3    3  502    0  0.67288913132E+03 -0.92935462857E+03  0.98355583292E+03  0.15112524525E+04  0.46999998093E+01 0.  1.
       -5    1    3    3    0  502 -0.67288913132E+03  0.92935462857E+03 -0.30647649672E+03  0.11876151488E+04  0.46999998093E+01 0. -1.
</event>
<event>
 5   0  0.1497497E-05  0.2402609E+04  0.7818609E-02  0.8438527E-01
       -1   -1    0    0    0  501  0.00000000000E+00  0.00000000000E+00  0.88940017082E+03  0.88940017083E+03  0.50400001928E-02 0. -1.
        1   -1    0    0  501    0  0.00000000000E+00  0.00000000000E+00 -0.16225912948E+04  0.16225912949E+04  0.50400001928E-02 0.  1.
    10030    2    1    2    0    0  0.00000000000E+00  0.00000000000E+00 -0.73319112403E+03  0.25119914657E+04  0.24026093938E+04 0.  0.
        3    1    3    3  502    0  0.10079166779E+02  0.59581078342E+03 -0.14571757314E+04  0.15743103892E+04  0.10100000352E+00 0.  1.
       -3    1    3    3    0  502 -0.10079166779E+02 -0.59581078342E+03  0.72398460737E+03  0.93768107646E+03  0.10100000352E+00 0. -1.
</event>
<event>
 5   0  0.1435062E-05  0.1916207E+04  0.7818609E-02  0.8646831E-01
       -1   -1    0    0    0  501  0.00000000000E+00  0.00000000000E+00  0.67858377782E+03  0.67858377784E+03  0.50400001928E-02 0. -1.
        1   -1    0    0  501    0  0.00000000000E+00  0.00000000000E+00 -0.13527622582E+04  0.13527622583E+04  0.50400001928E-02 0.  1.
    10030    2    1    2    0    0  0.00000000000E+00  0.00000000000E+00 -0.67417848042E+03  0.20313460361E+04  0.19162072161E+04 0.  0.
        2    1    3    3  502    0 -0.41846218506E+02 -0.58294291515E+03 -0.11419101894E+04  0.12827830795E+04  0.25500000920E-02 0.  1.
       -2    1    3    3    0  502  0.41846218506E+02  0.58294291515E+03  0.46773170902E+03  0.74856295658E+03  0.25500000920E-02 0. -1.
</event>
<event>
 5   0  0.3499642E-05  0.2584999E+04  0.7818609E-02  0.8373314E-01
       -2   -1    0    0    0  501  0.00000000000E+00  0.00000000000E+00  0.11299078447E+04  0.11299078448E+04  0.25500000920E-02 0. -1.
        2   -1    0    0  501    0  0.00000000000E+00  0.00000000000E+00 -0.14784881627E+04  0.14784881627E+04  0.25500000920E-02 0.  1.
    10030    2    1    2    0    0  0.00000000000E+00  0.00000000000E+00 -0.34858031794E+03  0.26083960074E+04  0.25849993218E+04 0.  0.
        2    1    3    3  502    0 -0.90228137670E+03  0.91189582065E+03 -0.33348278611E+03  0.13254721570E+04  0.25500000920E-02 0. -1.
       -2    1    3    3    0  502  0.90228137670E+03 -0.91189582065E+03 -0.15097531836E+02  0.12829238504E+04  0.25500000920E-02 0.  1.
</event>
<event>
 5   0  0.3499642E-05  0.2788229E+04  0.7818609E-02  0.8306932E-01
        2   -1    0    0  501    0  0.00000000000E+00  0.00000000000E+00  0.14260298702E+04  0.14260298702E+04  0.25500000920E-02 0.  1.
       -2   -1    0    0    0  501  0.00000000000E+00  0.00000000000E+00 -0.13629129729E+04  0.13629129729E+04  0.25500000920E-02 0. -1.
    10030    2    1    2    0    0  0.00000000000E+00  0.00000000000E+00  0.63116897289E+02  0.27889428431E+04  0.27882285486E+04 0.  0.
        2    1    3    3  502    0  0.28481322259E+03  0.16123950989E+01 -0.13335011856E+04  0.13635785946E+04  0.25500000920E-02 0. -1.
       -2    1    3    3    0  502 -0.28481322259E+03 -0.16123950989E+01  0.13966180829E+04  0.14253642485E+04  0.25500000920E-02 0.  1.
</event>
<event>
 5   0  0.3441646E-05  0.2610201E+04  0.7818609E-02  0.8364744E-01
        2   -1    0    0  501    0  0.00000000000E+00  0.00000000000E+00  0.19471888920E+04  0.19471888920E+04  0.25500000920E-02 0. -1.
       -2   -1    0    0    0  501  0.00000000000E+00  0.00000000000E+00 -0.87474175777E+03  0.87474175777E+03  0.25500000920E-02 0.  1.
    10030    2    1    2    0    0  0.00000000000E+00  0.00000000000E+00  0.10724471343E+04  0.28219306498E+04  0.26102010912E+04 0.  0.
        4    1    3    3  502    0 -0.52708377946E+03 -0.79587214642E+02 -0.75168232857E+03  0.92150928985E+03  0.12699999809E+01 0.  1.
       -4    1    3    3    0  502  0.52708377946E+03  0.79587214642E+02  0.18241294628E+04  0.19004213600E+04  0.12699999809E+01 0. -1.
</event>
<event>
 5   0  0.3849687E-05  0.2609590E+04  0.7818609E-02  0.8364951E-01
       -2   -1    0    0    0  501  0.00000000000E+00  0.00000000000E+00  0.62914660218E+03  0.62914660218E+03  0.25500000920E-02 0. -1.
        2   -1    0    0  501    0  0.00000000000E+00  0.00000000000E+00 -0.27060305837E+04  0.27060305837E+04  0.25500000920E-02 0.  1.
    10030    2    1    2    0    0  0.00000000000E+00  0.00000000000E+00 -0.20768839815E+04  0.33351771858E+04  0.26095899656E+04 0.  0.
        1    1    3    3  502    0  0.44149307638E+03  0.67383335464E+03  0.27336073478E+03  0.85070183828E+03  0.50400001928E-02 0. -1.
       -1    1    3    3    0  502 -0.44149307638E+03 -0.67383335464E+03 -0.23502447163E+04  0.24844753476E+04  0.50400001928E-02 0.  1.
</event>
<event>
 5   0  0.1217200E-05  0.2595229E+04  0.7818609E-02  0.8369824E-01
       -4   -1    0    0    0  501  0.00000000000E+00  0.00000000000E+00  0.16208767823E+04  0.16208772798E+04  0.12699999809E+01 0.  1.
        4   -1    0    0  501    0  0.00000000000E+00  0.00000000000E+00 -0.10388211463E+04  0.10388219226E+04  0.12699999809E+01 0. -1.
    10030    2    1    2    0    0  0.00000000000E+00  0.00000000000E+00  0.58205563598E+03  0.26596992024E+04  0.25952285225E+04 0.  0.
        5    1    3    3  502    0 -0.10271621812E+04  0.17715163299E+02 -0.52138474816E+03  0.11520590780E+04  0.46999998093E+01 0. -1.
       -5    1    3    3    0  502  0.10271621812E+04 -0.17715163299E+02  0.11034403841E+04  0.15076401245E+04  0.46999998093E+01 0.  1.
</event>
<event>
 5   0  0.3499642E-05  0.2572901E+04  0.7818609E-02  0.8377465E-01
       -2   -1    0    0    0  501  0.00000000000E+00  0.00000000000E+00  0.77466498002E+03  0.77466498003E+03  0.25500000920E-02 0.  1.
        2   -1    0    0  501    0  0.00000000000E+00  0.00000000000E+00 -0.21363496680E+04  0.21363496680E+04  0.25500000920E-02 0. -1.
    10030    2    1    2    0    0  0.00000000000E+00  0.00000000000E+00 -0.13616846879E+04  0.29110146480E+04  0.25729012984E+04 0.  0.
        2    1    3    3  502    0 -0.48976244622E+03  0.10813117913E+04 -0.11984749994E+03  0.11930908880E+04  0.25500000920E-02 0.  1.
       -2    1    3    3    0  502  0.48976244622E+03 -0.10813117913E+04 -0.12418371880E+04  0.17179237600E+04  0.25500000920E-02 0. -1.
</event>
<event>
 5   0  0.3647623E-05  0.2598677E+04  0.7818609E-02  0.8368651E-01
       -2   -1    0    0    0  501  0.00000000000E+00  0.00000000000E+00  0.21918431256E+04  0.21918431256E+04  0.25500000920E-02 0.  1.
        2   -1    0    0  501    0  0.00000000000E+00  0.00000000000E+00 -0.77025638573E+03  0.77025638574E+03  0.25500000920E-02 0. -1.
    10030    2    1    2    0    0  0.00000000000E+00  0.00000000000E+00  0.14215867398E+04  0.29620995113E+04  0.25986774821E+04 0.  0.
        3    1    3    3  502    0 -0.41677810668E+03  0.37879266596E+03 -0.62389772354E+03  0.84049762262E+03  0.10100000352E+00 0. -1.
       -3    1    3    3    0  502  0.41677810668E+03 -0.37879266596E+03  0.20454844634E+04  0.21216018887E+04  0.10100000352E+00 0.  1.
</event>
<event>
 5   0  0.1497497E-05  0.2564857E+04  0.7818609E-02  0.8380237E-01
        1   -1    0    0  501    0  0.00000000000E+00  0.00000000000E+00  0.74739174523E+03  0.74739174525E+03  0.50400001928E-02 0.  1.
       -1   -1    0    0    0  501  0.00000000000E+00  0.00000000000E+00 -0.22004829486E+04  0.22004829486E+04  0.50400001928E-02 0. -1.
    10030    2    1    2    0    0  0.00000000000E+00  0.00000000000E+00 -0.14530912034E+04  0.29478746938E+04  0.25648569483E+04 0.  0.
        3    1    3    3  502    0 -0.90493484585E+03  0.31610669525E+03  0.25261073353E+03  0.99128336560E+03  0.10100000352E+00 0.  1.
       -3    1    3    3    0  502  0.90493484585E+03 -0.31610669525E+03 -0.17057019369E+04  0.19565913282E+04  0.10100000352E+00 0. -1.
</event>
<event>
 5   0  0.3508470E-05  0.2621956E+04  0.7818609E-02  0.8360781E-01
       -2   -1    0    0    0  501  0.00000000000E+00  0.00000000000E+00  0.80824281908E+03  0.80824281908E+03  0.25500000920E-02 0.  1.
        2   -1    0    0  501    0  0.00000000000E+00  0.00000000000E+00 -0.21264193370E+04  0.21264193370E+04  0.25500000920E-02 0. -1.
    10030    2    1    2    0    0  0.00000000000E+00  0.00000000000E+00 -0.13181765179E+04  0.29346621561E+04  0.26219558803E+04 0.  0.
        5    1    3    3  502    0  0.11649841617E+04 -0.56227185647E+03 -0.89731900123E+03  0.15743383428E+04  0.46999998093E+01 0.  1.
       -5    1    3    3    0  502 -0.11649841617E+04  0.56227185647E+03 -0.42085751671E+03  0.13603238133E+04  0.46999998093E+01 0. -1.
</event>
<event>
 5   0  0.1533248E-05  0.2548737E+04  0.7818609E-02  0.8385826E-01
       -1   -1    0    0    0  501  0.00000000000E+00  0.00000000000E+00  0.12565399927E+04  0.12565399928E+04  0.50400001928E-02 0. -1.
        1   -1    0    0  501    0  0.00000000000E+00  0.00000000000E+00 -0.12924501385E+04  0.12924501386E+04  0.50400001928E-02 0.  1.
    10030    2    1    2    0    0  0.00000000000E+00  0.00000000000E+00 -0.35910145793E+02  0.25489901313E+04  0.25487371679E+04 0.  0.
        4    1    3    3  502    0 -0.48233371955E+03 -0.11459378649E+04  0.26170506016E+03  0.12705552167E+04  0.12699999809E+01 0. -1.
       -4    1    3    3    0  502  0.48233371955E+03  0.11459378649E+04 -0.29761520595E+03  0.12784349146E+04  0.12699999809E+01 0.  1.
</event>
<event>
 5   0  0.3849687E-05  0.2610225E+04  0.7818609E-02  0.8364736E-01
        2   -1    0    0  501    0  0.00000000000E+00  0.00000000000E+00  0.17600104969E+04  0.17600104969E+04  0.25500000920E-02 0.  1.
       -2   -1    0    0    0  501  0.00000000000E+00  0.00000000000E+00 -0.96778886491E+03  0.96778886491E+03  0.25500000920E-02 0. -1.
    10030    2    1    2    0    0  0.00000000000E+00  0.00000000000E+00  0.79222163199E+03  0.27277993618E+04  0.26102249413E+04 0.  0.
        1    1    3    3  502    0 -0.10211550062E+04 -0.30573699839E+03  0.11830821510E+04  0.15924559758E+04  0.50400001928E-02 0.  1.
       -1    1    3    3    0  502  0.10211550062E+04  0.30573699839E+03 -0.39086051903E+03  0.11353433860E+04  0.50400001928E-02 0. -1.
</event>
<event>
 5   0  0.3499642E-05  0.2561524E+04  0.7818609E-02  0.8381389E-01
        2   -1    0    0  501    0  0.00000000000E+00  0.00000000000E+00  0.18262817092E+04  0.18262817092E+04  0.25500000920E-02 0.  1.
       -2   -1    0    0    0  501  0.00000000000E+00  0.00000000000E+00 -0.89819151204E+03  0.89819151204E+03  0.25500000920E-02 0. -1.
    10030    2    1    2    0    0  0.00000000000E+00  0.00000000000E+00  0.92809019713E+03  0.27244732212E+04  0.25615235543E+04 0.  0.
        2    1    3    3  502    0  0.21886738230E+03 -0.84322236177E+03 -0.53452047211E+03  0.10220758375E+04  0.25500000920E-02 0. -1.
       -2    1    3    3    0  502 -0.21886738230E+03  0.84322236177E+03  0.14626106692E+04  0.17023973837E+04  0.25500000920E-02 0.  1.
</event>
<event>
 5   0  0.1474554E-05  0.2581105E+04  0.7818609E-02  0.8374648E-01
        1   -1    0    0  501    0  0.00000000000E+00  0.00000000000E+00  0.20532645924E+04  0.20532645924E+04  0.50400001928E-02 0.  1.
       -1   -1    0    0    0  501  0.00000000000E+00  0.00000000000E+00 -0.81116000449E+03  0.81116000451E+03  0.50400001928E-02 0. -1.
    10030    2    1    2    0    0  0.00000000000E+00  0.00000000000E+00  0.12421045879E+04  0.28644245969E+04  0.25811052796E+04 0.  0.
        5    1    3    3  502    0 -0.95979359766E+03  0.80177254086E+03  0.97454576056E+03  0.15854981825E+04  0.46999998093E+01 0.  1.
       -5    1    3    3    0  502  0.95979359766E+03 -0.80177254086E+03  0.26755882739E+03  0.12789264144E+04  0.46999998093E+01 0. -1.
</event>
<event>
 5   0  0.3441646E-05  0.2634279E+04  0.7818609E-02  0.8356650E-01
        2   -1    0    0  501    0  0.00000000000E+00  0.00000000000E+00  0.18895339284E+04  0.18895339284E+04  0.25500000920E-02 0. -1.
       -2   -1    0    0    0  501  0.00000000000E+00  0.00000000000E+00 -0.91814003869E+03  0.91814003870E+03  0.25500000920E-02 0.  1.
    10030    2    1    2    0    0  0.00000000000E+00  0.00000000000E+00  0.97139388976E+03  0.28076739671E+04  0.26342792215E+04 0.  0.
        4    1    3    3  502    0  0.47072534136E+03  0.10210504430E+04 -0.24556041133E+03  0.11508379046E+04  0.12699999809E+01 0.  1.
       -4    1    3    3    0  502 -0.47072534136E+03 -0.10210504430E+04  0.12169543011E+04  0.16568360625E+04  0.12699999809E+01 0. -1.
</event>
<event>
 5   0  0.3508470E-05  0.2486783E+04  0.7818609E-02  0.8407709E-01
       -2   -1    0    0    0  501  0.00000000000E+00  0.00000000000E+00  0.13729437554E+04  0.13729437554E+04  0.25500000920E-02 0. -1.
        2   -1    0    0  501    0  0.00000000000E+00  0.00000000000E+00 -0.11260637517E+04  0.11260637517E+04  0.25500000920E-02 0.  1.
    10030    2    1    2    0    0  0.00000000000E+00  0.00000000000E+00  0.24688000364E+03  0.24990075071E+04  0.24867828181E+04 0.  0.
        5    1    3    3  502    0  0.10567513092E+04 -0.45223992339E+03 -0.35297473187E+03  0.12024381602E+04  0.46999998093E+01 0. -1.
       -5    1    3    3    0  502 -0.10567513092E+04  0.45223992339E+03  0.59985473551E+03  0.12965693469E+04  0.46999998093E+01 0.  1.
</event>
<event>
 5   0  0.1533248E-05  0.2547456E+04  0.7818609E-02  0.8386272E-01
        1   -1    0    0  501    0  0.00000000000E+00  0.00000000000E+00  0.21138307597E+04  0.21138307597E+04  0.50400001928E-02 0. -1.
       -1   -1    0    0    0  501  0.00000000000E+00  0.00000000000E+00 -0.76750819958E+03  0.76750819960E+03  0.50400001928E-02 0.  1.
    10030    2    1    2    0    0  0.00000000000E+00  0.00000000000E+00  0.13463225602E+04  0.28813389593E+04  0.25474555467E+04 0.  0.
        4    1    3    3  502    0 -0.57607403610E+03 -0.11204122264E+04  0.88535583785E+03  0.15398186337E+04  0.12699999809E+01 0. -1.
       -4    1    3    3    0  502  0.57607403610E+03  0.11204122264E+04  0.46096672231E+03  0.13415203257E+04  0.12699999809E+01 0.  1.
</event>
<event>
 5   0  0.3647623E-05  0.2550413E+04  0.7818609E-02  0.8385242E-01
        2   -1    0    0  501    0  0.00000000000E+00  0.00000000000E+00  0.14923650482E+04  0.14923650482E+04  0.25500000920E-02 0. -1.
       -2   -1    0    0    0  501  0.00000000000E+00  0.00000000000E+00 -0.10896476153E+04  0.10896476153E+04  0.25500000920E-02 0.  1.
    10030    2    1    2    0    0  0.00000000000E+00  0.00000000000E+00  0.40271743296E+03  0.25820126635E+04  0.25504133123E+04 0.  0.
        3    1    3    3  502    0 -0.12465066766E+04  0.26699221834E+03  0.23475632438E+03  0.12962153685E+04  0.10100000352E+00 0.  1.
       -3    1    3    3    0  502  0.12465066766E+04 -0.26699221834E+03  0.16796110859E+03  0.12857972950E+04  0.10100000352E+00 0. -1.
</event>
<event>
 5   0  0.1217200E-05  0.2519137E+04  0.7818609E-02  0.8396199E-01
       -3   -1    0    0    0  501  0.00000000000E+00  0.00000000000E+00  0.74011849882E+03  0.74011850571E+03  0.10100000352E+00 0. -1.
        3   -1    0    0  501    0  0.00000000000E+00  0.00000000000E+00 -0.21435927088E+04  0.21435927112E+04  0.10100000352E+00 0.  1.
    10030    2    1    2    0    0  0.00000000000E+00  0.00000000000E+00 -0.14034742100E+04  0.28837112169E+04  0.25191368610E+04 0.  0.
        2    1    3    3  502    0  0.85881503864E+02 -0.50482600216E+03 -0.20190567780E+04  0.20829822846E+04  0.25500000920E-02 0.  1.
       -2    1    3    3    0  502 -0.85881503864E+02  0.50482600216E+03  0.61558256794E+03  0.80072893237E+03  0.25500000920E-02 0. -1.
</event>
<event>
 5   0  0.1497497E-05  0.2836781E+04  0.7818609E-02  0.8291940E-01
       -1   -1    0    0    0  501  0.00000000000E+00  0.00000000000E+00  0.11245385381E+04  0.11245385381E+04  0.50400001928E-02 0. -1.
        1   -1    0    0  501    0  0.00000000000E+00  0.00000000000E+00 -0.17890279951E+04  0.17890279951E+04  0.50400001928E-02 0.  1.
    10030    2    1    2    0    0  0.00000000000E+00  0.00000000000E+00 -0.66448945697E+03  0.29135665332E+04  0.28367805176E+04 0.  0.
        3    1    3    3  502    0 -0.11419232715E+04 -0.27233097583E+03 -0.11498308642E+04  0.16432479864E+04  0.10100000352E+00 0.  1.
       -3    1    3    3    0  502  0.11419232715E+04  0.27233097583E+03  0.48534140722E+03  0.12703185467E+04  0.10100000352E+00 0. -1.
</event>
<event>
 5   0  0.1497497E-05  0.1831145E+04  0.7818609E-02  0.8689910E-01
        1   -1    0    0  501    0  0.00000000000E+00  0.00000000000E+00  0.62375892724E+03  0.62375892726E+03  0.50400001928E-02 0.  1.
       -1   -1    0    0    0  501  0.00000000000E+00  0.00000000000E+00 -0.13439056742E+04  0.13439056742E+04  0.50400001928E-02 0. -1.
    10030    2    1    2    0    0  0.00000000000E+00  0.00000000000E+00 -0.72014674696E+03  0.19676646015E+04  0.18311451736E+04 0.  0.
        3    1    3    3  502    0  0.17925566834E+03 -0.12510515232E+03  0.59530692750E+03  0.63417209170E+03  0.10100000352E+00 0.  1.
       -3    1    3    3    0  502 -0.17925566834E+03  0.12510515232E+03 -0.13154536745E+04  0.13334925098E+04  0.10100000352E+00 0. -1.
</event>
<event>
 5   0  0.1451052E-05  0.2525253E+04  0.7818609E-02  0.8394044E-01
       -1   -1    0    0    0  501  0.00000000000E+00  0.00000000000E+00  0.92588873902E+03  0.92588873904E+03  0.50400001928E-02 0. -1.
        1   -1    0    0  501    0  0.00000000000E+00  0.00000000000E+00 -0.17218331754E+04  0.17218331754E+04  0.50400001928E-02 0.  1.
    10030    2    1    2    0    0  0.00000000000E+00  0.00000000000E+00 -0.79594443638E+03  0.26477219144E+04  0.25252532131E+04 0.  0.
        1    1    3    3  502    0 -0.59753545813E+03  0.10791249887E+04 -0.68061298729E+03  0.14088269600E+04  0.50400001928E-02 0. -1.
       -1    1    3    3    0  502  0.59753545813E+03 -0.10791249887E+04 -0.11533144909E+03  0.12388949544E+04  0.50400001928E-02 0.  1.
</event>
<event>
 5   0  0.3647623E-05  0.2620184E+04  0.7818609E-02  0.8361377E-01
        2   -1    0    0  501    0  0.00000000000E+00  0.00000000000E+00  0.17076270036E+04  0.17076270036E+04  0.25500000920E-02 0.  1.
       -2   -1    0    0    0  501  0.00000000000E+00  0.00000000000E+00 -0.10051033753E+04  0.10051033753E+04  0.25500000920E-02 0. -1.
    10030    2    1    2    0    0  0.00000000000E+00  0.00000000000E+00  0.70252362829E+03  0.27127303789E+04  0.26201844707E+04 0.  0.
        3    1    3    3  502    0 -0.57782640721E+02  0.39695948122E+03  0.16424794184E+04  0.16907555451E+04  0.10100000352E+00 0.  1.
       -3    1    3    3    0  502  0.57782640721E+02 -0.39695948122E+03 -0.93995579014E+03  0.10219748338E+04  0.10100000352E+00 0. -1.
</event>
<event>
 5   0  0.1217200E-05  0.2647162E+04  0.7818609E-02  0.8352355E-01
        3   -1    0    0  501    0  0.00000000000E+00  0.00000000000E+00  0.21264777717E+04  0.21264777741E+04  0.10100000352E+00 0.  1.
       -3   -1    0    0    0  501  0.00000000000E+00  0.00000000000E+00 -0.82383512528E+03  0.82383513147E+03  0.10100000352E+00 0. -1.
    10030    2    1    2    0    0  0.00000000000E+00  0.00000000000E+00  0.13026426465E+04  0.29503129056E+04  0.26471623253E+04 0.  0.
        3    1    3    3  502    0 -0.12877134455E+04  0.30410939460E+03  0.68958428158E+03  0.14920505799E+04  0.10100000352E+00 0. -1.
       -3    1    3    3    0  502  0.12877134455E+04 -0.30410939460E+03  0.61305836487E+03  0.14582623257E+04  0.10100000352E+00 0.  1.
</event>
<event>
 5   0  0.3647623E-05  0.2563282E+04  0.7818609E-02  0.8380782E-01
       -2   -1    0    0    0  501  0.00000000000E+00  0.00000000000E+00  0.11063572072E+04  0.11063572073E+04  0.25500000920E-02 0.  1.
        2   -1    0    0  501    0  0.00000000000E+00  0.00000000000E+00 -0.14846952705E+04  0.14846952705E+04  0.25500000920E-02 0. -1.
    10030    2    1    2    0    0  0.00000000000E+00  0.00000000000E+00 -0.37833806321E+03  0.25910524777E+04  0.25632817348E+04 0.  0.
        3    1    3    3  502    0  0.19555498451E+02 -0.19135627450E+03 -0.14700212980E+04  0.14825526190E+04  0.10100000352E+00 0. -1.
       -3    1    3    3    0  502 -0.19555498451E+02  0.19135627450E+03  0.10916832348E+04  0.11084998587E+04  0.10100000352E+00 0.  1.
</event>
<event>
 5   0  0.3508470E-05  0.2608859E+04  0.7818609E-02  0.8365198E-01
        2   -1    0    0  501    0  0.00000000000E+00  0.00000000000E+00  0.19753516482E+04  0.19753516482E+04  0.25500000920E-02 0. -1.
       -2   -1    0    0    0  501  0.00000000000E+00  0.00000000000E+00 -0.86138406671E+03  0.86138406671E+03  0.25500000920E-02 0.  1.
    10030    2    1    2    0    0  0.00000000000E+00  0.00000000000E+00  0.11139675815E+04  0.28367357149E+04  0.26088590885E+04 0.  0.
        5    1    3    3  502    0  0.43341212112E+03  0.65053648070E+03  0.16924526503E+04  0.18642590600E+04  0.46999998093E+01 0. -1.
       -5    1    3    3    0  502 -0.43341212112E+03 -0.65053648070E+03 -0.57848506879E+03  0.97247665487E+03  0.46999998093E+01 0.  1.
</event>
<event>
 5   0  0.1435062E-05  0.2661601E+04  0.7818609E-02  0.8347573E-01
        1   -1    0    0  501    0  0.00000000000E+00  0.00000000000E+00  0.13255505654E+04  0.13255505654E+04  0.50400001928E-02 0.  1.
       -1   -1    0    0    0  501  0.00000000000E+00  0.00000000000E+00 -0.13360707620E+04  0.13360707621E+04  0.50400001928E-02 0. -1.
    10030    2    1    2    0    0  0.00000000000E+00  0.00000000000E+00 -0.10520196671E+02  0.26616213274E+04  0.26616005365E+04 0.  0.
        2    1    3    3  502    0  0.41742731775E+03  0.42547521124E+02  0.12576723682E+04  0.13258188575E+04  0.25500000920E-02 0.  1.
       -2    1    3    3    0  502 -0.41742731775E+03 -0.42547521124E+02 -0.12681925649E+04  0.13358024700E+04  0.25500000920E-02 0. -1.
</event>
<event>
 5   0  0.1533248E-05  0.1834904E+04  0.7818609E-02  0.8687955E-01
        1   -1    0    0  501    0  0.00000000000E+00  0.00000000000E+00  0.13479529931E+04  0.13479529931E+04  0.50400001928E-02 0. -1.
       -1   -1    0    0    0  501  0.00000000000E+00  0.00000000000E+00 -0.62444167273E+03  0.62444167275E+03  0.50400001928E-02 0.  1.
    10030    2    1    2    0    0  0.00000000000E+00  0.00000000000E+00  0.72351132033E+03  0.19723946658E+04  0.18349038359E+04 0.  0.
        4    1    3    3  502    0  0.28420453783E+03 -0.32331830383E+03  0.12326549327E+04  0.13056595042E+04  0.12699999809E+01 0. -1.
       -4    1    3    3    0  502 -0.28420453783E+03  0.32331830383E+03 -0.50914361233E+03  0.66673516166E+03  0.12699999809E+01 0.  1.
</event>
<event>
 5   0  0.3499642E-05  0.2526901E+04  0.7818609E-02  0.8393464E-01
       -2   -1    0    0    0  501  0.00000000000E+00  0.00000000000E+00  0.10261682661E+04  0.10261682661E+04  0.25500000920E-02 0. -1.
        2   -1    0    0  501    0  0.00000000000E+00  0.00000000000E+00 -0.15555998239E+04  0.15555998239E+04  0.25500000920E-02 0.  1.
    10030    2    1    2    0    0  0.00000000000E+00  0.00000000000E+00 -0.52943155783E+03  0.25817680900E+04  0.25269010064E+04 0.  0.
        2    1    3    3  502    0 -0.55149772821E+03 -0.55533883640E+02 -0.14247420552E+04  0.15287654105E+04  0.25500000920E-02 0.  1.
       -2    1    3    3    0  502  0.55149772821E+03  0.55533883640E+02  0.89531049733E+03  0.10530026795E+04  0.25500000920E-02 0. -1.
</event>
<event>
 5   0  0.3647623E-05  0.2624464E+04  0.7818609E-02  0.8359939E-01
        2   -1    0    0  501    0  0.00000000000E+00  0.00000000000E+00  0.12831203768E+04  0.12831203768E+04  0.25500000920E-02 0.  1.
       -2   -1    0    0    0  501  0.00000000000E+00  0.00000000000E+00 -0.13420039715E+04  0.13420039715E+04  0.25500000920E-02 0. -1.
    10030    2    1    2    0    0  0.00000000000E+00  0.00000000000E+00 -0.58883594743E+02  0.26251243483E+04  0.26244638627E+04 0.  0.
        3    1    3    3  502    0  0.16020089724E+03  0.29332760664E+03  0.12398327225E+04  0.12840913528E+04  0.10100000352E+00 0.  1.
       -3    1    3    3    0  502 -0.16020089724E+03 -0.29332760664E+03 -0.12987163172E+04  0.13410329955E+04  0.10100000352E+00 0. -1.
</event>
<event>
 5   0  0.1451052E-05  0.2651511E+04  0.7818609E-02  0.8350912E-01
       -1   -1    0    0    0  501  0.00000000000E+00  0.00000000000E+00  0.12315288978E+04  0.12315288978E+04  0.50400001928E-02 0. -1.
        1   -1    0    0  501    0  0.00000000000E+00  0.00000000000E+00 -0.14271914293E+04  0.14271914293E+04  0.50400001928E-02 0.  1.
    10030    2    1    2    0    0  0.00000000000E+00  0.00000000000E+00 -0.19566253145E+03  0.26587203271E+04  0.26515108809E+04 0.  0.
        1    1    3    3  502    0 -0.72367735450E+03 -0.95646548040E+03  0.46858725414E+03  0.12876758689E+04  0.50400001928E-02 0. -1.
       -1    1    3    3    0  502  0.72367735450E+03  0.95646548040E+03 -0.66424978559E+03  0.13710444582E+04  0.50400001928E-02 0.  1.
</event>
<event>
 5   0  0.3508470E-05  0.2607405E+04  0.7818609E-02  0.8365690E-01
       -2   -1    0    0    0  501  0.00000000000E+00  0.00000000000E+00  0.84109443495E+03  0.84109443496E+03  0.25500000920E-02 0.  1.
        2   -1    0    0  501    0  0.00000000000E+00  0.00000000000E+00 -0.20207491353E+04  0.20207491353E+04  0.25500000920E-02 0. -1.
    10030    2    1    2    0    0  0.00000000000E+00  0.00000000000E+00 -0.11796547003E+04  0.28618435702E+04  0.26074054937E+04 0.  0.
        5    1    3    3  502    0  0.79095926102E+03  0.88222160875E+03  0.70067227014E+01  0.11849062004E+04  0.46999998093E+01 0.  1.
       -5    1    3    3    0  502 -0.79095926102E+03 -0.88222160875E+03 -0.11866614230E+04  0.16769373699E+04  0.46999998093E+01 0. -1.
</event>
<event>
 5   0  0.1533248E-05  0.2465179E+04  0.7818609E-02  0.8415497E-01
       -1   -1    0    0    0  501  0.00000000000E+00  0.00000000000E+00  0.81377068152E+03  0.81377068153E+03  0.50400001928E-02 0.  1.
        1   -1    0    0  501    0  0.00000000000E+00  0.00000000000E+00 -0.18669602202E+04  0.18669602202E+04  0.50400001928E-02 0. -1.
    10030    2    1    2    0    0  0.00000000000E+00  0.00000000000E+00 -0.10531895387E+04  0.26807309018E+04  0.24651794992E+04 0.  0.
        4    1    3    3  502    0  0.62188421401E+03 -0.67632455556E+03 -0.14200966709E+04  0.16913991391E+04  0.12699999809E+01 0. -1.
       -4    1    3    3    0  502 -0.62188421401E+03  0.67632455556E+03  0.36690713220E+03  0.98933176268E+03  0.12699999809E+01 0.  1.
</event>
<event>
 5   0  0.1474554E-05  0.2618325E+04  0.7818609E-02  0.8362003E-01
        1   -1    0    0  501    0  0.00000000000E+00  0.00000000000E+00  0.18053141552E+04  0.18053141552E+04  0.50400001928E-02 0. -1.
       -1   -1    0    0    0  501  0.00000000000E+00  0.00000000000E+00 -0.94936747478E+03  0.94936747480E+03  0.50400001928E-02 0.  1.
    10030    2    1    2    0    0  0.00000000000E+00  0.00000000000E+00  0.85594668045E+03  0.27546816300E+04  0.26183250683E+04 0.  0.
        5    1    3    3  502    0 -0.25391838136E+03  0.11551891143E+04 -0.16245512604E+03  0.11938803090E+04  0.46999998093E+01 0. -1.
       -5    1    3    3    0  502  0.25391838136E+03 -0.11551891143E+04  0.10184018065E+04  0.15608013210E+04  0.46999998093E+01 0.  1.
</event>
<event>
 5   0  0.3499642E-05  0.2692661E+04  0.7818609E-02  0.8337390E-01
       -2   -1    0    0    0  501  0.00000000000E+00  0.00000000000E+00  0.10233795928E+04  0.10233795928E+04  0.25500000920E-02 0. -1.
        2   -1    0    0  501    0  0.00000000000E+00  0.00000000000E+00 -0.17711955849E+04  0.17711955849E+04  0.25500000920E-02 0.  1.
    10030    2    1    2    0    0  0.00000000000E+00  0.00000000000E+00 -0.74781599214E+03  0.27945751777E+04  0.26926607038E+04 0.  0.
        2    1    3    3  502    0 -0.84575338177E+03 -0.94321788713E+03 -0.84683774162E+03  0.15238415029E+04  0.25500000920E-02 0.  1.
       -2    1    3    3    0  502  0.84575338177E+03  0.94321788713E+03  0.99021749477E+02  0.12707336748E+04  0.25500000920E-02 0. -1.
</event>
<event>
 5   0  0.1451052E-05  0.2060354E+04  0.7818609E-02  0.8578912E-01
        1   -1    0    0  501    0  0.00000000000E+00  0.00000000000E+00  0.11325129093E+04  0.11325129093E+04  0.50400001928E-02 0. -1.
       -1   -1    0    0    0  501  0.00000000000E+00  0.00000000000E+00 -0.93708868297E+03  0.93708868298E+03  0.50400001928E-02 0.  1.
    10030    2    1    2    0    0  0.00000000000E+00  0.00000000000E+00  0.19542422629E+03  0.20696015923E+04  0.20603543682E+04 0.  0.
        1    1    3    3  502    0  0.80007532016E+03  0.20115691946E+02 -0.55384375735E+03  0.97327697321E+03  0.50400001928E-02 0.  1.
       -1    1    3    3    0  502 -0.80007532016E+03 -0.20115691946E+02  0.74926798364E+03  0.10963246190E+04  0.50400001928E-02 0. -1.
</event>
<event>
 5   0  0.1435062E-05  0.1674170E+04  0.7818609E-02  0.8776235E-01
        1   -1    0    0  501    0  0.00000000000E+00  0.00000000000E+00  0.12772443942E+04  0.12772443943E+04  0.50400001928E-02 0. -1.
       -1   -1    0    0    0  501  0.00000000000E+00  0.00000000000E+00 -0.54861181473E+03  0.54861181475E+03  0.50400001928E-02 0.  1.
    10030    2    1    2    0    0  0.00000000000E+00  0.00000000000E+00  0.72863257952E+03  0.18258562090E+04  0.16741700810E+04 0.  0.
        2    1    3    3  502    0 -0.79759305189E+02  0.72047920239E+02  0.12696875113E+04  0.12742287181E+04  0.25500000920E-02 0. -1.
       -2    1    3    3    0  502  0.79759305189E+02 -0.72047920239E+02 -0.54105493178E+03  0.55162749096E+03  0.25500000920E-02 0.  1.
</event>
<event>
 5   0  0.3508470E-05  0.2553795E+04  0.7818609E-02  0.8384067E-01
       -2   -1    0    0    0  501  0.00000000000E+00  0.00000000000E+00  0.13476889759E+04  0.13476889759E+04  0.25500000920E-02 0. -1.
        2   -1    0    0  501    0  0.00000000000E+00  0.00000000000E+00 -0.12098247923E+04  0.12098247923E+04  0.25500000920E-02 0.  1.
    10030    2    1    2    0    0  0.00000000000E+00  0.00000000000E+00  0.13786418366E+03  0.25575137682E+04  0.25537952427E+04 0.  0.
        5    1    3    3  502    0  0.47727890946E+03 -0.10485219793E+04  0.62041709335E+03  0.13084849859E+04  0.46999998093E+01 0. -1.
       -5    1    3    3    0  502 -0.47727890946E+03  0.10485219793E+04 -0.48255290969E+03  0.12490287823E+04  0.46999998093E+01 0.  1.
</event>
<event>
 5   0  0.3441646E-05  0.1859007E+04  0.7818609E-02  0.8675535E-01
        2   -1    0    0  501    0  0.00000000000E+00  0.00000000000E+00  0.28698475096E+04  0.28698475096E+04  0.25500000920E-02 0. -1.
       -2   -1    0    0    0  501  0.00000000000E+00  0.00000000000E+00 -0.30105313750E+03  0.30105313751E+03  0.25500000920E-02 0.  1.
    10030    2    1    2    0    0  0.00000000000E+00  0.00000000000E+00  0.25687943721E+04  0.31709006471E+04  0.18590068283E+04 0.  0.
        4    1    3    3  502    0 -0.39428683365E+03 -0.81455119641E+03  0.16463072484E+04  0.18786391159E+04  0.12699999809E+01 0.  1.
       -4    1    3    3    0  502  0.39428683365E+03  0.81455119641E+03  0.92248712369E+03  0.12922615312E+04  0.12699999809E+01 0. -1.
</event>
<event>
 5   0  0.1435062E-05  0.2604437E+04  0.7818609E-02  0.8366695E-01
        1   -1    0    0  501    0  0.00000000000E+00  0.00000000000E+00  0.19710033486E+04  0.19710033486E+04  0.50400001928E-02 0.  1.
       -1   -1    0    0    0  501  0.00000000000E+00  0.00000000000E+00 -0.86036060433E+03  0.86036060434E+03  0.50400001928E-02 0. -1.
    10030    2    1    2    0    0  0.00000000000E+00  0.00000000000E+00  0.11106427443E+04  0.28313639529E+04  0.26044374687E+04 0.  0.
        2    1    3    3  502    0  0.53048348356E+03 -0.50719398862E+03 -0.61409738736E+03  0.95696085060E+03  0.25500000920E-02 0. -1.
       -2    1    3    3    0  502 -0.53048348356E+03  0.50719398862E+03  0.17247401316E+04  0.18744031023E+04  0.25500000920E-02 0.  1.
</event>
<event>
 5   0  0.1497497E-05  0.2615687E+04  0.7818609E-02  0.8362892E-01
       -1   -1    0    0    0  501  0.00000000000E+00  0.00000000000E+00  0.88889722046E+03  0.88889722048E+03  0.50400001928E-02 0. -1.
        1   -1    0    0  501    0  0.00000000000E+00  0.00000000000E+00 -0.19242433687E+04  0.19242433687E+04  0.50400001928E-02 0.  1.
    10030    2    1    2    0    0  0.00000000000E+00  0.00000000000E+00 -0.10353461482E+04  0.28131405892E+04  0.26156869705E+04 0.  0.
        3    1    3    3  502    0 -0.28430322703E+03 -0.12076723720E+04 -0.72735789882E+02  0.12428159109E+04  0.10100000352E+00 0. -1.
       -3    1    3    3    0  502  0.28430322703E+03  0.12076723720E+04 -0.96261035832E+03  0.15703246783E+04  0.10100000352E+00 0.  1.
</event>
<event>
 5   0  0.1435062E-05  0.2574640E+04  0.7818609E-02  0.8376867E-01
       -1   -1    0    0    0  501  0.00000000000E+00  0.00000000000E+00  0.11752010183E+04  0.11752010183E+04  0.50400001928E-02 0.  1.
        1   -1    0    0  501    0  0.00000000000E+00  0.00000000000E+00 -0.14101356820E+04  0.14101356820E+04  0.50400001928E-02 0. -1.
    10030    2    1    2    0    0  0.00000000000E+00  0.00000000000E+00 -0.23493466365E+03  0.25853367003E+04  0.25746400832E+04 0.  0.
        2    1    3    3  502    0  0.10069388120E+04  0.62163226093E+03  0.39143248726E+03  0.12464236162E+04  0.25500000920E-02 0. -1.
       -2    1    3    3    0  502 -0.10069388120E+04 -0.62163226093E+03 -0.62636715091E+03  0.13389130841E+04  0.25500000920E-02 0.  1.
</event>
<event>
 5   0  0.3647623E-05  0.2516467E+04  0.7818609E-02  0.8397142E-01
       -2   -1    0    0    0  501  0.00000000000E+00  0.00000000000E+00  0.13829394498E+04  0.13829394498E+04  0.25500000920E-02 0.  1.
        2   -1    0    0  501    0  0.00000000000E+00  0.00000000000E+00 -0.11447729168E+04  0.11447729168E+04  0.25500000920E-02 0. -1.
    10030    2    1    2    0    0  0.00000000000E+00  0.00000000000E+00  0.23816653299E+03  0.25277123666E+04  0.25164670693E+04 0.  0.
        3    1    3    3  502    0  0.38339325729E+02 -0.81195643483E+03  0.10837960662E+04  0.13547535124E+04  0.10100000352E+00 0.  1.
       -3    1    3    3    0  502 -0.38339325729E+02  0.81195643483E+03 -0.84562953324E+03  0.11729588542E+04  0.10100000352E+00 0. -1.
</event>
<event>
 5   0  0.1217200E-05  0.2585000E+04  0.7818609E-02  0.8373314E-01
        3   -1    0    0  501    0  0.00000000000E+00  0.00000000000E+00  0.70304812725E+03  0.70304813450E+03  0.10100000352E+00 0.  1.
       -3   -1    0    0    0  501  0.00000000000E+00  0.00000000000E+00 -0.23761627782E+04  0.23761627804E+04  0.10100000352E+00 0. -1.
    10030    2    1    2    0    0  0.00000000000E+00  0.00000000000E+00 -0.16731146510E+04  0.30792109149E+04  0.25850004300E+04 0.  0.
        4    1    3    3  502    0  0.32418435428E+03 -0.10600904832E+04 -0.16281954817E+04  0.19697485798E+04  0.12699999809E+01 0. -1.
       -4    1    3    3    0  502 -0.32418435428E+03  0.10600904832E+04 -0.44919169239E+02  0.11094623350E+04  0.12699999809E+01 0.  1.
</event>
<event>
 5   0  0.1533248E-05  0.2527938E+04  0.7818609E-02  0.8393100E-01
        1   -1    0    0  501    0  0.00000000000E+00  0.00000000000E+00  0.15818930241E+04  0.15818930241E+04  0.50400001928E-02 0. -1.
       -1   -1    0    0    0  501  0.00000000000E+00  0.00000000000E+00 -0.10099405104E+04  0.10099405104E+04  0.50400001928E-02 0.  1.
    10030    2    1    2    0    0  0.00000000000E+00  0.00000000000E+00  0.57195251368E+03  0.25918335345E+04  0.25279381702E+04 0.  0.
        4    1    3    3  502    0 -0.11472216797E+03  0.12229961951E+04  0.59139031935E+03  0.13633139741E+04  0.12699999809E+01 0. -1.
       -4    1    3    3    0  502  0.11472216797E+03 -0.12229961951E+04 -0.19437805678E+02  0.12285195604E+04  0.12699999809E+01 0.  1.
</event>
<event>
 5   0  0.1497497E-05  0.2619754E+04  0.7818609E-02  0.8361522E-01
        1   -1    0    0  501    0  0.00000000000E+00  0.00000000000E+00  0.23245474901E+04  0.23245474901E+04  0.50400001928E-02 0. -1.
       -1   -1    0    0    0  501  0.00000000000E+00  0.00000000000E+00 -0.73811234698E+03  0.73811234700E+03  0.50400001928E-02 0.  1.
    10030    2    1    2    0    0  0.00000000000E+00  0.00000000000E+00  0.15864351431E+04  0.30626598371E+04  0.26197535789E+04 0.  0.
        3    1    3    3  502    0  0.81750077873E+03  0.58227869571E+03  0.17771926359E+04  0.20410217241E+04  0.10100000352E+00 0. -1.
       -3    1    3    3    0  502 -0.81750077873E+03 -0.58227869571E+03 -0.19075749282E+03  0.10216381130E+04  0.10100000352E+00 0.  1.
</event>
<event>
 5   0  0.3849687E-05  0.2609725E+04  0.7818609E-02  0.8364905E-01
        2   -1    0    0  501    0  0.00000000000E+00  0.00000000000E+00  0.19136362666E+04  0.19136362666E+04  0.25500000920E-02 0.  1.
       -2   -1    0    0    0  501  0.00000000000E+00  0.00000000000E+00 -0.88975461643E+03  0.88975461643E+03  0.25500000920E-02 0. -1.
    10030    2    1    2    0    0  0.00000000000E+00  0.00000000000E+00  0.10238816502E+04  0.28033908830E+04  0.26097254280E+04 0.  0.
        1    1    3    3  502    0  0.52272687616E+03  0.11094339676E+04  0.33248856807E+02  0.12268629109E+04  0.50400001928E-02 0. -1.
       -1    1    3    3    0  502 -0.52272687616E+03 -0.11094339676E+04  0.99063279335E+03  0.15765279721E+04  0.50400001928E-02 0.  1.
</event>
<event>
 5   0  0.1451052E-05  0.2575411E+04  0.7818609E-02  0.8376602E-01
       -1   -1    0    0    0  501  0.00000000000E+00  0.00000000000E+00  0.10747497983E+04  0.10747497983E+04  0.50400001928E-02 0.  1.
        1   -1    0    0  501    0  0.00000000000E+00  0.00000000000E+00 -0.15428574950E+04  0.15428574950E+04  0.50400001928E-02 0. -1.
    10030    2    1    2    0    0  0.00000000000E+00  0.00000000000E+00 -0.46810769663E+03  0.26176072933E+04  0.25754112538E+04 0.  0.
        1    1    3    3  502    0  0.10309905954E+04  0.48917842707E+03 -0.84044320793E+03  0.14172444839E+04  0.50400001928E-02 0. -1.
       -1    1    3    3    0  502 -0.10309905954E+04 -0.48917842707E+03  0.37233551130E+03  0.12003628094E+04  0.50400001928E-02 0.  1.
</event>
<event>
 5   0  0.3647623E-05  0.2672552E+04  0.7818609E-02  0.8343966E-01
       -2   -1    0    0    0  501  0.00000000000E+00  0.00000000000E+00  0.98771138817E+03  0.98771138818E+03  0.25500000920E-02 0.  1.
        2   -1    0    0  501    0  0.00000000000E+00  0.00000000000E+00 -0.18078500375E+04  0.18078500375E+04  0.25500000920E-02 0. -1.
    10030    2    1    2    0    0  0.00000000000E+00  0.00000000000E+00 -0.82013864933E+03  0.27955614257E+04  0.26725523906E+04 0.  0.
        3    1    3    3  502    0  0.39044911458E+03  0.11544271746E+04  0.16332269345E+03  0.12295637132E+04  0.10100000352E+00 0.  1.
       -3    1    3    3    0  502 -0.39044911458E+03 -0.11544271746E+04 -0.98346134277E+03  0.15659977125E+04  0.10100000352E+00 0. -1.
</event>
<event>
 5   0  0.3647623E-05  0.2613208E+04  0.7818609E-02  0.8363729E-01
        2   -1    0    0  501    0  0.00000000000E+00  0.00000000000E+00  0.20533255786E+04  0.20533255786E+04  0.25500000920E-02 0.  1.
       -2   -1    0    0    0  501  0.00000000000E+00  0.00000000000E+00 -0.83143833911E+03  0.83143833912E+03  0.25500000920E-02 0. -1.
    10030    2    1    2    0    0  0.00000000000E+00  0.00000000000E+00  0.12218872395E+04  0.28847639177E+04  0.26132076908E+04 0.  0.
        3    1    3    3  502    0 -0.10391933971E+04 -0.77594386416E+03  0.43569599374E+03  0.13681530639E+04  0.10100000352E+00 0.  1.
       -3    1    3    3    0  502  0.10391933971E+04  0.77594386416E+03  0.78619124578E+03  0.15166108539E+04  0.10100000352E+00 0. -1.
</event>
<event>
 5   0  0.3441646E-05  0.2609639E+04  0.7818609E-02  0.8364934E-01
        2   -1    0    0  501    0  0.00000000000E+00  0.00000000000E+00  0.13355913380E+04  0.13355913380E+04  0.25500000920E-02 0. -1.
       -2   -1    0    0    0  501  0.00000000000E+00  0.00000000000E+00 -0.12747571256E+04  0.12747571256E+04  0.25500000920E-02 0.  1.
    10030    2    1    2    0    0  0.00000000000E+00  0.00000000000E+00  0.60834212346E+02  0.26103484636E+04  0.26096394961E+04 0.  0.
        4    1    3    3  502    0 -0.92881964112E+03 -0.43610943081E+02  0.94605921813E+03  0.13265132857E+04  0.12699999809E+01 0. -1.
       -4    1    3    3    0  502  0.92881964112E+03  0.43610943081E+02 -0.88522500578E+03  0.12838351778E+04  0.12699999809E+01 0.  1.
</event>
<event>
 5   0  0.1497497E-05  0.2601427E+04  0.7818609E-02  0.8367717E-01
       -1   -1    0    0    0  501  0.00000000000E+00  0.00000000000E+00  0.89099929416E+03  0.89099929418E+03  0.50400001928E-02 0. -1.
        1   -1    0    0  501    0  0.00000000000E+00  0.00000000000E+00 -0.18988295136E+04  0.18988295136E+04  0.50400001928E-02 0.  1.
    10030    2    1    2    0    0  0.00000000000E+00  0.00000000000E+00 -0.10078302194E+04  0.27898288077E+04  0.26014271132E+04 0.  0.
        3    1    3    3  502    0  0.38795585253E+03  0.69025995944E+03 -0.16105839799E+04  0.17947003431E+04  0.10100000352E+00 0.  1.
       -3    1    3    3    0  502 -0.38795585253E+03 -0.69025995944E+03  0.60275376049E+03  0.99512846463E+03  0.10100000352E+00 0. -1.
</event>
<event>
 5   0  0.3441646E-05  0.2609298E+04  0.7818609E-02  0.8365050E-01
        2   -1    0    0  501    0  0.00000000000E+00  0.00000000000E+00  0.10037674514E+04  0.10037674514E+04  0.25500000920E-02 0.  1.
       -2   -1    0    0    0  501  0.00000000000E+00  0.00000000000E+00 -0.16957208206E+04  0.16957208206E+04  0.25500000920E-02 0. -1.
    10030    2    1    2    0    0  0.00000000000E+00  0.00000000000E+00 -0.69195336915E+03  0.26994882720E+04  0.26092982707E+04 0.  0.
        4    1    3    3  502    0  0.64688442298E+03 -0.12258396951E+03 -0.15112391208E+04  0.16484330679E+04  0.12699999809E+01 0. -1.
       -4    1    3    3    0  502 -0.64688442298E+03  0.12258396951E+03  0.81928575163E+03  0.10510552041E+04  0.12699999809E+01 0.  1.
</event>
<event>
 5   0  0.1474554E-05  0.2621910E+04  0.7818609E-02  0.8360797E-01
        1   -1    0    0  501    0  0.00000000000E+00  0.00000000000E+00  0.11212426390E+04  0.11212426390E+04  0.50400001928E-02 0. -1.
       -1   -1    0    0    0  501  0.00000000000E+00  0.00000000000E+00 -0.15327659806E+04  0.15327659806E+04  0.50400001928E-02 0.  1.
    10030    2    1    2    0    0  0.00000000000E+00  0.00000000000E+00 -0.41152334155E+03  0.26540086196E+04  0.26219096652E+04 0.  0.
        5    1    3    3  502    0 -0.36360688660E+03 -0.11551946297E+04 -0.71379843237E+03  0.14057791051E+04  0.46999998093E+01 0.  1.
       -5    1    3    3    0  502  0.36360688660E+03  0.11551946297E+04  0.30227509082E+03  0.12482295145E+04  0.46999998093E+01 0. -1.
</event>
<event>
 5   0  0.3849687E-05  0.2010615E+04  0.7818609E-02  0.8601674E-01
       -2   -1    0    0    0  501  0.00000000000E+00  0.00000000000E+00  0.65482986557E+03  0.65482986558E+03  0.25500000920E-02 0. -1.
        2   -1    0    0  501    0  0.00000000000E+00  0.00000000000E+00 -0.15433676128E+04  0.15433676128E+04  0.25500000920E-02 0.  1.
    10030    2    1    2    0    0  0.00000000000E+00  0.00000000000E+00 -0.88853774724E+03  0.21981974784E+04  0.20106150367E+04 0.  0.
        1    1    3    3  502    0 -0.87339363136E+03  0.26001148796E+03 -0.90839950586E+03  0.12867058994E+04  0.50400001928E-02 0.  1.
       -1    1    3    3    0  502  0.87339363136E+03 -0.26001148796E+03  0.19861758618E+02  0.91149157903E+03  0.50400001928E-02 0. -1.
</event>
<event>
 5   0  0.1435062E-05  0.2589812E+04  0.7818609E-02  0.8371670E-01
       -1   -1    0    0    0  501  0.00000000000E+00  0.00000000000E+00  0.10169342457E+04  0.10169342457E+04  0.50400001928E-02 0. -1.
        1   -1    0    0  501    0  0.00000000000E+00  0.00000000000E+00 -0.16488599003E+04  0.16488599003E+04  0.50400001928E-02 0.  1.
    10030    2    1    2    0    0  0.00000000000E+00  0.00000000000E+00 -0.63192565456E+03  0.26657941460E+04  0.25898124248E+04 0.  0.
        2    1    3    3  502    0 -0.12805989009E+03 -0.16381007267E+03  0.99963875161E+03  0.10210341371E+04  0.25500000920E-02 0. -1.
       -2    1    3    3    0  502  0.12805989009E+03  0.16381007267E+03 -0.16315644062E+04  0.16447600089E+04  0.25500000920E-02 0.  1.
</event>
<event>
 5   0  0.3508470E-05  0.2596554E+04  0.7818609E-02  0.8369373E-01
        2   -1    0    0  501    0  0.00000000000E+00  0.00000000000E+00  0.13420838354E+04  0.13420838354E+04  0.25500000920E-02 0. -1.
       -2   -1    0    0    0  501  0.00000000000E+00  0.00000000000E+00 -0.12558997996E+04  0.12558997996E+04  0.25500000920E-02 0.  1.
    10030    2    1    2    0    0  0.00000000000E+00  0.00000000000E+00  0.86184035746E+02  0.25979836350E+04  0.25965537314E+04 0.  0.
        5    1    3    3  502    0 -0.40331592970E+03  0.80857871983E+03 -0.88964312872E+03  0.12680497907E+04  0.46999998093E+01 0.  1.
       -5    1    3    3    0  502  0.40331592970E+03 -0.80857871983E+03  0.97582716446E+03  0.13299338443E+04  0.46999998093E+01 0. -1.
</event>
<event>
 5   0  0.1497497E-05  0.2676571E+04  0.7818609E-02  0.8342647E-01
        1   -1    0    0  501    0  0.00000000000E+00  0.00000000000E+00  0.18463349908E+04  0.18463349908E+04  0.50400001928E-02 0.  1.
       -1   -1    0    0    0  501  0.00000000000E+00  0.00000000000E+00 -0.97003448030E+03  0.97003448031E+03  0.50400001928E-02 0. -1.
    10030    2    1    2    0    0  0.00000000000E+00  0.00000000000E+00  0.87630051054E+03  0.28163694712E+04  0.26765713914E+04 0.  0.
        3    1    3    3  502    0 -0.11965354989E+04  0.56104755247E+03  0.66021082799E+03  0.14772778696E+04  0.10100000352E+00 0.  1.
       -3    1    3    3    0  502  0.11965354989E+04 -0.56104755247E+03  0.21608968255E+03  0.13390916016E+04  0.10100000352E+00 0. -1.
</event>
<event>
 5   0  0.1497497E-05  0.2379620E+04  0.7818609E-02  0.8447173E-01
        1   -1    0    0  501    0  0.00000000000E+00  0.00000000000E+00  0.15136925950E+04  0.15136925950E+04  0.50400001928E-02 0.  1.
       -1   -1    0    0    0  501  0.00000000000E+00  0.00000000000E+00 -0.93522780103E+03  0.93522780105E+03  0.50400001928E-02 0. -1.
    10030    2    1    2    0    0  0.00000000000E+00  0.00000000000E+00  0.57846479400E+03  0.24489203961E+04  0.23796196311E+04 0.  0.
        3    1    3    3  502    0  0.38876822243E+03  0.68683961705E+03 -0.62706708487E+03  0.10080191116E+04  0.10100000352E+00 0. -1.
       -3    1    3    3    0  502 -0.38876822243E+03 -0.68683961705E+03  0.12055318789E+04  0.14409012844E+04  0.10100000352E+00 0.  1.
</event>
<event>
 5   0  0.1497497E-05  0.2575032E+04  0.7818609E-02  0.8376732E-01
        1   -1    0    0  501    0  0.00000000000E+00  0.00000000000E+00  0.13345457735E+04  0.13345457735E+04  0.50400001928E-02 0.  1.
       -1   -1    0    0    0  501  0.00000000000E+00  0.00000000000E+00 -0.12421435508E+04  0.12421435509E+04  0.50400001928E-02 0. -1.
    10030    2    1    2    0    0  0.00000000000E+00  0.00000000000E+00  0.92402222634E+02  0.25766893243E+04  0.25750319811E+04 0.  0.
        3    1    3    3  502    0 -0.69634275968E+03 -0.95609327267E+03  0.55514406879E+03  0.13065957800E+04  0.10100000352E+00 0.  1.
       -3    1    3    3    0  502  0.69634275968E+03  0.95609327267E+03 -0.46274184616E+03  0.12700935443E+04  0.10100000352E+00 0. -1.
</event>
<event>
 5   0  0.1435062E-05  0.2529792E+04  0.7818609E-02  0.8392448E-01
        1   -1    0    0  501    0  0.00000000000E+00  0.00000000000E+00  0.97075274149E+03  0.97075274151E+03  0.50400001928E-02 0. -1.
       -1   -1    0    0    0  501  0.00000000000E+00  0.00000000000E+00 -0.16481666212E+04  0.16481666213E+04  0.50400001928E-02 0.  1.
    10030    2    1    2    0    0  0.00000000000E+00  0.00000000000E+00 -0.67741387975E+03  0.26189193628E+04  0.25297922966E+04 0.  0.
        2    1    3    3  502    0  0.63284390948E+03  0.65608494690E+03 -0.12465421792E+04  0.15442817994E+04  0.25500000920E-02 0.  1.
       -2    1    3    3    0  502 -0.63284390948E+03 -0.65608494690E+03  0.56912829949E+03  0.10746375634E+04  0.25500000920E-02 0. -1.
</event>
<event>
 5   0  0.1474554E-05  0.2562493E+04  0.7818609E-02  0.8381054E-01
        1   -1    0    0  501    0  0.00000000000E+00  0.00000000000E+00  0.24840277005E+04  0.24840277005E+04  0.50400001928E-02 0.  1.
       -1   -1    0    0    0  501  0.00000000000E+00  0.00000000000E+00 -0.66085909584E+03  0.66085909586E+03  0.50400001928E-02 0. -1.
    10030    2    1    2    0    0  0.00000000000E+00  0.00000000000E+00  0.18231686047E+04  0.31448867964E+04  0.25624927709E+04 0.  0.
        5    1    3    3  502    0 -0.84626320084E+03  0.84124971813E+03  0.14842211365E+04  0.19044151242E+04  0.46999998093E+01 0.  1.
       -5    1    3    3    0  502  0.84626320084E+03 -0.84124971813E+03  0.33894746823E+03  0.12404716722E+04  0.46999998093E+01 0. -1.
</event>
<event>
 5   0  0.3508470E-05  0.2578458E+04  0.7818609E-02  0.8375556E-01
        2   -1    0    0  501    0  0.00000000000E+00  0.00000000000E+00  0.12767166375E+04  0.12767166375E+04  0.25500000920E-02 0. -1.
       -2   -1    0    0    0  501  0.00000000000E+00  0.00000000000E+00 -0.13018638840E+04  0.13018638840E+04  0.25500000920E-02 0.  1.
    10030    2    1    2    0    0  0.00000000000E+00  0.00000000000E+00 -0.25147246538E+02  0.25785805214E+04  0.25784578960E+04 0.  0.
        5    1    3    3  502    0  0.40160969322E+03  0.25189122729E+03 -0.12115258206E+04  0.13009828746E+04  0.46999998093E+01 0.  1.
       -5    1    3    3    0  502 -0.40160969322E+03 -0.25189122729E+03  0.11863785741E+04  0.12775976468E+04  0.46999998093E+01 0. -1.
</event>
<event>
 5   0  0.1217200E-05  0.2582330E+04  0.7818609E-02  0.8374228E-01
       -3   -1    0    0    0  501  0.00000000000E+00  0.00000000000E+00  0.94169197085E+03  0.94169197627E+03  0.10100000352E+00 0. -1.
        3   -1    0    0  501    0  0.00000000000E+00  0.00000000000E+00 -0.17703319397E+04  0.17703319426E+04  0.10100000352E+00 0.  1.
    10030    2    1    2    0    0  0.00000000000E+00  0.00000000000E+00 -0.82863996889E+03  0.27120239189E+04  0.25823302536E+04 0.  0.
        4    1    3    3  502    0 -0.52882064350E+03 -0.11660410239E+04 -0.58943614575E+03  0.14095174796E+04  0.12699999809E+01 0.  1.
       -4    1    3    3    0  502  0.52882064350E+03  0.11660410239E+04 -0.23920382314E+03  0.13025064393E+04  0.12699999809E+01 0. -1.
</event>
<event>
 5   0  0.3849687E-05  0.2513866E+04  0.7818609E-02  0.8398062E-01
        2   -1    0    0  501    0  0.00000000000E+00  0.00000000000E+00  0.22414342449E+04  0.22414342449E+04  0.25500000920E-02 0.  1.
       -2   -1    0    0    0  501  0.00000000000E+00  0.00000000000E+00 -0.70485242168E+03  0.70485242169E+03  0.25500000920E-02 0. -1.
    10030    2    1    2    0    0  0.00000000000E+00  0.00000000000E+00  0.15365818232E+04  0.29462866666E+04  0.25138658322E+04 0.  0.
        1    1    3    3  502    0  0.49537588465E+03 -0.89470812198E+03  0.16247282433E+04  0.19198025303E+04  0.50400001928E-02 0.  1.
       -1    1    3    3    0  502 -0.49537588465E+03  0.89470812198E+03 -0.88146420120E+02  0.10264841363E+04  0.50400001928E-02 0. -1.
</event>
<event>
 5   0  0.1451052E-05  0.2467897E+04  0.7818609E-02  0.8414512E-01
       -1   -1    0    0    0  501  0.00000000000E+00  0.00000000000E+00  0.12408970381E+04  0.12408970381E+04  0.50400001928E-02 0.  1.
        1   -1    0    0  501    0  0.00000000000E+00  0.00000000000E+00 -0.12270391653E+04  0.12270391653E+04  0.50400001928E-02 0. -1.
    10030    2    1    2    0    0  0.00000000000E+00  0.00000000000E+00  0.13857872716E+02  0.24679362034E+04  0.24678972960E+04 0.  0.
        1    1    3    3  502    0 -0.95079329342E+02 -0.18925018502E+02 -0.12232250152E+04  0.12270605824E+04  0.50400001928E-02 0. -1.
       -1    1    3    3    0  502  0.95079329342E+02  0.18925018502E+02  0.12370828879E+04  0.12408756210E+04  0.50400001928E-02 0.  1.
</event>
<event>
 5   0  0.3441646E-05  0.2625670E+04  0.7818609E-02  0.8359534E-01
       -2   -1    0    0    0  501  0.00000000000E+00  0.00000000000E+00  0.79727583430E+03  0.79727583430E+03  0.25500000920E-02 0. -1.
        2   -1    0    0  501    0  0.00000000000E+00  0.00000000000E+00 -0.21617808740E+04  0.21617808740E+04  0.25500000920E-02 0.  1.
    10030    2    1    2    0    0  0.00000000000E+00  0.00000000000E+00 -0.13645050397E+04  0.29590567083E+04  0.26256699335E+04 0.  0.
        4    1    3    3  502    0  0.10517106701E+04  0.34885685903E+03  0.11123314467E+03  0.11136295915E+04  0.12699999809E+01 0. -1.
       -4    1    3    3    0  502 -0.10517106701E+04 -0.34885685903E+03 -0.14757381844E+04  0.18454271168E+04  0.12699999809E+01 0.  1.
</event>
<event>
 5   0  0.3647623E-05  0.2747808E+04  0.7818609E-02  0.8319658E-01
        2   -1    0    0  501    0  0.00000000000E+00  0.00000000000E+00  0.23685550188E+04  0.23685550188E+04  0.25500000920E-02 0.  1.
       -2   -1    0    0    0  501  0.00000000000E+00  0.00000000000E+00 -0.79694669029E+03  0.79694669029E+03  0.25500000920E-02 0. -1.
    10030    2    1    2    0    0  0.00000000000E+00  0.00000000000E+00  0.15716083285E+04  0.31655017091E+04  0.27478079140E+04 0.  0.
        3    1    3    3  502    0 -0.12870100111E+04  0.46953311808E+02  0.23450674820E+03  0.13090427065E+04  0.10100000352E+00 0. -1.
       -3    1    3    3    0  502  0.12870100111E+04 -0.46953311808E+02  0.13371015803E+04  0.18564590027E+04  0.10100000352E+00 0.  1.
</event>
<event>
 5   0  0.1497497E-05  0.2572171E+04  0.7818609E-02  0.8377716E-01
        1   -1    0    0  501    0  0.00000000000E+00  0.00000000000E+00  0.14556442156E+04  0.14556442156E+04  0.50400001928E-02 0. -1.
       -1   -1    0    0    0  501  0.00000000000E+00  0.00000000000E+00 -0.11362775614E+04  0.11362775614E+04  0.50400001928E-02 0.  1.
    10030    2    1    2    0    0  0.00000000000E+00  0.00000000000E+00  0.31936665421E+03  0.25919217770E+04  0.25721709582E+04 0.  0.
        3    1    3    3  502    0 -0.10606300373E+04  0.28081409888E+03  0.83582235160E+03  0.13792721442E+04  0.10100000352E+00 0. -1.
       -3    1    3    3    0  502  0.10606300373E+04 -0.28081409888E+03 -0.51645569739E+03  0.12126496327E+04  0.10100000352E+00 0.  1.
</event>
<event>
 5   0  0.1474554E-05  0.2664489E+04  0.7818609E-02  0.8346620E-01
        1   -1    0    0  501    0  0.00000000000E+00  0.00000000000E+00  0.23594561005E+04  0.23594561005E+04  0.50400001928E-02 0.  1.
       -1   -1    0    0    0  501  0.00000000000E+00  0.00000000000E+00 -0.75223922008E+03  0.75223922010E+03  0.50400001928E-02 0. -1.
    10030    2    1    2    0    0  0.00000000000E+00  0.00000000000E+00  0.16072168804E+04  0.31116953206E+04  0.26644890068E+04 0.  0.
        5    1    3    3  502    0  0.88631371815E+03 -0.99411377408E+03  0.76596261365E+03  0.15364032733E+04  0.46999998093E+01 0. -1.
       -5    1    3    3    0  502 -0.88631371815E+03  0.99411377408E+03  0.84125426673E+03  0.15752920472E+04  0.46999998093E+01 0.  1.
</event>
<event>
 5   0  0.1533248E-05  0.2639584E+04  0.7818609E-02  0.8354878E-01
       -1   -1    0    0    0  501  0.00000000000E+00  0.00000000000E+00  0.12445817691E+04  0.12445817691E+04  0.50400001928E-02 0.  1.
        1   -1    0    0  501    0  0.00000000000E+00  0.00000000000E+00 -0.13995475038E+04  0.13995475038E+04  0.50400001928E-02 0. -1.
    10030    2    1    2    0    0  0.00000000000E+00  0.00000000000E+00 -0.15496573473E+03  0.26441292729E+04  0.26395842917E+04 0.  0.
        4    1    3    3  502    0  0.12915543031E+04 -0.26668201626E+03 -0.12873618457E+03  0.13250684638E+04  0.12699999809E+01 0. -1.
       -4    1    3    3    0  502 -0.12915543031E+04  0.26668201626E+03 -0.26229550157E+02  0.13190608090E+04  0.12699999809E+01 0.  1.
</event>
<event>
 5   0  0.3508470E-05  0.2593911E+04  0.7818609E-02  0.8370273E-01
        2   -1    0    0  501    0  0.00000000000E+00  0.00000000000E+00  0.18470937195E+04  0.18470937195E+04  0.25500000920E-02 0. -1.
       -2   -1    0    0    0  501  0.00000000000E+00  0.00000000000E+00 -0.91067020231E+03  0.91067020231E+03  0.25500000920E-02 0.  1.
    10030    2    1    2    0    0  0.00000000000E+00  0.00000000000E+00  0.93642351724E+03  0.27577639219E+04  0.25939107242E+04 0.  0.
        5    1    3    3  502    0 -0.21738543073E+03 -0.11050352248E+04  0.11520463099E+04  0.16110841268E+04  0.46999998093E+01 0. -1.
       -5    1    3    3    0  502  0.21738543073E+03  0.11050352248E+04 -0.21562279269E+03  0.11466797950E+04  0.46999998093E+01 0.  1.
</event>
<event>
 5   0  0.3499642E-05  0.2574078E+04  0.7818609E-02  0.8377060E-01
       -2   -1    0    0    0  501  0.00000000000E+00  0.00000000000E+00  0.11224590434E+04  0.11224590434E+04  0.25500000920E-02 0. -1.
        2   -1    0    0  501    0  0.00000000000E+00  0.00000000000E+00 -0.14757499659E+04  0.14757499659E+04  0.25500000920E-02 0.  1.
    10030    2    1    2    0    0  0.00000000000E+00  0.00000000000E+00 -0.35329092256E+03  0.25982090093E+04  0.25740776173E+04 0.  0.
        2    1    3    3  502    0  0.74853113125E+03  0.40312377074E+02 -0.12326584196E+04  0.14426956441E+04  0.25500000920E-02 0.  1.
       -2    1    3    3    0  502 -0.74853113125E+03 -0.40312377074E+02  0.87936749705E+03  0.11555133652E+04  0.25500000920E-02 0. -1.
</event>
<event>
 5   0  0.3647623E-05  0.2572136E+04  0.7818609E-02  0.8377728E-01
        2   -1    0    0  501    0  0.00000000000E+00  0.00000000000E+00  0.20428051120E+04  0.20428051120E+04  0.25500000920E-02 0.  1.
       -2   -1    0    0    0  501  0.00000000000E+00  0.00000000000E+00 -0.80965657990E+03  0.80965657991E+03  0.25500000920E-02 0. -1.
    10030    2    1    2    0    0  0.00000000000E+00  0.00000000000E+00  0.12331485321E+04  0.28524616919E+04  0.25721357666E+04 0.  0.
        3    1    3    3  502    0  0.44061146395E+02 -0.10426735380E+04  0.14500573028E+04  0.17865541366E+04  0.10100000352E+00 0.  1.
       -3    1    3    3    0  502 -0.44061146395E+02  0.10426735380E+04 -0.21690877065E+03  0.10659075553E+04  0.10100000352E+00 0. -1.
</event>
<event>
 5   0  0.3499642E-05  0.2555126E+04  0.7818609E-02  0.8383606E-01
       -2   -1    0    0    0  501  0.00000000000E+00  0.00000000000E+00  0.10235548980E+04  0.10235548980E+04  0.25500000920E-02 0. -1.
        2   -1    0    0  501    0  0.00000000000E+00  0.00000000000E+00 -0.15946065322E+04  0.15946065322E+04  0.25500000920E-02 0.  1.
    10030    2    1    2    0    0  0.00000000000E+00  0.00000000000E+00 -0.57105163419E+03  0.26181614302E+04  0.25551260841E+04 0.  0.
        2    1    3    3  502    0 -0.82728550786E+03 -0.38117506880E+03 -0.12034333120E+04  0.15092870771E+04  0.25500000920E-02 0.  1.
       -2    1    3    3    0  502  0.82728550786E+03  0.38117506880E+03  0.63238167781E+03  0.11088743531E+04  0.25500000920E-02 0. -1.
</event>
<event>
 5   0  0.3647623E-05  0.2601316E+04  0.7818609E-02  0.8367754E-01
       -2   -1    0    0    0  501  0.00000000000E+00  0.00000000000E+00  0.12878490516E+04  0.12878490516E+04  0.25500000920E-02 0.  1.
        2   -1    0    0  501    0  0.00000000000E+00  0.00000000000E+00 -0.13135942267E+04  0.13135942267E+04  0.25500000920E-02 0. -1.
    10030    2    1    2    0    0  0.00000000000E+00  0.00000000000E+00 -0.25745175144E+02  0.26014432783E+04  0.26013158817E+04 0.  0.
        3    1    3    3  502    0 -0.92916454397E+03 -0.71692907549E+03  0.54784821022E+03  0.12951724676E+04  0.10100000352E+00 0.  1.
       -3    1    3    3    0  502  0.92916454397E+03  0.71692907549E+03 -0.57359338536E+03  0.13062708107E+04  0.10100000352E+00 0. -1.
</event>
<event>
 5   0  0.3508470E-05  0.2617068E+04  0.7818609E-02  0.8362427E-01
        2   -1    0    0  501    0  0.00000000000E+00  0.00000000000E+00  0.25479556170E+04  0.25479556170E+04  0.25500000920E-02 0.  1.
       -2   -1    0    0    0  501  0.00000000000E+00  0.00000000000E+00 -0.67201352824E+03  0.67201352824E+03  0.25500000920E-02 0. -1.
    10030    2    1    2    0    0  0.00000000000E+00  0.00000000000E+00  0.18759420887E+04  0.32199691452E+04  0.26170675528E+04 0.  0.
        5    1    3    3  502    0  0.31626676430E+02  0.41072191254E+03 -0.59014316301E+03  0.71971089956E+03  0.46999998093E+01 0. -1.
       -5    1    3    3    0  502 -0.31626676430E+02 -0.41072191254E+03  0.24660852517E+04  0.25002582456E+04  0.46999998093E+01 0.  1.
</event>
<event>
 5   0  0.3441646E-05  0.2574318E+04  0.7818609E-02  0.8376977E-01
        2   -1    0    0  501    0  0.00000000000E+00  0.00000000000E+00  0.13844187531E+04  0.13844187531E+04  0.25500000920E-02 0.  1.
       -2   -1    0    0    0  501  0.00000000000E+00  0.00000000000E+00 -0.11967324283E+04  0.11967324283E+04  0.25500000920E-02 0. -1.
    10030    2    1    2    0    0  0.00000000000E+00  0.00000000000E+00  0.18768632484E+03  0.25811511814E+04  0.25743184078E+04 0.  0.
        4    1    3    3  502    0  0.81671807228E+03 -0.56769753339E+01  0.10913286826E+04  0.13631069452E+04  0.12699999809E+01 0.  1.
       -4    1    3    3    0  502 -0.81671807228E+03  0.56769753339E+01 -0.90364235777E+03  0.12180442362E+04  0.12699999809E+01 0. -1.
</event>
<event>
 5   0  0.3441646E-05  0.2572762E+04  0.7818609E-02  0.8377513E-01
       -2   -1    0    0    0  501  0.00000000000E+00  0.00000000000E+00  0.13589239088E+04  0.13589239088E+04  0.25500000920E-02 0. -1.
        2   -1    0    0  501    0  0.00000000000E+00  0.00000000000E+00 -0.12177107917E+04  0.12177107917E+04  0.25500000920E-02 0.  1.
    10030    2    1    2    0    0  0.00000000000E+00  0.00000000000E+00  0.14121311717E+03  0.25766347005E+04  0.25727621801E+04 0.  0.
        4    1    3    3  502    0 -0.18696032635E+03 -0.16059074522E+03  0.13350564098E+04  0.13576158445E+04  0.12699999809E+01 0. -1.
       -4    1    3    3    0  502  0.18696032635E+03  0.16059074522E+03 -0.11938432926E+04  0.12190188560E+04  0.12699999809E+01 0.  1.
</event>
<event>
 5   0  0.1451052E-05  0.2617609E+04  0.7818609E-02  0.8362244E-01
       -1   -1    0    0    0  501  0.00000000000E+00  0.00000000000E+00  0.88676852494E+03  0.88676852495E+03  0.50400001928E-02 0.  1.
        1   -1    0    0  501    0  0.00000000000E+00  0.00000000000E+00 -0.19316981445E+04  0.19316981445E+04  0.50400001928E-02 0. -1.
    10030    2    1    2    0    0  0.00000000000E+00  0.00000000000E+00 -0.10449296195E+04  0.28184666694E+04  0.26176089198E+04 0.  0.
        1    1    3    3  502    0  0.13996825675E+03 -0.12571719158E+04 -0.88424843843E+03  0.15433624460E+04  0.50400001928E-02 0. -1.
       -1    1    3    3    0  502 -0.13996825675E+03  0.12571719158E+04 -0.16068118109E+03  0.12751042235E+04  0.50400001928E-02 0.  1.
</event>
<event>
 5   0  0.3499642E-05  0.2022286E+04  0.7818609E-02  0.8596272E-01
       -2   -1    0    0    0  501  0.00000000000E+00  0.00000000000E+00  0.27849756655E+04  0.27849756655E+04  0.25500000920E-02 0. -1.
        2   -1    0    0  501    0  0.00000000000E+00  0.00000000000E+00 -0.36711627955E+03  0.36711627956E+03  0.25500000920E-02 0.  1.
    10030    2    1    2    0    0  0.00000000000E+00  0.00000000000E+00  0.24178593860E+04  0.31520919451E+04  0.20222857414E+04 0.  0.
        2    1    3    3  502    0 -0.70896723060E+03  0.69030374164E+03  0.88475424927E+03  0.13273823381E+04  0.25500000920E-02 0.  1.
       -2    1    3    3    0  502  0.70896723060E+03 -0.69030374164E+03  0.15331051367E+04  0.18247096070E+04  0.25500000920E-02 0. -1.
</event>
<event>
 5   0  0.1474554E-05  0.2567207E+04  0.7818609E-02  0.8379426E-01
        1   -1    0    0  501    0  0.00000000000E+00  0.00000000000E+00  0.17381019497E+04  0.17381019497E+04  0.50400001928E-02 0. -1.
       -1   -1    0    0    0  501  0.00000000000E+00  0.00000000000E+00 -0.94795211995E+03  0.94795211996E+03  0.50400001928E-02 0.  1.
    10030    2    1    2    0    0  0.00000000000E+00  0.00000000000E+00  0.79014982971E+03  0.26860540696E+04  0.25672065970E+04 0.  0.
        5    1    3    3  502    0  0.93670131964E+03 -0.81216048013E+03  0.74303874747E+03  0.14453866880E+04  0.46999998093E+01 0.  1.
       -5    1    3    3    0  502 -0.93670131964E+03  0.81216048013E+03  0.47111082235E+02  0.12406673816E+04  0.46999998093E+01 0. -1.
</event>
<event>
 5   0  0.1451052E-05  0.2577870E+04  0.7818609E-02  0.8375757E-01
        1   -1    0    0  501    0  0.00000000000E+00  0.00000000000E+00  0.22028978385E+04  0.22028978385E+04  0.50400001928E-02 0.  1.
       -1   -1    0    0    0  501  0.00000000000E+00  0.00000000000E+00 -0.75416748144E+03  0.75416748146E+03  0.50400001928E-02 0. -1.
    10030    2    1    2    0    0  0.00000000000E+00  0.00000000000E+00  0.14487303570E+04  0.29570653200E+04  0.25778703728E+04 0.  0.
        1    1    3    3  502    0 -0.12555197131E+04  0.10579715453E+03  0.41267753102E+03  0.13258301296E+04  0.50400001928E-02 0.  1.
       -1    1    3    3    0  502  0.12555197131E+04 -0.10579715453E+03  0.10360528260E+04  0.16312351904E+04  0.50400001928E-02 0. -1.
</event>
<event>
 5   0  0.1474554E-05  0.2641770E+04  0.7818609E-02  0.8354150E-01
        1   -1    0    0  501    0  0.00000000000E+00  0.00000000000E+00  0.20652442220E+04  0.20652442221E+04  0.50400001928E-02 0.  1.
       -1   -1    0    0    0  501  0.00000000000E+00  0.00000000000E+00 -0.84480889485E+03  0.84480889487E+03  0.50400001928E-02 0. -1.
    10030    2    1    2    0    0  0.00000000000E+00  0.00000000000E+00  0.12204353272E+04  0.29100531169E+04  0.26417696257E+04 0.  0.
        5    1    3    3  502    0  0.72954147203E+03  0.99056196832E+03  0.11399620946E+04  0.16771939183E+04  0.46999998093E+01 0.  1.
       -5    1    3    3    0  502 -0.72954147203E+03 -0.99056196832E+03  0.80473232623E+02  0.12328591986E+04  0.46999998093E+01 0. -1.
</event>
<event>
 5   0  0.3849687E-05  0.2593452E+04  0.7818609E-02  0.8370429E-01
        2   -1    0    0  501    0  0.00000000000E+00  0.00000000000E+00  0.86771183885E+03  0.86771183886E+03  0.25500000920E-02 0.  1.
       -2   -1    0    0    0  501  0.00000000000E+00  0.00000000000E+00 -0.19378531907E+04  0.19378531907E+04  0.25500000920E-02 0. -1.
    10030    2    1    2    0    0  0.00000000000E+00  0.00000000000E+00 -0.10701413519E+04  0.28055650296E+04  0.25934518739E+04 0.  0.
        1    1    3    3  502    0 -0.97337732121E+02  0.44133170529E+03  0.77975786631E+03  0.90126058290E+03  0.50400001928E-02 0.  1.
       -1    1    3    3    0  502  0.97337732121E+02 -0.44133170529E+03 -0.18498992182E+04  0.19043044467E+04  0.50400001928E-02 0. -1.
</event>
<event>
 5   0  0.3647623E-05  0.2606129E+04  0.7818609E-02  0.8366122E-01
        2   -1    0    0  501    0  0.00000000000E+00  0.00000000000E+00  0.20076061638E+04  0.20076061638E+04  0.25500000920E-02 0. -1.
       -2   -1    0    0    0  501  0.00000000000E+00  0.00000000000E+00 -0.84577189927E+03  0.84577189928E+03  0.25500000920E-02 0.  1.
    10030    2    1    2    0    0  0.00000000000E+00  0.00000000000E+00  0.11618342645E+04  0.28533780631E+04  0.26061288365E+04 0.  0.
        3    1    3    3  502    0  0.45398972325E+03 -0.93243914200E+03 -0.28287213498E+03  0.10749725937E+04  0.10100000352E+00 0.  1.
       -3    1    3    3    0  502 -0.45398972325E+03  0.93243914200E+03  0.14447063995E+04  0.17784054693E+04  0.10100000352E+00 0. -1.
</event>
<event>
 5   0  0.3508470E-05  0.2482730E+04  0.7818609E-02  0.8409164E-01
       -2   -1    0    0    0  501  0.00000000000E+00  0.00000000000E+00  0.12047080872E+04  0.12047080872E+04  0.25500000920E-02 0. -1.
        2   -1    0    0  501    0  0.00000000000E+00  0.00000000000E+00 -0.12791371355E+04  0.12791371355E+04  0.25500000920E-02 0.  1.
    10030    2    1    2    0    0  0.00000000000E+00  0.00000000000E+00 -0.74429048269E+02  0.24838452227E+04  0.24827298296E+04 0.  0.
        5    1    3    3  502    0 -0.51584990065E+03 -0.26941848618E+03 -0.11341912038E+04  0.12747937941E+04  0.46999998093E+01 0.  1.
       -5    1    3    3    0  502  0.51584990065E+03  0.26941848618E+03  0.10597621555E+04  0.12090514286E+04  0.46999998093E+01 0. -1.
</event>
<event>
 5   0  0.1474554E-05  0.2467164E+04  0.7818609E-02  0.8414778E-01
       -1   -1    0    0    0  501  0.00000000000E+00  0.00000000000E+00  0.73290484825E+03  0.73290484826E+03  0.50400001928E-02 0.  1.
        1   -1    0    0  501    0  0.00000000000E+00  0.00000000000E+00 -0.20762913208E+04  0.20762913208E+04  0.50400001928E-02 0. -1.
    10030    2    1    2    0    0  0.00000000000E+00  0.00000000000E+00 -0.13433864726E+04  0.28091961691E+04  0.24671635336E+04 0.  0.
        5    1    3    3  502    0  0.46803465419E+03  0.57848702044E+03  0.44857341668E+03  0.86887506035E+03  0.46999998093E+01 0.  1.
       -5    1    3    3    0  502 -0.46803465419E+03 -0.57848702044E+03 -0.17919598893E+04  0.19403211088E+04  0.46999998093E+01 0. -1.
</event>
<event>
 5   0  0.3647623E-05  0.2625617E+04  0.7818609E-02  0.8359552E-01
        2   -1    0    0  501    0  0.00000000000E+00  0.00000000000E+00  0.17066784466E+04  0.17066784466E+04  0.25500000920E-02 0.  1.
       -2   -1    0    0    0  501  0.00000000000E+00  0.00000000000E+00 -0.10098362574E+04  0.10098362574E+04  0.25500000920E-02 0. -1.
    10030    2    1    2    0    0  0.00000000000E+00  0.00000000000E+00  0.69684218929E+03  0.27165147040E+04  0.26256167086E+04 0.  0.
        3    1    3    3  502    0  0.11486010767E+04 -0.54688021012E+03  0.68384116657E+03  0.14442995357E+04  0.10100000352E+00 0.  1.
       -3    1    3    3    0  502 -0.11486010767E+04  0.54688021012E+03  0.13001022717E+02  0.12722151683E+04  0.10100000352E+00 0. -1.
</event>
<event>
 5   0  0.3441646E-05  0.2596005E+04  0.7818609E-02  0.8369560E-01
       -2   -1    0    0    0  501  0.00000000000E+00  0.00000000000E+00  0.84005153760E+03  0.84005153761E+03  0.25500000920E-02 0.  1.
        2   -1    0    0  501    0  0.00000000000E+00  0.00000000000E+00 -0.20056030041E+04  0.20056030041E+04  0.25500000920E-02 0. -1.
    10030    2    1    2    0    0  0.00000000000E+00  0.00000000000E+00 -0.11655514665E+04  0.28456545417E+04  0.25960045358E+04 0.  0.
        4    1    3    3  502    0  0.44966433554E+03 -0.67558530983E+03  0.52765538389E+03  0.96800585875E+03  0.12699999809E+01 0.  1.
       -4    1    3    3    0  502 -0.44966433554E+03  0.67558530983E+03 -0.16932068504E+04  0.18776486829E+04  0.12699999809E+01 0. -1.
</event>
<event>
 5   0  0.3508470E-05  0.2655234E+04  0.7818609E-02  0.8349678E-01
        2   -1    0    0  501    0  0.00000000000E+00  0.00000000000E+00  0.12692431392E+04  0.12692431392E+04  0.25500000920E-02 0.  1.
       -2   -1    0    0    0  501  0.00000000000E+00  0.00000000000E+00 -0.13886751723E+04  0.13886751723E+04  0.25500000920E-02 0. -1.
    10030    2    1    2    0    0  0.00000000000E+00  0.00000000000E+00 -0.11943203309E+03  0.26579183115E+04  0.26552336508E+04 0.  0.
        5    1    3    3  502    0  0.30386516805E+03  0.53021300211E+03  0.11200699198E+04  0.12759461522E+04  0.46999998093E+01 0.  1.
       -5    1    3    3    0  502 -0.30386516805E+03 -0.53021300211E+03 -0.12395019529E+04  0.13819721594E+04  0.46999998093E+01 0. -1.
</event>
<event>
 5   0  0.1474554E-05  0.2536310E+04  0.7818609E-02  0.8390163E-01
        1   -1    0    0  501    0  0.00000000000E+00  0.00000000000E+00  0.17891945655E+04  0.17891945655E+04  0.50400001928E-02 0.  1.
       -1   -1    0    0    0  501  0.00000000000E+00  0.00000000000E+00 -0.89884969285E+03  0.89884969286E+03  0.50400001928E-02 0. -1.
    10030    2    1    2    0    0  0.00000000000E+00  0.00000000000E+00  0.89034487267E+03  0.26880442584E+04  0.25363099067E+04 0.  0.
        5    1    3    3  502    0 -0.23921600184E+03  0.84390890739E+03  0.14158171499E+04  0.16655229903E+04  0.46999998093E+01 0.  1.
       -5    1    3    3    0  502  0.23921600184E+03 -0.84390890739E+03 -0.52547227719E+03  0.10225212680E+04  0.46999998093E+01 0. -1.
</event>
<event>
 5   0  0.3647623E-05  0.2632709E+04  0.7818609E-02  0.8357175E-01
       -2   -1    0    0    0  501  0.00000000000E+00  0.00000000000E+00  0.67294002076E+03  0.67294002077E+03  0.25500000920E-02 0. -1.
        2   -1    0    0  501    0  0.00000000000E+00  0.00000000000E+00 -0.25749529390E+04  0.25749529390E+04  0.25500000920E-02 0.  1.
    10030    2    1    2    0    0  0.00000000000E+00  0.00000000000E+00 -0.19020129182E+04  0.32478929597E+04  0.26327087831E+04 0.  0.
        3    1    3    3  502    0  0.49477733073E+03  0.89648835721E+03 -0.19715226516E+04  0.22215754675E+04  0.10100000352E+00 0.  1.
       -3    1    3    3    0  502 -0.49477733073E+03 -0.89648835721E+03  0.69509733450E+02  0.10263174922E+04  0.10100000352E+00 0. -1.
</event>
<event>
 5   0  0.3849687E-05  0.2759353E+04  0.7818609E-02  0.8316000E-01
        2   -1    0    0  501    0  0.00000000000E+00  0.00000000000E+00  0.19539772170E+04  0.19539772170E+04  0.25500000920E-02 0. -1.
       -2   -1    0    0    0  501  0.00000000000E+00  0.00000000000E+00 -0.97417059725E+03  0.97417059726E+03  0.25500000920E-02 0.  1.
    10030    2    1    2    0    0  0.00000000000E+00  0.00000000000E+00  0.97980661970E+03  0.29281478142E+04  0.27593529332E+04 0.  0.
        1    1    3    3  502    0  0.85206373575E+03 -0.95181244550E+03  0.10428824356E+04  0.16491098555E+04  0.50400001928E-02 0.  1.
       -1    1    3    3    0  502 -0.85206373575E+03  0.95181244550E+03 -0.63075815858E+02  0.12790379587E+04  0.50400001928E-02 0. -1.
</event>
<event>
 5   0  0.3441646E-05  0.2467302E+04  0.7818609E-02  0.8414728E-01
        2   -1    0    0  501    0  0.00000000000E+00  0.00000000000E+00  0.10122892131E+04  0.10122892131E+04  0.25500000920E-02 0.  1.
       -2   -1    0    0    0  501  0.00000000000E+00  0.00000000000E+00 -0.15034193230E+04  0.15034193230E+04  0.25500000920E-02 0. -1.
    10030    2    1    2    0    0  0.00000000000E+00  0.00000000000E+00 -0.49113010988E+03  0.25157085360E+04  0.24673023028E+04 0.  0.
        4    1    3    3  502    0  0.60324576963E+03  0.22378501358E+03 -0.13187878265E+04  0.14673745722E+04  0.12699999809E+01 0. -1.
       -4    1    3    3    0  502 -0.60324576963E+03 -0.22378501358E+03  0.82765771666E+03  0.10483339638E+04  0.12699999809E+01 0.  1.
</event>
<event>
 5   0  0.3849687E-05  0.2562218E+04  0.7818609E-02  0.8381149E-01
       -2   -1    0    0    0  501  0.00000000000E+00  0.00000000000E+00  0.11572357858E+04  0.11572357858E+04  0.25500000920E-02 0.  1.
        2   -1    0    0  501    0  0.00000000000E+00  0.00000000000E+00 -0.14182421147E+04  0.14182421147E+04  0.25500000920E-02 0. -1.
    10030    2    1    2    0    0  0.00000000000E+00  0.00000000000E+00 -0.26100632888E+03  0.25754779005E+04  0.25622182015E+04 0.  0.
        1    1    3    3  502    0 -0.11666960880E+03  0.36479963043E+03 -0.13593476765E+04  0.14122735831E+04  0.50400001928E-02 0. -1.
       -1    1    3    3    0  502  0.11666960880E+03 -0.36479963043E+03  0.10983413476E+04  0.11632043173E+04  0.50400001928E-02 0.  1.
</event>
<event>
 5   0  0.3647623E-05  0.2466827E+04  0.7818609E-02  0.8414900E-01
        2   -1    0    0  501    0  0.00000000000E+00  0.00000000000E+00  0.17863571823E+04  0.17863571823E+04  0.25500000920E-02 0.  1.
       -2   -1    0    0    0  501  0.00000000000E+00  0.00000000000E+00 -0.85162647804E+03  0.85162647804E+03  0.25500000920E-02 0. -1.
    10030    2    1    2    0    0  0.00000000000E+00  0.00000000000E+00  0.93473070427E+03  0.26379836604E+04  0.24668271733E+04 0.  0.
        3    1    3    3  502    0  0.11622814814E+04  0.34396007352E+03  0.22326871943E+03  0.12324997791E+04  0.10100000352E+00 0.  1.
       -3    1    3    3    0  502 -0.11622814814E+04 -0.34396007352E+03  0.71146198484E+03  0.14054838812E+04  0.10100000352E+00 0. -1.
</event>
<event>
 5   0  0.3499642E-05  0.2580579E+04  0.7818609E-02  0.8374828E-01
        2   -1    0    0  501    0  0.00000000000E+00  0.00000000000E+00  0.20660157502E+04  0.20660157502E+04  0.25500000920E-02 0. -1.
       -2   -1    0    0    0  501  0.00000000000E+00  0.00000000000E+00 -0.80582495072E+03  0.80582495072E+03  0.25500000920E-02 0.  1.
    10030    2    1    2    0    0  0.00000000000E+00  0.00000000000E+00  0.12601907994E+04  0.28718407009E+04  0.25805790358E+04 0.  0.
        2    1    3    3  502    0  0.85360749088E+03 -0.29222207649E+03 -0.39640435244E+03  0.98548257271E+03  0.25500000920E-02 0.  1.
       -2    1    3    3    0  502 -0.85360749088E+03  0.29222207649E+03  0.16565951519E+04  0.18863581282E+04  0.25500000920E-02 0. -1.
</event>
<event>
 5   0  0.3849687E-05  0.2603856E+04  0.7818609E-02  0.8366893E-01
        2   -1    0    0  501    0  0.00000000000E+00  0.00000000000E+00  0.15479376561E+04  0.15479376562E+04  0.25500000920E-02 0.  1.
       -2   -1    0    0    0  501  0.00000000000E+00  0.00000000000E+00 -0.10950161878E+04  0.10950161878E+04  0.25500000920E-02 0. -1.
    10030    2    1    2    0    0  0.00000000000E+00  0.00000000000E+00  0.45292146834E+03  0.26429538440E+04  0.26038562105E+04 0.  0.
        1    1    3    3  502    0 -0.30314688355E+03  0.74208484195E+03  0.12677441514E+04  0.14999210577E+04  0.50400001928E-02 0.  1.
       -1    1    3    3    0  502  0.30314688355E+03 -0.74208484195E+03 -0.81482268309E+03  0.11430327863E+04  0.50400001928E-02 0. -1.
</event>
<event>
 5   0  0.3499642E-05  0.2590875E+04  0.7818609E-02  0.8371307E-01
       -2   -1    0    0    0  501  0.00000000000E+00  0.00000000000E+00  0.65684061683E+03  0.65684061684E+03  0.25500000920E-02 0.  1.
        2   -1    0    0  501    0  0.00000000000E+00  0.00000000000E+00 -0.25548936364E+04  0.25548936364E+04  0.25500000920E-02 0. -1.
    10030    2    1    2    0    0  0.00000000000E+00  0.00000000000E+00 -0.18980530196E+04  0.32117342533E+04  0.25908746879E+04 0.  0.
        2    1    3    3  502    0  0.55358204060E+03  0.49231988006E+03  0.36832857917E+03  0.82734387181E+03  0.25500000920E-02 0.  1.
       -2    1    3    3    0  502 -0.55358204060E+03 -0.49231988006E+03 -0.22663815988E+04  0.23843903815E+04  0.25500000920E-02 0. -1.
</event>
<event>
 5   0  0.1451052E-05  0.2570205E+04  0.7818609E-02  0.8378393E-01
       -1   -1    0    0    0  501  0.00000000000E+00  0.00000000000E+00  0.92317980014E+03  0.92317980016E+03  0.50400001928E-02 0.  1.
        1   -1    0    0  501    0  0.00000000000E+00  0.00000000000E+00 -0.17889132439E+04  0.17889132439E+04  0.50400001928E-02 0. -1.
    10030    2    1    2    0    0  0.00000000000E+00  0.00000000000E+00 -0.86573344374E+03  0.27120930440E+04  0.25702051054E+04 0.  0.
        1    1    3    3  502    0 -0.63491538738E+03 -0.93569249430E+03  0.21145713691E+03  0.11503704246E+04  0.50400001928E-02 0.  1.
       -1    1    3    3    0  502  0.63491538738E+03  0.93569249430E+03 -0.10771905807E+04  0.15617226194E+04  0.50400001928E-02 0. -1.
</event>
<event>
 5   0  0.1435062E-05  0.2563159E+04  0.7818609E-02  0.8380824E-01
        1   -1    0    0  501    0  0.00000000000E+00  0.00000000000E+00  0.17354369550E+04  0.17354369550E+04  0.50400001928E-02 0. -1.
       -1   -1    0    0    0  501  0.00000000000E+00  0.00000000000E+00 -0.94641622372E+03  0.94641622374E+03  0.50400001928E-02 0.  1.
    10030    2    1    2    0    0  0.00000000000E+00  0.00000000000E+00  0.78902073123E+03  0.26818531787E+04  0.25631587461E+04 0.  0.
        2    1    3    3  502    0 -0.88164530362E+03  0.90383207181E+03  0.62430500209E+03  0.14085338445E+04  0.25500000920E-02 0. -1.
       -2    1    3    3    0  502  0.88164530362E+03 -0.90383207181E+03  0.16471572915E+03  0.12733193342E+04  0.25500000920E-02 0.  1.
</event>
<event>
 5   0  0.1533248E-05  0.2649140E+04  0.7818609E-02  0.8351698E-01
       -1   -1    0    0    0  501  0.00000000000E+00  0.00000000000E+00  0.15068007101E+04  0.15068007101E+04  0.50400001928E-02 0.  1.
        1   -1    0    0  501    0  0.00000000000E+00  0.00000000000E+00 -0.11643783485E+04  0.11643783485E+04  0.50400001928E-02 0. -1.
    10030    2    1    2    0    0  0.00000000000E+00  0.00000000000E+00  0.34242236157E+03  0.26711790586E+04  0.26491403302E+04 0.  0.
        4    1    3    3  502    0 -0.79071854533E+03 -0.15259144000E+03  0.12316085437E+04  0.14715234226E+04  0.12699999809E+01 0.  1.
       -4    1    3    3    0  502  0.79071854533E+03  0.15259144000E+03 -0.88918618213E+03  0.11996556360E+04  0.12699999809E+01 0. -1.
</event>
<event>
 5   0  0.1474554E-05  0.2593392E+04  0.7818609E-02  0.8370449E-01
       -1   -1    0    0    0  501  0.00000000000E+00  0.00000000000E+00  0.81421083992E+03  0.81421083994E+03  0.50400001928E-02 0. -1.
        1   -1    0    0  501    0  0.00000000000E+00  0.00000000000E+00 -0.20650926348E+04  0.20650926348E+04  0.50400001928E-02 0.  1.
    10030    2    1    2    0    0  0.00000000000E+00  0.00000000000E+00 -0.12508817949E+04  0.28793034748E+04  0.25933922255E+04 0.  0.
        5    1    3    3  502    0  0.10299197608E+04  0.76428703737E+03 -0.41324348336E+03  0.13474648997E+04  0.46999998093E+01 0. -1.
       -5    1    3    3    0  502 -0.10299197608E+04 -0.76428703737E+03 -0.83763831155E+03  0.15318385751E+04  0.46999998093E+01 0.  1.
</event>
<event>
 5   0  0.3647623E-05  0.2594597E+04  0.7818609E-02  0.8370039E-01
       -2   -1    0    0    0  501  0.00000000000E+00  0.00000000000E+00  0.12908911540E+04  0.12908911540E+04  0.25500000920E-02 0.  1.
        2   -1    0    0  501    0  0.00000000000E+00  0.00000000000E+00 -0.13037375106E+04  0.13037375106E+04  0.25500000920E-02 0. -1.
    10030    2    1    2    0    0  0.00000000000E+00  0.00000000000E+00 -0.12846356582E+02  0.25946286645E+04  0.25945968623E+04 0.  0.
        3    1    3    3  502    0  0.10355026668E+04  0.27299260356E+03  0.72583744408E+03  0.12936888111E+04  0.10100000352E+00 0.  1.
       -3    1    3    3    0  502 -0.10355026668E+04 -0.27299260356E+03 -0.73868380066E+03  0.13009398534E+04  0.10100000352E+00 0. -1.
</event>
<event>
 5   0  0.3647623E-05  0.2550508E+04  0.7818609E-02  0.8385209E-01
       -2   -1    0    0    0  501  0.00000000000E+00  0.00000000000E+00  0.10711497346E+04  0.10711497346E+04  0.25500000920E-02 0. -1.
        2   -1    0    0  501    0  0.00000000000E+00  0.00000000000E+00 -0.15182501854E+04  0.15182501854E+04  0.25500000920E-02 0.  1.
    10030    2    1    2    0    0  0.00000000000E+00  0.00000000000E+00 -0.44710045074E+03  0.25893999200E+04  0.25505084067E+04 0.  0.
        3    1    3    3  502    0  0.10488871327E+04  0.69595821443E+03 -0.43099712762E+03  0.13305189166E+04  0.10100000352E+00 0.  1.
       -3    1    3    3    0  502 -0.10488871327E+04 -0.69595821443E+03 -0.16103323117E+02  0.12588810033E+04  0.10100000352E+00 0. -1.
</event>
<event>
 5   0  0.1497497E-05  0.2463402E+04  0.7818609E-02  0.8416141E-01
       -1   -1    0    0    0  501  0.00000000000E+00  0.00000000000E+00  0.13150840971E+04  0.13150840971E+04  0.50400001928E-02 0.  1.
        1   -1    0    0  501    0  0.00000000000E+00  0.00000000000E+00 -0.11536046472E+04  0.11536046472E+04  0.50400001928E-02 0. -1.
    10030    2    1    2    0    0  0.00000000000E+00  0.00000000000E+00  0.16147944992E+03  0.24686887444E+04  0.24634018153E+04 0.  0.
        3    1    3    3  502    0  0.96220770133E+03 -0.66235994267E+03 -0.31064007760E+03  0.12087438199E+04  0.10100000352E+00 0. -1.
       -3    1    3    3    0  502 -0.96220770133E+03  0.66235994267E+03  0.47211952752E+03  0.12599449244E+04  0.10100000352E+00 0.  1.
</event>
<event>
 5   0  0.1533248E-05  0.2491274E+04  0.7818609E-02  0.8406101E-01
        1   -1    0    0  501    0  0.00000000000E+00  0.00000000000E+00  0.13061568035E+04  0.13061568035E+04  0.50400001928E-02 0. -1.
       -1   -1    0    0    0  501  0.00000000000E+00  0.00000000000E+00 -0.11879216333E+04  0.11879216334E+04  0.50400001928E-02 0.  1.
    10030    2    1    2    0    0  0.00000000000E+00  0.00000000000E+00  0.11823517019E+03  0.24940784369E+04  0.24912743113E+04 0.  0.
        4    1    3    3  502    0 -0.74990570215E+03  0.92140741109E+03 -0.31581715139E+03  0.12292649289E+04  0.12699999809E+01 0.  1.
       -4    1    3    3    0  502  0.74990570215E+03 -0.92140741109E+03  0.43405232158E+03  0.12648135080E+04  0.12699999809E+01 0. -1.
</event>
<event>
 5   0  0.1474554E-05  0.2612757E+04  0.7818609E-02  0.8363881E-01
       -1   -1    0    0    0  501  0.00000000000E+00  0.00000000000E+00  0.81461123724E+03  0.81461123725E+03  0.50400001928E-02 0.  1.
        1   -1    0    0  501    0  0.00000000000E+00  0.00000000000E+00 -0.20950167141E+04  0.20950167141E+04  0.50400001928E-02 0. -1.
    10030    2    1    2    0    0  0.00000000000E+00  0.00000000000E+00 -0.12804054769E+04  0.29096279514E+04  0.26127565195E+04 0.  0.
        5    1    3    3  502    0  0.75705238247E+03 -0.22918727167E+03 -0.17980218413E+04  0.19643217015E+04  0.46999998093E+01 0. -1.
       -5    1    3    3    0  502 -0.75705238247E+03  0.22918727167E+03  0.51761636442E+03  0.94530624985E+03  0.46999998093E+01 0.  1.
</event>
<event>
 5   0  0.3441646E-05  0.2635215E+04  0.7818609E-02  0.8356337E-01
        2   -1    0    0  501    0  0.00000000000E+00  0.00000000000E+00  0.99174757173E+03  0.99174757173E+03  0.25500000920E-02 0. -1.
       -2   -1    0    0    0  501  0.00000000000E+00  0.00000000000E+00 -0.17505352603E+04  0.17505352603E+04  0.25500000920E-02 0.  1.
    10030    2    1    2    0    0  0.00000000000E+00  0.00000000000E+00 -0.75878768862E+03  0.27422828321E+04  0.26352146734E+04 0.  0.
        4    1    3    3  502    0  0.39110668873E+03 -0.83612709766E+03  0.59902755519E+03  0.11004129180E+04  0.12699999809E+01 0. -1.
       -4    1    3    3    0  502 -0.39110668873E+03  0.83612709766E+03 -0.13578152438E+04  0.16418699140E+04  0.12699999809E+01 0.  1.
</event>
<event>
 5   0  0.3441646E-05  0.2626643E+04  0.7818609E-02  0.8359207E-01
       -2   -1    0    0    0  501  0.00000000000E+00  0.00000000000E+00  0.12243880768E+04  0.12243880768E+04  0.25500000920E-02 0.  1.
        2   -1    0    0  501    0  0.00000000000E+00  0.00000000000E+00 -0.14087148441E+04  0.14087148441E+04  0.25500000920E-02 0. -1.
    10030    2    1    2    0    0  0.00000000000E+00  0.00000000000E+00 -0.18432676725E+03  0.26331029209E+04  0.26266432257E+04 0.  0.
        4    1    3    3  502    0 -0.37987459902E+03 -0.12134101132E+04  0.23749674229E+03  0.12934740544E+04  0.12699999809E+01 0.  1.
       -4    1    3    3    0  502  0.37987459902E+03  0.12134101132E+04 -0.42182350954E+03  0.13396288665E+04  0.12699999809E+01 0. -1.
</event>
<event>
 5   0  0.3647623E-05  0.2418492E+04  0.7818609E-02  0.8432613E-01
       -2   -1    0    0    0  501  0.00000000000E+00  0.00000000000E+00  0.10274307950E+04  0.10274307950E+04  0.25500000920E-02 0.  1.
        2   -1    0    0  501    0  0.00000000000E+00  0.00000000000E+00 -0.14232348319E+04  0.14232348319E+04  0.25500000920E-02 0. -1.
    10030    2    1    2    0    0  0.00000000000E+00  0.00000000000E+00 -0.39580403689E+03  0.24506656270E+04  0.24184915091E+04 0.  0.
        3    1    3    3  502    0  0.20529888881E+02 -0.38158590216E+03 -0.13604423426E+04  0.14130932930E+04  0.10100000352E+00 0. -1.
       -3    1    3    3    0  502 -0.20529888881E+02  0.38158590216E+03  0.96463830572E+03  0.10375723339E+04  0.10100000352E+00 0.  1.
</event>
<event>
 5   0  0.1451052E-05  0.2567639E+04  0.7818609E-02  0.8379277E-01
       -1   -1    0    0    0  501  0.00000000000E+00  0.00000000000E+00  0.12537143335E+04  0.12537143336E+04  0.50400001928E-02 0.  1.
        1   -1    0    0  501    0  0.00000000000E+00  0.00000000000E+00 -0.13146474530E+04  0.13146474530E+04  0.50400001928E-02 0. -1.
    10030    2    1    2    0    0  0.00000000000E+00  0.00000000000E+00 -0.60933119440E+02  0.25683617866E+04  0.25676388807E+04 0.  0.
        1    1    3    3  502    0 -0.11644562940E+04  0.19256835389E+03  0.47480071341E+03  0.12721936759E+04  0.50400001928E-02 0. -1.
       -1    1    3    3    0  502  0.11644562940E+04 -0.19256835389E+03 -0.53573383285E+03  0.12961681107E+04  0.50400001928E-02 0.  1.
</event>
<event>
 5   0  0.3441646E-05  0.2665565E+04  0.7818609E-02  0.8346265E-01
       -2   -1    0    0    0  501  0.00000000000E+00  0.00000000000E+00  0.13002522603E+04  0.13002522603E+04  0.25500000920E-02 0.  1.
        2   -1    0    0  501    0  0.00000000000E+00  0.00000000000E+00 -0.13661265333E+04  0.13661265333E+04  0.25500000920E-02 0. -1.
    10030    2    1    2    0    0  0.00000000000E+00  0.00000000000E+00 -0.65874273025E+02  0.26663787936E+04  0.26655649404E+04 0.  0.
        4    1    3    3  502    0  0.11033978119E+04 -0.70285862186E+03 -0.28759398108E+03  0.13394808264E+04  0.12699999809E+01 0. -1.
       -4    1    3    3    0  502 -0.11033978119E+04  0.70285862186E+03  0.22171970805E+03  0.13268979672E+04  0.12699999809E+01 0.  1.
</event>
<event>
 5   0  0.1533248E-05  0.2721420E+04  0.7818609E-02  0.8328088E-01
       -1   -1    0    0    0  501  0.00000000000E+00  0.00000000000E+00  0.91660095088E+03  0.91660095089E+03  0.50400001928E-02 0.  1.
        1   -1    0    0  501    0  0.00000000000E+00  0.00000000000E+00 -0.20199970902E+04  0.20199970902E+04  0.50400001928E-02 0. -1.
    10030    2    1    2    0    0  0.00000000000E+00  0.00000000000E+00 -0.11033961393E+04  0.29365980411E+04  0.27214196690E+04 0.  0.
        4    1    3    3  502    0  0.14064823340E+02 -0.81508586380E+02  0.91388509305E+03  0.91762140619E+03  0.12699999809E+01 0.  1.
       -4    1    3    3    0  502 -0.14064823340E+02  0.81508586380E+02 -0.20172812324E+04  0.20189766349E+04  0.12699999809E+01 0. -1.
</event>
<event>
 5   0  0.3849687E-05  0.2528381E+04  0.7818609E-02  0.8392944E-01
        2   -1    0    0  501    0  0.00000000000E+00  0.00000000000E+00  0.11110098955E+04  0.11110098955E+04  0.25500000920E-02 0.  1.
       -2   -1    0    0    0  501  0.00000000000E+00  0.00000000000E+00 -0.14384905924E+04  0.14384905924E+04  0.25500000920E-02 0. -1.
    10030    2    1    2    0    0  0.00000000000E+00  0.00000000000E+00 -0.32748069696E+03  0.25495004879E+04  0.25283807330E+04 0.  0.
        1    1    3    3  502    0 -0.48707785597E+03 -0.24180764706E+03 -0.13145276889E+04  0.14225676859E+04  0.50400001928E-02 0. -1.
       -1    1    3    3    0  502  0.48707785597E+03  0.24180764706E+03  0.98704699194E+03  0.11269328020E+04  0.50400001928E-02 0.  1.
</event>
<event>
 5   0  0.3508470E-05  0.1753207E+04  0.7818609E-02  0.8731587E-01
        2   -1    0    0  501    0  0.00000000000E+00  0.00000000000E+00  0.23970175149E+03  0.23970175151E+03  0.25500000920E-02 0. -1.
       -2   -1    0    0    0  501  0.00000000000E+00  0.00000000000E+00 -0.32057923568E+04  0.32057923568E+04  0.25500000920E-02 0.  1.
    10030    2    1    2    0    0  0.00000000000E+00  0.00000000000E+00 -0.29660906053E+04  0.34454941083E+04  0.17532073955E+04 0.  0.
        5    1    3    3  502    0  0.24853508002E+03 -0.15247897828E+03 -0.31076709274E+04  0.31213234705E+04  0.46999998093E+01 0.  1.
       -5    1    3    3    0  502 -0.24853508002E+03  0.15247897828E+03  0.14158032205E+03  0.32417063780E+03  0.46999998093E+01 0. -1.
</event>
<event>
 5   0  0.1451052E-05  0.2575443E+04  0.7818609E-02  0.8376591E-01
        1   -1    0    0  501    0  0.00000000000E+00  0.00000000000E+00  0.14364813244E+04  0.14364813244E+04  0.50400001928E-02 0.  1.
       -1   -1    0    0    0  501  0.00000000000E+00  0.00000000000E+00 -0.11543674553E+04  0.11543674553E+04  0.50400001928E-02 0. -1.
    10030    2    1    2    0    0  0.00000000000E+00  0.00000000000E+00  0.28211386917E+03  0.25908487797E+04  0.25754434888E+04 0.  0.
        1    1    3    3  502    0  0.65752739656E+03  0.60923839948E+02 -0.97107531890E+03  0.11743258775E+04  0.50400001928E-02 0. -1.
       -1    1    3    3    0  502 -0.65752739656E+03 -0.60923839948E+02  0.12531891881E+04  0.14165229023E+04  0.50400001928E-02 0.  1.
</event>
<event>
 5   0  0.1451052E-05  0.2619921E+04  0.7818609E-02  0.8361466E-01
       -1   -1    0    0    0  501  0.00000000000E+00  0.00000000000E+00  0.10844898011E+04  0.10844898011E+04  0.50400001928E-02 0. -1.
        1   -1    0    0  501    0  0.00000000000E+00  0.00000000000E+00 -0.15823075577E+04  0.15823075577E+04  0.50400001928E-02 0.  1.
    10030    2    1    2    0    0  0.00000000000E+00  0.00000000000E+00 -0.49781775664E+03  0.26667973588E+04  0.26199209213E+04 0.  0.
        1    1    3    3  502    0  0.10084231025E+04  0.37521548202E+03 -0.10094676297E+04  0.14753740905E+04  0.50400001928E-02 0.  1.
       -1    1    3    3    0  502 -0.10084231025E+04 -0.37521548202E+03  0.51164987305E+03  0.11914232683E+04  0.50400001928E-02 0. -1.
</event>
<event>
 5   0  0.1533248E-05  0.2602593E+04  0.7818609E-02  0.8367321E-01
        1   -1    0    0  501    0  0.00000000000E+00  0.00000000000E+00  0.14415855100E+04  0.14415855100E+04  0.50400001928E-02 0. -1.
       -1   -1    0    0    0  501  0.00000000000E+00  0.00000000000E+00 -0.11746597654E+04  0.11746597654E+04  0.50400001928E-02 0.  1.
    10030    2    1    2    0    0  0.00000000000E+00  0.00000000000E+00  0.26692574461E+03  0.26162452755E+04  0.26025929356E+04 0.  0.
        4    1    3    3  502    0  0.57579290702E+03 -0.14804014919E+03  0.12970830524E+04  0.14268424634E+04  0.12699999809E+01 0. -1.
       -4    1    3    3    0  502 -0.57579290702E+03  0.14804014919E+03 -0.10301573078E+04  0.11894028121E+04  0.12699999809E+01 0.  1.
</event>
<event>
 5   0  0.3441646E-05  0.2578012E+04  0.7818609E-02  0.8375709E-01
       -2   -1    0    0    0  501  0.00000000000E+00  0.00000000000E+00  0.99908019022E+03  0.99908019023E+03  0.25500000920E-02 0.  1.
        2   -1    0    0  501    0  0.00000000000E+00  0.00000000000E+00 -0.16630664261E+04  0.16630664261E+04  0.25500000920E-02 0. -1.
    10030    2    1    2    0    0  0.00000000000E+00  0.00000000000E+00 -0.66398623593E+03  0.26621466164E+04  0.25780121966E+04 0.  0.
        4    1    3    3  502    0  0.82789982820E+03 -0.98489395729E+03 -0.25133592625E+03  0.13109559845E+04  0.12699999809E+01 0.  1.
       -4    1    3    3    0  502 -0.82789982820E+03  0.98489395729E+03 -0.41265030967E+03  0.13511906319E+04  0.12699999809E+01 0. -1.
</event>
<event>
 5   0  0.1451052E-05  0.2641590E+04  0.7818609E-02  0.8354210E-01
       -1   -1    0    0    0  501  0.00000000000E+00  0.00000000000E+00  0.13801552042E+04  0.13801552042E+04  0.50400001928E-02 0.  1.
        1   -1    0    0  501    0  0.00000000000E+00  0.00000000000E+00 -0.12639876158E+04  0.12639876158E+04  0.50400001928E-02 0. -1.
    10030    2    1    2    0    0  0.00000000000E+00  0.00000000000E+00  0.11616758842E+03  0.26441428200E+04  0.26415897381E+04 0.  0.
        1    1    3    3  502    0 -0.12071241736E+04  0.50751609342E+03 -0.11464523707E+03  0.13144827447E+04  0.50400001928E-02 0.  1.
       -1    1    3    3    0  502  0.12071241736E+04 -0.50751609342E+03  0.23081282550E+03  0.13296600754E+04  0.50400001928E-02 0. -1.
</event>
<event>
 5   0  0.3849687E-05  0.2612159E+04  0.7818609E-02  0.8364083E-01
       -2   -1    0    0    0  501  0.00000000000E+00  0.00000000000E+00  0.13552474386E+04  0.13552474386E+04  0.25500000920E-02 0.  1.
        2   -1    0    0  501    0  0.00000000000E+00  0.00000000000E+00 -0.12586956257E+04  0.12586956257E+04  0.25500000920E-02 0. -1.
    10030    2    1    2    0    0  0.00000000000E+00  0.00000000000E+00  0.96551812973E+02  0.26139430643E+04  0.26121592775E+04 0.  0.
        1    1    3    3  502    0  0.17548045174E+03 -0.95709492355E+03  0.92008834702E+03  0.13391738677E+04  0.50400001928E-02 0.  1.
       -1    1    3    3    0  502 -0.17548045174E+03  0.95709492355E+03 -0.82353653404E+03  0.12747691966E+04  0.50400001928E-02 0. -1.
</event>
<event>
 5   0  0.1217200E-05  0.2587209E+04  0.7818609E-02  0.8372559E-01
        3   -1    0    0  501    0  0.00000000000E+00  0.00000000000E+00  0.13720663379E+04  0.13720663416E+04  0.10100000352E+00 0.  1.
       -3   -1    0    0    0  501  0.00000000000E+00  0.00000000000E+00 -0.12196296874E+04  0.12196296916E+04  0.10100000352E+00 0. -1.
    10030    2    1    2    0    0  0.00000000000E+00  0.00000000000E+00  0.15243665048E+03  0.25916960332E+04  0.25872091906E+04 0.  0.
        2    1    3    3  502    0 -0.28989380310E+02 -0.52358084459E+03  0.12608238362E+04  0.13655233542E+04  0.25500000920E-02 0.  1.
       -2    1    3    3    0  502  0.28989380310E+02  0.52358084459E+03 -0.11083871857E+04  0.12261726789E+04  0.25500000920E-02 0. -1.
</event>
<event>
 5   0  0.3647623E-05  0.2598246E+04  0.7818609E-02  0.8368797E-01
        2   -1    0    0  501    0  0.00000000000E+00  0.00000000000E+00  0.18638673156E+04  0.18638673156E+04  0.25500000920E-02 0. -1.
       -2   -1    0    0    0  501  0.00000000000E+00  0.00000000000E+00 -0.90549368398E+03  0.90549368398E+03  0.25500000920E-02 0.  1.
    10030    2    1    2    0    0  0.00000000000E+00  0.00000000000E+00  0.95837363161E+03  0.27693609996E+04  0.25982456251E+04 0.  0.
        3    1    3    3  502    0  0.56835688955E+03  0.79275840800E+03  0.13937306724E+04  0.17011703750E+04  0.10100000352E+00 0. -1.
       -3    1    3    3    0  502 -0.56835688955E+03 -0.79275840800E+03 -0.43535704076E+03  0.10681906246E+04  0.10100000352E+00 0.  1.
</event>
<event>
 5   0  0.1451052E-05  0.2611417E+04  0.7818609E-02  0.8364333E-01
       -1   -1    0    0    0  501  0.00000000000E+00  0.00000000000E+00  0.10945781635E+04  0.10945781635E+04  0.50400001928E-02 0.  1.
        1   -1    0    0  501    0  0.00000000000E+00  0.00000000000E+00 -0.15575636766E+04  0.15575636766E+04  0.50400001928E-02 0. -1.
    10030    2    1    2    0    0  0.00000000000E+00  0.00000000000E+00 -0.46298551318E+03  0.26521418401E+04  0.26114173842E+04 0.  0.
        1    1    3    3  502    0  0.55860691090E+03 -0.30837685652E+03 -0.13884407490E+04  0.15280398162E+04  0.50400001928E-02 0. -1.
       -1    1    3    3    0  502 -0.55860691090E+03  0.30837685652E+03  0.92545523581E+03  0.11241020239E+04  0.50400001928E-02 0.  1.
</event>
<event>
 5   0  0.1217200E-05  0.2587783E+04  0.7818609E-02  0.8372363E-01
        3   -1    0    0  501    0  0.00000000000E+00  0.00000000000E+00  0.12181528402E+04  0.12181528444E+04  0.10100000352E+00 0. -1.
       -3   -1    0    0    0  501  0.00000000000E+00  0.00000000000E+00 -0.13743389352E+04  0.13743389389E+04  0.10100000352E+00 0.  1.
    10030    2    1    2    0    0  0.00000000000E+00  0.00000000000E+00 -0.15618609497E+03  0.25924917833E+04  0.25877827479E+04 0.  0.
        2    1    3    3  502    0 -0.56339887111E+02 -0.43165778127E+03 -0.12987733817E+04  0.13697864505E+04  0.25500000920E-02 0.  1.
       -2    1    3    3    0  502  0.56339887111E+02  0.43165778127E+03  0.11425872867E+04  0.12227053328E+04  0.25500000920E-02 0. -1.
</event>
<event>
 5   0  0.3508470E-05  0.2573763E+04  0.7818609E-02  0.8377168E-01
        2   -1    0    0  501    0  0.00000000000E+00  0.00000000000E+00  0.19423678894E+04  0.19423678894E+04  0.25500000920E-02 0. -1.
       -2   -1    0    0    0  501  0.00000000000E+00  0.00000000000E+00 -0.85260056845E+03  0.85260056845E+03  0.25500000920E-02 0.  1.
    10030    2    1    2    0    0  0.00000000000E+00  0.00000000000E+00  0.10897673210E+04  0.27949684579E+04  0.25737629779E+04 0.  0.
        5    1    3    3  502    0 -0.10237328280E+03 -0.11524840247E+04 -0.66863903483E+02  0.11589618578E+04  0.46999998093E+01 0.  1.
       -5    1    3    3    0  502  0.10237328280E+03  0.11524840247E+04  0.11566312244E+04  0.16360066001E+04  0.46999998093E+01 0. -1.
</event>
<event>
 5   0  0.1451052E-05  0.2378979E+04  0.7818609E-02  0.8447415E-01
       -1   -1    0    0    0  501  0.00000000000E+00  0.00000000000E+00  0.64510329805E+03  0.64510329807E+03  0.50400001928E-02 0.  1.
        1   -1    0    0  501    0  0.00000000000E+00  0.00000000000E+00 -0.21932702337E+04  0.21932702337E+04  0.50400001928E-02 0. -1.
    10030    2    1    2    0    0  0.00000000000E+00  0.00000000000E+00 -0.15481669357E+04  0.28383735318E+04  0.23789794966E+04 0.  0.
        1    1    3    3  502    0  0.10959000822E+04 -0.85621570870E+02 -0.23183333441E+03  0.11234209979E+04  0.50400001928E-02 0.  1.
       -1    1    3    3    0  502 -0.10959000822E+04  0.85621570870E+02 -0.13163336013E+04  0.17149525339E+04  0.50400001928E-02 0. -1.
</event>
<event>
 5   0  0.1474554E-05  0.2594347E+04  0.7818609E-02  0.8370124E-01
        1   -1    0    0  501    0  0.00000000000E+00  0.00000000000E+00  0.15534922945E+04  0.15534922945E+04  0.50400001928E-02 0. -1.
       -1   -1    0    0    0  501  0.00000000000E+00  0.00000000000E+00 -0.10831459320E+04  0.10831459320E+04  0.50400001928E-02 0.  1.
    10030    2    1    2    0    0  0.00000000000E+00  0.00000000000E+00  0.47034636245E+03  0.26366382265E+04  0.25943468228E+04 0.  0.
        5    1    3    3  502    0 -0.90104952977E+02 -0.18115120101E+03  0.15373491864E+04  0.15506125470E+04  0.46999998093E+01 0. -1.
       -5    1    3    3    0  502  0.90104952977E+02  0.18115120101E+03 -0.10670028239E+04  0.10860256795E+04  0.46999998093E+01 0.  1.
</event>
<event>
 5   0  0.1497497E-05  0.2603329E+04  0.7818609E-02  0.8367071E-01
       -1   -1    0    0    0  501  0.00000000000E+00  0.00000000000E+00  0.97021206396E+03  0.97021206397E+03  0.50400001928E-02 0.  1.
        1   -1    0    0  501    0  0.00000000000E+00  0.00000000000E+00 -0.17463503043E+04  0.17463503043E+04  0.50400001928E-02 0. -1.
    10030    2    1    2    0    0  0.00000000000E+00  0.00000000000E+00 -0.77613824038E+03  0.27165623683E+04  0.26033287408E+04 0.  0.
        3    1    3    3  502    0 -0.95222598177E+02  0.57444618822E+03  0.82672946586E+03  0.10112059070E+04  0.10100000352E+00 0.  1.
       -3    1    3    3    0  502  0.95222598177E+02 -0.57444618822E+03 -0.16028677062E+04  0.17053564613E+04  0.10100000352E+00 0. -1.
</event>
<event>
 5   0  0.3441646E-05  0.2493239E+04  0.7818609E-02  0.8405398E-01
        2   -1    0    0  501    0  0.00000000000E+00  0.00000000000E+00  0.16238812168E+04  0.16238812168E+04  0.25500000920E-02 0. -1.
       -2   -1    0    0    0  501  0.00000000000E+00  0.00000000000E+00 -0.95700329879E+03  0.95700329879E+03  0.25500000920E-02 0.  1.
    10030    2    1    2    0    0  0.00000000000E+00  0.00000000000E+00  0.66687791801E+03  0.25808845156E+04  0.24932386018E+04 0.  0.
        4    1    3    3  502    0 -0.60378340405E+02 -0.18873319511E+03  0.16074737124E+04  0.16196416616E+04  0.12699999809E+01 0. -1.
       -4    1    3    3    0  502  0.60378340405E+02  0.18873319511E+03 -0.94059579443E+03  0.96124285398E+03  0.12699999809E+01 0.  1.
</event>
<event>
 5   0  0.1435062E-05  0.2240131E+04  0.7818609E-02  0.8501908E-01
       -1   -1    0    0    0  501  0.00000000000E+00  0.00000000000E+00  0.13138821279E+04  0.13138821280E+04  0.50400001928E-02 0.  1.
        1   -1    0    0  501    0  0.00000000000E+00  0.00000000000E+00 -0.95483934443E+03  0.95483934444E+03  0.50400001928E-02 0. -1.
    10030    2    1    2    0    0  0.00000000000E+00  0.00000000000E+00  0.35904278352E+03  0.22687214724E+04  0.22401306656E+04 0.  0.
        2    1    3    3  502    0  0.36694233191E+03  0.45052170421E+03  0.11493073470E+04  0.12878368914E+04  0.25500000920E-02 0.  1.
       -2    1    3    3    0  502 -0.36694233191E+03 -0.45052170421E+03 -0.79026456351E+03  0.98088458100E+03  0.25500000920E-02 0. -1.
</event>
<event>
 5   0  0.1217200E-05  0.2647917E+04  0.7818609E-02  0.8352105E-01
       -3   -1    0    0    0  501  0.00000000000E+00  0.00000000000E+00  0.25264679519E+04  0.25264679539E+04  0.10100000352E+00 0. -1.
        3   -1    0    0  501    0  0.00000000000E+00  0.00000000000E+00 -0.69380079645E+03  0.69380080380E+03  0.10100000352E+00 0.  1.
    10030    2    1    2    0    0  0.00000000000E+00  0.00000000000E+00  0.18326671554E+04  0.32202687577E+04  0.26479165337E+04 0.  0.
        5    1    3    3  502    0 -0.48615375428E+03 -0.82612813015E+03 -0.19430695582E+03  0.97806464168E+03  0.46999998093E+01 0. -1.
       -5    1    3    3    0  502  0.48615375428E+03  0.82612813015E+03  0.20269741113E+04  0.22422041160E+04  0.46999998093E+01 0.  1.
</event>
<event>
 5   0  0.3849687E-05  0.2591879E+04  0.7818609E-02  0.8370965E-01
       -2   -1    0    0    0  501  0.00000000000E+00  0.00000000000E+00  0.12565766019E+04  0.12565766019E+04  0.25500000920E-02 0. -1.
        2   -1    0    0  501    0  0.00000000000E+00  0.00000000000E+00 -0.13365356814E+04  0.13365356814E+04  0.25500000920E-02 0.  1.
    10030    2    1    2    0    0  0.00000000000E+00  0.00000000000E+00 -0.79959079490E+02  0.25931122833E+04  0.25918792139E+04 0.  0.
        1    1    3    3  502    0 -0.12141625572E+04 -0.44944319879E+03 -0.97186815101E+02  0.12983201382E+04  0.50400001928E-02 0.  1.
       -1    1    3    3    0  502  0.12141625572E+04  0.44944319879E+03  0.17227735611E+02  0.12947921451E+04  0.50400001928E-02 0. -1.
</event>
<event>
 5   0  0.3441646E-05  0.2562430E+04  0.7818609E-02  0.8381076E-01
        2   -1    0    0  501    0  0.00000000000E+00  0.00000000000E+00  0.92088356100E+03  0.92088356100E+03  0.25500000920E-02 0.  1.
       -2   -1    0    0    0  501  0.00000000000E+00  0.00000000000E+00 -0.17825397948E+04  0.17825397948E+04  0.25500000920E-02 0. -1.
    10030    2    1    2    0    0  0.00000000000E+00  0.00000000000E+00 -0.86165623385E+03  0.27034233558E+04  0.25624297796E+04 0.  0.
        4    1    3    3  502    0  0.79998885376E+03  0.23315797285E+03  0.59594608741E+03  0.10244501737E+04  0.12699999809E+01 0.  1.
       -4    1    3    3    0  502 -0.79998885376E+03 -0.23315797285E+03 -0.14576023213E+04  0.16789731821E+04  0.12699999809E+01 0. -1.
</event>
<event>
 5   0  0.3441646E-05  0.2583147E+04  0.7818609E-02  0.8373948E-01
        2   -1    0    0  501    0  0.00000000000E+00  0.00000000000E+00  0.12333597852E+04  0.12333597852E+04  0.25500000920E-02 0. -1.
       -2   -1    0    0    0  501  0.00000000000E+00  0.00000000000E+00 -0.13525351426E+04  0.13525351426E+04  0.25500000920E-02 0.  1.
    10030    2    1    2    0    0  0.00000000000E+00  0.00000000000E+00 -0.11917535738E+03  0.25858949279E+04  0.25831472688E+04 0.  0.
        4    1    3    3  502    0  0.31977210073E+03  0.12188948292E+04  0.22391320220E+03  0.12798818446E+04  0.12699999809E+01 0. -1.
       -4    1    3    3    0  502 -0.31977210073E+03 -0.12188948292E+04 -0.34308855958E+03  0.13060130833E+04  0.12699999809E+01 0.  1.
</event>
<event>
 5   0  0.3499642E-05  0.2626392E+04  0.7818609E-02  0.8359291E-01
       -2   -1    0    0    0  501  0.00000000000E+00  0.00000000000E+00  0.69941712239E+03  0.69941712239E+03  0.25500000920E-02 0.  1.
        2   -1    0    0  501    0  0.00000000000E+00  0.00000000000E+00 -0.24656018528E+04  0.24656018528E+04  0.25500000920E-02 0. -1.
    10030    2    1    2    0    0  0.00000000000E+00  0.00000000000E+00 -0.17661847304E+04  0.31650189752E+04  0.26263923186E+04 0.  0.
        2    1    3    3  502    0 -0.40161842908E+03 -0.12501029362E+04 -0.90806517978E+03  0.15964451398E+04  0.25500000920E-02 0.  1.
       -2    1    3    3    0  502  0.40161842908E+03  0.12501029362E+04 -0.85811955064E+03  0.15685738354E+04  0.25500000920E-02 0. -1.
</event>
<event>
 5   0  0.3647623E-05  0.2590740E+04  0.7818609E-02  0.8371353E-01
       -2   -1    0    0    0  501  0.00000000000E+00  0.00000000000E+00  0.15954222081E+04  0.15954222081E+04  0.25500000920E-02 0.  1.
        2   -1    0    0  501    0  0.00000000000E+00  0.00000000000E+00 -0.10517491679E+04  0.10517491679E+04  0.25500000920E-02 0. -1.
    10030    2    1    2    0    0  0.00000000000E+00  0.00000000000E+00  0.54367304025E+03  0.26471713760E+04  0.25907404191E+04 0.  0.
        3    1    3    3  502    0  0.59260292641E+03 -0.85301111707E+03  0.10627627991E+04  0.14860252258E+04  0.10100000352E+00 0. -1.
       -3    1    3    3    0  502 -0.59260292641E+03  0.85301111707E+03 -0.51908975887E+03  0.11611461502E+04  0.10100000352E+00 0.  1.
</event>
<event>
 5   0  0.1497497E-05  0.2688615E+04  0.7818609E-02  0.8338708E-01
        1   -1    0    0  501    0  0.00000000000E+00  0.00000000000E+00  0.96299556417E+03  0.96299556419E+03  0.50400001928E-02 0. -1.
       -1   -1    0    0    0  501  0.00000000000E+00  0.00000000000E+00 -0.18766056370E+04  0.18766056370E+04  0.50400001928E-02 0.  1.
    10030    2    1    2    0    0  0.00000000000E+00  0.00000000000E+00 -0.91361007281E+03  0.28396012012E+04  0.26886151857E+04 0.  0.
        3    1    3    3  502    0  0.11187399942E+03 -0.34196482984E+03 -0.18248071948E+04  0.18599400649E+04  0.10100000352E+00 0.  1.
       -3    1    3    3    0  502 -0.11187399942E+03  0.34196482984E+03  0.91119712200E+03  0.97966113628E+03  0.10100000352E+00 0. -1.
</event>
<event>
 5   0  0.1533248E-05  0.2574615E+04  0.7818609E-02  0.8376875E-01
       -1   -1    0    0    0  501  0.00000000000E+00  0.00000000000E+00  0.15085821504E+04  0.15085821504E+04  0.50400001928E-02 0.  1.
        1   -1    0    0  501    0  0.00000000000E+00  0.00000000000E+00 -0.10984887441E+04  0.10984887441E+04  0.50400001928E-02 0. -1.
    10030    2    1    2    0    0  0.00000000000E+00  0.00000000000E+00  0.41009340631E+03  0.26070708945E+04  0.25746149318E+04 0.  0.
        4    1    3    3  502    0  0.80897607017E+02  0.32784455195E+03 -0.10528418241E+04  0.11056690248E+04  0.12699999809E+01 0. -1.
       -4    1    3    3    0  502 -0.80897607017E+02 -0.32784455195E+03  0.14629352304E+04  0.15014018697E+04  0.12699999809E+01 0.  1.
</event>
<event>
 5   0  0.3647623E-05  0.2586148E+04  0.7818609E-02  0.8372922E-01
        2   -1    0    0  501    0  0.00000000000E+00  0.00000000000E+00  0.10670936007E+04  0.10670936007E+04  0.25500000920E-02 0.  1.
       -2   -1    0    0    0  501  0.00000000000E+00  0.00000000000E+00 -0.15669107058E+04  0.15669107058E+04  0.25500000920E-02 0. -1.
    10030    2    1    2    0    0  0.00000000000E+00  0.00000000000E+00 -0.49981710519E+03  0.26340043065E+04  0.25861480136E+04 0.  0.
        3    1    3    3  502    0  0.26940981325E+02 -0.54502640236E+03  0.94407317278E+03  0.10904374175E+04  0.10100000352E+00 0.  1.
       -3    1    3    3    0  502 -0.26940981325E+02  0.54502640236E+03 -0.14438902780E+04  0.15435668890E+04  0.10100000352E+00 0. -1.
</event>
<event>
 5   0  0.3499642E-05  0.2587449E+04  0.7818609E-02  0.8372477E-01
        2   -1    0    0  501    0  0.00000000000E+00  0.00000000000E+00  0.22371356325E+04  0.22371356326E+04  0.25500000920E-02 0.  1.
       -2   -1    0    0    0  501  0.00000000000E+00  0.00000000000E+00 -0.74815476765E+03  0.74815476766E+03  0.25500000920E-02 0. -1.
    10030    2    1    2    0    0  0.00000000000E+00  0.00000000000E+00  0.14889808649E+04  0.29852904002E+04  0.25874494696E+04 0.  0.
        2    1    3    3  502    0 -0.77501683115E+02 -0.10181598059E+04 -0.17205229058E+03  0.10354988614E+04  0.25500000920E-02 0. -1.
       -2    1    3    3    0  502  0.77501683115E+02  0.10181598059E+04  0.16610331555E+04  0.19497915388E+04  0.25500000920E-02 0.  1.
</event>
<event>
 5   0  0.1451052E-05  0.2634443E+04  0.7818609E-02  0.8356595E-01
        1   -1    0    0  501    0  0.00000000000E+00  0.00000000000E+00  0.14891252847E+04  0.14891252847E+04  0.50400001928E-02 0. -1.
       -1   -1    0    0    0  501  0.00000000000E+00  0.00000000000E+00 -0.11651623139E+04  0.11651623139E+04  0.50400001928E-02 0.  1.
    10030    2    1    2    0    0  0.00000000000E+00  0.00000000000E+00  0.32396297089E+03  0.26542875986E+04  0.26344431384E+04 0.  0.
        1    1    3    3  502    0 -0.12542186625E+03  0.17947838069E+03 -0.11466982033E+04  0.11674159084E+04  0.50400001928E-02 0.  1.
       -1    1    3    3    0  502  0.12542186625E+03 -0.17947838069E+03  0.14706611742E+04  0.14868716902E+04  0.50400001928E-02 0. -1.
</event>
<event>
 5   0  0.3849687E-05  0.2541200E+04  0.7818609E-02  0.8388453E-01
       -2   -1    0    0    0  501  0.00000000000E+00  0.00000000000E+00  0.25535007380E+04  0.25535007380E+04  0.25500000920E-02 0.  1.
        2   -1    0    0  501    0  0.00000000000E+00  0.00000000000E+00 -0.63223938384E+03  0.63223938385E+03  0.25500000920E-02 0. -1.
    10030    2    1    2    0    0  0.00000000000E+00  0.00000000000E+00  0.19212613542E+04  0.31857401219E+04  0.25411995067E+04 0.  0.
        1    1    3    3  502    0 -0.13271849007E+03 -0.94795083464E+03  0.20081477656E+04  0.22246083770E+04  0.50400001928E-02 0.  1.
       -1    1    3    3    0  502  0.13271849007E+03  0.94795083464E+03 -0.86886411424E+02  0.96113174488E+03  0.50400001928E-02 0. -1.
</event>
<event>
 5   0  0.1435062E-05  0.2543025E+04  0.7818609E-02  0.8387816E-01
        1   -1    0    0  501    0  0.00000000000E+00  0.00000000000E+00  0.17154209466E+04  0.17154209466E+04  0.50400001928E-02 0. -1.
       -1   -1    0    0    0  501  0.00000000000E+00  0.00000000000E+00 -0.94247626034E+03  0.94247626035E+03  0.50400001928E-02 0.  1.
    10030    2    1    2    0    0  0.00000000000E+00  0.00000000000E+00  0.77294468629E+03  0.26578972070E+04  0.25430245919E+04 0.  0.
        2    1    3    3  502    0 -0.30802368615E+03  0.55697756463E+03  0.15369404583E+04  0.16635169284E+04  0.25500000920E-02 0. -1.
       -2    1    3    3    0  502  0.30802368615E+03 -0.55697756463E+03 -0.76399577202E+03  0.99438027857E+03  0.25500000920E-02 0.  1.
</event>
<event>
 5   0  0.3508470E-05  0.2581654E+04  0.7818609E-02  0.8374460E-01
        2   -1    0    0  501    0  0.00000000000E+00  0.00000000000E+00  0.19080444689E+04  0.19080444689E+04  0.25500000920E-02 0.  1.
       -2   -1    0    0    0  501  0.00000000000E+00  0.00000000000E+00 -0.87326792703E+03  0.87326792704E+03  0.25500000920E-02 0. -1.
    10030    2    1    2    0    0  0.00000000000E+00  0.00000000000E+00  0.10347765419E+04  0.27813123959E+04  0.25816537630E+04 0.  0.
        5    1    3    3  502    0  0.26111010743E+03  0.60222709104E+03 -0.68003539556E+03  0.94515934455E+03  0.46999998093E+01 0. -1.
       -5    1    3    3    0  502 -0.26111010743E+03 -0.60222709104E+03  0.17148119374E+04  0.18361530514E+04  0.46999998093E+01 0.  1.
</event>
<event>
 5   0  0.1435062E-05  0.2585167E+04  0.7818609E-02  0.8373257E-01
        1   -1    0    0  501    0  0.00000000000E+00  0.00000000000E+00  0.12387585210E+04  0.12387585210E+04  0.50400001928E-02 0.  1.
       -1   -1    0    0    0  501  0.00000000000E+00  0.00000000000E+00 -0.13487471802E+04  0.13487471802E+04  0.50400001928E-02 0. -1.
    10030    2    1    2    0    0  0.00000000000E+00  0.00000000000E+00 -0.10998865924E+03  0.25875057013E+04  0.25851669673E+04 0.  0.
        2    1    3    3  502    0 -0.95379672094E+03 -0.47274094634E+03  0.67885371193E+03  0.12625587311E+04  0.25500000920E-02 0.  1.
       -2    1    3    3    0  502  0.95379672094E+03  0.47274094634E+03 -0.78884237117E+03  0.13249469702E+04  0.25500000920E-02 0. -1.
</event>
<event>
 5   0  0.1497497E-05  0.2598635E+04  0.7818609E-02  0.8368665E-01
        1   -1    0    0  501    0  0.00000000000E+00  0.00000000000E+00  0.73917309473E+03  0.73917309475E+03  0.50400001928E-02 0.  1.
       -1   -1    0    0    0  501  0.00000000000E+00  0.00000000000E+00 -0.22839390210E+04  0.22839390210E+04  0.50400001928E-02 0. -1.
    10030    2    1    2    0    0  0.00000000000E+00  0.00000000000E+00 -0.15447659263E+04  0.30231121158E+04  0.25986352375E+04 0.  0.
        3    1    3    3  502    0 -0.89088720919E+03  0.65276601938E+03  0.23844586486E+02  0.11046954649E+04  0.10100000352E+00 0.  1.
       -3    1    3    3    0  502  0.89088720919E+03 -0.65276601938E+03 -0.15686105128E+04  0.19184166509E+04  0.10100000352E+00 0. -1.
</event>
<event>
 5   0  0.1474554E-05  0.2601285E+04  0.7818609E-02  0.8367765E-01
        1   -1    0    0  501    0  0.00000000000E+00  0.00000000000E+00  0.16079037893E+04  0.16079037893E+04  0.50400001928E-02 0.  1.
       -1   -1    0    0    0  501  0.00000000000E+00  0.00000000000E+00 -0.10520970745E+04  0.10520970745E+04  0.50400001928E-02 0. -1.
    10030    2    1    2    0    0  0.00000000000E+00  0.00000000000E+00  0.55580671481E+03  0.26600008639E+04  0.26012849693E+04 0.  0.
        5    1    3    3  502    0  0.13555434961E+03  0.82972748821E+03  0.12926873788E+04  0.15420393755E+04  0.46999998093E+01 0.  1.
       -5    1    3    3    0  502 -0.13555434961E+03 -0.82972748821E+03 -0.73688066400E+03  0.11179614883E+04  0.46999998093E+01 0. -1.
</event>
<event>
 5   0  0.3849687E-05  0.2618843E+04  0.7818609E-02  0.8361829E-01
        2   -1    0    0  501    0  0.00000000000E+00  0.00000000000E+00  0.18428527755E+04  0.18428527755E+04  0.25500000920E-02 0. -1.
       -2   -1    0    0    0  501  0.00000000000E+00  0.00000000000E+00 -0.93039711229E+03  0.93039711229E+03  0.25500000920E-02 0.  1.
    10030    2    1    2    0    0  0.00000000000E+00  0.00000000000E+00  0.91245566319E+03  0.27732498878E+04  0.26188431802E+04 0.  0.
        1    1    3    3  502    0 -0.40376391978E+03 -0.48191051118E+03 -0.76011189030E+03  0.98642441652E+03  0.50400001928E-02 0.  1.
       -1    1    3    3    0  502  0.40376391978E+03  0.48191051118E+03  0.16725675535E+04  0.17868254713E+04  0.50400001928E-02 0. -1.
</event>
<event>
 5   0  0.1497497E-05  0.2616567E+04  0.7818609E-02  0.8362596E-01
       -1   -1    0    0    0  501  0.00000000000E+00  0.00000000000E+00  0.84189135185E+03  0.84189135187E+03  0.50400001928E-02 0.  1.
        1   -1    0    0  501    0  0.00000000000E+00  0.00000000000E+00 -0.20330474714E+04  0.20330474714E+04  0.50400001928E-02 0. -1.
    10030    2    1    2    0    0  0.00000000000E+00  0.00000000000E+00 -0.11911561195E+04  0.28749388232E+04  0.26165665167E+04 0.  0.
        3    1    3    3  502    0  0.92204309270E+03 -0.91958736138E+03 -0.45746494884E+03  0.13802458367E+04  0.10100000352E+00 0.  1.
       -3    1    3    3    0  502 -0.92204309270E+03  0.91958736138E+03 -0.73369117067E+03  0.14946929866E+04  0.10100000352E+00 0. -1.
</event>
<event>
 5   0  0.3499642E-05  0.2588028E+04  0.7818609E-02  0.8372279E-01
       -2   -1    0    0    0  501  0.00000000000E+00  0.00000000000E+00  0.18345808875E+04  0.18345808875E+04  0.25500000920E-02 0. -1.
        2   -1    0    0  501    0  0.00000000000E+00  0.00000000000E+00 -0.91272747252E+03  0.91272747252E+03  0.25500000920E-02 0.  1.
    10030    2    1    2    0    0  0.00000000000E+00  0.00000000000E+00  0.92185341501E+03  0.27473083601E+04  0.25880281116E+04 0.  0.
        2    1    3    3  502    0 -0.36420044789E+03  0.32768789767E+03  0.17323240080E+04  0.18002688114E+04  0.25500000920E-02 0. -1.
       -2    1    3    3    0  502  0.36420044789E+03 -0.32768789767E+03 -0.81047059303E+03  0.94703954864E+03  0.25500000920E-02 0.  1.
</event>
<event>
 5   0  0.1533248E-05  0.2346060E+04  0.7818609E-02  0.8459979E-01
       -1   -1    0    0    0  501  0.00000000000E+00  0.00000000000E+00  0.13472266029E+04  0.13472266030E+04  0.50400001928E-02 0. -1.
        1   -1    0    0  501    0  0.00000000000E+00  0.00000000000E+00 -0.10213567996E+04  0.10213567996E+04  0.50400001928E-02 0.  1.
    10030    2    1    2    0    0  0.00000000000E+00  0.00000000000E+00  0.32586980334E+03  0.23685834026E+04  0.23460597192E+04 0.  0.
        4    1    3    3  502    0 -0.41848637245E+03 -0.73412991515E+03 -0.65846060999E+03  0.10712840725E+04  0.12699999809E+01 0.  1.
       -4    1    3    3    0  502  0.41848637245E+03  0.73412991515E+03  0.98433041333E+03  0.12972993300E+04  0.12699999809E+01 0. -1.
</event>
<event>
 5   0  0.1474554E-05  0.2477533E+04  0.7818609E-02  0.8411033E-01
       -1   -1    0    0    0  501  0.00000000000E+00  0.00000000000E+00  0.61890295252E+03  0.61890295254E+03  0.50400001928E-02 0. -1.
        1   -1    0    0  501    0  0.00000000000E+00  0.00000000000E+00 -0.24794560484E+04  0.24794560484E+04  0.50400001928E-02 0.  1.
    10030    2    1    2    0    0  0.00000000000E+00  0.00000000000E+00 -0.18605530959E+04  0.30983590010E+04  0.24775331837E+04 0.  0.
        5    1    3    3  502    0  0.44498888380E+02 -0.88982618972E+03  0.14605983985E+03  0.90284348909E+03  0.46999998093E+01 0. -1.
       -5    1    3    3    0  502 -0.44498888380E+02  0.88982618972E+03 -0.20066129358E+04  0.21955155119E+04  0.46999998093E+01 0.  1.
</event>
<event>
 5   0  0.3508470E-05  0.2626872E+04  0.7818609E-02  0.8359130E-01
        2   -1    0    0  501    0  0.00000000000E+00  0.00000000000E+00  0.85685133330E+03  0.85685133330E+03  0.25500000920E-02 0.  1.
       -2   -1    0    0    0  501  0.00000000000E+00  0.00000000000E+00 -0.20133182327E+04  0.20133182328E+04  0.25500000920E-02 0. -1.
    10030    2    1    2    0    0  0.00000000000E+00  0.00000000000E+00 -0.11564668994E+04  0.28701695661E+04  0.26268722178E+04 0.  0.
        5    1    3    3  502    0 -0.43024480007E+03 -0.12088982556E+04 -0.88445284515E+03  0.15584686412E+04  0.46999998093E+01 0. -1.
       -5    1    3    3    0  502  0.43024480007E+03  0.12088982556E+04 -0.27201405430E+03  0.13117009248E+04  0.46999998093E+01 0.  1.
</event>
<event>
 5   0  0.1474554E-05  0.2606334E+04  0.7818609E-02  0.8366053E-01
       -1   -1    0    0    0  501  0.00000000000E+00  0.00000000000E+00  0.10802742180E+04  0.10802742180E+04  0.50400001928E-02 0.  1.
        1   -1    0    0  501    0  0.00000000000E+00  0.00000000000E+00 -0.15720493575E+04  0.15720493575E+04  0.50400001928E-02 0. -1.
    10030    2    1    2    0    0  0.00000000000E+00  0.00000000000E+00 -0.49177513946E+03  0.26523235755E+04  0.26063341231E+04 0.  0.
        5    1    3    3  502    0 -0.41136357056E+03  0.11278762932E+04  0.26990639178E+03  0.12305269076E+04  0.46999998093E+01 0.  1.
       -5    1    3    3    0  502  0.41136357056E+03 -0.11278762932E+04 -0.76168153124E+03  0.14217966679E+04  0.46999998093E+01 0. -1.
</event>
<event>
 5   0  0.1435062E-05  0.2654657E+04  0.7818609E-02  0.8349869E-01
       -1   -1    0    0    0  501  0.00000000000E+00  0.00000000000E+00  0.14461203072E+04  0.14461203072E+04  0.50400001928E-02 0.  1.
        1   -1    0    0  501    0  0.00000000000E+00  0.00000000000E+00 -0.12182946961E+04  0.12182946961E+04  0.50400001928E-02 0. -1.
    10030    2    1    2    0    0  0.00000000000E+00  0.00000000000E+00  0.22782561111E+03  0.26644150033E+04  0.26546568142E+04 0.  0.
        2    1    3    3  502    0  0.59207860199E+03  0.88425430813E+03 -0.68231152714E+03  0.12641249038E+04  0.25500000920E-02 0. -1.
       -2    1    3    3    0  502 -0.59207860199E+03 -0.88425430813E+03  0.91013713825E+03  0.14002900995E+04  0.25500000920E-02 0.  1.
</event>
<event>
 5   0  0.3849687E-05  0.2628775E+04  0.7818609E-02  0.8358492E-01
       -2   -1    0    0    0  501  0.00000000000E+00  0.00000000000E+00  0.58806864464E+03  0.58806864464E+03  0.25500000920E-02 0.  1.
        2   -1    0    0  501    0  0.00000000000E+00  0.00000000000E+00 -0.29377767632E+04  0.29377767632E+04  0.25500000920E-02 0. -1.
    10030    2    1    2    0    0  0.00000000000E+00  0.00000000000E+00 -0.23497081186E+04  0.35258454078E+04  0.26287749233E+04 0.  0.
        1    1    3    3  502    0  0.29218005609E+03  0.56086795253E+03  0.37059722346E+03  0.73299682633E+03  0.50400001928E-02 0.  1.
       -1    1    3    3    0  502 -0.29218005609E+03 -0.56086795253E+03 -0.27203053420E+04  0.27928485815E+04  0.50400001928E-02 0. -1.
</event>
<event>
 5   0  0.1533248E-05  0.1609776E+04  0.7818609E-02  0.8814565E-01
        1   -1    0    0  501    0  0.00000000000E+00  0.00000000000E+00  0.13604937655E+04  0.13604937655E+04  0.50400001928E-02 0.  1.
       -1   -1    0    0    0  501  0.00000000000E+00  0.00000000000E+00 -0.47618355488E+03  0.47618355491E+03  0.50400001928E-02 0. -1.
    10030    2    1    2    0    0  0.00000000000E+00  0.00000000000E+00  0.88431021063E+03  0.18366773204E+04  0.16097760809E+04 0.  0.
        4    1    3    3  502    0  0.33649901674E+03  0.34306731431E+03 -0.29454692947E+03  0.56363665333E+03  0.12699999809E+01 0. -1.
       -4    1    3    3    0  502 -0.33649901674E+03 -0.34306731431E+03  0.11788571401E+04  0.12730406671E+04  0.12699999809E+01 0.  1.
</event>
<event>
 5   0  0.3849687E-05  0.2568881E+04  0.7818609E-02  0.8378849E-01
       -2   -1    0    0    0  501  0.00000000000E+00  0.00000000000E+00  0.10533454742E+04  0.10533454742E+04  0.25500000920E-02 0.  1.
        2   -1    0    0  501    0  0.00000000000E+00  0.00000000000E+00 -0.15662361066E+04  0.15662361066E+04  0.25500000920E-02 0. -1.
    10030    2    1    2    0    0  0.00000000000E+00  0.00000000000E+00 -0.51289063246E+03  0.26195815808E+04  0.25688812463E+04 0.  0.
        1    1    3    3  502    0 -0.36299370297E+03  0.11860069759E+04  0.83924803824E+02  0.12431493667E+04  0.50400001928E-02 0.  1.
       -1    1    3    3    0  502  0.36299370297E+03 -0.11860069759E+04 -0.59681543628E+03  0.13764322142E+04  0.50400001928E-02 0. -1.
</event>
<event>
 5   0  0.3849687E-05  0.2015878E+04  0.7818609E-02  0.8599233E-01
        2   -1    0    0  501    0  0.00000000000E+00  0.00000000000E+00  0.12099739397E+04  0.12099739397E+04  0.25500000920E-02 0.  1.
       -2   -1    0    0    0  501  0.00000000000E+00  0.00000000000E+00 -0.83963862165E+03  0.83963862166E+03  0.25500000920E-02 0. -1.
    10030    2    1    2    0    0  0.00000000000E+00  0.00000000000E+00  0.37033531803E+03  0.20496125613E+04  0.20158778246E+04 0.  0.
        1    1    3    3  502    0  0.38730105216E+03 -0.49278069651E+03  0.98774798436E+03  0.11698209267E+04  0.50400001928E-02 0.  1.
       -1    1    3    3    0  502 -0.38730105216E+03  0.49278069651E+03 -0.61741266633E+03  0.87979163467E+03  0.50400001928E-02 0. -1.
</event>
<event>
 5   0  0.1533248E-05  0.2449199E+04  0.7818609E-02  0.8421311E-01
       -1   -1    0    0    0  501  0.00000000000E+00  0.00000000000E+00  0.66498346643E+03  0.66498346645E+03  0.50400001928E-02 0.  1.
        1   -1    0    0  501    0  0.00000000000E+00  0.00000000000E+00 -0.22551595721E+04  0.22551595721E+04  0.50400001928E-02 0. -1.
    10030    2    1    2    0    0  0.00000000000E+00  0.00000000000E+00 -0.15901761056E+04  0.29201430385E+04  0.24491989136E+04 0.  0.
        4    1    3    3  502    0 -0.59851966198E+02 -0.11643170189E+04 -0.34829791330E+03  0.12167700800E+04  0.12699999809E+01 0.  1.
       -4    1    3    3    0  502  0.59851966198E+02  0.11643170189E+04 -0.12418781923E+04  0.17033729585E+04  0.12699999809E+01 0. -1.
</event>
<event>
 5   0  0.1497497E-05  0.2593992E+04  0.7818609E-02  0.8370245E-01
        1   -1    0    0  501    0  0.00000000000E+00  0.00000000000E+00  0.71398043541E+03  0.71398043543E+03  0.50400001928E-02 0.  1.
       -1   -1    0    0    0  501  0.00000000000E+00  0.00000000000E+00 -0.23560849885E+04  0.23560849885E+04  0.50400001928E-02 0. -1.
    10030    2    1    2    0    0  0.00000000000E+00  0.00000000000E+00 -0.16421045531E+04  0.30700654239E+04  0.25939919707E+04 0.  0.
        3    1    3    3  502    0  0.20835142694E+03  0.12087873077E+04 -0.32225189871E+03  0.12682363222E+04  0.10100000352E+00 0.  1.
       -3    1    3    3    0  502 -0.20835142694E+03 -0.12087873077E+04 -0.13198526544E+04  0.18018291017E+04  0.10100000352E+00 0. -1.
</event>
<event>
 5   0  0.3441646E-05  0.2604930E+04  0.7818609E-02  0.8366528E-01
       -2   -1    0    0    0  501  0.00000000000E+00  0.00000000000E+00  0.93638957459E+03  0.93638957460E+03  0.25500000920E-02 0. -1.
        2   -1    0    0  501    0  0.00000000000E+00  0.00000000000E+00 -0.18116556894E+04  0.18116556894E+04  0.25500000920E-02 0.  1.
    10030    2    1    2    0    0  0.00000000000E+00  0.00000000000E+00 -0.87526611478E+03  0.27480452640E+04  0.26049303256E+04 0.  0.
        4    1    3    3  502    0  0.55957894966E+03 -0.11270616873E+04 -0.79228318287E+03  0.14869804648E+04  0.12699999809E+01 0. -1.
       -4    1    3    3    0  502 -0.55957894966E+03  0.11270616873E+04 -0.82982931916E+02  0.12610647992E+04  0.12699999809E+01 0.  1.
</event>
<event>
 5   0  0.1533248E-05  0.2701448E+04  0.7818609E-02  0.8334535E-01
        1   -1    0    0  501    0  0.00000000000E+00  0.00000000000E+00  0.17639261509E+04  0.17639261509E+04  0.50400001928E-02 0. -1.
       -1   -1    0    0    0  501  0.00000000000E+00  0.00000000000E+00 -0.10343148334E+04  0.10343148334E+04  0.50400001928E-02 0.  1.
    10030    2    1    2    0    0  0.00000000000E+00  0.00000000000E+00  0.72961131751E+03  0.27982409844E+04  0.27014477474E+04 0.  0.
        4    1    3    3  502    0 -0.58590483270E+02 -0.65229601046E+03 -0.85884711375E+03  0.10800661589E+04  0.12699999809E+01 0.  1.
       -4    1    3    3    0  502  0.58590483270E+02  0.65229601046E+03  0.15884584313E+04  0.17181748254E+04  0.12699999809E+01 0. -1.
</event>
<event>
 5   0  0.1451052E-05  0.2604082E+04  0.7818609E-02  0.8366816E-01
       -1   -1    0    0    0  501  0.00000000000E+00  0.00000000000E+00  0.12664151688E+04  0.12664151688E+04  0.50400001928E-02 0. -1.
        1   -1    0    0  501    0  0.00000000000E+00  0.00000000000E+00 -0.13386694742E+04  0.13386694742E+04  0.50400001928E-02 0.  1.
    10030    2    1    2    0    0  0.00000000000E+00  0.00000000000E+00 -0.72254305381E+02  0.26050846430E+04  0.26040824320E+04 0.  0.
        1    1    3    3  502    0  0.65423944937E+03 -0.10040452914E+04 -0.54541553396E+03  0.13166678810E+04  0.50400001928E-02 0.  1.
       -1    1    3    3    0  502 -0.65423944937E+03  0.10040452914E+04  0.47316122858E+03  0.12884167620E+04  0.50400001928E-02 0. -1.
</event>
<event>
 5   0  0.1474554E-05  0.2724441E+04  0.7818609E-02  0.8327118E-01
        1   -1    0    0  501    0  0.00000000000E+00  0.00000000000E+00  0.19078939535E+04  0.19078939535E+04  0.50400001928E-02 0. -1.
       -1   -1    0    0    0  501  0.00000000000E+00  0.00000000000E+00 -0.97261433293E+03  0.97261433294E+03  0.50400001928E-02 0.  1.
    10030    2    1    2    0    0  0.00000000000E+00  0.00000000000E+00  0.93527962060E+03  0.28805082865E+04  0.27244412307E+04 0.  0.
        5    1    3    3  502    0  0.37606009374E+03  0.46270087749E+03 -0.82731073454E+03  0.10197933308E+04  0.46999998093E+01 0.  1.
       -5    1    3    3    0  502 -0.37606009374E+03 -0.46270087749E+03  0.17625903551E+04  0.18607149556E+04  0.46999998093E+01 0. -1.
</event>
<event>
 5   0  0.3441646E-05  0.2585229E+04  0.7818609E-02  0.8373236E-01
       -2   -1    0    0    0  501  0.00000000000E+00  0.00000000000E+00  0.57221577425E+03  0.57221577426E+03  0.25500000920E-02 0. -1.
        2   -1    0    0  501    0  0.00000000000E+00  0.00000000000E+00 -0.29199691161E+04  0.29199691161E+04  0.25500000920E-02 0.  1.
    10030    2    1    2    0    0  0.00000000000E+00  0.00000000000E+00 -0.23477533419E+04  0.34921848904E+04  0.25852291106E+04 0.  0.
        4    1    3    3  502    0 -0.88163814178E+03 -0.37578943423E+03 -0.23455522126E+04  0.25337956324E+04  0.12699999809E+01 0.  1.
       -4    1    3    3    0  502  0.88163814178E+03  0.37578943423E+03 -0.22011292753E+01  0.95838925797E+03  0.12699999809E+01 0. -1.
</event>
<event>
 5   0  0.3499642E-05  0.2600696E+04  0.7818609E-02  0.8367965E-01
        2   -1    0    0  501    0  0.00000000000E+00  0.00000000000E+00  0.16101210162E+04  0.16101210162E+04  0.25500000920E-02 0. -1.
       -2   -1    0    0    0  501  0.00000000000E+00  0.00000000000E+00 -0.10501726231E+04  0.10501726231E+04  0.25500000920E-02 0.  1.
    10030    2    1    2    0    0  0.00000000000E+00  0.00000000000E+00  0.55994839310E+03  0.26602936392E+04  0.26006960691E+04 0.  0.
        2    1    3    3  502    0  0.40167969346E+03 -0.90094948064E+03 -0.58670099235E+03  0.11477258371E+04  0.25500000920E-02 0. -1.
       -2    1    3    3    0  502 -0.40167969346E+03  0.90094948064E+03  0.11466493855E+04  0.15125678021E+04  0.25500000920E-02 0.  1.
</event>
<event>
 5   0  0.1474554E-05  0.2625272E+04  0.7818609E-02  0.8359667E-01
        1   -1    0    0  501    0  0.00000000000E+00  0.00000000000E+00  0.10276061514E+04  0.10276061514E+04  0.50400001928E-02 0. -1.
       -1   -1    0    0    0  501  0.00000000000E+00  0.00000000000E+00 -0.16767258000E+04  0.16767258001E+04  0.50400001928E-02 0.  1.
    10030    2    1    2    0    0  0.00000000000E+00  0.00000000000E+00 -0.64911964862E+03  0.27043319515E+04  0.26252723641E+04 0.  0.
        5    1    3    3  502    0  0.45915408534E+03 -0.94794773569E+03  0.48233264844E+03  0.11584879186E+04  0.46999998093E+01 0. -1.
       -5    1    3    3    0  502 -0.45915408534E+03  0.94794773569E+03 -0.11314522971E+04  0.15458440329E+04  0.46999998093E+01 0.  1.
</event>
<event>
 5   0  0.1451052E-05  0.2605339E+04  0.7818609E-02  0.8366390E-01
        1   -1    0    0  501    0  0.00000000000E+00  0.00000000000E+00  0.12948987515E+04  0.12948987515E+04  0.50400001928E-02 0. -1.
       -1   -1    0    0    0  501  0.00000000000E+00  0.00000000000E+00 -0.13104871848E+04  0.13104871848E+04  0.50400001928E-02 0.  1.
    10030    2    1    2    0    0  0.00000000000E+00  0.00000000000E+00 -0.15588433330E+02  0.26053859363E+04  0.26053393019E+04 0.  0.
        1    1    3    3  502    0 -0.71673661672E+03 -0.73848975675E+03 -0.80647597822E+03  0.13074716066E+04  0.50400001928E-02 0.  1.
       -1    1    3    3    0  502  0.71673661672E+03  0.73848975675E+03  0.79088754489E+03  0.12979143297E+04  0.50400001928E-02 0. -1.
</event>
<event>
 5   0  0.3647623E-05  0.2566799E+04  0.7818609E-02  0.8379567E-01
        2   -1    0    0  501    0  0.00000000000E+00  0.00000000000E+00  0.14224081618E+04  0.14224081618E+04  0.25500000920E-02 0.  1.
       -2   -1    0    0    0  501  0.00000000000E+00  0.00000000000E+00 -0.11579762471E+04  0.11579762471E+04  0.25500000920E-02 0. -1.
    10030    2    1    2    0    0  0.00000000000E+00  0.00000000000E+00  0.26443191462E+03  0.25803844089E+04  0.25667994585E+04 0.  0.
        3    1    3    3  502    0  0.34596027525E+03 -0.23453394987E+03 -0.10876394314E+04  0.11651842038E+04  0.10100000352E+00 0. -1.
       -3    1    3    3    0  502 -0.34596027525E+03  0.23453394987E+03  0.13520713460E+04  0.14152002052E+04  0.10100000352E+00 0.  1.
</event>
<event>
 5   0  0.3441646E-05  0.2285266E+04  0.7818609E-02  0.8483753E-01
        2   -1    0    0  501    0  0.00000000000E+00  0.00000000000E+00  0.23820820896E+04  0.23820820896E+04  0.25500000920E-02 0. -1.
       -2   -1    0    0    0  501  0.00000000000E+00  0.00000000000E+00 -0.54809604589E+03  0.54809604589E+03  0.25500000920E-02 0.  1.
    10030    2    1    2    0    0  0.00000000000E+00  0.00000000000E+00  0.18339860437E+04  0.29301781355E+04  0.22852656513E+04 0.  0.
        4    1    3    3  502    0 -0.92946246315E+03  0.51798978823E+03  0.14509111941E+04  0.17992661829E+04  0.12699999809E+01 0. -1.
       -4    1    3    3    0  502  0.92946246315E+03 -0.51798978823E+03  0.38307484967E+03  0.11309119526E+04  0.12699999809E+01 0.  1.
</event>
<event>
 5   0  0.3441646E-05  0.2625834E+04  0.7818609E-02  0.8359478E-01
       -2   -1    0    0    0  501  0.00000000000E+00  0.00000000000E+00  0.10449910404E+04  0.10449910404E+04  0.25500000920E-02 0. -1.
        2   -1    0    0  501    0  0.00000000000E+00  0.00000000000E+00 -0.16495370316E+04  0.16495370316E+04  0.25500000920E-02 0.  1.
    10030    2    1    2    0    0  0.00000000000E+00  0.00000000000E+00 -0.60454599119E+03  0.26945280719E+04  0.26258342817E+04 0.  0.
        4    1    3    3  502    0 -0.13040174770E+04  0.13441410231E+03 -0.37642029681E+03  0.13638997705E+04  0.12699999809E+01 0.  1.
       -4    1    3    3    0  502  0.13040174770E+04 -0.13441410231E+03 -0.22812569438E+03  0.13306283014E+04  0.12699999809E+01 0. -1.
</event>
<event>
 5   0  0.1497497E-05  0.2576019E+04  0.7818609E-02  0.8376393E-01
       -1   -1    0    0    0  501  0.00000000000E+00  0.00000000000E+00  0.12793185600E+04  0.12793185600E+04  0.50400001928E-02 0.  1.
        1   -1    0    0  501    0  0.00000000000E+00  0.00000000000E+00 -0.12967590083E+04  0.12967590083E+04  0.50400001928E-02 0. -1.
    10030    2    1    2    0    0  0.00000000000E+00  0.00000000000E+00 -0.17440448267E+02  0.25760775683E+04  0.25760185303E+04 0.  0.
        3    1    3    3  502    0  0.97352527394E+02 -0.37567041789E+03  0.12194618546E+04  0.12797237993E+04  0.10100000352E+00 0.  1.
       -3    1    3    3    0  502 -0.97352527394E+02  0.37567041789E+03 -0.12369023028E+04  0.12963537690E+04  0.10100000352E+00 0. -1.
</event>
<event>
 5   0  0.1497497E-05  0.2611854E+04  0.7818609E-02  0.8364186E-01
       -1   -1    0    0    0  501  0.00000000000E+00  0.00000000000E+00  0.14077618771E+04  0.14077618771E+04  0.50400001928E-02 0.  1.
        1   -1    0    0  501    0  0.00000000000E+00  0.00000000000E+00 -0.12114585137E+04  0.12114585137E+04  0.50400001928E-02 0. -1.
    10030    2    1    2    0    0  0.00000000000E+00  0.00000000000E+00  0.19630336340E+03  0.26192203908E+04  0.26118538330E+04 0.  0.
        3    1    3    3  502    0  0.11691917391E+04  0.29955057959E+03  0.59826178933E+03  0.13470920723E+04  0.10100000352E+00 0.  1.
       -3    1    3    3    0  502 -0.11691917391E+04 -0.29955057959E+03 -0.40195842593E+03  0.12721283185E+04  0.10100000352E+00 0. -1.
</event>
<event>
 5   0  0.1497497E-05  0.1834333E+04  0.7818609E-02  0.8688251E-01
        1   -1    0    0  501    0  0.00000000000E+00  0.00000000000E+00  0.11998831665E+04  0.11998831665E+04  0.50400001928E-02 0. -1.
       -1   -1    0    0    0  501  0.00000000000E+00  0.00000000000E+00 -0.70106391416E+03  0.70106391417E+03  0.50400001928E-02 0.  1.
    10030    2    1    2    0    0  0.00000000000E+00  0.00000000000E+00  0.49881925230E+03  0.19009470806E+04  0.18343334367E+04 0.  0.
        3    1    3    3  502    0  0.20797914827E+03  0.19861217685E+03 -0.65313240184E+03  0.71364141377E+03  0.10100000352E+00 0.  1.
       -3    1    3    3    0  502 -0.20797914827E+03 -0.19861217685E+03  0.11519516541E+04  0.11873056669E+04  0.10100000352E+00 0. -1.
</event>
<event>
 5   0  0.1435062E-05  0.2211864E+04  0.7818609E-02  0.8513506E-01
        1   -1    0    0  501    0  0.00000000000E+00  0.00000000000E+00  0.10906488900E+04  0.10906488900E+04  0.50400001928E-02 0. -1.
       -1   -1    0    0    0  501  0.00000000000E+00  0.00000000000E+00 -0.11214296709E+04  0.11214296709E+04  0.50400001928E-02 0.  1.
    10030    2    1    2    0    0  0.00000000000E+00  0.00000000000E+00 -0.30780780931E+02  0.22120785609E+04  0.22118643953E+04 0.  0.
        2    1    3    3  502    0  0.75015228813E+03 -0.77613643807E+03 -0.25618288702E+03  0.11093898762E+04  0.25500000920E-02 0. -1.
       -2    1    3    3    0  502 -0.75015228813E+03  0.77613643807E+03  0.22540210609E+03  0.11026886847E+04  0.25500000920E-02 0.  1.
</event>
<event>
 5   0  0.3647623E-05  0.2571024E+04  0.7818609E-02  0.8378111E-01
        2   -1    0    0  501    0  0.00000000000E+00  0.00000000000E+00  0.19500317529E+04  0.19500317529E+04  0.25500000920E-02 0. -1.
       -2   -1    0    0    0  501  0.00000000000E+00  0.00000000000E+00 -0.84744329947E+03  0.84744329948E+03  0.25500000920E-02 0.  1.
    10030    2    1    2    0    0  0.00000000000E+00  0.00000000000E+00  0.11025884534E+04  0.27974750524E+04  0.25710241872E+04 0.  0.
        3    1    3    3  502    0 -0.79214792136E+03 -0.64173089314E+02  0.16506972845E+04  0.18320529605E+04  0.10100000352E+00 0. -1.
       -3    1    3    3    0  502  0.79214792136E+03  0.64173089314E+02 -0.54810883106E+03  0.96542209193E+03  0.10100000352E+00 0.  1.
</event>
<event>
 5   0  0.3647623E-05  0.2333575E+04  0.7818609E-02  0.8464800E-01
       -2   -1    0    0    0  501  0.00000000000E+00  0.00000000000E+00  0.65044487703E+03  0.65044487704E+03  0.25500000920E-02 0.  1.
        2   -1    0    0  501    0  0.00000000000E+00  0.00000000000E+00 -0.20930178827E+04  0.20930178827E+04  0.25500000920E-02 0. -1.
    10030    2    1    2    0    0  0.00000000000E+00  0.00000000000E+00 -0.14425730057E+04  0.27434627598E+04  0.23335747336E+04 0.  0.
        3    1    3    3  502    0 -0.12333086260E+03  0.10552663833E+04 -0.12882794327E+04  0.16698687218E+04  0.10100000352E+00 0. -1.
       -3    1    3    3    0  502  0.12333086260E+03 -0.10552663833E+04 -0.15429357303E+03  0.10735940379E+04  0.10100000352E+00 0.  1.
</event>
<event>
 5   0  0.1497497E-05  0.2550412E+04  0.7818609E-02  0.8385243E-01
       -1   -1    0    0    0  501  0.00000000000E+00  0.00000000000E+00  0.79625464240E+03  0.79625464242E+03  0.50400001928E-02 0. -1.
        1   -1    0    0  501    0  0.00000000000E+00  0.00000000000E+00 -0.20422484193E+04  0.20422484193E+04  0.50400001928E-02 0.  1.
    10030    2    1    2    0    0  0.00000000000E+00  0.00000000000E+00 -0.12459937769E+04  0.28385030617E+04  0.25504115627E+04 0.  0.
        3    1    3    3  502    0 -0.75213325830E+02  0.12623384268E+04 -0.44013796802E+03  0.13389834910E+04  0.10100000352E+00 0. -1.
       -3    1    3    3    0  502  0.75213325830E+02 -0.12623384268E+04 -0.80585580887E+03  0.14995195707E+04  0.10100000352E+00 0.  1.
</event>
<event>
 5   0  0.3499642E-05  0.2607249E+04  0.7818609E-02  0.8365743E-01
        2   -1    0    0  501    0  0.00000000000E+00  0.00000000000E+00  0.17323397870E+04  0.17323397870E+04  0.25500000920E-02 0. -1.
       -2   -1    0    0    0  501  0.00000000000E+00  0.00000000000E+00 -0.98100631698E+03  0.98100631699E+03  0.25500000920E-02 0.  1.
    10030    2    1    2    0    0  0.00000000000E+00  0.00000000000E+00  0.75133347001E+03  0.27133461040E+04  0.26072485683E+04 0.  0.
        2    1    3    3  502    0  0.79419032178E+03  0.69859212574E+03  0.11686907652E+04  0.15762637247E+04  0.25500000920E-02 0. -1.
       -2    1    3    3    0  502 -0.79419032178E+03 -0.69859212574E+03 -0.41735729515E+03  0.11370823792E+04  0.25500000920E-02 0.  1.
</event>
<event>
 5   0  0.3849687E-05  0.2148575E+04  0.7818609E-02  0.8540142E-01
        2   -1    0    0  501    0  0.00000000000E+00  0.00000000000E+00  0.15294141784E+04  0.15294141784E+04  0.25500000920E-02 0.  1.
       -2   -1    0    0    0  501  0.00000000000E+00  0.00000000000E+00 -0.75459880468E+03  0.75459880468E+03  0.25500000920E-02 0. -1.
    10030    2    1    2    0    0  0.00000000000E+00  0.00000000000E+00  0.77481537372E+03  0.22840129831E+04  0.21485754452E+04 0.  0.
        1    1    3    3  502    0  0.22899346864E+03 -0.57578501955E+03  0.13202953205E+04  0.14584739048E+04  0.50400001928E-02 0.  1.
       -1    1    3    3    0  502 -0.22899346864E+03  0.57578501955E+03 -0.54547994682E+03  0.82553907832E+03  0.50400001928E-02 0. -1.
</event>
<event>
 5   0  0.3441646E-05  0.2689184E+04  0.7818609E-02  0.8338523E-01
       -2   -1    0    0    0  501  0.00000000000E+00  0.00000000000E+00  0.10986263191E+04  0.10986263191E+04  0.25500000920E-02 0. -1.
        2   -1    0    0  501    0  0.00000000000E+00  0.00000000000E+00 -0.16456261544E+04  0.16456261544E+04  0.25500000920E-02 0.  1.
    10030    2    1    2    0    0  0.00000000000E+00  0.00000000000E+00 -0.54699983526E+03  0.27442524735E+04  0.26891844151E+04 0.  0.
        4    1    3    3  502    0  0.19071761981E+03 -0.49376600505E+03 -0.15348319165E+04  0.16235420238E+04  0.12699999809E+01 0.  1.
       -4    1    3    3    0  502 -0.19071761981E+03  0.49376600505E+03  0.98783208129E+03  0.11207104497E+04  0.12699999809E+01 0. -1.
</event>
<event>
 5   0  0.1474554E-05  0.2538546E+04  0.7818609E-02  0.8389381E-01
       -1   -1    0    0    0  501  0.00000000000E+00  0.00000000000E+00  0.10540494373E+04  0.10540494373E+04  0.50400001928E-02 0.  1.
        1   -1    0    0  501    0  0.00000000000E+00  0.00000000000E+00 -0.15284427181E+04  0.15284427181E+04  0.50400001928E-02 0. -1.
    10030    2    1    2    0    0  0.00000000000E+00  0.00000000000E+00 -0.47439328081E+03  0.25824921554E+04  0.25385461879E+04 0.  0.
        5    1    3    3  502    0 -0.53173991527E+02 -0.11663669313E+04  0.26920871217E+03  0.11982214789E+04  0.46999998093E+01 0.  1.
       -5    1    3    3    0  502  0.53173991527E+02  0.11663669313E+04 -0.74360199298E+03  0.13842706765E+04  0.46999998093E+01 0. -1.
</event>
<event>
 5   0  0.3849687E-05  0.2573382E+04  0.7818609E-02  0.8377299E-01
       -2   -1    0    0    0  501  0.00000000000E+00  0.00000000000E+00  0.97583769759E+03  0.97583769760E+03  0.25500000920E-02 0. -1.
        2   -1    0    0  501    0  0.00000000000E+00  0.00000000000E+00 -0.16965671574E+04  0.16965671574E+04  0.25500000920E-02 0.  1.
    10030    2    1    2    0    0  0.00000000000E+00  0.00000000000E+00 -0.72072945976E+03  0.26724048550E+04  0.25733823569E+04 0.  0.
        1    1    3    3  502    0 -0.69682459715E+03 -0.86612666083E+02  0.75932035296E+03  0.10342309566E+04  0.50400001928E-02 0. -1.
       -1    1    3    3    0  502  0.69682459715E+03  0.86612666083E+02 -0.14800498127E+04  0.16381738984E+04  0.50400001928E-02 0.  1.
</event>
<event>
 5   0  0.3647623E-05  0.2578861E+04  0.7818609E-02  0.8375417E-01
       -2   -1    0    0    0  501  0.00000000000E+00  0.00000000000E+00  0.94358825958E+03  0.94358825959E+03  0.25500000920E-02 0.  1.
        2   -1    0    0  501    0  0.00000000000E+00  0.00000000000E+00 -0.17620306345E+04  0.17620306345E+04  0.25500000920E-02 0. -1.
    10030    2    1    2    0    0  0.00000000000E+00  0.00000000000E+00 -0.81844237493E+03  0.27056188941E+04  0.25788613144E+04 0.  0.
        3    1    3    3  502    0  0.64937645423E+03 -0.27867688097E+03 -0.15407898734E+04  0.16951059045E+04  0.10100000352E+00 0. -1.
       -3    1    3    3    0  502 -0.64937645423E+03  0.27867688097E+03  0.72234749850E+03  0.10105129896E+04  0.10100000352E+00 0.  1.
</event>
<event>
 5   0  0.1533248E-05  0.2657881E+04  0.7818609E-02  0.8348802E-01
        1   -1    0    0  501    0  0.00000000000E+00  0.00000000000E+00  0.21621877637E+04  0.21621877637E+04  0.50400001928E-02 0. -1.
       -1   -1    0    0    0  501  0.00000000000E+00  0.00000000000E+00 -0.81680372445E+03  0.81680372447E+03  0.50400001928E-02 0.  1.
    10030    2    1    2    0    0  0.00000000000E+00  0.00000000000E+00  0.13453840393E+04  0.29789914882E+04  0.26578811248E+04 0.  0.
        4    1    3    3  502    0 -0.88123736124E+03 -0.39857460874E+03  0.16941964026E+04  0.19508316352E+04  0.12699999809E+01 0. -1.
       -4    1    3    3    0  502  0.88123736124E+03  0.39857460874E+03 -0.34881236331E+03  0.10281598530E+04  0.12699999809E+01 0.  1.
</event>
<event>
 5   0  0.3508470E-05  0.2675573E+04  0.7818609E-02  0.8342974E-01
        2   -1    0    0  501    0  0.00000000000E+00  0.00000000000E+00  0.17531655706E+04  0.17531655706E+04  0.25500000920E-02 0.  1.
       -2   -1    0    0    0  501  0.00000000000E+00  0.00000000000E+00 -0.10208237514E+04  0.10208237514E+04  0.25500000920E-02 0. -1.
    10030    2    1    2    0    0  0.00000000000E+00  0.00000000000E+00  0.73234181927E+03  0.27739893220E+04  0.26755732504E+04 0.  0.
        5    1    3    3  502    0  0.12921778855E+04  0.30982638609E+03  0.20577117967E+03  0.13446486328E+04  0.46999998093E+01 0.  1.
       -5    1    3    3    0  502 -0.12921778855E+04 -0.30982638609E+03  0.52657063960E+03  0.14293406892E+04  0.46999998093E+01 0. -1.
</event>
<event>
 5   0  0.3499642E-05  0.2569151E+04  0.7818609E-02  0.8378756E-01
        2   -1    0    0  501    0  0.00000000000E+00  0.00000000000E+00  0.14292530218E+04  0.14292530218E+04  0.25500000920E-02 0. -1.
       -2   -1    0    0    0  501  0.00000000000E+00  0.00000000000E+00 -0.11545429652E+04  0.11545429653E+04  0.25500000920E-02 0.  1.
    10030    2    1    2    0    0  0.00000000000E+00  0.00000000000E+00  0.27471005658E+03  0.25837959871E+04  0.25691508495E+04 0.  0.
        2    1    3    3  502    0  0.35529745076E+03  0.12227312800E+04  0.30810494776E+03  0.13100521823E+04  0.25500000920E-02 0.  1.
       -2    1    3    3    0  502 -0.35529745076E+03 -0.12227312800E+04 -0.33394891182E+02  0.12737438048E+04  0.25500000920E-02 0. -1.
</event>
<event>
 5   0  0.3499642E-05  0.2592016E+04  0.7818609E-02  0.8370918E-01
       -2   -1    0    0    0  501  0.00000000000E+00  0.00000000000E+00  0.11578251133E+04  0.11578251133E+04  0.25500000920E-02 0. -1.
        2   -1    0    0  501    0  0.00000000000E+00  0.00000000000E+00 -0.14506823159E+04  0.14506823159E+04  0.25500000920E-02 0.  1.
    10030    2    1    2    0    0  0.00000000000E+00  0.00000000000E+00 -0.29285720262E+03  0.26085074293E+04  0.25920157537E+04 0.  0.
        2    1    3    3  502    0 -0.67996814360E+03 -0.91191400070E+03 -0.77142151338E+03  0.13744216865E+04  0.25500000920E-02 0.  1.
       -2    1    3    3    0  502  0.67996814360E+03  0.91191400070E+03  0.47856431075E+03  0.12340857428E+04  0.25500000920E-02 0. -1.
</event>
<event>
 5   0  0.1497497E-05  0.2596968E+04  0.7818609E-02  0.8369232E-01
       -1   -1    0    0    0  501  0.00000000000E+00  0.00000000000E+00  0.22281934212E+04  0.22281934212E+04  0.50400001928E-02 0.  1.
        1   -1    0    0  501    0  0.00000000000E+00  0.00000000000E+00 -0.75669393217E+03  0.75669393219E+03  0.50400001928E-02 0. -1.
    10030    2    1    2    0    0  0.00000000000E+00  0.00000000000E+00  0.14714994891E+04  0.29848873534E+04  0.25969678023E+04 0.  0.
        3    1    3    3  502    0  0.11549064334E+03 -0.77113847899E+03 -0.45764581022E+03  0.90411964932E+03  0.10100000352E+00 0. -1.
       -3    1    3    3    0  502 -0.11549064334E+03  0.77113847899E+03  0.19291452993E+04  0.20807677041E+04  0.10100000352E+00 0.  1.
</event>
<event>
 5   0  0.1435062E-05  0.1622965E+04  0.7818609E-02  0.8806562E-01
        1   -1    0    0  501    0  0.00000000000E+00  0.00000000000E+00  0.11922896279E+04  0.11922896279E+04  0.50400001928E-02 0. -1.
       -1   -1    0    0    0  501  0.00000000000E+00  0.00000000000E+00 -0.55230212693E+03  0.55230212695E+03  0.50400001928E-02 0.  1.
    10030    2    1    2    0    0  0.00000000000E+00  0.00000000000E+00  0.63998750096E+03  0.17445917548E+04  0.16229653076E+04 0.  0.
        2    1    3    3  502    0  0.33476552701E+03  0.61007695224E+03 -0.12871167056E+03  0.70769240485E+03  0.25500000920E-02 0.  1.
       -2    1    3    3    0  502 -0.33476552701E+03 -0.61007695224E+03  0.76869917152E+03  0.10368993500E+04  0.25500000920E-02 0. -1.
</event>
<event>
 5   0  0.3849687E-05  0.2848740E+04  0.7818609E-02  0.8288294E-01
        2   -1    0    0  501    0  0.00000000000E+00  0.00000000000E+00  0.26077787741E+04  0.26077787741E+04  0.25500000920E-02 0.  1.
       -2   -1    0    0    0  501  0.00000000000E+00  0.00000000000E+00 -0.77799179374E+03  0.77799179374E+03  0.25500000920E-02 0. -1.
    10030    2    1    2    0    0  0.00000000000E+00  0.00000000000E+00  0.18297869804E+04  0.33857705678E+04  0.28487404137E+04 0.  0.
        1    1    3    3  502    0 -0.13822455513E+04  0.16851377574E+03  0.55867426584E+03  0.15003721511E+04  0.50400001928E-02 0. -1.
       -1    1    3    3    0  502  0.13822455513E+04 -0.16851377574E+03  0.12711127145E+04  0.18853984167E+04  0.50400001928E-02 0.  1.
</event>
<event>
 5   0  0.1435062E-05  0.2577927E+04  0.7818609E-02  0.8375738E-01
        1   -1    0    0  501    0  0.00000000000E+00  0.00000000000E+00  0.16659617365E+04  0.16659617365E+04  0.50400001928E-02 0. -1.
       -1   -1    0    0    0  501  0.00000000000E+00  0.00000000000E+00 -0.99727780028E+03  0.99727780029E+03  0.50400001928E-02 0.  1.
    10030    2    1    2    0    0  0.00000000000E+00  0.00000000000E+00  0.66868393621E+03  0.26632395368E+04  0.25779268073E+04 0.  0.
        2    1    3    3  502    0  0.55371952727E+03 -0.58628123988E+03  0.13731511210E+04  0.15924430942E+04  0.25500000920E-02 0. -1.
       -2    1    3    3    0  502 -0.55371952727E+03  0.58628123988E+03 -0.70446718477E+03  0.10707964426E+04  0.25500000920E-02 0.  1.
</event>
<event>
 5   0  0.1474554E-05  0.2597215E+04  0.7818609E-02  0.8369148E-01
       -1   -1    0    0    0  501  0.00000000000E+00  0.00000000000E+00  0.12367986352E+04  0.12367986352E+04  0.50400001928E-02 0. -1.
        1   -1    0    0  501    0  0.00000000000E+00  0.00000000000E+00 -0.13635049428E+04  0.13635049428E+04  0.50400001928E-02 0.  1.
    10030    2    1    2    0    0  0.00000000000E+00  0.00000000000E+00 -0.12670630757E+03  0.26003035781E+04  0.25972147023E+04 0.  0.
        5    1    3    3  502    0 -0.14550362831E+03 -0.93872692635E+03 -0.94983231411E+03  0.13433477074E+04  0.46999998093E+01 0.  1.
       -5    1    3    3    0  502  0.14550362831E+03  0.93872692635E+03  0.82312600654E+03  0.12569558706E+04  0.46999998093E+01 0. -1.
</event>
<event>
 5   0  0.3508470E-05  0.2575743E+04  0.7818609E-02  0.8376488E-01
        2   -1    0    0  501    0  0.00000000000E+00  0.00000000000E+00  0.12109220159E+04  0.12109220159E+04  0.25500000920E-02 0. -1.
       -2   -1    0    0    0  501  0.00000000000E+00  0.00000000000E+00 -0.13697103370E+04  0.13697103370E+04  0.25500000920E-02 0.  1.
    10030    2    1    2    0    0  0.00000000000E+00  0.00000000000E+00 -0.15878832111E+03  0.25806323529E+04  0.25757425356E+04 0.  0.
        5    1    3    3  502    0 -0.11117601393E+04  0.78579150102E+02 -0.72591371833E+03  0.13300970290E+04  0.46999998093E+01 0.  1.
       -5    1    3    3    0  502  0.11117601393E+04 -0.78579150102E+02  0.56712539722E+03  0.12505353239E+04  0.46999998093E+01 0. -1.
</event>
<event>
 5   0  0.1435062E-05  0.2732544E+04  0.7818609E-02  0.8324522E-01
        1   -1    0    0  501    0  0.00000000000E+00  0.00000000000E+00  0.98753919491E+03  0.98753919492E+03  0.50400001928E-02 0.  1.
       -1   -1    0    0    0  501  0.00000000000E+00  0.00000000000E+00 -0.18902537942E+04  0.18902537943E+04  0.50400001928E-02 0. -1.
    10030    2    1    2    0    0  0.00000000000E+00  0.00000000000E+00 -0.90271459934E+03  0.28777929892E+04  0.27325443895E+04 0.  0.
        2    1    3    3  502    0 -0.10754233392E+04 -0.93229589098E+02  0.43070178859E+03  0.11622095962E+04  0.25500000920E-02 0.  1.
       -2    1    3    3    0  502  0.10754233392E+04  0.93229589098E+02 -0.13334163879E+04  0.17155833930E+04  0.25500000920E-02 0. -1.
</event>
<event>
 5   0  0.1497497E-05  0.2600722E+04  0.7818609E-02  0.8367956E-01
        1   -1    0    0  501    0  0.00000000000E+00  0.00000000000E+00  0.62607103220E+03  0.62607103222E+03  0.50400001928E-02 0. -1.
       -1   -1    0    0    0  501  0.00000000000E+00  0.00000000000E+00 -0.27008732311E+04  0.27008732311E+04  0.50400001928E-02 0.  1.
    10030    2    1    2    0    0  0.00000000000E+00  0.00000000000E+00 -0.20748021989E+04  0.33269442633E+04  0.26007218165E+04 0.  0.
        3    1    3    3  502    0  0.55794798902E+03 -0.48454340424E+03 -0.24061568565E+04  0.25170774913E+04  0.10100000352E+00 0.  1.
       -3    1    3    3    0  502 -0.55794798902E+03  0.48454340424E+03  0.33135465761E+03  0.80986677199E+03  0.10100000352E+00 0. -1.
</event>
<event>
 5   0  0.1474554E-05  0.2439042E+04  0.7818609E-02  0.8425030E-01
        1   -1    0    0  501    0  0.00000000000E+00  0.00000000000E+00  0.20220733553E+04  0.20220733553E+04  0.50400001928E-02 0. -1.
       -1   -1    0    0    0  501  0.00000000000E+00  0.00000000000E+00 -0.73549838607E+03  0.73549838608E+03  0.50400001928E-02 0.  1.
    10030    2    1    2    0    0  0.00000000000E+00  0.00000000000E+00  0.12865749692E+04  0.27575717414E+04  0.24390421803E+04 0.  0.
        5    1    3    3  502    0  0.26125494868E+03 -0.19231721468E+03 -0.68580971938E+03  0.75868117181E+03  0.46999998093E+01 0.  1.
       -5    1    3    3    0  502 -0.26125494868E+03  0.19231721468E+03  0.19723846886E+04  0.19988905696E+04  0.46999998093E+01 0. -1.
</event>
<event>
 5   0  0.3499642E-05  0.2417411E+04  0.7818609E-02  0.8433014E-01
       -2   -1    0    0    0  501  0.00000000000E+00  0.00000000000E+00  0.11581924843E+04  0.11581924843E+04  0.25500000920E-02 0. -1.
        2   -1    0    0  501    0  0.00000000000E+00  0.00000000000E+00 -0.12614211872E+04  0.12614211872E+04  0.25500000920E-02 0.  1.
    10030    2    1    2    0    0  0.00000000000E+00  0.00000000000E+00 -0.10322870294E+03  0.24196136715E+04  0.24174106300E+04 0.  0.
        2    1    3    3  502    0  0.66568327173E+03 -0.96961477039E+03 -0.33058239211E+03  0.12217085328E+04  0.25500000920E-02 0.  1.
       -2    1    3    3    0  502 -0.66568327173E+03  0.96961477039E+03  0.22735368916E+03  0.11979051386E+04  0.25500000920E-02 0. -1.
</event>
<event>
 5   0  0.3849687E-05  0.2557581E+04  0.7818609E-02  0.8382754E-01
        2   -1    0    0  501    0  0.00000000000E+00  0.00000000000E+00  0.22812323209E+04  0.22812323209E+04  0.25500000920E-02 0. -1.
       -2   -1    0    0    0  501  0.00000000000E+00  0.00000000000E+00 -0.71685171639E+03  0.71685171639E+03  0.25500000920E-02 0.  1.
    10030    2    1    2    0    0  0.00000000000E+00  0.00000000000E+00  0.15643806045E+04  0.29980840373E+04  0.25575811266E+04 0.  0.
        1    1    3    3  502    0  0.40176624101E+03 -0.84332366775E+03  0.18059302676E+04  0.20332228241E+04  0.50400001928E-02 0. -1.
       -1    1    3    3    0  502 -0.40176624101E+03  0.84332366775E+03 -0.24154966307E+03  0.96486121321E+03  0.50400001928E-02 0.  1.
</event>
<event>
 5   0  0.1497497E-05  0.2782181E+04  0.7818609E-02  0.8308822E-01
        1   -1    0    0  501    0  0.00000000000E+00  0.00000000000E+00  0.12508298303E+04  0.12508298303E+04  0.50400001928E-02 0.  1.
       -1   -1    0    0    0  501  0.00000000000E+00  0.00000000000E+00 -0.15470796683E+04  0.15470796683E+04  0.50400001928E-02 0. -1.
    10030    2    1    2    0    0  0.00000000000E+00  0.00000000000E+00 -0.29624983806E+03  0.27979094986E+04  0.27821814455E+04 0.  0.
        3    1    3    3  502    0  0.21539741271E+02  0.16109656564E+03  0.12412486106E+04  0.12518443144E+04  0.10100000352E+00 0.  1.
       -3    1    3    3    0  502 -0.21539741271E+02 -0.16109656564E+03 -0.15374984487E+04  0.15460651842E+04  0.10100000352E+00 0. -1.
</event>
<event>
 5   0  0.3849687E-05  0.2620262E+04  0.7818609E-02  0.8361351E-01
       -2   -1    0    0    0  501  0.00000000000E+00  0.00000000000E+00  0.22735418386E+04  0.22735418386E+04  0.25500000920E-02 0.  1.
        2   -1    0    0  501    0  0.00000000000E+00  0.00000000000E+00 -0.75496449960E+03  0.75496449961E+03  0.25500000920E-02 0. -1.
    10030    2    1    2    0    0  0.00000000000E+00  0.00000000000E+00  0.15185773390E+04  0.30285063382E+04  0.26202621064E+04 0.  0.
        1    1    3    3  502    0 -0.97890792773E+03  0.14703523386E+03 -0.23265905241E+03  0.10168629827E+04  0.50400001928E-02 0. -1.
       -1    1    3    3    0  502  0.97890792773E+03 -0.14703523386E+03  0.17512363914E+04  0.20116433555E+04  0.50400001928E-02 0.  1.
</event>
<event>
 5   0  0.3849687E-05  0.2618784E+04  0.7818609E-02  0.8361849E-01
       -2   -1    0    0    0  501  0.00000000000E+00  0.00000000000E+00  0.10788049286E+04  0.10788049286E+04  0.25500000920E-02 0. -1.
        2   -1    0    0  501    0  0.00000000000E+00  0.00000000000E+00 -0.15892648903E+04  0.15892648903E+04  0.25500000920E-02 0.  1.
    10030    2    1    2    0    0  0.00000000000E+00  0.00000000000E+00 -0.51045996171E+03  0.26680698189E+04  0.26187835318E+04 0.  0.
        1    1    3    3  502    0  0.61496332937E+03 -0.73101912141E+03 -0.11675936233E+04  0.15085899780E+04  0.50400001928E-02 0.  1.
       -1    1    3    3    0  502 -0.61496332937E+03  0.73101912141E+03  0.65713366163E+03  0.11594798410E+04  0.50400001928E-02 0. -1.
</event>
<event>
 5   0  0.3508470E-05  0.2636658E+04  0.7818609E-02  0.8355855E-01
       -2   -1    0    0    0  501  0.00000000000E+00  0.00000000000E+00  0.14293327589E+04  0.14293327589E+04  0.25500000920E-02 0.  1.
        2   -1    0    0  501    0  0.00000000000E+00  0.00000000000E+00 -0.12159458730E+04  0.12159458730E+04  0.25500000920E-02 0. -1.
    10030    2    1    2    0    0  0.00000000000E+00  0.00000000000E+00  0.21338688589E+03  0.26452786319E+04  0.26366579371E+04 0.  0.
        5    1    3    3  502    0 -0.77293109943E+03  0.96851753376E+03  0.55818757336E+03  0.13590600262E+04  0.46999998093E+01 0.  1.
       -5    1    3    3    0  502  0.77293109943E+03 -0.96851753376E+03 -0.34480068747E+03  0.12862186057E+04  0.46999998093E+01 0. -1.
</event>
<event>
 5   0  0.3647623E-05  0.2557368E+04  0.7818609E-02  0.8382828E-01
        2   -1    0    0  501    0  0.00000000000E+00  0.00000000000E+00  0.17729223985E+04  0.17729223985E+04  0.25500000920E-02 0.  1.
       -2   -1    0    0    0  501  0.00000000000E+00  0.00000000000E+00 -0.92222461897E+03  0.92222461897E+03  0.25500000920E-02 0. -1.
    10030    2    1    2    0    0  0.00000000000E+00  0.00000000000E+00  0.85069777953E+03  0.26951470175E+04  0.25573679308E+04 0.  0.
        3    1    3    3  502    0 -0.14129651846E+03  0.12126621414E+04  0.24711972905E+02  0.12211162382E+04  0.10100000352E+00 0. -1.
       -3    1    3    3    0  502  0.14129651846E+03 -0.12126621414E+04  0.82598580662E+03  0.14740307793E+04  0.10100000352E+00 0.  1.
</event>
<event>
 5   0  0.1451052E-05  0.1807886E+04  0.7818609E-02  0.8702117E-01
       -1   -1    0    0    0  501  0.00000000000E+00  0.00000000000E+00  0.51113398370E+03  0.51113398373E+03  0.50400001928E-02 0. -1.
        1   -1    0    0  501    0  0.00000000000E+00  0.00000000000E+00 -0.15986279491E+04  0.15986279491E+04  0.50400001928E-02 0.  1.
    10030    2    1    2    0    0  0.00000000000E+00  0.00000000000E+00 -0.10874939654E+04  0.21097619328E+04  0.18078861381E+04 0.  0.
        1    1    3    3  502    0  0.58076527081E+03 -0.23425503248E+03  0.21698375202E+03  0.66275611554E+03  0.50400001928E-02 0. -1.
       -1    1    3    3    0  502 -0.58076527081E+03  0.23425503248E+03 -0.13044777174E+04  0.14470058173E+04  0.50400001928E-02 0.  1.
</event>
<event>
 5   0  0.1451052E-05  0.2587750E+04  0.7818609E-02  0.8372374E-01
       -1   -1    0    0    0  501  0.00000000000E+00  0.00000000000E+00  0.11725250807E+04  0.11725250807E+04  0.50400001928E-02 0.  1.
        1   -1    0    0  501    0  0.00000000000E+00  0.00000000000E+00 -0.14277839337E+04  0.14277839337E+04  0.50400001928E-02 0. -1.
    10030    2    1    2    0    0  0.00000000000E+00  0.00000000000E+00 -0.25525885302E+03  0.26003090145E+04  0.25877499664E+04 0.  0.
        1    1    3    3  502    0 -0.10357530964E+03 -0.12495494203E+04  0.19331207753E+03  0.12686493439E+04  0.50400001928E-02 0.  1.
       -1    1    3    3    0  502  0.10357530964E+03  0.12495494203E+04 -0.44857093055E+03  0.13316596706E+04  0.50400001928E-02 0. -1.
</event>
<event>
 5   0  0.1451052E-05  0.2596344E+04  0.7818609E-02  0.8369444E-01
       -1   -1    0    0    0  501  0.00000000000E+00  0.00000000000E+00  0.93004540951E+03  0.93004540953E+03  0.50400001928E-02 0.  1.
        1   -1    0    0  501    0  0.00000000000E+00  0.00000000000E+00 -0.18120084206E+04  0.18120084207E+04  0.50400001928E-02 0. -1.
    10030    2    1    2    0    0  0.00000000000E+00  0.00000000000E+00 -0.88196301114E+03  0.27420538302E+04  0.25963436704E+04 0.  0.
        1    1    3    3  502    0  0.91539575101E+03 -0.86252726516E+03 -0.78050019024E+03  0.14802307966E+04  0.50400001928E-02 0. -1.
       -1    1    3    3    0  502 -0.91539575101E+03  0.86252726516E+03 -0.10146282089E+03  0.12618230336E+04  0.50400001928E-02 0.  1.
</event>
<event>
 5   0  0.3508470E-05  0.2531808E+04  0.7818609E-02  0.8391741E-01
       -2   -1    0    0    0  501  0.00000000000E+00  0.00000000000E+00  0.11733561027E+04  0.11733561027E+04  0.25500000920E-02 0. -1.
        2   -1    0    0  501    0  0.00000000000E+00  0.00000000000E+00 -0.13657513501E+04  0.13657513501E+04  0.25500000920E-02 0.  1.
    10030    2    1    2    0    0  0.00000000000E+00  0.00000000000E+00 -0.19239524745E+03  0.25391074528E+04  0.25318077979E+04 0.  0.
        5    1    3    3  502    0  0.44085859337E+02  0.97562405126E+03 -0.90394188721E+03  0.13307587602E+04  0.46999998093E+01 0.  1.
       -5    1    3    3    0  502 -0.44085859337E+02 -0.97562405126E+03  0.71154663976E+03  0.12083486926E+04  0.46999998093E+01 0. -1.
</event>
<event>
 5   0  0.3849687E-05  0.2588977E+04  0.7818609E-02  0.8371955E-01
       -2   -1    0    0    0  501  0.00000000000E+00  0.00000000000E+00  0.84201009200E+03  0.84201009200E+03  0.25500000920E-02 0.  1.
        2   -1    0    0  501    0  0.00000000000E+00  0.00000000000E+00 -0.19901191291E+04  0.19901191292E+04  0.25500000920E-02 0. -1.
    10030    2    1    2    0    0  0.00000000000E+00  0.00000000000E+00 -0.11481090371E+04  0.28321292212E+04  0.25889769339E+04 0.  0.
        1    1    3    3  502    0 -0.44172175468E+03 -0.91533901635E+03  0.30294924269E+03  0.10605384798E+04  0.50400001928E-02 0.  1.
       -1    1    3    3    0  502  0.44172175468E+03  0.91533901635E+03 -0.14510582798E+04  0.17715907414E+04  0.50400001928E-02 0. -1.
</event>
<event>
 5   0  0.1474554E-05  0.2623097E+04  0.7818609E-02  0.8360398E-01
       -1   -1    0    0    0  501  0.00000000000E+00  0.00000000000E+00  0.12602453068E+04  0.12602453068E+04  0.50400001928E-02 0.  1.
        1   -1    0    0  501    0  0.00000000000E+00  0.00000000000E+00 -0.13649397740E+04  0.13649397740E+04  0.50400001928E-02 0. -1.
    10030    2    1    2    0    0  0.00000000000E+00  0.00000000000E+00 -0.10469446721E+03  0.26251850809E+04  0.26230966009E+04 0.  0.
        5    1    3    3  502    0  0.96038181979E+03 -0.88634217287E+03 -0.16289407335E+03  0.13170012363E+04  0.46999998093E+01 0. -1.
       -5    1    3    3    0  502 -0.96038181979E+03  0.88634217287E+03  0.58199606132E+02  0.13081838446E+04  0.46999998093E+01 0.  1.
</event>
<event>
 5   0  0.1474554E-05  0.2613117E+04  0.7818609E-02  0.8363759E-01
       -1   -1    0    0    0  501  0.00000000000E+00  0.00000000000E+00  0.61147881203E+03  0.61147881205E+03  0.50400001928E-02 0. -1.
        1   -1    0    0  501    0  0.00000000000E+00  0.00000000000E+00 -0.27917487565E+04  0.27917487565E+04  0.50400001928E-02 0.  1.
    10030    2    1    2    0    0  0.00000000000E+00  0.00000000000E+00 -0.21802699445E+04  0.34032275686E+04  0.26131170760E+04 0.  0.
        5    1    3    3  502    0  0.66854270693E+03 -0.78790965253E+03 -0.21314736489E+04  0.23687450216E+04  0.46999998093E+01 0.  1.
       -5    1    3    3    0  502 -0.66854270693E+03  0.78790965253E+03 -0.48796295618E+02  0.10344825470E+04  0.46999998093E+01 0. -1.
</event>
<event>
 5   0  0.3849687E-05  0.2597235E+04  0.7818609E-02  0.8369141E-01
       -2   -1    0    0    0  501  0.00000000000E+00  0.00000000000E+00  0.11548411882E+04  0.11548411882E+04  0.25500000920E-02 0.  1.
        2   -1    0    0  501    0  0.00000000000E+00  0.00000000000E+00 -0.14602933545E+04  0.14602933545E+04  0.25500000920E-02 0. -1.
    10030    2    1    2    0    0  0.00000000000E+00  0.00000000000E+00 -0.30545216631E+03  0.26151345428E+04  0.25972346161E+04 0.  0.
        1    1    3    3  502    0 -0.27011174708E+03 -0.14400812037E+03 -0.14234493011E+04  0.14559899064E+04  0.50400001928E-02 0. -1.
       -1    1    3    3    0  502  0.27011174708E+03  0.14400812037E+03  0.11179971348E+04  0.11591446364E+04  0.50400001928E-02 0.  1.
</event>
<event>
 5   0  0.1497497E-05  0.2719962E+04  0.7818609E-02  0.8328557E-01
       -1   -1    0    0    0  501  0.00000000000E+00  0.00000000000E+00  0.13235853797E+04  0.13235853797E+04  0.50400001928E-02 0. -1.
        1   -1    0    0  501    0  0.00000000000E+00  0.00000000000E+00 -0.13973778874E+04  0.13973778874E+04  0.50400001928E-02 0.  1.
    10030    2    1    2    0    0  0.00000000000E+00  0.00000000000E+00 -0.73792507640E+02  0.27209632671E+04  0.27199624569E+04 0.  0.
        3    1    3    3  502    0  0.36593812389E+03  0.41386993549E+03  0.12062797569E+04  0.13267667075E+04  0.10100000352E+00 0. -1.
       -3    1    3    3    0  502 -0.36593812389E+03 -0.41386993549E+03 -0.12800722646E+04  0.13941965596E+04  0.10100000352E+00 0.  1.
</event>
<event>
 5   0  0.1435062E-05  0.2660389E+04  0.7818609E-02  0.8347973E-01
        1   -1    0    0  501    0  0.00000000000E+00  0.00000000000E+00  0.16657981836E+04  0.16657981836E+04  0.50400001928E-02 0.  1.
       -1   -1    0    0    0  501  0.00000000000E+00  0.00000000000E+00 -0.10622039409E+04  0.10622039409E+04  0.50400001928E-02 0. -1.
    10030    2    1    2    0    0  0.00000000000E+00  0.00000000000E+00  0.60359424271E+03  0.27280021245E+04  0.26603889906E+04 0.  0.
        2    1    3    3  502    0 -0.65079273566E+03 -0.56067958951E+03 -0.73965511965E+03  0.11335706784E+04  0.25500000920E-02 0. -1.
       -2    1    3    3    0  502  0.65079273566E+03  0.56067958951E+03  0.13432493624E+04  0.15944314461E+04  0.25500000920E-02 0.  1.
</event>
<event>
 5   0  0.1533248E-05  0.2583934E+04  0.7818609E-02  0.8373679E-01
       -1   -1    0    0    0  501  0.00000000000E+00  0.00000000000E+00  0.97343327157E+03  0.97343327159E+03  0.50400001928E-02 0. -1.
        1   -1    0    0  501    0  0.00000000000E+00  0.00000000000E+00 -0.17147335511E+04  0.17147335511E+04  0.50400001928E-02 0.  1.
    10030    2    1    2    0    0  0.00000000000E+00  0.00000000000E+00 -0.74130027952E+03  0.26881668227E+04  0.25839339702E+04 0.  0.
        4    1    3    3  502    0  0.10679675914E+04 -0.48782948689E+03  0.19021184430E+03  0.11894177328E+04  0.12699999809E+01 0.  1.
       -4    1    3    3    0  502 -0.10679675914E+04  0.48782948689E+03 -0.93151212382E+03  0.14987490898E+04  0.12699999809E+01 0. -1.
</event>
<event>
 5   0  0.1533248E-05  0.2599055E+04  0.7818609E-02  0.8368522E-01
        1   -1    0    0  501    0  0.00000000000E+00  0.00000000000E+00  0.13571553869E+04  0.13571553869E+04  0.50400001928E-02 0.  1.
       -1   -1    0    0    0  501  0.00000000000E+00  0.00000000000E+00 -0.12443466302E+04  0.12443466302E+04  0.50400001928E-02 0. -1.
    10030    2    1    2    0    0  0.00000000000E+00  0.00000000000E+00  0.11280875669E+03  0.26015020171E+04  0.25990550070E+04 0.  0.
        4    1    3    3  502    0 -0.23058118880E+03 -0.80510924051E+03 -0.93821197881E+03  0.12576215265E+04  0.12699999809E+01 0. -1.
       -4    1    3    3    0  502  0.23058118880E+03  0.80510924051E+03  0.10510207355E+04  0.13438804906E+04  0.12699999809E+01 0.  1.
</event>
<event>
 5   0  0.1451052E-05  0.2589572E+04  0.7818609E-02  0.8371752E-01
       -1   -1    0    0    0  501  0.00000000000E+00  0.00000000000E+00  0.66689813851E+03  0.66689813853E+03  0.50400001928E-02 0. -1.
        1   -1    0    0  501    0  0.00000000000E+00  0.00000000000E+00 -0.25138329194E+04  0.25138329194E+04  0.50400001928E-02 0.  1.
    10030    2    1    2    0    0  0.00000000000E+00  0.00000000000E+00 -0.18469347809E+04  0.31807310580E+04  0.25895717751E+04 0.  0.
        1    1    3    3  502    0 -0.14458389013E+01  0.61091067941E+02 -0.25120607236E+04  0.25128038698E+04  0.50400001928E-02 0.  1.
       -1    1    3    3    0  502  0.14458389013E+01 -0.61091067941E+02  0.66512594268E+03  0.66792718816E+03  0.50400001928E-02 0. -1.
</event>
<event>
 5   0  0.1497497E-05  0.2575986E+04  0.7818609E-02  0.8376404E-01
        1   -1    0    0  501    0  0.00000000000E+00  0.00000000000E+00  0.17023309066E+04  0.17023309066E+04  0.50400001928E-02 0.  1.
       -1   -1    0    0    0  501  0.00000000000E+00  0.00000000000E+00 -0.97450240205E+03  0.97450240207E+03  0.50400001928E-02 0. -1.
    10030    2    1    2    0    0  0.00000000000E+00  0.00000000000E+00  0.72782850457E+03  0.26768333087E+04  0.25759856813E+04 0.  0.
        3    1    3    3  502    0  0.24597083979E+03 -0.38661111424E+03  0.16147648570E+04  0.16785217786E+04  0.10100000352E+00 0.  1.
       -3    1    3    3    0  502 -0.24597083979E+03  0.38661111424E+03 -0.88693635242E+03  0.99831153010E+03  0.10100000352E+00 0. -1.
</event>
<event>
 5   0  0.1533248E-05  0.2637920E+04  0.7818609E-02  0.8355434E-01
        1   -1    0    0  501    0  0.00000000000E+00  0.00000000000E+00  0.19646976188E+04  0.19646976188E+04  0.50400001928E-02 0. -1.
       -1   -1    0    0    0  501  0.00000000000E+00  0.00000000000E+00 -0.88545680114E+03  0.88545680115E+03  0.50400001928E-02 0.  1.
    10030    2    1    2    0    0  0.00000000000E+00  0.00000000000E+00  0.10792408176E+04  0.28501544199E+04  0.26379195353E+04 0.  0.
        4    1    3    3  502    0 -0.10124825512E+04 -0.82247980197E+03  0.32883656104E+03  0.13452616987E+04  0.12699999809E+01 0.  1.
       -4    1    3    3    0  502  0.10124825512E+04  0.82247980197E+03  0.75040425658E+03  0.15048927212E+04  0.12699999809E+01 0. -1.
</event>
<event>
 5   0  0.3508470E-05  0.2618724E+04  0.7818609E-02  0.8361869E-01
        2   -1    0    0  501    0  0.00000000000E+00  0.00000000000E+00  0.23146078406E+04  0.23146078406E+04  0.25500000920E-02 0. -1.
       -2   -1    0    0    0  501  0.00000000000E+00  0.00000000000E+00 -0.74069927300E+03  0.74069927300E+03  0.25500000920E-02 0.  1.
    10030    2    1    2    0    0  0.00000000000E+00  0.00000000000E+00  0.15739085676E+04  0.30553071136E+04  0.26187236164E+04 0.  0.
        5    1    3    3  502    0  0.47047265442E+03 -0.76029687757E+03 -0.32908175805E+03  0.95273960455E+03  0.46999998093E+01 0.  1.
       -5    1    3    3    0  502 -0.47047265442E+03  0.76029687757E+03  0.19029903257E+04  0.21025675091E+04  0.46999998093E+01 0. -1.
</event>
<event>
 5   0  0.1435062E-05  0.2549814E+04  0.7818609E-02  0.8385451E-01
       -1   -1    0    0    0  501  0.00000000000E+00  0.00000000000E+00  0.11535838196E+04  0.11535838196E+04  0.50400001928E-02 0. -1.
        1   -1    0    0  501    0  0.00000000000E+00  0.00000000000E+00 -0.14089893547E+04  0.14089893547E+04  0.50400001928E-02 0.  1.
    10030    2    1    2    0    0  0.00000000000E+00  0.00000000000E+00 -0.25540553504E+03  0.25625731743E+04  0.25498135788E+04 0.  0.
        2    1    3    3  502    0  0.10279865111E+04 -0.73316017025E+03 -0.30495774576E+03  0.12989531666E+04  0.25500000920E-02 0.  1.
       -2    1    3    3    0  502 -0.10279865111E+04  0.73316017025E+03  0.49552210721E+02  0.12636200077E+04  0.25500000920E-02 0. -1.
</event>
<event>
 5   0  0.1497497E-05  0.2637836E+04  0.7818609E-02  0.8355462E-01
       -1   -1    0    0    0  501  0.00000000000E+00  0.00000000000E+00  0.82318636361E+03  0.82318636363E+03  0.50400001928E-02 0.  1.
        1   -1    0    0  501    0  0.00000000000E+00  0.00000000000E+00 -0.21131839696E+04  0.21131839696E+04  0.50400001928E-02 0. -1.
    10030    2    1    2    0    0  0.00000000000E+00  0.00000000000E+00 -0.12899976060E+04  0.29363703333E+04  0.26378356489E+04 0.  0.
        3    1    3    3  502    0 -0.10852153396E+04 -0.58489821979E+03 -0.11668221918E+04  0.16974310879E+04  0.10100000352E+00 0. -1.
       -3    1    3    3    0  502  0.10852153396E+04  0.58489821979E+03 -0.12317541419E+03  0.12389392453E+04  0.10100000352E+00 0.  1.
</event>
<event>
 5   0  0.1435062E-05  0.2599735E+04  0.7818609E-02  0.8368291E-01
       -1   -1    0    0    0  501  0.00000000000E+00  0.00000000000E+00  0.11394144764E+04  0.11394144764E+04  0.50400001928E-02 0. -1.
        1   -1    0    0  501    0  0.00000000000E+00  0.00000000000E+00 -0.14829156732E+04  0.14829156732E+04  0.50400001928E-02 0.  1.
    10030    2    1    2    0    0  0.00000000000E+00  0.00000000000E+00 -0.34350119674E+03  0.26223301496E+04  0.25997350521E+04 0.  0.
        2    1    3    3  502    0 -0.98011343974E+03 -0.32624898193E+03  0.62415403728E+03  0.12069088678E+04  0.25500000920E-02 0. -1.
       -2    1    3    3    0  502  0.98011343974E+03  0.32624898193E+03 -0.96765523402E+03  0.14154212818E+04  0.25500000920E-02 0.  1.
</event>
<event>
 5   0  0.3849687E-05  0.2523811E+04  0.7818609E-02  0.8394551E-01
       -2   -1    0    0    0  501  0.00000000000E+00  0.00000000000E+00  0.14711603563E+04  0.14711603563E+04  0.25500000920E-02 0.  1.
        2   -1    0    0  501    0  0.00000000000E+00  0.00000000000E+00 -0.10824148749E+04  0.10824148749E+04  0.25500000920E-02 0. -1.
    10030    2    1    2    0    0  0.00000000000E+00  0.00000000000E+00  0.38874548135E+03  0.25535752312E+04  0.25238112870E+04 0.  0.
        1    1    3    3  502    0 -0.15578599710E+03  0.68911795832E+03 -0.86354553799E+03  0.11157346161E+04  0.50400001928E-02 0. -1.
       -1    1    3    3    0  502  0.15578599710E+03 -0.68911795832E+03  0.12522910193E+04  0.14378406151E+04  0.50400001928E-02 0.  1.
</event>
<event>
 5   0  0.1451052E-05  0.2592935E+04  0.7818609E-02  0.8370605E-01
        1   -1    0    0  501    0  0.00000000000E+00  0.00000000000E+00  0.12466593846E+04  0.12466593846E+04  0.50400001928E-02 0. -1.
       -1   -1    0    0    0  501  0.00000000000E+00  0.00000000000E+00 -0.13482659664E+04  0.13482659665E+04  0.50400001928E-02 0.  1.
    10030    2    1    2    0    0  0.00000000000E+00  0.00000000000E+00 -0.10160658181E+03  0.25949253511E+04  0.25929353406E+04 0.  0.
        1    1    3    3  502    0 -0.67955827354E+03 -0.32691188654E+03  0.10045949044E+04  0.12561376320E+04  0.50400001928E-02 0. -1.
       -1    1    3    3    0  502  0.67955827354E+03  0.32691188654E+03 -0.11062014862E+04  0.13387877191E+04  0.50400001928E-02 0.  1.
</event>
<event>
 5   0  0.3499642E-05  0.2627164E+04  0.7818609E-02  0.8359032E-01
        2   -1    0    0  501    0  0.00000000000E+00  0.00000000000E+00  0.11351666414E+04  0.11351666414E+04  0.25500000920E-02 0.  1.
       -2   -1    0    0    0  501  0.00000000000E+00  0.00000000000E+00 -0.15200391532E+04  0.15200391532E+04  0.25500000920E-02 0. -1.
    10030    2    1    2    0    0  0.00000000000E+00  0.00000000000E+00 -0.38487251187E+03  0.26552057946E+04  0.26271640530E+04 0.  0.
        2    1    3    3  502    0  0.12816331825E+04  0.28791693645E+03 -0.19671984615E+03  0.13282238044E+04  0.25500000920E-02 0.  1.
       -2    1    3    3    0  502 -0.12816331825E+04 -0.28791693645E+03 -0.18815266572E+03  0.13269819902E+04  0.25500000920E-02 0. -1.
</event>
<event>
 5   0  0.1217200E-05  0.2534325E+04  0.7818609E-02  0.8390858E-01
       -3   -1    0    0    0  501  0.00000000000E+00  0.00000000000E+00  0.23524433330E+04  0.23524433352E+04  0.10100000352E+00 0. -1.
        3   -1    0    0  501    0  0.00000000000E+00  0.00000000000E+00 -0.68256739514E+03  0.68256740261E+03  0.10100000352E+00 0.  1.
    10030    2    1    2    0    0  0.00000000000E+00  0.00000000000E+00  0.16698759379E+04  0.30350107378E+04  0.25343252614E+04 0.  0.
        4    1    3    3  502    0 -0.28974987919E+03 -0.29709789749E+03  0.22687535633E+04  0.23063968646E+04  0.12699999809E+01 0. -1.
       -4    1    3    3    0  502  0.28974987919E+03  0.29709789749E+03 -0.59887762538E+03  0.72861387323E+03  0.12699999809E+01 0.  1.
</event>
<event>
 5   0  0.1451052E-05  0.1705744E+04  0.7818609E-02  0.8758095E-01
       -1   -1    0    0    0  501  0.00000000000E+00  0.00000000000E+00  0.10945044113E+04  0.10945044114E+04  0.50400001928E-02 0. -1.
        1   -1    0    0  501    0  0.00000000000E+00  0.00000000000E+00 -0.66458418922E+03  0.66458418924E+03  0.50400001928E-02 0.  1.
    10030    2    1    2    0    0  0.00000000000E+00  0.00000000000E+00  0.42992022212E+03  0.17590886006E+04  0.17057436230E+04 0.  0.
        1    1    3    3  502    0 -0.19194448576E+03  0.16591000946E+03  0.10546864336E+04  0.10847729209E+04  0.50400001928E-02 0. -1.
       -1    1    3    3    0  502  0.19194448576E+03 -0.16591000946E+03 -0.62476621143E+03  0.67431567966E+03  0.50400001928E-02 0.  1.
</event>
<event>
 5   0  0.1497497E-05  0.2596280E+04  0.7818609E-02  0.8369466E-01
       -1   -1    0    0    0  501  0.00000000000E+00  0.00000000000E+00  0.17627974129E+04  0.17627974129E+04  0.50400001928E-02 0. -1.
        1   -1    0    0  501    0  0.00000000000E+00  0.00000000000E+00 -0.95596182921E+03  0.95596182922E+03  0.50400001928E-02 0.  1.
    10030    2    1    2    0    0  0.00000000000E+00  0.00000000000E+00  0.80683558364E+03  0.27187592421E+04  0.25962796763E+04 0.  0.
        3    1    3    3  502    0 -0.11899482230E+04  0.51794614334E+03  0.43521552269E+03  0.13688161097E+04  0.10100000352E+00 0. -1.
       -3    1    3    3    0  502  0.11899482230E+04 -0.51794614334E+03  0.37162006095E+03  0.13499431324E+04  0.10100000352E+00 0.  1.
</event>
<event>
 5   0  0.3647623E-05  0.2560411E+04  0.7818609E-02  0.8381775E-01
       -2   -1    0    0    0  501  0.00000000000E+00  0.00000000000E+00  0.96436140077E+03  0.96436140078E+03  0.25500000920E-02 0.  1.
        2   -1    0    0  501    0  0.00000000000E+00  0.00000000000E+00 -0.16994930835E+04  0.16994930835E+04  0.25500000920E-02 0. -1.
    10030    2    1    2    0    0  0.00000000000E+00  0.00000000000E+00 -0.73513168270E+03  0.26638544842E+04  0.25604105379E+04 0.  0.
        3    1    3    3  502    0  0.76430067509E+03 -0.15769969814E+03  0.68827532298E+03  0.10405516072E+04  0.10100000352E+00 0.  1.
       -3    1    3    3    0  502 -0.76430067509E+03  0.15769969814E+03 -0.14234070057E+04  0.16233028771E+04  0.10100000352E+00 0. -1.
</event>
<event>
 5   0  0.3441646E-05  0.2584326E+04  0.7818609E-02  0.8373545E-01
        2   -1    0    0  501    0  0.00000000000E+00  0.00000000000E+00  0.78107991767E+03  0.78107991767E+03  0.25500000920E-02 0. -1.
       -2   -1    0    0    0  501  0.00000000000E+00  0.00000000000E+00 -0.21376631586E+04  0.21376631586E+04  0.25500000920E-02 0.  1.
    10030    2    1    2    0    0  0.00000000000E+00  0.00000000000E+00 -0.13565832409E+04  0.29187430762E+04  0.25843264220E+04 0.  0.
        4    1    3    3  502    0 -0.10635688168E+04 -0.72665865609E+03 -0.56271280038E+03  0.14056524247E+04  0.12699999809E+01 0. -1.
       -4    1    3    3    0  502  0.10635688168E+04  0.72665865609E+03 -0.79387044052E+03  0.15130906515E+04  0.12699999809E+01 0.  1.
</event>
<event>
 5   0  0.1451052E-05  0.2621109E+04  0.7818609E-02  0.8361066E-01
       -1   -1    0    0    0  501  0.00000000000E+00  0.00000000000E+00  0.15010267790E+04  0.15010267790E+04  0.50400001928E-02 0. -1.
        1   -1    0    0  501    0  0.00000000000E+00  0.00000000000E+00 -0.11442519302E+04  0.11442519303E+04  0.50400001928E-02 0.  1.
    10030    2    1    2    0    0  0.00000000000E+00  0.00000000000E+00  0.35677484876E+03  0.26452787093E+04  0.26211087648E+04 0.  0.
        1    1    3    3  502    0 -0.99809940601E+03  0.64484776801E+02 -0.67629374558E+03  0.12073665314E+04  0.50400001928E-02 0.  1.
       -1    1    3    3    0  502  0.99809940601E+03 -0.64484776801E+02  0.10330685943E+04  0.14379121779E+04  0.50400001928E-02 0. -1.
</event>
<event>
 5   0  0.1474554E-05  0.2604670E+04  0.7818609E-02  0.8366617E-01
       -1   -1    0    0    0  501  0.00000000000E+00  0.00000000000E+00  0.79362387067E+03  0.79362387068E+03  0.50400001928E-02 0.  1.
        1   -1    0    0  501    0  0.00000000000E+00  0.00000000000E+00 -0.21371280087E+04  0.21371280087E+04  0.50400001928E-02 0. -1.
    10030    2    1    2    0    0  0.00000000000E+00  0.00000000000E+00 -0.13435041380E+04  0.29307518794E+04  0.26046695010E+04 0.  0.
        5    1    3    3  502    0  0.93193442166E+03  0.55873777563E+03 -0.14795141929E+04  0.18356671825E+04  0.46999998093E+01 0. -1.
       -5    1    3    3    0  502 -0.93193442166E+03 -0.55873777563E+03  0.13601005485E+03  0.10950846968E+04  0.46999998093E+01 0.  1.
</event>
<event>
 5   0  0.3647623E-05  0.2813263E+04  0.7818609E-02  0.8299163E-01
        2   -1    0    0  501    0  0.00000000000E+00  0.00000000000E+00  0.21102281159E+04  0.21102281159E+04  0.25500000920E-02 0. -1.
       -2   -1    0    0    0  501  0.00000000000E+00  0.00000000000E+00 -0.93762919121E+03  0.93762919121E+03  0.25500000920E-02 0.  1.
    10030    2    1    2    0    0  0.00000000000E+00  0.00000000000E+00  0.11725989247E+04  0.30478573071E+04  0.28132625058E+04 0.  0.
        3    1    3    3  502    0 -0.11782052557E+04  0.73896025633E+03  0.81453632194E+03  0.16117379797E+04  0.10100000352E+00 0. -1.
       -3    1    3    3    0  502  0.11782052557E+04 -0.73896025633E+03  0.35806260278E+03  0.14361193275E+04  0.10100000352E+00 0.  1.
</event>
<event>
 5   0  0.1533248E-05  0.2570214E+04  0.7818609E-02  0.8378390E-01
       -1   -1    0    0    0  501  0.00000000000E+00  0.00000000000E+00  0.91884508842E+03  0.91884508844E+03  0.50400001928E-02 0.  1.
        1   -1    0    0  501    0  0.00000000000E+00  0.00000000000E+00 -0.17973655905E+04  0.17973655905E+04  0.50400001928E-02 0. -1.
    10030    2    1    2    0    0  0.00000000000E+00  0.00000000000E+00 -0.87852050208E+03  0.27162106790E+04  0.25702144229E+04 0.  0.
        4    1    3    3  502    0  0.38591690738E+02 -0.53235322570E+03 -0.16746851177E+04  0.17576863008E+04  0.12699999809E+01 0. -1.
       -4    1    3    3    0  502 -0.38591690738E+02  0.53235322570E+03  0.79616461562E+03  0.95852437819E+03  0.12699999809E+01 0.  1.
</event>
<event>
 5   0  0.3647623E-05  0.2590064E+04  0.7818609E-02  0.8371584E-01
        2   -1    0    0  501    0  0.00000000000E+00  0.00000000000E+00  0.29854741273E+04  0.29854741273E+04  0.25500000920E-02 0.  1.
       -2   -1    0    0    0  501  0.00000000000E+00  0.00000000000E+00 -0.56175582788E+03  0.56175582788E+03  0.25500000920E-02 0. -1.
    10030    2    1    2    0    0  0.00000000000E+00  0.00000000000E+00  0.24237182995E+04  0.35472299552E+04  0.25900636981E+04 0.  0.
        3    1    3    3  502    0 -0.26934980859E+03 -0.11864142462E+04  0.60401911642E+03  0.13582956917E+04  0.10100000352E+00 0.  1.
       -3    1    3    3    0  502  0.26934980859E+03  0.11864142462E+04  0.18196991830E+04  0.21889342635E+04  0.10100000352E+00 0. -1.
</event>
<event>
 5   0  0.1217200E-05  0.2445249E+04  0.7818609E-02  0.8422755E-01
        3   -1    0    0  501    0  0.00000000000E+00  0.00000000000E+00  0.89172614589E+03  0.89172615161E+03  0.10100000352E+00 0. -1.
       -3   -1    0    0    0  501  0.00000000000E+00  0.00000000000E+00 -0.16763118533E+04  0.16763118563E+04  0.10100000352E+00 0.  1.
    10030    2    1    2    0    0  0.00000000000E+00  0.00000000000E+00 -0.78458570740E+03  0.25680380079E+04  0.24452493693E+04 0.  0.
        2    1    3    3  502    0  0.63189559331E+03  0.53771603916E+03  0.55078666001E+03  0.99588981542E+03  0.25500000920E-02 0. -1.
       -2    1    3    3    0  502 -0.63189559331E+03 -0.53771603916E+03 -0.13353723674E+04  0.15721481925E+04  0.25500000920E-02 0.  1.
</event>
<event>
 5   0  0.1435062E-05  0.2705500E+04  0.7818609E-02  0.8333223E-01
        1   -1    0    0  501    0  0.00000000000E+00  0.00000000000E+00  0.16642673237E+04  0.16642673237E+04  0.50400001928E-02 0.  1.
       -1   -1    0    0    0  501  0.00000000000E+00  0.00000000000E+00 -0.10995423707E+04  0.10995423707E+04  0.50400001928E-02 0. -1.
    10030    2    1    2    0    0  0.00000000000E+00  0.00000000000E+00  0.56472495294E+03  0.27638096944E+04  0.27054999084E+04 0.  0.
        2    1    3    3  502    0 -0.70223583438E+03 -0.52397394307E+03 -0.77050495446E+03  0.11667740762E+04  0.25500000920E-02 0. -1.
       -2    1    3    3    0  502  0.70223583438E+03  0.52397394307E+03  0.13352299074E+04  0.15970356182E+04  0.25500000920E-02 0.  1.
</event>
<event>
 5   0  0.3508470E-05  0.2622041E+04  0.7818609E-02  0.8360753E-01
        2   -1    0    0  501    0  0.00000000000E+00  0.00000000000E+00  0.17559697489E+04  0.17559697489E+04  0.25500000920E-02 0. -1.
       -2   -1    0    0    0  501  0.00000000000E+00  0.00000000000E+00 -0.97881785133E+03  0.97881785133E+03  0.25500000920E-02 0.  1.
    10030    2    1    2    0    0  0.00000000000E+00  0.00000000000E+00  0.77715189756E+03  0.27347876002E+04  0.26220408362E+04 0.  0.
        5    1    3    3  502    0 -0.10645006488E+04 -0.76324102539E+03  0.33093710054E+03  0.13510144146E+04  0.46999998093E+01 0.  1.
       -5    1    3    3    0  502  0.10645006488E+04  0.76324102539E+03  0.44621479702E+03  0.13837731856E+04  0.46999998093E+01 0. -1.
</event>
<event>
 5   0  0.1451052E-05  0.2533385E+04  0.7818609E-02  0.8391188E-01
       -1   -1    0    0    0  501  0.00000000000E+00  0.00000000000E+00  0.11991605332E+04  0.11991605333E+04  0.50400001928E-02 0.  1.
        1   -1    0    0  501    0  0.00000000000E+00  0.00000000000E+00 -0.13380272615E+04  0.13380272615E+04  0.50400001928E-02 0. -1.
    10030    2    1    2    0    0  0.00000000000E+00  0.00000000000E+00 -0.13886672824E+03  0.25371877947E+04  0.25333846801E+04 0.  0.
        1    1    3    3  502    0 -0.83584303502E+03  0.16800486503E+03  0.86880290881E+03  0.12172418446E+04  0.50400001928E-02 0.  1.
       -1    1    3    3    0  502  0.83584303502E+03 -0.16800486503E+03 -0.10076696370E+04  0.13199459501E+04  0.50400001928E-02 0. -1.
</event>
<event>
 5   0  0.1451052E-05  0.2568540E+04  0.7818609E-02  0.8378967E-01
       -1   -1    0    0    0  501  0.00000000000E+00  0.00000000000E+00  0.81983018887E+03  0.81983018889E+03  0.50400001928E-02 0.  1.
        1   -1    0    0  501    0  0.00000000000E+00  0.00000000000E+00 -0.20118185264E+04  0.20118185264E+04  0.50400001928E-02 0. -1.
    10030    2    1    2    0    0  0.00000000000E+00  0.00000000000E+00 -0.11919883375E+04  0.28316487153E+04  0.25685401009E+04 0.  0.
        1    1    3    3  502    0 -0.79060929249E+03 -0.37407951768E+03  0.44073511568E+03  0.97941103789E+03  0.50400001928E-02 0.  1.
       -1    1    3    3    0  502  0.79060929249E+03  0.37407951768E+03 -0.16327234532E+04  0.18522376774E+04  0.50400001928E-02 0. -1.
</event>
<event>
 5   0  0.3647623E-05  0.2590709E+04  0.7818609E-02  0.8371364E-01
        2   -1    0    0  501    0  0.00000000000E+00  0.00000000000E+00  0.72863717662E+03  0.72863717663E+03  0.25500000920E-02 0.  1.
       -2   -1    0    0    0  501  0.00000000000E+00  0.00000000000E+00 -0.23028516028E+04  0.23028516028E+04  0.25500000920E-02 0. -1.
    10030    2    1    2    0    0  0.00000000000E+00  0.00000000000E+00 -0.15742144262E+04  0.30314887794E+04  0.25907090073E+04 0.  0.
        3    1    3    3  502    0  0.30758945849E+03 -0.20848700027E+03  0.66493311636E+03  0.76171790296E+03  0.10100000352E+00 0.  1.
       -3    1    3    3    0  502 -0.30758945849E+03  0.20848700027E+03 -0.22391475425E+04  0.22697708765E+04  0.10100000352E+00 0. -1.
</event>
<event>
 5   0  0.1533248E-05  0.2088289E+04  0.7818609E-02  0.8566420E-01
        1   -1    0    0  501    0  0.00000000000E+00  0.00000000000E+00  0.19021410481E+04  0.19021410482E+04  0.50400001928E-02 0. -1.
       -1   -1    0    0    0  501  0.00000000000E+00  0.00000000000E+00 -0.57316319472E+03  0.57316319475E+03  0.50400001928E-02 0.  1.
    10030    2    1    2    0    0  0.00000000000E+00  0.00000000000E+00  0.13289778534E+04  0.24753042429E+04  0.20882885241E+04 0.  0.
        4    1    3    3  502    0  0.81057917196E+03 -0.39073321160E+03  0.12922921669E+04  0.15747163854E+04  0.12699999809E+01 0. -1.
       -4    1    3    3    0  502 -0.81057917196E+03  0.39073321160E+03  0.36685686472E+02  0.90058785754E+03  0.12699999809E+01 0.  1.
</event>
<event>
 5   0  0.1451052E-05  0.1987589E+04  0.7818609E-02  0.8612445E-01
       -1   -1    0    0    0  501  0.00000000000E+00  0.00000000000E+00  0.16651817844E+04  0.16651817844E+04  0.50400001928E-02 0.  1.
        1   -1    0    0  501    0  0.00000000000E+00  0.00000000000E+00 -0.59310507296E+03  0.59310507298E+03  0.50400001928E-02 0. -1.
    10030    2    1    2    0    0  0.00000000000E+00  0.00000000000E+00  0.10720767114E+04  0.22582868574E+04  0.19875892571E+04 0.  0.
        1    1    3    3  502    0  0.47855018293E+03  0.24138260848E+03  0.14868853301E+04  0.15805390935E+04  0.50400001928E-02 0.  1.
       -1    1    3    3    0  502 -0.47855018293E+03 -0.24138260848E+03 -0.41480861867E+03  0.67774776385E+03  0.50400001928E-02 0. -1.
</event>
<event>
 5   0  0.3508470E-05  0.2213920E+04  0.7818609E-02  0.8512657E-01
        2   -1    0    0  501    0  0.00000000000E+00  0.00000000000E+00  0.14113868919E+04  0.14113868919E+04  0.25500000920E-02 0. -1.
       -2   -1    0    0    0  501  0.00000000000E+00  0.00000000000E+00 -0.86819565224E+03  0.86819565224E+03  0.25500000920E-02 0.  1.
    10030    2    1    2    0    0  0.00000000000E+00  0.00000000000E+00  0.54319123969E+03  0.22795825442E+04  0.22139195678E+04 0.  0.
        5    1    3    3  502    0  0.69909494770E+03  0.83642284970E+03  0.73534201422E+02  0.10925961277E+04  0.46999998093E+01 0.  1.
       -5    1    3    3    0  502 -0.69909494770E+03 -0.83642284970E+03  0.46965703827E+03  0.11869864165E+04  0.46999998093E+01 0. -1.
</event>
<event>
 5   0  0.1474554E-05  0.2630123E+04  0.7818609E-02  0.8358040E-01
        1   -1    0    0  501    0  0.00000000000E+00  0.00000000000E+00  0.16720860350E+04  0.16720860350E+04  0.50400001928E-02 0.  1.
       -1   -1    0    0    0  501  0.00000000000E+00  0.00000000000E+00 -0.10342693561E+04  0.10342693561E+04  0.50400001928E-02 0. -1.
    10030    2    1    2    0    0  0.00000000000E+00  0.00000000000E+00  0.63781667890E+03  0.27063553911E+04  0.26301234547E+04 0.  0.
        5    1    3    3  502    0 -0.12786235916E+04 -0.28267275732E+03  0.44316890417E+03  0.13824626376E+04  0.46999998093E+01 0.  1.
       -5    1    3    3    0  502  0.12786235916E+04  0.28267275732E+03  0.19464777473E+03  0.13238927535E+04  0.46999998093E+01 0. -1.
</event>
<event>
 5   0  0.3647623E-05  0.2438898E+04  0.7818609E-02  0.8425082E-01
        2   -1    0    0  501    0  0.00000000000E+00  0.00000000000E+00  0.14361184115E+04  0.14361184115E+04  0.25500000920E-02 0.  1.
       -2   -1    0    0    0  501  0.00000000000E+00  0.00000000000E+00 -0.10354692576E+04  0.10354692576E+04  0.25500000920E-02 0. -1.
    10030    2    1    2    0    0  0.00000000000E+00  0.00000000000E+00  0.40064915388E+03  0.24715876691E+04  0.24388984934E+04 0.  0.
        3    1    3    3  502    0 -0.31223304856E+03 -0.28800529090E+03 -0.95807111486E+03  0.10480156466E+04  0.10100000352E+00 0. -1.
       -3    1    3    3    0  502  0.31223304856E+03  0.28800529090E+03  0.13587202687E+04  0.14235720224E+04  0.10100000352E+00 0.  1.
</event>
<event>
 5   0  0.1435062E-05  0.2561293E+04  0.7818609E-02  0.8381469E-01
        1   -1    0    0  501    0  0.00000000000E+00  0.00000000000E+00  0.14701449727E+04  0.14701449727E+04  0.50400001928E-02 0.  1.
       -1   -1    0    0    0  501  0.00000000000E+00  0.00000000000E+00 -0.11155742495E+04  0.11155742495E+04  0.50400001928E-02 0. -1.
    10030    2    1    2    0    0  0.00000000000E+00  0.00000000000E+00  0.35457072318E+03  0.25857192222E+04  0.25612933254E+04 0.  0.
        2    1    3    3  502    0  0.80853092685E+02  0.11200799364E+04  0.79873656821E+03  0.13780770631E+04  0.25500000920E-02 0.  1.
       -2    1    3    3    0  502 -0.80853092685E+02 -0.11200799364E+04 -0.44416584504E+03  0.12076421591E+04  0.25500000920E-02 0. -1.
</event>
<event>
 5   0  0.1533248E-05  0.2834191E+04  0.7818609E-02  0.8292731E-01
       -1   -1    0    0    0  501  0.00000000000E+00  0.00000000000E+00  0.17513326071E+04  0.17513326071E+04  0.50400001928E-02 0.  1.
        1   -1    0    0  501    0  0.00000000000E+00  0.00000000000E+00 -0.11466469644E+04  0.11466469644E+04  0.50400001928E-02 0. -1.
    10030    2    1    2    0    0  0.00000000000E+00  0.00000000000E+00  0.60468564270E+03  0.28979795715E+04  0.28341913962E+04 0.  0.
        4    1    3    3  502    0  0.50486141598E+02 -0.11900932233E+04  0.10872709572E+04  0.16127710556E+04  0.12699999809E+01 0.  1.
       -4    1    3    3    0  502 -0.50486141598E+02  0.11900932233E+04 -0.48258531450E+03  0.12852085159E+04  0.12699999809E+01 0. -1.
</event>
<event>
 5   0  0.1451052E-05  0.2181559E+04  0.7818609E-02  0.8526143E-01
       -1   -1    0    0    0  501  0.00000000000E+00  0.00000000000E+00  0.11942792675E+04  0.11942792675E+04  0.50400001928E-02 0.  1.
        1   -1    0    0  501    0  0.00000000000E+00  0.00000000000E+00 -0.99624938937E+03  0.99624938938E+03  0.50400001928E-02 0. -1.
    10030    2    1    2    0    0  0.00000000000E+00  0.00000000000E+00  0.19802987810E+03  0.21905286569E+04  0.21815590673E+04 0.  0.
        1    1    3    3  502    0 -0.76888759563E+03  0.33944350100E+02  0.87514811568E+03  0.11654289245E+04  0.50400001928E-02 0.  1.
       -1    1    3    3    0  502  0.76888759563E+03 -0.33944350100E+02 -0.67711823759E+03  0.10250997324E+04  0.50400001928E-02 0. -1.
</event>
<event>
 5   0  0.1533248E-05  0.2489206E+04  0.7818609E-02  0.8406841E-01
       -1   -1    0    0    0  501  0.00000000000E+00  0.00000000000E+00  0.24054352047E+04  0.24054352048E+04  0.50400001928E-02 0.  1.
        1   -1    0    0  501    0  0.00000000000E+00  0.00000000000E+00 -0.64397355007E+03  0.64397355009E+03  0.50400001928E-02 0. -1.
    10030    2    1    2    0    0  0.00000000000E+00  0.00000000000E+00  0.17614616547E+04  0.30494087548E+04  0.24892060166E+04 0.  0.
        4    1    3    3  502    0  0.75796851069E+03  0.92196630766E+03  0.44848175577E+03  0.12750198562E+04  0.12699999809E+01 0. -1.
       -4    1    3    3    0  502 -0.75796851069E+03 -0.92196630766E+03  0.13129798989E+04  0.17743888986E+04  0.12699999809E+01 0.  1.
</event>
<event>
 5   0  0.3499642E-05  0.2594324E+04  0.7818609E-02  0.8370132E-01
        2   -1    0    0  501    0  0.00000000000E+00  0.00000000000E+00  0.13852173698E+04  0.13852173698E+04  0.25500000920E-02 0.  1.
       -2   -1    0    0    0  501  0.00000000000E+00  0.00000000000E+00 -0.12147041402E+04  0.12147041402E+04  0.25500000920E-02 0. -1.
    10030    2    1    2    0    0  0.00000000000E+00  0.00000000000E+00  0.17051322959E+03  0.25999215101E+04  0.25943240154E+04 0.  0.
        2    1    3    3  502    0 -0.74445908257E+03  0.89217555184E+03 -0.49255718721E+03  0.12620654197E+04  0.25500000920E-02 0. -1.
       -2    1    3    3    0  502  0.74445908257E+03 -0.89217555184E+03  0.66307041679E+03  0.13378560904E+04  0.25500000920E-02 0.  1.
</event>
<event>
 5   0  0.3849687E-05  0.2525058E+04  0.7818609E-02  0.8394113E-01
        2   -1    0    0  501    0  0.00000000000E+00  0.00000000000E+00  0.24245902059E+04  0.24245902059E+04  0.25500000920E-02 0. -1.
       -2   -1    0    0    0  501  0.00000000000E+00  0.00000000000E+00 -0.65742201147E+03  0.65742201147E+03  0.25500000920E-02 0.  1.
    10030    2    1    2    0    0  0.00000000000E+00  0.00000000000E+00  0.17671681945E+04  0.30820122174E+04  0.25250575995E+04 0.  0.
        1    1    3    3  502    0  0.30787434649E+03 -0.45002491809E+03  0.22734656361E+04  0.23379382025E+04  0.50400001928E-02 0. -1.
       -1    1    3    3    0  502 -0.30787434649E+03  0.45002491809E+03 -0.50629744167E+03  0.74407401487E+03  0.50400001928E-02 0.  1.
</event>
<event>
 5   0  0.3647623E-05  0.2551727E+04  0.7818609E-02  0.8384786E-01
       -2   -1    0    0    0  501  0.00000000000E+00  0.00000000000E+00  0.12274751043E+04  0.12274751044E+04  0.25500000920E-02 0. -1.
        2   -1    0    0  501    0  0.00000000000E+00  0.00000000000E+00 -0.13261589508E+04  0.13261589508E+04  0.25500000920E-02 0.  1.
    10030    2    1    2    0    0  0.00000000000E+00  0.00000000000E+00 -0.98683846453E+02  0.25536340552E+04  0.25517265500E+04 0.  0.
        3    1    3    3  502    0  0.88068843706E+03  0.21671343135E+03  0.84868625419E+03  0.12421132005E+04  0.10100000352E+00 0. -1.
       -3    1    3    3    0  502 -0.88068843706E+03 -0.21671343135E+03 -0.94737010065E+03  0.13115208547E+04  0.10100000352E+00 0.  1.
</event>
<event>
 5   0  0.3849687E-05  0.2577955E+04  0.7818609E-02  0.8375728E-01
        2   -1    0    0  501    0  0.00000000000E+00  0.00000000000E+00  0.17297754505E+04  0.17297754505E+04  0.25500000920E-02 0. -1.
       -2   -1    0    0    0  501  0.00000000000E+00  0.00000000000E+00 -0.96050799965E+03  0.96050799965E+03  0.25500000920E-02 0.  1.
    10030    2    1    2    0    0  0.00000000000E+00  0.00000000000E+00  0.76926745081E+03  0.26902834501E+04  0.25779551259E+04 0.  0.
        1    1    3    3  502    0  0.85930414084E+02 -0.83762098882E+03 -0.63383661272E+03  0.10539173633E+04  0.50400001928E-02 0.  1.
       -1    1    3    3    0  502 -0.85930414084E+02  0.83762098882E+03  0.14031040635E+04  0.16363660868E+04  0.50400001928E-02 0. -1.
</event>
<event>
 5   0  0.3441646E-05  0.2655989E+04  0.7818609E-02  0.8349428E-01
        2   -1    0    0  501    0  0.00000000000E+00  0.00000000000E+00  0.14773948186E+04  0.14773948186E+04  0.25500000920E-02 0.  1.
       -2   -1    0    0    0  501  0.00000000000E+00  0.00000000000E+00 -0.11937022392E+04  0.11937022392E+04  0.25500000920E-02 0. -1.
    10030    2    1    2    0    0  0.00000000000E+00  0.00000000000E+00  0.28369257940E+03  0.26710970578E+04  0.26559890837E+04 0.  0.
        4    1    3    3  502    0 -0.10109666148E+04  0.64711559437E+03  0.71319389574E+03  0.13962303658E+04  0.12699999809E+01 0.  1.
       -4    1    3    3    0  502  0.10109666148E+04 -0.64711559437E+03 -0.42950131634E+03  0.12748666920E+04  0.12699999809E+01 0. -1.
</event>
<event>
 5   0  0.1497497E-05  0.2538486E+04  0.7818609E-02  0.8389402E-01
        1   -1    0    0  501    0  0.00000000000E+00  0.00000000000E+00  0.13252139079E+04  0.13252139079E+04  0.50400001928E-02 0. -1.
       -1   -1    0    0    0  501  0.00000000000E+00  0.00000000000E+00 -0.12156360019E+04  0.12156360019E+04  0.50400001928E-02 0.  1.
    10030    2    1    2    0    0  0.00000000000E+00  0.00000000000E+00  0.10957790601E+03  0.25408499099E+04  0.25384859556E+04 0.  0.
        3    1    3    3  502    0 -0.47638870472E+03  0.10248136454E+04 -0.52349340747E+03  0.12454856738E+04  0.10100000352E+00 0.  1.
       -3    1    3    3    0  502  0.47638870472E+03 -0.10248136454E+04  0.63307131348E+03  0.12953642360E+04  0.10100000352E+00 0. -1.
</event>
<event>
 5   0  0.1451052E-05  0.2606357E+04  0.7818609E-02  0.8366045E-01
        1   -1    0    0  501    0  0.00000000000E+00  0.00000000000E+00  0.19738112661E+04  0.19738112661E+04  0.50400001928E-02 0.  1.
       -1   -1    0    0    0  501  0.00000000000E+00  0.00000000000E+00 -0.86040369240E+03  0.86040369242E+03  0.50400001928E-02 0. -1.
    10030    2    1    2    0    0  0.00000000000E+00  0.00000000000E+00  0.11134075737E+04  0.28342149585E+04  0.26063572292E+04 0.  0.
        1    1    3    3  502    0 -0.52296858668E+02  0.12740868564E+04  0.84898062095E+03  0.15319270132E+04  0.50400001928E-02 0.  1.
       -1    1    3    3    0  502  0.52296858668E+02 -0.12740868564E+04  0.26442695274E+03  0.13022879453E+04  0.50400001928E-02 0. -1.
</event>
<event>
 5   0  0.1217200E-05  0.2477303E+04  0.7818609E-02  0.8411116E-01
        3   -1    0    0  501    0  0.00000000000E+00  0.00000000000E+00  0.14168507855E+04  0.14168507891E+04  0.10100000352E+00 0.  1.
       -3   -1    0    0    0  501  0.00000000000E+00  0.00000000000E+00 -0.10828645849E+04  0.10828645896E+04  0.10100000352E+00 0. -1.
    10030    2    1    2    0    0  0.00000000000E+00  0.00000000000E+00  0.33398620055E+03  0.24997153787E+04  0.24773030078E+04 0.  0.
        4    1    3    3  502    0 -0.77906192758E+03 -0.23705456165E+03 -0.77479092084E+03  0.11240262168E+04  0.12699999809E+01 0. -1.
       -4    1    3    3    0  502  0.77906192758E+03  0.23705456165E+03  0.11087771214E+04  0.13756891619E+04  0.12699999809E+01 0.  1.
</event>
<event>
 5   0  0.1451052E-05  0.2562201E+04  0.7818609E-02  0.8381155E-01
       -1   -1    0    0    0  501  0.00000000000E+00  0.00000000000E+00  0.71798754441E+03  0.71798754443E+03  0.50400001928E-02 0. -1.
        1   -1    0    0  501    0  0.00000000000E+00  0.00000000000E+00 -0.22858591840E+04  0.22858591840E+04  0.50400001928E-02 0.  1.
    10030    2    1    2    0    0  0.00000000000E+00  0.00000000000E+00 -0.15678716396E+04  0.30038467285E+04  0.25622009464E+04 0.  0.
        1    1    3    3  502    0 -0.67495499445E+03 -0.85114482454E+03 -0.15801178463E+04  0.19174942413E+04  0.50400001928E-02 0.  1.
       -1    1    3    3    0  502  0.67495499445E+03  0.85114482454E+03  0.12246206725E+02  0.10863524872E+04  0.50400001928E-02 0. -1.
</event>
<event>
 5   0  0.1533248E-05  0.2553677E+04  0.7818609E-02  0.8384108E-01
        1   -1    0    0  501    0  0.00000000000E+00  0.00000000000E+00  0.22109756415E+04  0.22109756415E+04  0.50400001928E-02 0. -1.
       -1   -1    0    0    0  501  0.00000000000E+00  0.00000000000E+00 -0.73737450751E+03  0.73737450753E+03  0.50400001928E-02 0.  1.
    10030    2    1    2    0    0  0.00000000000E+00  0.00000000000E+00  0.14736011340E+04  0.29483501491E+04  0.25536774071E+04 0.  0.
        4    1    3    3  502    0  0.54988695511E+03  0.11447668574E+04  0.58429214616E+03  0.13979505522E+04  0.12699999809E+01 0. -1.
       -4    1    3    3    0  502 -0.54988695511E+03 -0.11447668574E+04  0.88930898784E+03  0.15503995969E+04  0.12699999809E+01 0.  1.
</event>
<event>
 5   0  0.1497497E-05  0.2606459E+04  0.7818609E-02  0.8366010E-01
        1   -1    0    0  501    0  0.00000000000E+00  0.00000000000E+00  0.18629547749E+04  0.18629547749E+04  0.50400001928E-02 0.  1.
       -1   -1    0    0    0  501  0.00000000000E+00  0.00000000000E+00 -0.91167410020E+03  0.91167410022E+03  0.50400001928E-02 0. -1.
    10030    2    1    2    0    0  0.00000000000E+00  0.00000000000E+00  0.95128067466E+03  0.27746288751E+04  0.26064593748E+04 0.  0.
        3    1    3    3  502    0 -0.91401459382E+03  0.86650298061E+03  0.11913328109E+03  0.12650861006E+04  0.10100000352E+00 0. -1.
       -3    1    3    3    0  502  0.91401459382E+03 -0.86650298061E+03  0.83214739358E+03  0.15095427745E+04  0.10100000352E+00 0.  1.
</event>
<event>
 5   0  0.3441646E-05  0.2643999E+04  0.7818609E-02  0.8353408E-01
        2   -1    0    0  501    0  0.00000000000E+00  0.00000000000E+00  0.23659476481E+04  0.23659476481E+04  0.25500000920E-02 0. -1.
       -2   -1    0    0    0  501  0.00000000000E+00  0.00000000000E+00 -0.73868163589E+03  0.73868163589E+03  0.25500000920E-02 0.  1.
    10030    2    1    2    0    0  0.00000000000E+00  0.00000000000E+00  0.16272660122E+04  0.31046292840E+04  0.26439985470E+04 0.  0.
        4    1    3    3  502    0 -0.10675537216E+04  0.67243611733E+03  0.12771726394E+04  0.17952751444E+04  0.12699999809E+01 0. -1.
       -4    1    3    3    0  502  0.10675537216E+04 -0.67243611733E+03  0.35009337281E+03  0.13093541396E+04  0.12699999809E+01 0.  1.
</event>
<event>
 5   0  0.1435062E-05  0.2497695E+04  0.7818609E-02  0.8403807E-01
       -1   -1    0    0    0  501  0.00000000000E+00  0.00000000000E+00  0.16591789838E+04  0.16591789838E+04  0.50400001928E-02 0. -1.
        1   -1    0    0  501    0  0.00000000000E+00  0.00000000000E+00 -0.93999505531E+03  0.93999505532E+03  0.50400001928E-02 0.  1.
    10030    2    1    2    0    0  0.00000000000E+00  0.00000000000E+00  0.71918392850E+03  0.25991740391E+04  0.24976949699E+04 0.  0.
        2    1    3    3  502    0 -0.64474033456E+03  0.62910635386E+03  0.12596941007E+04  0.15486426737E+04  0.25500000920E-02 0. -1.
       -2    1    3    3    0  502  0.64474033456E+03 -0.62910635386E+03 -0.54051017220E+03  0.10505313654E+04  0.25500000920E-02 0.  1.
</event>
<event>
 5   0  0.1497497E-05  0.2601704E+04  0.7818609E-02  0.8367622E-01
       -1   -1    0    0    0  501  0.00000000000E+00  0.00000000000E+00  0.59347325361E+03  0.59347325363E+03  0.50400001928E-02 0.  1.
        1   -1    0    0  501    0  0.00000000000E+00  0.00000000000E+00 -0.28513777143E+04  0.28513777143E+04  0.50400001928E-02 0. -1.
    10030    2    1    2    0    0  0.00000000000E+00  0.00000000000E+00 -0.22579044606E+04  0.34448509679E+04  0.26017043717E+04 0.  0.
        3    1    3    3  502    0 -0.24379221023E+03  0.20859709465E+03 -0.27981630795E+04  0.28164985388E+04  0.10100000352E+00 0. -1.
       -3    1    3    3    0  502  0.24379221023E+03 -0.20859709465E+03  0.54025861884E+03  0.62835242906E+03  0.10100000352E+00 0.  1.
</event>
<event>
 5   0  0.3508470E-05  0.2575767E+04  0.7818609E-02  0.8376479E-01
       -2   -1    0    0    0  501  0.00000000000E+00  0.00000000000E+00  0.11213969706E+04  0.11213969707E+04  0.25500000920E-02 0.  1.
        2   -1    0    0  501    0  0.00000000000E+00  0.00000000000E+00 -0.14790874506E+04  0.14790874506E+04  0.25500000920E-02 0. -1.
    10030    2    1    2    0    0  0.00000000000E+00  0.00000000000E+00 -0.35769047999E+03  0.26004844213E+04  0.25757672150E+04 0.  0.
        5    1    3    3  502    0  0.32851840948E+03  0.68415131480E+03  0.87163677797E+03  0.11557508943E+04  0.46999998093E+01 0.  1.
       -5    1    3    3    0  502 -0.32851840948E+03 -0.68415131480E+03 -0.12293272580E+04  0.14447335270E+04  0.46999998093E+01 0. -1.
</event>
<event>
 5   0  0.1435062E-05  0.2299048E+04  0.7818609E-02  0.8478296E-01
       -1   -1    0    0    0  501  0.00000000000E+00  0.00000000000E+00  0.92104665316E+03  0.92104665317E+03  0.50400001928E-02 0.  1.
        1   -1    0    0  501    0  0.00000000000E+00  0.00000000000E+00 -0.14346786681E+04  0.14346786681E+04  0.50400001928E-02 0. -1.
    10030    2    1    2    0    0  0.00000000000E+00  0.00000000000E+00 -0.51363201496E+03  0.23557253213E+04  0.22990484864E+04 0.  0.
        2    1    3    3  502    0  0.10444761352E+04  0.47290383634E+03 -0.34154397375E+03  0.11963363747E+04  0.25500000920E-02 0. -1.
       -2    1    3    3    0  502 -0.10444761352E+04 -0.47290383634E+03 -0.17208804121E+03  0.11593889466E+04  0.25500000920E-02 0.  1.
</event>
<event>
 5   0  0.1474554E-05  0.2602412E+04  0.7818609E-02  0.8367382E-01
       -1   -1    0    0    0  501  0.00000000000E+00  0.00000000000E+00  0.10229069526E+04  0.10229069526E+04  0.50400001928E-02 0. -1.
        1   -1    0    0  501    0  0.00000000000E+00  0.00000000000E+00 -0.16552205581E+04  0.16552205581E+04  0.50400001928E-02 0.  1.
    10030    2    1    2    0    0  0.00000000000E+00  0.00000000000E+00 -0.63231360556E+03  0.26781275107E+04  0.26024116638E+04 0.  0.
        5    1    3    3  502    0 -0.71777863865E+03  0.84136223224E+03  0.38936830635E+03  0.11724872485E+04  0.46999998093E+01 0. -1.
       -5    1    3    3    0  502  0.71777863865E+03 -0.84136223224E+03 -0.10216819119E+04  0.15056402622E+04  0.46999998093E+01 0.  1.
</event>
<event>
 5   0  0.1474554E-05  0.2455711E+04  0.7818609E-02  0.8418936E-01
       -1   -1    0    0    0  501  0.00000000000E+00  0.00000000000E+00  0.13824688381E+04  0.13824688381E+04  0.50400001928E-02 0. -1.
        1   -1    0    0  501    0  0.00000000000E+00  0.00000000000E+00 -0.10905338105E+04  0.10905338105E+04  0.50400001928E-02 0.  1.
    10030    2    1    2    0    0  0.00000000000E+00  0.00000000000E+00  0.29193502761E+03  0.24730026486E+04  0.24557109031E+04 0.  0.
        5    1    3    3  502    0  0.32709149830E+03  0.27601877672E+03 -0.10129756220E+04  0.10996894626E+04  0.46999998093E+01 0.  1.
       -5    1    3    3    0  502 -0.32709149830E+03 -0.27601877672E+03  0.13049106496E+04  0.13733131860E+04  0.46999998093E+01 0. -1.
</event>
<event>
 5   0  0.3499642E-05  0.2555794E+04  0.7818609E-02  0.8383374E-01
        2   -1    0    0  501    0  0.00000000000E+00  0.00000000000E+00  0.19991197813E+04  0.19991197813E+04  0.25500000920E-02 0. -1.
       -2   -1    0    0    0  501  0.00000000000E+00  0.00000000000E+00 -0.81687007026E+03  0.81687007026E+03  0.25500000920E-02 0.  1.
    10030    2    1    2    0    0  0.00000000000E+00  0.00000000000E+00  0.11822497111E+04  0.28159898516E+04  0.25557942924E+04 0.  0.
        2    1    3    3  502    0 -0.11281573382E+04  0.58024060711E+03  0.42185151828E+03  0.13369281377E+04  0.25500000920E-02 0. -1.
       -2    1    3    3    0  502  0.11281573382E+04 -0.58024060711E+03  0.76039819280E+03  0.14790617139E+04  0.25500000920E-02 0.  1.
</event>
<event>
 5   0  0.3499642E-05  0.2070014E+04  0.7818609E-02  0.8574569E-01
       -2   -1    0    0    0  501  0.00000000000E+00  0.00000000000E+00  0.63286791949E+03  0.63286791950E+03  0.25500000920E-02 0.  1.
        2   -1    0    0  501    0  0.00000000000E+00  0.00000000000E+00 -0.16926740254E+04  0.16926740254E+04  0.25500000920E-02 0. -1.
    10030    2    1    2    0    0  0.00000000000E+00  0.00000000000E+00 -0.10598061059E+04  0.23255419449E+04  0.20700136123E+04 0.  0.
        2    1    3    3  502    0 -0.68726898585E+03  0.57568679596E+02 -0.13969114766E+04  0.15578878282E+04  0.25500000920E-02 0. -1.
       -2    1    3    3    0  502  0.68726898585E+03 -0.57568679596E+02  0.33710537076E+03  0.76765411663E+03  0.25500000920E-02 0.  1.
</event>
<event>
 5   0  0.3508470E-05  0.2598194E+04  0.7818609E-02  0.8368815E-01
       -2   -1    0    0    0  501  0.00000000000E+00  0.00000000000E+00  0.93857291469E+03  0.93857291469E+03  0.25500000920E-02 0.  1.
        2   -1    0    0  501    0  0.00000000000E+00  0.00000000000E+00 -0.17981059899E+04  0.17981059899E+04  0.25500000920E-02 0. -1.
    10030    2    1    2    0    0  0.00000000000E+00  0.00000000000E+00 -0.85953307521E+03  0.27366789046E+04  0.25981944345E+04 0.  0.
        5    1    3    3  502    0  0.98346133494E+03  0.71942750185E+03  0.44638971933E+02  0.12193386960E+04  0.46999998093E+01 0.  1.
       -5    1    3    3    0  502 -0.98346133494E+03 -0.71942750185E+03 -0.90417204714E+03  0.15173402086E+04  0.46999998093E+01 0. -1.
</event>
<event>
 5   0  0.3441646E-05  0.2562326E+04  0.7818609E-02  0.8381112E-01
       -2   -1    0    0    0  501  0.00000000000E+00  0.00000000000E+00  0.13942212108E+04  0.13942212108E+04  0.25500000920E-02 0. -1.
        2   -1    0    0  501    0  0.00000000000E+00  0.00000000000E+00 -0.11772727924E+04  0.11772727924E+04  0.25500000920E-02 0.  1.
    10030    2    1    2    0    0  0.00000000000E+00  0.00000000000E+00  0.21694841833E+03  0.25714940032E+04  0.25623260511E+04 0.  0.
        4    1    3    3  502    0  0.68848753472E+03 -0.61925785814E+03 -0.78006457254E+03  0.12107839322E+04  0.12699999809E+01 0.  1.
       -4    1    3    3    0  502 -0.68848753472E+03  0.61925785814E+03  0.99701299087E+03  0.13607100709E+04  0.12699999809E+01 0. -1.
</event>
<event>
 5   0  0.1451052E-05  0.2602181E+04  0.7818609E-02  0.8367461E-01
       -1   -1    0    0    0  501  0.00000000000E+00  0.00000000000E+00  0.94456512827E+03  0.94456512828E+03  0.50400001928E-02 0. -1.
        1   -1    0    0  501    0  0.00000000000E+00  0.00000000000E+00 -0.17921855073E+04  0.17921855073E+04  0.50400001928E-02 0.  1.
    10030    2    1    2    0    0  0.00000000000E+00  0.00000000000E+00 -0.84762037899E+03  0.27367506355E+04  0.26021805730E+04 0.  0.
        1    1    3    3  502    0 -0.55855000718E+03 -0.49608650252E+03  0.69652774714E+03  0.10213867196E+04  0.50400001928E-02 0. -1.
       -1    1    3    3    0  502  0.55855000718E+03  0.49608650252E+03 -0.15441481261E+04  0.17153639159E+04  0.50400001928E-02 0.  1.
</event>
<event>
 5   0  0.3441646E-05  0.2481462E+04  0.7818609E-02  0.8409620E-01
       -2   -1    0    0    0  501  0.00000000000E+00  0.00000000000E+00  0.83182630223E+03  0.83182630224E+03  0.25500000920E-02 0.  1.
        2   -1    0    0  501    0  0.00000000000E+00  0.00000000000E+00 -0.18506428024E+04  0.18506428024E+04  0.25500000920E-02 0. -1.
    10030    2    1    2    0    0  0.00000000000E+00  0.00000000000E+00 -0.10188165001E+04  0.26824691046E+04  0.24814619554E+04 0.  0.
        4    1    3    3  502    0  0.54910996280E+03 -0.88233531880E+03 -0.12420817649E+04  0.16195079777E+04  0.12699999809E+01 0. -1.
       -4    1    3    3    0  502 -0.54910996280E+03  0.88233531880E+03  0.22326526480E+03  0.10629611269E+04  0.12699999809E+01 0.  1.
</event>
<event>
 5   0  0.1533248E-05  0.2659724E+04  0.7818609E-02  0.8348193E-01
        1   -1    0    0  501    0  0.00000000000E+00  0.00000000000E+00  0.21870016203E+04  0.21870016203E+04  0.50400001928E-02 0. -1.
       -1   -1    0    0    0  501  0.00000000000E+00  0.00000000000E+00 -0.80865627692E+03  0.80865627693E+03  0.50400001928E-02 0.  1.
    10030    2    1    2    0    0  0.00000000000E+00  0.00000000000E+00  0.13783453434E+04  0.29956578972E+04  0.26597237359E+04 0.  0.
        4    1    3    3  502    0 -0.16760090197E+02  0.20250333323E+03  0.21694133715E+04  0.21789090137E+04  0.12699999809E+01 0. -1.
       -4    1    3    3    0  502  0.16760090197E+02 -0.20250333323E+03 -0.79106802817E+03  0.81674888349E+03  0.12699999809E+01 0.  1.
</event>
<event>
 5   0  0.3849687E-05  0.2615662E+04  0.7818609E-02  0.8362900E-01
        2   -1    0    0  501    0  0.00000000000E+00  0.00000000000E+00  0.22795487030E+04  0.22795487030E+04  0.25500000920E-02 0.  1.
       -2   -1    0    0    0  501  0.00000000000E+00  0.00000000000E+00 -0.75033372531E+03  0.75033372531E+03  0.25500000920E-02 0. -1.
    10030    2    1    2    0    0  0.00000000000E+00  0.00000000000E+00  0.15292149776E+04  0.30298824283E+04  0.26156622644E+04 0.  0.
        1    1    3    3  502    0 -0.60448161597E+03 -0.10771600679E+04  0.12625014325E+04  0.17662337623E+04  0.50400001928E-02 0.  1.
       -1    1    3    3    0  502  0.60448161597E+03  0.10771600679E+04  0.26671354517E+03  0.12636486660E+04  0.50400001928E-02 0. -1.
</event>
<event>
 5   0  0.1497497E-05  0.2584543E+04  0.7818609E-02  0.8373471E-01
        1   -1    0    0  501    0  0.00000000000E+00  0.00000000000E+00  0.17796253441E+04  0.17796253441E+04  0.50400001928E-02 0.  1.
       -1   -1    0    0    0  501  0.00000000000E+00  0.00000000000E+00 -0.93838049878E+03  0.93838049879E+03  0.50400001928E-02 0. -1.
    10030    2    1    2    0    0  0.00000000000E+00  0.00000000000E+00  0.84124484535E+03  0.27180058429E+04  0.25845430684E+04 0.  0.
        3    1    3    3  502    0 -0.52527425988E+03  0.11052236298E+04 -0.16198254393E+02  0.12238033803E+04  0.10100000352E+00 0.  1.
       -3    1    3    3    0  502  0.52527425988E+03 -0.11052236298E+04  0.85744309974E+03  0.14942024627E+04  0.10100000352E+00 0. -1.
</event>
<event>
 5   0  0.3647623E-05  0.2575643E+04  0.7818609E-02  0.8376522E-01
        2   -1    0    0  501    0  0.00000000000E+00  0.00000000000E+00  0.13761691845E+04  0.13761691845E+04  0.25500000920E-02 0. -1.
       -2   -1    0    0    0  501  0.00000000000E+00  0.00000000000E+00 -0.12051453233E+04  0.12051453233E+04  0.25500000920E-02 0.  1.
    10030    2    1    2    0    0  0.00000000000E+00  0.00000000000E+00  0.17102386115E+03  0.25813145078E+04  0.25756427212E+04 0.  0.
        3    1    3    3  502    0  0.12767209787E+04  0.16722219462E+03  0.10801414251E+03  0.12921481281E+04  0.10100000352E+00 0. -1.
       -3    1    3    3    0  502 -0.12767209787E+04 -0.16722219462E+03  0.63009718639E+02  0.12891663797E+04  0.10100000352E+00 0.  1.
</event>
<event>
 5   0  0.1474554E-05  0.2663915E+04  0.7818609E-02  0.8346809E-01
       -1   -1    0    0    0  501  0.00000000000E+00  0.00000000000E+00  0.15739152562E+04  0.15739152562E+04  0.50400001928E-02 0.  1.
        1   -1    0    0  501    0  0.00000000000E+00  0.00000000000E+00 -0.11271961228E+04  0.11271961228E+04  0.50400001928E-02 0. -1.
    10030    2    1    2    0    0  0.00000000000E+00  0.00000000000E+00  0.44671913334E+03  0.27011113790E+04  0.26639152948E+04 0.  0.
        5    1    3    3  502    0  0.39177135413E+03 -0.75140358592E+03 -0.81860610567E+03  0.11782318062E+04  0.46999998093E+01 0. -1.
       -5    1    3    3    0  502 -0.39177135413E+03  0.75140358592E+03  0.12653252390E+04  0.15228795728E+04  0.46999998093E+01 0.  1.
</event>
<event>
 5   0  0.3849687E-05  0.2599632E+04  0.7818609E-02  0.8368326E-01
       -2   -1    0    0    0  501  0.00000000000E+00  0.00000000000E+00  0.11473080355E+04  0.11473080355E+04  0.25500000920E-02 0. -1.
        2   -1    0    0  501    0  0.00000000000E+00  0.00000000000E+00 -0.14725965465E+04  0.14725965465E+04  0.25500000920E-02 0.  1.
    10030    2    1    2    0    0  0.00000000000E+00  0.00000000000E+00 -0.32528851101E+03  0.26199045819E+04  0.25996321669E+04 0.  0.
        1    1    3    3  502    0  0.84002847953E+03  0.62844470005E+03  0.61075878832E+03  0.12139262272E+04  0.50400001928E-02 0. -1.
       -1    1    3    3    0  502 -0.84002847953E+03 -0.62844470005E+03 -0.93604729933E+03  0.14059783548E+04  0.50400001928E-02 0.  1.
</event>
<event>
 5   0  0.3647623E-05  0.2600712E+04  0.7818609E-02  0.8367959E-01
       -2   -1    0    0    0  501  0.00000000000E+00  0.00000000000E+00  0.13437096693E+04  0.13437096693E+04  0.25500000920E-02 0. -1.
        2   -1    0    0  501    0  0.00000000000E+00  0.00000000000E+00 -0.12584008727E+04  0.12584008727E+04  0.25500000920E-02 0.  1.
    10030    2    1    2    0    0  0.00000000000E+00  0.00000000000E+00  0.85308796620E+02  0.26021105420E+04  0.26007117645E+04 0.  0.
        3    1    3    3  502    0  0.88324882687E+03  0.86357784716E+03  0.44911201085E+03  0.13143807655E+04  0.10100000352E+00 0. -1.
       -3    1    3    3    0  502 -0.88324882687E+03 -0.86357784716E+03 -0.36380321423E+03  0.12877297765E+04  0.10100000352E+00 0.  1.
</event>
<event>
 5   0  0.1217200E-05  0.2713053E+04  0.7818609E-02  0.8330782E-01
       -3   -1    0    0    0  501  0.00000000000E+00  0.00000000000E+00  0.22772916562E+04  0.22772916584E+04  0.10100000352E+00 0.  1.
        3   -1    0    0  501    0  0.00000000000E+00  0.00000000000E+00 -0.80804949317E+03  0.80804949948E+03  0.10100000352E+00 0. -1.
    10030    2    1    2    0    0  0.00000000000E+00  0.00000000000E+00  0.14692421630E+04  0.30853411579E+04  0.27130531744E+04 0.  0.
        4    1    3    3  502    0 -0.33908513403E+03 -0.40611647352E+03  0.21551250871E+04  0.22191158312E+04  0.12699999809E+01 0.  1.
       -4    1    3    3    0  502  0.33908513403E+03  0.40611647352E+03 -0.68588292410E+03  0.86622532672E+03  0.12699999809E+01 0. -1.
</event>
<event>
 5   0  0.1533248E-05  0.2584747E+04  0.7818609E-02  0.8373401E-01
       -1   -1    0    0    0  501  0.00000000000E+00  0.00000000000E+00  0.72015161338E+03  0.72015161340E+03  0.50400001928E-02 0.  1.
        1   -1    0    0  501    0  0.00000000000E+00  0.00000000000E+00 -0.23192746305E+04  0.23192746305E+04  0.50400001928E-02 0. -1.
    10030    2    1    2    0    0  0.00000000000E+00  0.00000000000E+00 -0.15991230171E+04  0.30394262439E+04  0.25847470801E+04 0.  0.
        4    1    3    3  502    0 -0.46630385153E+03  0.12043404628E+04 -0.85659636976E+03  0.15497206800E+04  0.12699999809E+01 0.  1.
       -4    1    3    3    0  502  0.46630385153E+03 -0.12043404628E+04 -0.74252664736E+03  0.14897055639E+04  0.12699999809E+01 0. -1.
</event>
<event>
 5   0  0.1435062E-05  0.2615801E+04  0.7818609E-02  0.8362854E-01
       -1   -1    0    0    0  501  0.00000000000E+00  0.00000000000E+00  0.87702959143E+03  0.87702959144E+03  0.50400001928E-02 0. -1.
        1   -1    0    0  501    0  0.00000000000E+00  0.00000000000E+00 -0.19504511212E+04  0.19504511212E+04  0.50400001928E-02 0.  1.
    10030    2    1    2    0    0  0.00000000000E+00  0.00000000000E+00 -0.10734215297E+04  0.28274807126E+04  0.26158007187E+04 0.  0.
        2    1    3    3  502    0 -0.41116170491E+02 -0.83282386279E+03  0.55245974307E+03  0.10002489158E+04  0.25500000920E-02 0. -1.
       -2    1    3    3    0  502  0.41116170491E+02  0.83282386279E+03 -0.16258812728E+04  0.18272317968E+04  0.25500000920E-02 0.  1.
</event>
<event>
 5   0  0.3441646E-05  0.2529391E+04  0.7818609E-02  0.8392589E-01
       -2   -1    0    0    0  501  0.00000000000E+00  0.00000000000E+00  0.57852213445E+03  0.57852213446E+03  0.25500000920E-02 0.  1.
        2   -1    0    0  501    0  0.00000000000E+00  0.00000000000E+00 -0.27647244746E+04  0.27647244746E+04  0.25500000920E-02 0. -1.
    10030    2    1    2    0    0  0.00000000000E+00  0.00000000000E+00 -0.21862023402E+04  0.33432466091E+04  0.25293906810E+04 0.  0.
        4    1    3    3  502    0  0.48083200421E+03 -0.65193810435E+03 -0.23767945379E+04  0.25110508948E+04  0.12699999809E+01 0. -1.
       -4    1    3    3    0  502 -0.48083200421E+03  0.65193810435E+03  0.19059219768E+03  0.83219571430E+03  0.12699999809E+01 0.  1.
</event>
<event>
 5   0  0.3849687E-05  0.2749672E+04  0.7818609E-02  0.8319066E-01
       -2   -1    0    0    0  501  0.00000000000E+00  0.00000000000E+00  0.13631084562E+04  0.13631084562E+04  0.25500000920E-02 0. -1.
        2   -1    0    0  501    0  0.00000000000E+00  0.00000000000E+00 -0.13866641875E+04  0.13866641875E+04  0.25500000920E-02 0.  1.
    10030    2    1    2    0    0  0.00000000000E+00  0.00000000000E+00 -0.23555731252E+02  0.27497726437E+04  0.27496717476E+04 0.  0.
        1    1    3    3  502    0 -0.57340634978E+03  0.37876210537E+03  0.11790294929E+04  0.13646853555E+04  0.50400001928E-02 0. -1.
       -1    1    3    3    0  502  0.57340634978E+03 -0.37876210537E+03 -0.12025852242E+04  0.13850872882E+04  0.50400001928E-02 0.  1.
</event>
<event>
 5   0  0.1451052E-05  0.2687992E+04  0.7818609E-02  0.8338912E-01
       -1   -1    0    0    0  501  0.00000000000E+00  0.00000000000E+00  0.12986899203E+04  0.12986899203E+04  0.50400001928E-02 0.  1.
        1   -1    0    0  501    0  0.00000000000E+00  0.00000000000E+00 -0.13908822225E+04  0.13908822225E+04  0.50400001928E-02 0. -1.
    10030    2    1    2    0    0  0.00000000000E+00  0.00000000000E+00 -0.92192302187E+02  0.26895721428E+04  0.26879916091E+04 0.  0.
        1    1    3    3  502    0  0.29059357342E+03  0.55134915819E+03 -0.12375499402E+04  0.13856263471E+04  0.50400001928E-02 0. -1.
       -1    1    3    3    0  502 -0.29059357342E+03 -0.55134915819E+03  0.11453576380E+04  0.13039457957E+04  0.50400001928E-02 0.  1.
</event>
<event>
 5   0  0.3508470E-05  0.2775045E+04  0.7818609E-02  0.8311058E-01
       -2   -1    0    0    0  501  0.00000000000E+00  0.00000000000E+00  0.13942752792E+04  0.13942752792E+04  0.25500000920E-02 0.  1.
        2   -1    0    0  501    0  0.00000000000E+00  0.00000000000E+00 -0.13808019963E+04  0.13808019963E+04  0.25500000920E-02 0. -1.
    10030    2    1    2    0    0  0.00000000000E+00  0.00000000000E+00  0.13473282894E+02  0.27750772754E+04  0.27750445681E+04 0.  0.
        5    1    3    3  502    0  0.95742730994E+02  0.12002168175E+04 -0.68284303362E+03  0.13841906581E+04  0.46999998093E+01 0. -1.
       -5    1    3    3    0  502 -0.95742730994E+02 -0.12002168175E+04  0.69631631651E+03  0.13908866173E+04  0.46999998093E+01 0.  1.
</event>
<event>
 5   0  0.1533248E-05  0.2282778E+04  0.7818609E-02  0.8484742E-01
        1   -1    0    0  501    0  0.00000000000E+00  0.00000000000E+00  0.13978026921E+04  0.13978026921E+04  0.50400001928E-02 0.  1.
       -1   -1    0    0    0  501  0.00000000000E+00  0.00000000000E+00 -0.93201217503E+03  0.93201217505E+03  0.50400001928E-02 0. -1.
    10030    2    1    2    0    0  0.00000000000E+00  0.00000000000E+00  0.46579051704E+03  0.23298148671E+04  0.22827782436E+04 0.  0.
        4    1    3    3  502    0 -0.48831957065E+03 -0.99280054891E+03 -0.53345017763E+02  0.11076805662E+04  0.12699999809E+01 0. -1.
       -4    1    3    3    0  502  0.48831957065E+03  0.99280054891E+03  0.51913553480E+03  0.12221343009E+04  0.12699999809E+01 0.  1.
</event>
<event>
 5   0  0.1497497E-05  0.2590885E+04  0.7818609E-02  0.8371304E-01
        1   -1    0    0  501    0  0.00000000000E+00  0.00000000000E+00  0.12893800774E+04  0.12893800774E+04  0.50400001928E-02 0. -1.
       -1   -1    0    0    0  501  0.00000000000E+00  0.00000000000E+00 -0.13015331850E+04  0.13015331850E+04  0.50400001928E-02 0.  1.
    10030    2    1    2    0    0  0.00000000000E+00  0.00000000000E+00 -0.12153107580E+02  0.25909132624E+04  0.25908847592E+04 0.  0.
        3    1    3    3  502    0 -0.87472758332E+03  0.76187653994E+03  0.57061578960E+03  0.12927515603E+04  0.10100000352E+00 0.  1.
       -3    1    3    3    0  502  0.87472758332E+03 -0.76187653994E+03 -0.58276889718E+03  0.12981617021E+04  0.10100000352E+00 0. -1.
</event>
<event>
 5   0  0.1435062E-05  0.2687995E+04  0.7818609E-02  0.8338911E-01
        1   -1    0    0  501    0  0.00000000000E+00  0.00000000000E+00  0.15505296751E+04  0.15505296751E+04  0.50400001928E-02 0.  1.
       -1   -1    0    0    0  501  0.00000000000E+00  0.00000000000E+00 -0.11649758036E+04  0.11649758036E+04  0.50400001928E-02 0. -1.
    10030    2    1    2    0    0  0.00000000000E+00  0.00000000000E+00  0.38555387151E+03  0.27155054788E+04  0.26879952041E+04 0.  0.
        2    1    3    3  502    0  0.10408485088E+04  0.74226882029E+03 -0.22619756974E+03  0.12982657511E+04  0.25500000920E-02 0. -1.
       -2    1    3    3    0  502 -0.10408485088E+04 -0.74226882029E+03  0.61175144125E+03  0.14172397277E+04  0.25500000920E-02 0.  1.
</event>
<event>
 5   0  0.3441646E-05  0.3042742E+04  0.7818609E-02  0.8231630E-01
       -2   -1    0    0    0  501  0.00000000000E+00  0.00000000000E+00  0.16198803126E+04  0.16198803126E+04  0.25500000920E-02 0. -1.
        2   -1    0    0  501    0  0.00000000000E+00  0.00000000000E+00 -0.14288522496E+04  0.14288522496E+04  0.25500000920E-02 0.  1.
    10030    2    1    2    0    0  0.00000000000E+00  0.00000000000E+00  0.19102806299E+03  0.30487325622E+04  0.30427419402E+04 0.  0.
        4    1    3    3  502    0 -0.13299448717E+03 -0.14961362050E+04 -0.14674068522E+03  0.15091870391E+04  0.12699999809E+01 0. -1.
       -4    1    3    3    0  502  0.13299448717E+03  0.14961362050E+04  0.33776874822E+03  0.15395455231E+04  0.12699999809E+01 0.  1.
</event>
<event>
 5   0  0.1451052E-05  0.1995244E+04  0.7818609E-02  0.8608848E-01
        1   -1    0    0  501    0  0.00000000000E+00  0.00000000000E+00  0.10291863049E+04  0.10291863049E+04  0.50400001928E-02 0. -1.
       -1   -1    0    0    0  501  0.00000000000E+00  0.00000000000E+00 -0.96702527896E+03  0.96702527897E+03  0.50400001928E-02 0.  1.
    10030    2    1    2    0    0  0.00000000000E+00  0.00000000000E+00  0.62161025919E+02  0.19962115839E+04  0.19952435176E+04 0.  0.
        1    1    3    3  502    0 -0.94093989987E+03  0.29229860260E+03 -0.12533729208E+03  0.99323502006E+03  0.50400001928E-02 0. -1.
       -1    1    3    3    0  502  0.94093989987E+03 -0.29229860260E+03  0.18749831800E+03  0.10029765638E+04  0.50400001928E-02 0.  1.
</event>
<event>
 5   0  0.1497497E-05  0.2559203E+04  0.7818609E-02  0.8382193E-01
       -1   -1    0    0    0  501  0.00000000000E+00  0.00000000000E+00  0.11759703005E+04  0.11759703005E+04  0.50400001928E-02 0. -1.
        1   -1    0    0  501    0  0.00000000000E+00  0.00000000000E+00 -0.13923649877E+04  0.13923649877E+04  0.50400001928E-02 0.  1.
    10030    2    1    2    0    0  0.00000000000E+00  0.00000000000E+00 -0.21639468718E+03  0.25683352882E+04  0.25592029016E+04 0.  0.
        3    1    3    3  502    0  0.96312776630E+03 -0.47886635981E+02  0.73591745973E+03  0.12130468836E+04  0.10100000352E+00 0. -1.
       -3    1    3    3    0  502 -0.96312776630E+03  0.47886635981E+02 -0.95231214691E+03  0.13552884045E+04  0.10100000352E+00 0.  1.
</event>
<event>
 5   0  0.3499642E-05  0.2253236E+04  0.7818609E-02  0.8496591E-01
        2   -1    0    0  501    0  0.00000000000E+00  0.00000000000E+00  0.14714701090E+04  0.14714701090E+04  0.25500000920E-02 0.  1.
       -2   -1    0    0    0  501  0.00000000000E+00  0.00000000000E+00 -0.86258480420E+03  0.86258480420E+03  0.25500000920E-02 0. -1.
    10030    2    1    2    0    0  0.00000000000E+00  0.00000000000E+00  0.60888530481E+03  0.23340549132E+04  0.22532356786E+04 0.  0.
        2    1    3    3  502    0 -0.70150578021E+03  0.62026102761E+02 -0.60647959249E+03  0.92939501462E+03  0.25500000920E-02 0. -1.
       -2    1    3    3    0  502  0.70150578021E+03 -0.62026102761E+02  0.12153648973E+04  0.14046598986E+04  0.25500000920E-02 0.  1.
</event>
<event>
 5   0  0.3441646E-05  0.2613040E+04  0.7818609E-02  0.8363785E-01
       -2   -1    0    0    0  501  0.00000000000E+00  0.00000000000E+00  0.16147222594E+04  0.16147222594E+04  0.25500000920E-02 0.  1.
        2   -1    0    0  501    0  0.00000000000E+00  0.00000000000E+00 -0.10571442114E+04  0.10571442114E+04  0.25500000920E-02 0. -1.
    10030    2    1    2    0    0  0.00000000000E+00  0.00000000000E+00  0.55757804806E+03  0.26718664708E+04  0.26130398309E+04 0.  0.
        4    1    3    3  502    0  0.67309236192E+03 -0.73136604072E+03 -0.58826502518E+03  0.11549921930E+04  0.12699999809E+01 0.  1.
       -4    1    3    3    0  502 -0.67309236192E+03  0.73136604072E+03  0.11458430732E+04  0.15168742778E+04  0.12699999809E+01 0. -1.
</event>
<event>
 5   0  0.1474554E-05  0.2497309E+04  0.7818609E-02  0.8403945E-01
        1   -1    0    0  501    0  0.00000000000E+00  0.00000000000E+00  0.15464980829E+04  0.15464980829E+04  0.50400001928E-02 0. -1.
       -1   -1    0    0    0  501  0.00000000000E+00  0.00000000000E+00 -0.10081730115E+04  0.10081730115E+04  0.50400001928E-02 0.  1.
    10030    2    1    2    0    0  0.00000000000E+00  0.00000000000E+00  0.53832507141E+03  0.25546710945E+04  0.24973086550E+04 0.  0.
        5    1    3    3  502    0 -0.14050099507E+03  0.84604477906E+03  0.11975227547E+04  0.14729613490E+04  0.46999998093E+01 0. -1.
       -5    1    3    3    0  502  0.14050099507E+03 -0.84604477906E+03 -0.65919768325E+03  0.10817097454E+04  0.46999998093E+01 0.  1.
</event>
<event>
 5   0  0.3441646E-05  0.2552648E+04  0.7818609E-02  0.8384466E-01
       -2   -1    0    0    0  501  0.00000000000E+00  0.00000000000E+00  0.25205822514E+04  0.25205822514E+04  0.25500000920E-02 0.  1.
        2   -1    0    0  501    0  0.00000000000E+00  0.00000000000E+00 -0.64628016641E+03  0.64628016642E+03  0.25500000920E-02 0. -1.
    10030    2    1    2    0    0  0.00000000000E+00  0.00000000000E+00  0.18743020850E+04  0.31668624178E+04  0.25526475016E+04 0.  0.
        4    1    3    3  502    0 -0.45079854652E+03  0.94058332757E+03  0.24571251160E+02  0.10433224262E+04  0.12699999809E+01 0. -1.
       -4    1    3    3    0  502  0.45079854652E+03 -0.94058332757E+03  0.18497308338E+04  0.21235399916E+04  0.12699999809E+01 0.  1.
</event>
<event>
 5   0  0.1435062E-05  0.2621549E+04  0.7818609E-02  0.8360918E-01
       -1   -1    0    0    0  501  0.00000000000E+00  0.00000000000E+00  0.16011437318E+04  0.16011437318E+04  0.50400001928E-02 0.  1.
        1   -1    0    0  501    0  0.00000000000E+00  0.00000000000E+00 -0.10730642578E+04  0.10730642578E+04  0.50400001928E-02 0. -1.
    10030    2    1    2    0    0  0.00000000000E+00  0.00000000000E+00  0.52807947404E+03  0.26742079896E+04  0.26215492444E+04 0.  0.
        2    1    3    3  502    0  0.62978138587E+03  0.54793709194E+03  0.12949183908E+04  0.15406729989E+04  0.25500000920E-02 0.  1.
       -2    1    3    3    0  502 -0.62978138587E+03 -0.54793709194E+03 -0.76683891679E+03  0.11335349906E+04  0.25500000920E-02 0. -1.
</event>
<event>
 5   0  0.3508470E-05  0.2568705E+04  0.7818609E-02  0.8378910E-01
       -2   -1    0    0    0  501  0.00000000000E+00  0.00000000000E+00  0.88453014318E+03  0.88453014318E+03  0.25500000920E-02 0.  1.
        2   -1    0    0  501    0  0.00000000000E+00  0.00000000000E+00 -0.18649012384E+04  0.18649012384E+04  0.25500000920E-02 0. -1.
    10030    2    1    2    0    0  0.00000000000E+00  0.00000000000E+00 -0.98037109523E+03  0.27494313816E+04  0.25687050118E+04 0.  0.
        5    1    3    3  502    0  0.45415104695E+02  0.43083305639E+03 -0.17843262203E+04  0.18361704182E+04  0.46999998093E+01 0. -1.
       -5    1    3    3    0  502 -0.45415104695E+02 -0.43083305639E+03  0.80395512505E+03  0.91326096342E+03  0.46999998093E+01 0.  1.
</event>
<event>
 5   0  0.1533248E-05  0.2535327E+04  0.7818609E-02  0.8390507E-01
        1   -1    0    0  501    0  0.00000000000E+00  0.00000000000E+00  0.15309861892E+04  0.15309861892E+04  0.50400001928E-02 0.  1.
       -1   -1    0    0    0  501  0.00000000000E+00  0.00000000000E+00 -0.10496311024E+04  0.10496311025E+04  0.50400001928E-02 0. -1.
    10030    2    1    2    0    0  0.00000000000E+00  0.00000000000E+00  0.48135508671E+03  0.25806172916E+04  0.25353269782E+04 0.  0.
        4    1    3    3  502    0  0.58350663250E+03  0.77829418886E+03 -0.58670683208E+03  0.11359790290E+04  0.12699999809E+01 0. -1.
       -4    1    3    3    0  502 -0.58350663250E+03 -0.77829418886E+03  0.10680619188E+04  0.14446382626E+04  0.12699999809E+01 0.  1.
</event>
<event>
 5   0  0.3647623E-05  0.2565280E+04  0.7818609E-02  0.8380091E-01
       -2   -1    0    0    0  501  0.00000000000E+00  0.00000000000E+00  0.75180613979E+03  0.75180613979E+03  0.25500000920E-02 0. -1.
        2   -1    0    0  501    0  0.00000000000E+00  0.00000000000E+00 -0.21882842787E+04  0.21882842787E+04  0.25500000920E-02 0.  1.
    10030    2    1    2    0    0  0.00000000000E+00  0.00000000000E+00 -0.14364781389E+04  0.29400904185E+04  0.25652801456E+04 0.  0.
        3    1    3    3  502    0 -0.80517568388E+03 -0.64575828849E+03  0.15450152484E+03  0.10436390087E+04  0.10100000352E+00 0. -1.
       -3    1    3    3    0  502  0.80517568388E+03  0.64575828849E+03 -0.15909796638E+04  0.18964514098E+04  0.10100000352E+00 0.  1.
</event>
<event>
 5   0  0.1435062E-05  0.2645586E+04  0.7818609E-02  0.8352880E-01
        1   -1    0    0  501    0  0.00000000000E+00  0.00000000000E+00  0.14129627068E+04  0.14129627068E+04  0.50400001928E-02 0. -1.
       -1   -1    0    0    0  501  0.00000000000E+00  0.00000000000E+00 -0.12383772779E+04  0.12383772779E+04  0.50400001928E-02 0.  1.
    10030    2    1    2    0    0  0.00000000000E+00  0.00000000000E+00  0.17458542893E+03  0.26513399848E+04  0.26455856899E+04 0.  0.
        2    1    3    3  502    0 -0.76067509403E+03 -0.75425306364E+03  0.86503261956E+03  0.13768826078E+04  0.25500000920E-02 0. -1.
       -2    1    3    3    0  502  0.76067509403E+03  0.75425306364E+03 -0.69044719063E+03  0.12744573770E+04  0.25500000920E-02 0.  1.
</event>
<event>
 5   0  0.3499642E-05  0.2604332E+04  0.7818609E-02  0.8366731E-01
        2   -1    0    0  501    0  0.00000000000E+00  0.00000000000E+00  0.12300984244E+04  0.12300984244E+04  0.25500000920E-02 0. -1.
       -2   -1    0    0    0  501  0.00000000000E+00  0.00000000000E+00 -0.13784562326E+04  0.13784562326E+04  0.25500000920E-02 0.  1.
    10030    2    1    2    0    0  0.00000000000E+00  0.00000000000E+00 -0.14835780818E+03  0.26085546569E+04  0.26043324210E+04 0.  0.
        2    1    3    3  502    0  0.10025309706E+04  0.35787989122E+03 -0.82538847109E+03  0.13470012961E+04  0.25500000920E-02 0.  1.
       -2    1    3    3    0  502 -0.10025309706E+04 -0.35787989122E+03  0.67703066291E+03  0.12615533608E+04  0.25500000920E-02 0. -1.
</event>
<event>
 5   0  0.1217200E-05  0.2445096E+04  0.7818609E-02  0.8422811E-01
        3   -1    0    0  501    0  0.00000000000E+00  0.00000000000E+00  0.89421244275E+03  0.89421244845E+03  0.10100000352E+00 0.  1.
       -3   -1    0    0    0  501  0.00000000000E+00  0.00000000000E+00 -0.16714417903E+04  0.16714417933E+04  0.10100000352E+00 0. -1.
    10030    2    1    2    0    0  0.00000000000E+00  0.00000000000E+00 -0.77722934751E+03  0.25656542418E+04  0.24450963641E+04 0.  0.
        5    1    3    3  502    0  0.12045164421E+04 -0.20376075980E+03 -0.43809544033E+03  0.12978166324E+04  0.46999998093E+01 0. -1.
       -5    1    3    3    0  502 -0.12045164421E+04  0.20376075980E+03 -0.33913390718E+03  0.12678376093E+04  0.46999998093E+01 0.  1.
</event>
<event>
 5   0  0.3441646E-05  0.2502434E+04  0.7818609E-02  0.8402119E-01
       -2   -1    0    0    0  501  0.00000000000E+00  0.00000000000E+00  0.84621985209E+03  0.84621985209E+03  0.25500000920E-02 0. -1.
        2   -1    0    0  501    0  0.00000000000E+00  0.00000000000E+00 -0.18500445267E+04  0.18500445267E+04  0.25500000920E-02 0.  1.
    10030    2    1    2    0    0  0.00000000000E+00  0.00000000000E+00 -0.10038246746E+04  0.26962643788E+04  0.25024343394E+04 0.  0.
        4    1    3    3  502    0 -0.53786109455E+03  0.63281249031E+03  0.50641468855E+03  0.97273000088E+03  0.12699999809E+01 0. -1.
       -4    1    3    3    0  502  0.53786109455E+03 -0.63281249031E+03 -0.15102393632E+04  0.17235343779E+04  0.12699999809E+01 0.  1.
</event>
<event>
 5   0  0.3508470E-05  0.2069406E+04  0.7818609E-02  0.8574841E-01
        2   -1    0    0  501    0  0.00000000000E+00  0.00000000000E+00  0.23315659828E+04  0.23315659828E+04  0.25500000920E-02 0. -1.
       -2   -1    0    0    0  501  0.00000000000E+00  0.00000000000E+00 -0.45918079987E+03  0.45918079987E+03  0.25500000920E-02 0.  1.
    10030    2    1    2    0    0  0.00000000000E+00  0.00000000000E+00  0.18723851829E+04  0.27907467826E+04  0.20694060335E+04 0.  0.
        5    1    3    3  502    0  0.91013927130E+02  0.94996578918E+03  0.14754024349E+04  0.17571434120E+04  0.46999998093E+01 0. -1.
       -5    1    3    3    0  502 -0.91013927130E+02 -0.94996578918E+03  0.39698274803E+03  0.10336033706E+04  0.46999998093E+01 0.  1.
</event>
<event>
 5   0  0.1451052E-05  0.2567700E+04  0.7818609E-02  0.8379256E-01
       -1   -1    0    0    0  501  0.00000000000E+00  0.00000000000E+00  0.11689903525E+04  0.11689903525E+04  0.50400001928E-02 0. -1.
        1   -1    0    0  501    0  0.00000000000E+00  0.00000000000E+00 -0.14099953257E+04  0.14099953257E+04  0.50400001928E-02 0.  1.
    10030    2    1    2    0    0  0.00000000000E+00  0.00000000000E+00 -0.24100497322E+03  0.25789856781E+04  0.25677000859E+04 0.  0.
        1    1    3    3  502    0  0.32114685895E+03 -0.83068580038E+03  0.80827623530E+03  0.12026989135E+04  0.50400001928E-02 0. -1.
       -1    1    3    3    0  502 -0.32114685895E+03  0.83068580038E+03 -0.10492812085E+04  0.13762867646E+04  0.50400001928E-02 0.  1.
</event>
<event>
 5   0  0.1435062E-05  0.2579608E+04  0.7818609E-02  0.8375161E-01
        1   -1    0    0  501    0  0.00000000000E+00  0.00000000000E+00  0.19434740376E+04  0.19434740376E+04  0.50400001928E-02 0. -1.
       -1   -1    0    0    0  501  0.00000000000E+00  0.00000000000E+00 -0.85599010883E+03  0.85599010885E+03  0.50400001928E-02 0.  1.
    10030    2    1    2    0    0  0.00000000000E+00  0.00000000000E+00  0.10874839288E+04  0.27994641465E+04  0.25796081509E+04 0.  0.
        2    1    3    3  502    0  0.65823586929E+03 -0.87933547884E+03  0.12774472597E+04  0.16847483033E+04  0.25500000920E-02 0. -1.
       -2    1    3    3    0  502 -0.65823586929E+03  0.87933547884E+03 -0.18996333095E+03  0.11147158432E+04  0.25500000920E-02 0.  1.
</event>
<event>
 5   0  0.3508470E-05  0.2510501E+04  0.7818609E-02  0.8399254E-01
       -2   -1    0    0    0  501  0.00000000000E+00  0.00000000000E+00  0.63809884595E+03  0.63809884596E+03  0.25500000920E-02 0.  1.
        2   -1    0    0  501    0  0.00000000000E+00  0.00000000000E+00 -0.24692939791E+04  0.24692939791E+04  0.25500000920E-02 0. -1.
    10030    2    1    2    0    0  0.00000000000E+00  0.00000000000E+00 -0.18311951332E+04  0.31073928251E+04  0.25105008571E+04 0.  0.
        5    1    3    3  502    0 -0.12462756115E+04  0.76602649447E+02 -0.10748825745E+04  0.16475635055E+04  0.46999998093E+01 0. -1.
       -5    1    3    3    0  502  0.12462756115E+04 -0.76602649447E+02 -0.75631255869E+03  0.14598293196E+04  0.46999998093E+01 0.  1.
</event>
<event>
 5   0  0.1497497E-05  0.2520426E+04  0.7818609E-02  0.8395744E-01
       -1   -1    0    0    0  501  0.00000000000E+00  0.00000000000E+00  0.11810142566E+04  0.11810142566E+04  0.50400001928E-02 0. -1.
        1   -1    0    0  501    0  0.00000000000E+00  0.00000000000E+00 -0.13447232277E+04  0.13447232277E+04  0.50400001928E-02 0.  1.
    10030    2    1    2    0    0  0.00000000000E+00  0.00000000000E+00 -0.16370897104E+03  0.25257374843E+04  0.25204263950E+04 0.  0.
        3    1    3    3  502    0  0.96132170314E+03 -0.65537506154E+03 -0.56710766999E+03  0.12943210605E+04  0.10100000352E+00 0.  1.
       -3    1    3    3    0  502 -0.96132170314E+03  0.65537506154E+03  0.40339869895E+03  0.12314164238E+04  0.10100000352E+00 0. -1.
</event>
<event>
 5   0  0.3849687E-05  0.2635927E+04  0.7818609E-02  0.8356099E-01
        2   -1    0    0  501    0  0.00000000000E+00  0.00000000000E+00  0.63279582088E+03  0.63279582088E+03  0.25500000920E-02 0.  1.
       -2   -1    0    0    0  501  0.00000000000E+00  0.00000000000E+00 -0.27450043942E+04  0.27450043942E+04  0.25500000920E-02 0. -1.
    10030    2    1    2    0    0  0.00000000000E+00  0.00000000000E+00 -0.21122085733E+04  0.33778002151E+04  0.26359266370E+04 0.  0.
        1    1    3    3  502    0 -0.11535871422E+04  0.63488337900E+03 -0.98376085261E+03  0.16436622569E+04  0.50400001928E-02 0. -1.
       -1    1    3    3    0  502  0.11535871422E+04 -0.63488337900E+03 -0.11284477207E+04  0.17341379582E+04  0.50400001928E-02 0.  1.
</event>
<event>
 5   0  0.1451052E-05  0.2654419E+04  0.7818609E-02  0.8349948E-01
       -1   -1    0    0    0  501  0.00000000000E+00  0.00000000000E+00  0.95220217644E+03  0.95220217645E+03  0.50400001928E-02 0. -1.
        1   -1    0    0  501    0  0.00000000000E+00  0.00000000000E+00 -0.18499069638E+04  0.18499069638E+04  0.50400001928E-02 0.  1.
    10030    2    1    2    0    0  0.00000000000E+00  0.00000000000E+00 -0.89770478732E+03  0.28021091402E+04  0.26544192865E+04 0.  0.
        1    1    3    3  502    0 -0.34795611693E+03 -0.98565564613E+03 -0.13122174617E+04  0.16776487055E+04  0.50400001928E-02 0.  1.
       -1    1    3    3    0  502  0.34795611693E+03  0.98565564613E+03  0.41451267440E+03  0.11244604348E+04  0.50400001928E-02 0. -1.
</event>
<event>
 5   0  0.3849687E-05  0.2380068E+04  0.7818609E-02  0.8447004E-01
       -2   -1    0    0    0  501  0.00000000000E+00  0.00000000000E+00  0.10455440713E+04  0.10455440713E+04  0.25500000920E-02 0.  1.
        2   -1    0    0  501    0  0.00000000000E+00  0.00000000000E+00 -0.13544913189E+04  0.13544913189E+04  0.25500000920E-02 0. -1.
    10030    2    1    2    0    0  0.00000000000E+00  0.00000000000E+00 -0.30894724758E+03  0.24000353902E+04  0.23800675352E+04 0.  0.
        1    1    3    3  502    0  0.89901620666E+03  0.69557159214E+03 -0.50975089330E+03  0.12457511601E+04  0.50400001928E-02 0. -1.
       -1    1    3    3    0  502 -0.89901620666E+03 -0.69557159214E+03  0.20080364572E+03  0.11542842301E+04  0.50400001928E-02 0.  1.
</event>
<event>
 5   0  0.3849687E-05  0.2674007E+04  0.7818609E-02  0.8343488E-01
        2   -1    0    0  501    0  0.00000000000E+00  0.00000000000E+00  0.10803646128E+04  0.10803646128E+04  0.25500000920E-02 0. -1.
       -2   -1    0    0    0  501  0.00000000000E+00  0.00000000000E+00 -0.16546065977E+04  0.16546065977E+04  0.25500000920E-02 0.  1.
    10030    2    1    2    0    0  0.00000000000E+00  0.00000000000E+00 -0.57424198483E+03  0.27349712105E+04  0.26740070428E+04 0.  0.
        1    1    3    3  502    0  0.88453799342E+03 -0.85727327180E+03  0.24459028225E+03  0.12558460616E+04  0.50400001928E-02 0. -1.
       -1    1    3    3    0  502 -0.88453799342E+03  0.85727327180E+03 -0.81883226708E+03  0.14791251489E+04  0.50400001928E-02 0.  1.
</event>
<event>
 5   0  0.3508470E-05  0.1927720E+04  0.7818609E-02  0.8641180E-01
       -2   -1    0    0    0  501  0.00000000000E+00  0.00000000000E+00  0.97197122981E+03  0.97197122982E+03  0.25500000920E-02 0. -1.
        2   -1    0    0  501    0  0.00000000000E+00  0.00000000000E+00 -0.95581616097E+03  0.95581616097E+03  0.25500000920E-02 0.  1.
    10030    2    1    2    0    0  0.00000000000E+00  0.00000000000E+00  0.16155068844E+02  0.19277873908E+04  0.19277196990E+04 0.  0.
        5    1    3    3  502    0  0.24079541226E+03 -0.28904766612E+03 -0.87935023207E+03  0.95645695381E+03  0.46999998093E+01 0.  1.
       -5    1    3    3    0  502 -0.24079541226E+03  0.28904766612E+03  0.89550530091E+03  0.97133043698E+03  0.46999998093E+01 0. -1.
</event>
<event>
 5   0  0.3647623E-05  0.2598546E+04  0.7818609E-02  0.8368695E-01
        2   -1    0    0  501    0  0.00000000000E+00  0.00000000000E+00  0.11541324345E+04  0.11541324345E+04  0.25500000920E-02 0.  1.
       -2   -1    0    0    0  501  0.00000000000E+00  0.00000000000E+00 -0.14626663705E+04  0.14626663705E+04  0.25500000920E-02 0. -1.
    10030    2    1    2    0    0  0.00000000000E+00  0.00000000000E+00 -0.30853393599E+03  0.26167988049E+04  0.25985462851E+04 0.  0.
        3    1    3    3  502    0 -0.10253821356E+04  0.32453954139E+03  0.57980889789E+03  0.12218481109E+04  0.10100000352E+00 0.  1.
       -3    1    3    3    0  502  0.10253821356E+04 -0.32453954139E+03 -0.88834283388E+03  0.13949506940E+04  0.10100000352E+00 0. -1.
</event>
<event>
 5   0  0.1435062E-05  0.2573099E+04  0.7818609E-02  0.8377397E-01
       -1   -1    0    0    0  501  0.00000000000E+00  0.00000000000E+00  0.63205968719E+03  0.63205968721E+03  0.50400001928E-02 0.  1.
        1   -1    0    0  501    0  0.00000000000E+00  0.00000000000E+00 -0.26187548468E+04  0.26187548468E+04  0.50400001928E-02 0. -1.
    10030    2    1    2    0    0  0.00000000000E+00  0.00000000000E+00 -0.19866951596E+04  0.32508145340E+04  0.25730988083E+04 0.  0.
        2    1    3    3  502    0 -0.51481439225E+03 -0.10226951869E+04 -0.25206232715E+03  0.11723799386E+04  0.25500000920E-02 0.  1.
       -2    1    3    3    0  502  0.51481439225E+03  0.10226951869E+04 -0.17346328324E+04  0.20784345954E+04  0.25500000920E-02 0. -1.
</event>
<event>
 5   0  0.1497497E-05  0.2584937E+04  0.7818609E-02  0.8373336E-01
       -1   -1    0    0    0  501  0.00000000000E+00  0.00000000000E+00  0.91764677153E+03  0.91764677154E+03  0.50400001928E-02 0.  1.
        1   -1    0    0  501    0  0.00000000000E+00  0.00000000000E+00 -0.18203902333E+04  0.18203902333E+04  0.50400001928E-02 0. -1.
    10030    2    1    2    0    0  0.00000000000E+00  0.00000000000E+00 -0.90274346175E+03  0.27380370048E+04  0.25849373072E+04 0.  0.
        3    1    3    3  502    0  0.28550502415E+03 -0.12168281879E+04 -0.10280495664E+03  0.12540944251E+04  0.10100000352E+00 0.  1.
       -3    1    3    3    0  502 -0.28550502415E+03  0.12168281879E+04 -0.79993850510E+03  0.14839425797E+04  0.10100000352E+00 0. -1.
</event>
<event>
 5   0  0.1435062E-05  0.2588967E+04  0.7818609E-02  0.8371959E-01
       -1   -1    0    0    0  501  0.00000000000E+00  0.00000000000E+00  0.78018524404E+03  0.78018524406E+03  0.50400001928E-02 0.  1.
        1   -1    0    0  501    0  0.00000000000E+00  0.00000000000E+00 -0.21478067166E+04  0.21478067166E+04  0.50400001928E-02 0. -1.
    10030    2    1    2    0    0  0.00000000000E+00  0.00000000000E+00 -0.13676214726E+04  0.29279919607E+04  0.25889666722E+04 0.  0.
        2    1    3    3  502    0  0.89786838809E+03 -0.92287710350E+03 -0.83477166959E+03  0.15345075858E+04  0.25500000920E-02 0.  1.
       -2    1    3    3    0  502 -0.89786838809E+03  0.92287710350E+03 -0.53284980298E+03  0.13934843749E+04  0.25500000920E-02 0. -1.
</event>
<event>
 5   0  0.1451052E-05  0.2623220E+04  0.7818609E-02  0.8360356E-01
        1   -1    0    0  501    0  0.00000000000E+00  0.00000000000E+00  0.14623731401E+04  0.14623731401E+04  0.50400001928E-02 0.  1.
       -1   -1    0    0    0  501  0.00000000000E+00  0.00000000000E+00 -0.11763898937E+04  0.11763898937E+04  0.50400001928E-02 0. -1.
    10030    2    1    2    0    0  0.00000000000E+00  0.00000000000E+00  0.28598324636E+03  0.26387630338E+04  0.26232201454E+04 0.  0.
        1    1    3    3  502    0  0.70483295513E+03 -0.75734496874E+02  0.12530680594E+04  0.14396891227E+04  0.50400001928E-02 0.  1.
       -1    1    3    3    0  502 -0.70483295513E+03  0.75734496874E+02 -0.96708481302E+03  0.11990739111E+04  0.50400001928E-02 0. -1.
</event>
<event>
 5   0  0.3441646E-05  0.2448731E+04  0.7818609E-02  0.8421482E-01
       -2   -1    0    0    0  501  0.00000000000E+00  0.00000000000E+00  0.10202677620E+04  0.10202677620E+04  0.25500000920E-02 0. -1.
        2   -1    0    0  501    0  0.00000000000E+00  0.00000000000E+00 -0.14692912570E+04  0.14692912570E+04  0.25500000920E-02 0.  1.
    10030    2    1    2    0    0  0.00000000000E+00  0.00000000000E+00 -0.44902349502E+03  0.24895590190E+04  0.24487306936E+04 0.  0.
        4    1    3    3  502    0 -0.97379864552E+03 -0.33099316077E+02  0.52926047853E+03  0.11088271433E+04  0.12699999809E+01 0. -1.
       -4    1    3    3    0  502  0.97379864552E+03  0.33099316077E+02 -0.97828397354E+03  0.13807318757E+04  0.12699999809E+01 0.  1.
</event>
<event>
 5   0  0.1497497E-05  0.2631890E+04  0.7818609E-02  0.8357449E-01
        1   -1    0    0  501    0  0.00000000000E+00  0.00000000000E+00  0.12571648552E+04  0.12571648552E+04  0.50400001928E-02 0. -1.
       -1   -1    0    0    0  501  0.00000000000E+00  0.00000000000E+00 -0.13774733823E+04  0.13774733823E+04  0.50400001928E-02 0.  1.
    10030    2    1    2    0    0  0.00000000000E+00  0.00000000000E+00 -0.12030852703E+03  0.26346382375E+04  0.26318899105E+04 0.  0.
        3    1    3    3  502    0 -0.14451466277E+03  0.38184155985E+03  0.11921611442E+04  0.12601331947E+04  0.10100000352E+00 0. -1.
       -3    1    3    3    0  502  0.14451466277E+03 -0.38184155985E+03 -0.13124696712E+04  0.13745050428E+04  0.10100000352E+00 0.  1.
</event>
<event>
 5   0  0.3499642E-05  0.2509730E+04  0.7818609E-02  0.8399527E-01
        2   -1    0    0  501    0  0.00000000000E+00  0.00000000000E+00  0.17936238780E+04  0.17936238780E+04  0.25500000920E-02 0.  1.
       -2   -1    0    0    0  501  0.00000000000E+00  0.00000000000E+00 -0.87793552139E+03  0.87793552139E+03  0.25500000920E-02 0. -1.
    10030    2    1    2    0    0  0.00000000000E+00  0.00000000000E+00  0.91568835656E+03  0.26715593994E+04  0.25097299572E+04 0.  0.
        2    1    3    3  502    0 -0.30814405428E+03 -0.94837917655E+03  0.12687454420E+04  0.16137195597E+04  0.25500000920E-02 0.  1.
       -2    1    3    3    0  502  0.30814405428E+03  0.94837917655E+03 -0.35305708548E+03  0.10578398396E+04  0.25500000920E-02 0. -1.
</event>
<event>
 5   0  0.1474554E-05  0.2148360E+04  0.7818609E-02  0.8540235E-01
        1   -1    0    0  501    0  0.00000000000E+00  0.00000000000E+00  0.15439264471E+04  0.15439264471E+04  0.50400001928E-02 0.  1.
       -1   -1    0    0    0  501  0.00000000000E+00  0.00000000000E+00 -0.74735588318E+03  0.74735588320E+03  0.50400001928E-02 0. -1.
    10030    2    1    2    0    0  0.00000000000E+00  0.00000000000E+00  0.79657056387E+03  0.22912823303E+04  0.21483598520E+04 0.  0.
        5    1    3    3  502    0 -0.35201708028E+03  0.18198435201E+03 -0.66653648517E+03  0.77545296779E+03  0.46999998093E+01 0. -1.
       -5    1    3    3    0  502  0.35201708028E+03 -0.18198435201E+03  0.14631070490E+04  0.15158293625E+04  0.46999998093E+01 0.  1.
</event>
<event>
 5   0  0.3441646E-05  0.2625262E+04  0.7818609E-02  0.8359671E-01
        2   -1    0    0  501    0  0.00000000000E+00  0.00000000000E+00  0.11812207503E+04  0.11812207503E+04  0.25500000920E-02 0.  1.
       -2   -1    0    0    0  501  0.00000000000E+00  0.00000000000E+00 -0.14586607819E+04  0.14586607819E+04  0.25500000920E-02 0. -1.
    10030    2    1    2    0    0  0.00000000000E+00  0.00000000000E+00 -0.27744003158E+03  0.26398815322E+04  0.26252621836E+04 0.  0.
        4    1    3    3  502    0 -0.57896862850E+03  0.42667150092E+03  0.96545924315E+03  0.12038963434E+04  0.12699999809E+01 0.  1.
       -4    1    3    3    0  502  0.57896862850E+03 -0.42667150092E+03 -0.12428992747E+04  0.14359851888E+04  0.12699999809E+01 0. -1.
</event>
<event>
 5   0  0.3849687E-05  0.2540206E+04  0.7818609E-02  0.8388800E-01
       -2   -1    0    0    0  501  0.00000000000E+00  0.00000000000E+00  0.95512085806E+03  0.95512085806E+03  0.25500000920E-02 0. -1.
        2   -1    0    0  501    0  0.00000000000E+00  0.00000000000E+00 -0.16889608275E+04  0.16889608275E+04  0.25500000920E-02 0.  1.
    10030    2    1    2    0    0  0.00000000000E+00  0.00000000000E+00 -0.73383996941E+03  0.26440816855E+04  0.25402060663E+04 0.  0.
        1    1    3    3  502    0  0.44791568467E+03  0.36973583905E+03 -0.15426350866E+04  0.16483494962E+04  0.50400001928E-02 0.  1.
       -1    1    3    3    0  502 -0.44791568467E+03 -0.36973583905E+03  0.80879511718E+03  0.99573218932E+03  0.50400001928E-02 0. -1.
</event>
<event>
 5   0  0.3849687E-05  0.2638611E+04  0.7818609E-02  0.8355203E-01
       -2   -1    0    0    0  501  0.00000000000E+00  0.00000000000E+00  0.92825109376E+03  0.92825109377E+03  0.25500000920E-02 0.  1.
        2   -1    0    0  501    0  0.00000000000E+00  0.00000000000E+00 -0.18751032909E+04  0.18751032910E+04  0.25500000920E-02 0. -1.
    10030    2    1    2    0    0  0.00000000000E+00  0.00000000000E+00 -0.94685219719E+03  0.28033543847E+04  0.26386107563E+04 0.  0.
        1    1    3    3  502    0  0.12645294861E+04 -0.20207824789E+03 -0.81056533880E+03  0.15155482862E+04  0.50400001928E-02 0. -1.
       -1    1    3    3    0  502 -0.12645294861E+04  0.20207824789E+03 -0.13628685839E+03  0.12878060985E+04  0.50400001928E-02 0.  1.
</event>
<event>
 5   0  0.1533248E-05  0.2320008E+04  0.7818609E-02  0.8470074E-01
        1   -1    0    0  501    0  0.00000000000E+00  0.00000000000E+00  0.18666220571E+04  0.18666220571E+04  0.50400001928E-02 0. -1.
       -1   -1    0    0    0  501  0.00000000000E+00  0.00000000000E+00 -0.72087918007E+03  0.72087918009E+03  0.50400001928E-02 0.  1.
    10030    2    1    2    0    0  0.00000000000E+00  0.00000000000E+00  0.11457428770E+04  0.25875012372E+04  0.23200077397E+04 0.  0.
        4    1    3    3  502    0  0.10012659581E+04 -0.21075376278E+02 -0.79963846382E+02  0.10046758283E+04  0.12699999809E+01 0.  1.
       -4    1    3    3    0  502 -0.10012659581E+04  0.21075376278E+02  0.12257067234E+04  0.15828254089E+04  0.12699999809E+01 0. -1.
</event>
<event>
 5   0  0.3441646E-05  0.2632546E+04  0.7818609E-02  0.8357229E-01
        2   -1    0    0  501    0  0.00000000000E+00  0.00000000000E+00  0.17571141393E+04  0.17571141393E+04  0.25500000920E-02 0. -1.
       -2   -1    0    0    0  501  0.00000000000E+00  0.00000000000E+00 -0.98603422620E+03  0.98603422620E+03  0.25500000920E-02 0.  1.
    10030    2    1    2    0    0  0.00000000000E+00  0.00000000000E+00  0.77107991306E+03  0.27431483655E+04  0.26325460533E+04 0.  0.
        4    1    3    3  502    0  0.96072320960E+03 -0.49842293444E+03  0.11661176141E+04  0.15909891294E+04  0.12699999809E+01 0. -1.
       -4    1    3    3    0  502 -0.96072320960E+03  0.49842293444E+03 -0.39503770107E+03  0.11521592360E+04  0.12699999809E+01 0.  1.
</event>
<event>
 5   0  0.3441646E-05  0.2675619E+04  0.7818609E-02  0.8342959E-01
        2   -1    0    0  501    0  0.00000000000E+00  0.00000000000E+00  0.11765695342E+04  0.11765695342E+04  0.25500000920E-02 0. -1.
       -2   -1    0    0    0  501  0.00000000000E+00  0.00000000000E+00 -0.15211459826E+04  0.15211459826E+04  0.25500000920E-02 0.  1.
    10030    2    1    2    0    0  0.00000000000E+00  0.00000000000E+00 -0.34457644847E+03  0.26977155168E+04  0.26756188220E+04 0.  0.
        4    1    3    3  502    0  0.12195662293E+04  0.25635248420E+03 -0.66279747747E+03  0.14115100045E+04  0.12699999809E+01 0. -1.
       -4    1    3    3    0  502 -0.12195662293E+04 -0.25635248420E+03  0.31822102900E+03  0.12862055123E+04  0.12699999809E+01 0.  1.
</event>
<event>
 5   0  0.1435062E-05  0.2225499E+04  0.7818609E-02  0.8507889E-01
       -1   -1    0    0    0  501  0.00000000000E+00  0.00000000000E+00  0.12035869775E+04  0.12035869775E+04  0.50400001928E-02 0. -1.
        1   -1    0    0  501    0  0.00000000000E+00  0.00000000000E+00 -0.10287681177E+04  0.10287681177E+04  0.50400001928E-02 0.  1.
    10030    2    1    2    0    0  0.00000000000E+00  0.00000000000E+00  0.17481885973E+03  0.22323550952E+04  0.22254994130E+04 0.  0.
        2    1    3    3  502    0 -0.80215687993E+02 -0.11034625831E+04 -0.31901000794E+02  0.11068341804E+04  0.25500000920E-02 0. -1.
       -2    1    3    3    0  502  0.80215687993E+02  0.11034625831E+04  0.20671986053E+03  0.11255209148E+04  0.25500000920E-02 0.  1.
</event>
<event>
 5   0  0.3441646E-05  0.2662218E+04  0.7818609E-02  0.8347369E-01
       -2   -1    0    0    0  501  0.00000000000E+00  0.00000000000E+00  0.64247410108E+03  0.64247410109E+03  0.25500000920E-02 0. -1.
        2   -1    0    0  501    0  0.00000000000E+00  0.00000000000E+00 -0.27578564676E+04  0.27578564676E+04  0.25500000920E-02 0.  1.
    10030    2    1    2    0    0  0.00000000000E+00  0.00000000000E+00 -0.21153823665E+04  0.34003305686E+04  0.26622181390E+04 0.  0.
        4    1    3    3  502    0 -0.12018583399E+03  0.11293481577E+04 -0.19444204440E+04  0.22518091331E+04  0.12699999809E+01 0.  1.
       -4    1    3    3    0  502  0.12018583399E+03 -0.11293481577E+04 -0.17096192251E+03  0.11485214356E+04  0.12699999809E+01 0. -1.
</event>
<event>
 5   0  0.1474554E-05  0.2590972E+04  0.7818609E-02  0.8371274E-01
       -1   -1    0    0    0  501  0.00000000000E+00  0.00000000000E+00  0.10933540303E+04  0.10933540303E+04  0.50400001928E-02 0.  1.
        1   -1    0    0  501    0  0.00000000000E+00  0.00000000000E+00 -0.15349866101E+04  0.15349866102E+04  0.50400001928E-02 0. -1.
    10030    2    1    2    0    0  0.00000000000E+00  0.00000000000E+00 -0.44163257989E+03  0.26283406404E+04  0.25909718614E+04 0.  0.
        5    1    3    3  502    0  0.12764294917E+04  0.25967494102E+02  0.21609898984E+01  0.12767040840E+04  0.46999998093E+01 0.  1.
       -5    1    3    3    0  502 -0.12764294917E+04 -0.25967494102E+02 -0.44379356979E+03  0.13516365565E+04  0.46999998093E+01 0. -1.
</event>
<event>
 5   0  0.1474554E-05  0.2285136E+04  0.7818609E-02  0.8483805E-01
        1   -1    0    0  501    0  0.00000000000E+00  0.00000000000E+00  0.97733473166E+03  0.97733473168E+03  0.50400001928E-02 0.  1.
       -1   -1    0    0    0  501  0.00000000000E+00  0.00000000000E+00 -0.13357369270E+04  0.13357369270E+04  0.50400001928E-02 0. -1.
    10030    2    1    2    0    0  0.00000000000E+00  0.00000000000E+00 -0.35840219534E+03  0.23130716587E+04  0.22851363996E+04 0.  0.
        5    1    3    3  502    0  0.86290068860E+02 -0.54200037288E+03 -0.11935642690E+04  0.13137077813E+04  0.46999998093E+01 0. -1.
       -5    1    3    3    0  502 -0.86290068860E+02  0.54200037288E+03  0.83516207370E+03  0.99936387744E+03  0.46999998093E+01 0.  1.
</event>
<event>
 5   0  0.1474554E-05  0.2631485E+04  0.7818609E-02  0.8357584E-01
       -1   -1    0    0    0  501  0.00000000000E+00  0.00000000000E+00  0.14592225896E+04  0.14592225897E+04  0.50400001928E-02 0.  1.
        1   -1    0    0  501    0  0.00000000000E+00  0.00000000000E+00 -0.11863702918E+04  0.11863702918E+04  0.50400001928E-02 0. -1.
    10030    2    1    2    0    0  0.00000000000E+00  0.00000000000E+00  0.27285229786E+03  0.26455928814E+04  0.26314850024E+04 0.  0.
        5    1    3    3  502    0 -0.25536172510E+03  0.72262937681E+03 -0.93877152358E+03  0.12119063043E+04  0.46999998093E+01 0. -1.
       -5    1    3    3    0  502  0.25536172510E+03 -0.72262937681E+03  0.12116238214E+04  0.14336865772E+04  0.46999998093E+01 0.  1.
</event>
<event>
 5   0  0.1435062E-05  0.2602072E+04  0.7818609E-02  0.8367498E-01
       -1   -1    0    0    0  501  0.00000000000E+00  0.00000000000E+00  0.17123493604E+04  0.17123493604E+04  0.50400001928E-02 0.  1.
        1   -1    0    0  501    0  0.00000000000E+00  0.00000000000E+00 -0.98852142301E+03  0.98852142302E+03  0.50400001928E-02 0. -1.
    10030    2    1    2    0    0  0.00000000000E+00  0.00000000000E+00  0.72382793740E+03  0.27008707834E+04  0.26020715028E+04 0.  0.
        2    1    3    3  502    0 -0.56300724112E+03 -0.87303054236E+02 -0.85215320360E+03  0.10250678315E+04  0.25500000920E-02 0. -1.
       -2    1    3    3    0  502  0.56300724112E+03  0.87303054236E+02  0.15759811410E+04  0.16758029519E+04  0.25500000920E-02 0.  1.
</event>
<event>
 5   0  0.3647623E-05  0.2654991E+04  0.7818609E-02  0.8349758E-01
        2   -1    0    0  501    0  0.00000000000E+00  0.00000000000E+00  0.14315197930E+04  0.14315197930E+04  0.25500000920E-02 0.  1.
       -2   -1    0    0    0  501  0.00000000000E+00  0.00000000000E+00 -0.12310302090E+04  0.12310302090E+04  0.25500000920E-02 0. -1.
    10030    2    1    2    0    0  0.00000000000E+00  0.00000000000E+00  0.20048958397E+03  0.26625500020E+04  0.26549908549E+04 0.  0.
        3    1    3    3  502    0 -0.47291473884E+03 -0.12330118249E+04  0.23582434559E+03  0.13414841194E+04  0.10100000352E+00 0.  1.
       -3    1    3    3    0  502  0.47291473884E+03  0.12330118249E+04 -0.35334761620E+02  0.13210658826E+04  0.10100000352E+00 0. -1.
</event>
<event>
 5   0  0.3508470E-05  0.2404783E+04  0.7818609E-02  0.8437715E-01
        2   -1    0    0  501    0  0.00000000000E+00  0.00000000000E+00  0.94586308060E+03  0.94586308061E+03  0.25500000920E-02 0. -1.
       -2   -1    0    0    0  501  0.00000000000E+00  0.00000000000E+00 -0.15284931384E+04  0.15284931384E+04  0.25500000920E-02 0.  1.
    10030    2    1    2    0    0  0.00000000000E+00  0.00000000000E+00 -0.58263005781E+03  0.24743562190E+04  0.24047829246E+04 0.  0.
        5    1    3    3  502    0 -0.11308528538E+04  0.11496422948E+03 -0.69467468522E+03  0.13321561317E+04  0.46999998093E+01 0.  1.
       -5    1    3    3    0  502  0.11308528538E+04 -0.11496422948E+03  0.11204462741E+03  0.11422000873E+04  0.46999998093E+01 0. -1.
</event>
<event>
 5   0  0.3499642E-05  0.2613020E+04  0.7818609E-02  0.8363792E-01
        2   -1    0    0  501    0  0.00000000000E+00  0.00000000000E+00  0.12794925106E+04  0.12794925106E+04  0.25500000920E-02 0.  1.
       -2   -1    0    0    0  501  0.00000000000E+00  0.00000000000E+00 -0.13340984788E+04  0.13340984788E+04  0.25500000920E-02 0. -1.
    10030    2    1    2    0    0  0.00000000000E+00  0.00000000000E+00 -0.54605968166E+02  0.26135909893E+04  0.26130204836E+04 0.  0.
        2    1    3    3  502    0 -0.34353554099E+03 -0.10349321280E+02 -0.12880722344E+04  0.13331368487E+04  0.25500000920E-02 0. -1.
       -2    1    3    3    0  502  0.34353554099E+03  0.10349321280E+02  0.12334662662E+04  0.12804541406E+04  0.25500000920E-02 0.  1.
</event>
<event>
 5   0  0.1533248E-05  0.2608548E+04  0.7818609E-02  0.8365304E-01
        1   -1    0    0  501    0  0.00000000000E+00  0.00000000000E+00  0.14331882285E+04  0.14331882285E+04  0.50400001928E-02 0.  1.
       -1   -1    0    0    0  501  0.00000000000E+00  0.00000000000E+00 -0.11869553214E+04  0.11869553214E+04  0.50400001928E-02 0. -1.
    10030    2    1    2    0    0  0.00000000000E+00  0.00000000000E+00  0.24623290709E+03  0.26201435500E+04  0.26085477910E+04 0.  0.
        4    1    3    3  502    0 -0.71601346743E+03 -0.98989797787E+03  0.58182528395E+03  0.13531797981E+04  0.12699999809E+01 0.  1.
       -4    1    3    3    0  502  0.71601346743E+03  0.98989797787E+03 -0.33559237686E+03  0.12669637518E+04  0.12699999809E+01 0. -1.
</event>
<event>
 5   0  0.3849687E-05  0.2600212E+04  0.7818609E-02  0.8368129E-01
       -2   -1    0    0    0  501  0.00000000000E+00  0.00000000000E+00  0.13518878462E+04  0.13518878462E+04  0.25500000920E-02 0. -1.
        2   -1    0    0  501    0  0.00000000000E+00  0.00000000000E+00 -0.12503073846E+04  0.12503073846E+04  0.25500000920E-02 0.  1.
    10030    2    1    2    0    0  0.00000000000E+00  0.00000000000E+00  0.10158046162E+03  0.26021952309E+04  0.26002118047E+04 0.  0.
        1    1    3    3  502    0 -0.10349831103E+03 -0.91362513550E+03  0.97064997955E+03  0.13370056737E+04  0.50400001928E-02 0. -1.
       -1    1    3    3    0  502  0.10349831103E+03  0.91362513550E+03 -0.86906951792E+03  0.12651895572E+04  0.50400001928E-02 0.  1.
</event>
<event>
 5   0  0.1435062E-05  0.2135713E+04  0.7818609E-02  0.8545673E-01
        1   -1    0    0  501    0  0.00000000000E+00  0.00000000000E+00  0.20311736579E+04  0.20311736579E+04  0.50400001928E-02 0.  1.
       -1   -1    0    0    0  501  0.00000000000E+00  0.00000000000E+00 -0.56140810677E+03  0.56140810679E+03  0.50400001928E-02 0. -1.
    10030    2    1    2    0    0  0.00000000000E+00  0.00000000000E+00  0.14697655511E+04  0.25925817647E+04  0.21357128626E+04 0.  0.
        2    1    3    3  502    0 -0.63366597430E+03  0.36981113386E+03 -0.20699963675E+03  0.76232649917E+03  0.25500000920E-02 0. -1.
       -2    1    3    3    0  502  0.63366597430E+03 -0.36981113386E+03  0.16767651879E+04  0.18302552655E+04  0.25500000920E-02 0.  1.
</event>
<event>
 5   0  0.1451052E-05  0.2016472E+04  0.7818609E-02  0.8598958E-01
       -1   -1    0    0    0  501  0.00000000000E+00  0.00000000000E+00  0.15249571035E+04  0.15249571035E+04  0.50400001928E-02 0. -1.
        1   -1    0    0  501    0  0.00000000000E+00  0.00000000000E+00 -0.66660211111E+03  0.66660211113E+03  0.50400001928E-02 0.  1.
    10030    2    1    2    0    0  0.00000000000E+00  0.00000000000E+00  0.85835499241E+03  0.21915592147E+04  0.20164717946E+04 0.  0.
        1    1    3    3  502    0  0.74932236252E+03  0.39687859985E+03 -0.16366035649E+03  0.86358632360E+03  0.50400001928E-02 0. -1.
       -1    1    3    3    0  502 -0.74932236252E+03 -0.39687859985E+03  0.10220153489E+04  0.13279728911E+04  0.50400001928E-02 0.  1.
</event>
<event>
 5   0  0.1497497E-05  0.2558394E+04  0.7818609E-02  0.8382473E-01
        1   -1    0    0  501    0  0.00000000000E+00  0.00000000000E+00  0.13358202428E+04  0.13358202428E+04  0.50400001928E-02 0.  1.
       -1   -1    0    0    0  501  0.00000000000E+00  0.00000000000E+00 -0.12249743118E+04  0.12249743118E+04  0.50400001928E-02 0. -1.
    10030    2    1    2    0    0  0.00000000000E+00  0.00000000000E+00  0.11084593106E+03  0.25607945546E+04  0.25583944048E+04 0.  0.
        3    1    3    3  502    0  0.57412921826E+03 -0.52595084671E+03  0.10713119806E+04  0.13243708025E+04  0.10100000352E+00 0.  1.
       -3    1    3    3    0  502 -0.57412921826E+03  0.52595084671E+03 -0.96046604954E+03  0.12364237522E+04  0.10100000352E+00 0. -1.
</event>
<event>
 5   0  0.1435062E-05  0.2593741E+04  0.7818609E-02  0.8370330E-01
       -1   -1    0    0    0  501  0.00000000000E+00  0.00000000000E+00  0.15267541126E+04  0.15267541126E+04  0.50400001928E-02 0. -1.
        1   -1    0    0  501    0  0.00000000000E+00  0.00000000000E+00 -0.11016006335E+04  0.11016006335E+04  0.50400001928E-02 0.  1.
    10030    2    1    2    0    0  0.00000000000E+00  0.00000000000E+00  0.42515347912E+03  0.26283547461E+04  0.25937411572E+04 0.  0.
        2    1    3    3  502    0 -0.39959991411E+03  0.29390007133E+03 -0.10016694102E+04  0.11177651590E+04  0.25500000920E-02 0. -1.
       -2    1    3    3    0  502  0.39959991411E+03 -0.29390007133E+03  0.14268228893E+04  0.15105895871E+04  0.25500000920E-02 0.  1.
</event>
<event>
 5   0  0.1497497E-05  0.2536399E+04  0.7818609E-02  0.8390132E-01
       -1   -1    0    0    0  501  0.00000000000E+00  0.00000000000E+00  0.68785769167E+03  0.68785769169E+03  0.50400001928E-02 0. -1.
        1   -1    0    0  501    0  0.00000000000E+00  0.00000000000E+00 -0.23381723993E+04  0.23381723993E+04  0.50400001928E-02 0.  1.
    10030    2    1    2    0    0  0.00000000000E+00  0.00000000000E+00 -0.16503147076E+04  0.30260300910E+04  0.25363989192E+04 0.  0.
        3    1    3    3  502    0 -0.89920863714E+03  0.77539628317E+03 -0.29359823796E+03  0.12231171263E+04  0.10100000352E+00 0. -1.
       -3    1    3    3    0  502  0.89920863714E+03 -0.77539628317E+03 -0.13567164696E+04  0.18029129647E+04  0.10100000352E+00 0.  1.
</event>
<event>
 5   0  0.1451052E-05  0.2745927E+04  0.7818609E-02  0.8320255E-01
        1   -1    0    0  501    0  0.00000000000E+00  0.00000000000E+00  0.15079585620E+04  0.15079585620E+04  0.50400001928E-02 0. -1.
       -1   -1    0    0    0  501  0.00000000000E+00  0.00000000000E+00 -0.12500531453E+04  0.12500531453E+04  0.50400001928E-02 0.  1.
    10030    2    1    2    0    0  0.00000000000E+00  0.00000000000E+00  0.25790541671E+03  0.27580117072E+04  0.27459266875E+04 0.  0.
        1    1    3    3  502    0 -0.45940777443E+03 -0.11142680776E+04  0.78940235239E+03  0.14407653959E+04  0.50400001928E-02 0. -1.
       -1    1    3    3    0  502  0.45940777443E+03  0.11142680776E+04 -0.53149693567E+03  0.13172463113E+04  0.50400001928E-02 0.  1.
</event>
<event>
 5   0  0.1435062E-05  0.2584106E+04  0.7818609E-02  0.8373620E-01
        1   -1    0    0  501    0  0.00000000000E+00  0.00000000000E+00  0.14841446385E+04  0.14841446385E+04  0.50400001928E-02 0.  1.
       -1   -1    0    0    0  501  0.00000000000E+00  0.00000000000E+00 -0.11248237368E+04  0.11248237368E+04  0.50400001928E-02 0. -1.
    10030    2    1    2    0    0  0.00000000000E+00  0.00000000000E+00  0.35932090175E+03  0.26089683753E+04  0.25841061265E+04 0.  0.
        2    1    3    3  502    0  0.24568382432E+03 -0.69492784754E+03 -0.89173551623E+03  0.11569258774E+04  0.25500000920E-02 0. -1.
       -2    1    3    3    0  502 -0.24568382432E+03  0.69492784754E+03  0.12510564180E+04  0.14520424979E+04  0.25500000920E-02 0.  1.
</event>
<event>
 5   0  0.3499642E-05  0.2623116E+04  0.7818609E-02  0.8360391E-01
       -2   -1    0    0    0  501  0.00000000000E+00  0.00000000000E+00  0.11002285270E+04  0.11002285270E+04  0.25500000920E-02 0. -1.
        2   -1    0    0  501    0  0.00000000000E+00  0.00000000000E+00 -0.15634792167E+04  0.15634792168E+04  0.25500000920E-02 0.  1.
    10030    2    1    2    0    0  0.00000000000E+00  0.00000000000E+00 -0.46325068977E+03  0.26637077437E+04  0.26231160368E+04 0.  0.
        2    1    3    3  502    0 -0.25396678643E+03 -0.75628213819E+03 -0.12887547242E+04  0.15157013361E+04  0.25500000920E-02 0.  1.
       -2    1    3    3    0  502  0.25396678643E+03  0.75628213819E+03  0.82550403441E+03  0.11480064076E+04  0.25500000920E-02 0. -1.
</event>
<event>
 5   0  0.1435062E-05  0.2407776E+04  0.7818609E-02  0.8436598E-01
       -1   -1    0    0    0  501  0.00000000000E+00  0.00000000000E+00  0.83799283696E+03  0.83799283698E+03  0.50400001928E-02 0.  1.
        1   -1    0    0  501    0  0.00000000000E+00  0.00000000000E+00 -0.17295445209E+04  0.17295445209E+04  0.50400001928E-02 0. -1.
    10030    2    1    2    0    0  0.00000000000E+00  0.00000000000E+00 -0.89155168393E+03  0.25675373579E+04  0.24077756704E+04 0.  0.
        2    1    3    3  502    0 -0.11087408888E+04 -0.33652462948E+03 -0.79424756061E+03  0.14047720001E+04  0.25500000920E-02 0. -1.
       -2    1    3    3    0  502  0.11087408888E+04  0.33652462948E+03 -0.97304123319E+02  0.11627653578E+04  0.25500000920E-02 0.  1.
</event>
<event>
 5   0  0.1474554E-05  0.2565400E+04  0.7818609E-02  0.8380050E-01
        1   -1    0    0  501    0  0.00000000000E+00  0.00000000000E+00  0.29050540245E+04  0.29050540245E+04  0.50400001928E-02 0.  1.
       -1   -1    0    0    0  501  0.00000000000E+00  0.00000000000E+00 -0.56636439287E+03  0.56636439289E+03  0.50400001928E-02 0. -1.
    10030    2    1    2    0    0  0.00000000000E+00  0.00000000000E+00  0.23386896317E+04  0.34714184174E+04  0.25653998978E+04 0.  0.
        5    1    3    3  502    0 -0.93286445101E+02 -0.76858706290E+03 -0.21450977746E+03  0.80340834495E+03  0.46999998093E+01 0. -1.
       -5    1    3    3    0  502  0.93286445101E+02  0.76858706290E+03  0.25531994091E+04  0.26680100725E+04  0.46999998093E+01 0.  1.
</event>
<event>
 5   0  0.3647623E-05  0.2609613E+04  0.7818609E-02  0.8364943E-01
       -2   -1    0    0    0  501  0.00000000000E+00  0.00000000000E+00  0.11749388602E+04  0.11749388602E+04  0.25500000920E-02 0. -1.
        2   -1    0    0  501    0  0.00000000000E+00  0.00000000000E+00 -0.14490281293E+04  0.14490281293E+04  0.25500000920E-02 0.  1.
    10030    2    1    2    0    0  0.00000000000E+00  0.00000000000E+00 -0.27408926913E+03  0.26239669895E+04  0.26096125833E+04 0.  0.
        3    1    3    3  502    0  0.10158643130E+04 -0.80750200851E+03 -0.35700028558E+00  0.12977056422E+04  0.10100000352E+00 0.  1.
       -3    1    3    3    0  502 -0.10158643130E+04  0.80750200851E+03 -0.27373226884E+03  0.13262613473E+04  0.10100000352E+00 0. -1.
</event>
<event>
 5   0  0.3647623E-05  0.2704747E+04  0.7818609E-02  0.8333466E-01
       -2   -1    0    0    0  501  0.00000000000E+00  0.00000000000E+00  0.75828023811E+03  0.75828023811E+03  0.25500000920E-02 0.  1.
        2   -1    0    0  501    0  0.00000000000E+00  0.00000000000E+00 -0.24119244362E+04  0.24119244362E+04  0.25500000920E-02 0. -1.
    10030    2    1    2    0    0  0.00000000000E+00  0.00000000000E+00 -0.16536441981E+04  0.31702046743E+04  0.27047474084E+04 0.  0.
        3    1    3    3  502    0  0.24679565131E+03  0.41895381709E+02 -0.23845329207E+04  0.23976364563E+04  0.10100000352E+00 0. -1.
       -3    1    3    3    0  502 -0.24679565131E+03 -0.41895381709E+02  0.73088872258E+03  0.77256821803E+03  0.10100000352E+00 0.  1.
</event>
<event>
 5   0  0.3441646E-05  0.2590333E+04  0.7818609E-02  0.8371492E-01
        2   -1    0    0  501    0  0.00000000000E+00  0.00000000000E+00  0.11269403926E+04  0.11269403926E+04  0.25500000920E-02 0. -1.
       -2   -1    0    0    0  501  0.00000000000E+00  0.00000000000E+00 -0.14885054391E+04  0.14885054391E+04  0.25500000920E-02 0.  1.
    10030    2    1    2    0    0  0.00000000000E+00  0.00000000000E+00 -0.36156504645E+03  0.26154458317E+04  0.25903334951E+04 0.  0.
        4    1    3    3  502    0 -0.69915939980E+03  0.10694763948E+04  0.33052745419E+02  0.12781618529E+04  0.12699999809E+01 0.  1.
       -4    1    3    3    0  502  0.69915939980E+03 -0.10694763948E+04 -0.39461779187E+03  0.13372839788E+04  0.12699999809E+01 0. -1.
</event>
<event>
 5   0  0.3647623E-05  0.2490927E+04  0.7818609E-02  0.8406225E-01
        2   -1    0    0  501    0  0.00000000000E+00  0.00000000000E+00  0.13700287077E+04  0.13700287077E+04  0.25500000920E-02 0. -1.
       -2   -1    0    0    0  501  0.00000000000E+00  0.00000000000E+00 -0.11322237662E+04  0.11322237662E+04  0.25500000920E-02 0.  1.
    10030    2    1    2    0    0  0.00000000000E+00  0.00000000000E+00  0.23780494156E+03  0.25022524739E+04  0.24909267859E+04 0.  0.
        3    1    3    3  502    0 -0.27092834002E+03 -0.79806834978E+03 -0.80225311863E+03  0.11635829721E+04  0.10100000352E+00 0.  1.
       -3    1    3    3    0  502  0.27092834002E+03  0.79806834978E+03  0.10400580602E+04  0.13386695018E+04  0.10100000352E+00 0. -1.
</event>
<event>
 5   0  0.3849687E-05  0.1710780E+04  0.7818609E-02  0.8755240E-01
        2   -1    0    0  501    0  0.00000000000E+00  0.00000000000E+00  0.10218678979E+04  0.10218678979E+04  0.25500000920E-02 0.  1.
       -2   -1    0    0    0  501  0.00000000000E+00  0.00000000000E+00 -0.71603426561E+03  0.71603426562E+03  0.25500000920E-02 0. -1.
    10030    2    1    2    0    0  0.00000000000E+00  0.00000000000E+00  0.30583363233E+03  0.17379021636E+04  0.17107804416E+04 0.  0.
        1    1    3    3  502    0 -0.46561412009E+03 -0.17624230406E+02 -0.57580158856E+03  0.74071221924E+03  0.50400001928E-02 0. -1.
       -1    1    3    3    0  502  0.46561412009E+03  0.17624230406E+02  0.88163522088E+03  0.99718994432E+03  0.50400001928E-02 0.  1.
</event>
<event>
 5   0  0.3508470E-05  0.2624405E+04  0.7818609E-02  0.8359958E-01
       -2   -1    0    0    0  501  0.00000000000E+00  0.00000000000E+00  0.10635134961E+04  0.10635134961E+04  0.25500000920E-02 0.  1.
        2   -1    0    0  501    0  0.00000000000E+00  0.00000000000E+00 -0.16190442306E+04  0.16190442306E+04  0.25500000920E-02 0. -1.
    10030    2    1    2    0    0  0.00000000000E+00  0.00000000000E+00 -0.55553073447E+03  0.26825577268E+04  0.26244049917E+04 0.  0.
        5    1    3    3  502    0 -0.52586297941E+03 -0.70583153049E+02  0.94896932851E+03  0.10872344416E+04  0.46999998093E+01 0.  1.
       -5    1    3    3    0  502  0.52586297941E+03  0.70583153049E+02 -0.15045000630E+04  0.15953232851E+04  0.46999998093E+01 0. -1.
</event>
<event>
 5   0  0.3508470E-05  0.2594969E+04  0.7818609E-02  0.8369912E-01
        2   -1    0    0  501    0  0.00000000000E+00  0.00000000000E+00  0.14828523075E+04  0.14828523075E+04  0.25500000920E-02 0. -1.
       -2   -1    0    0    0  501  0.00000000000E+00  0.00000000000E+00 -0.11352888903E+04  0.11352888903E+04  0.25500000920E-02 0.  1.
    10030    2    1    2    0    0  0.00000000000E+00  0.00000000000E+00  0.34756341726E+03  0.26181411978E+04  0.25949687864E+04 0.  0.
        5    1    3    3  502    0  0.20111893791E+03  0.64201970566E+03  0.12931052707E+04  0.14576630135E+04  0.46999998093E+01 0. -1.
       -5    1    3    3    0  502 -0.20111893791E+03 -0.64201970566E+03 -0.94554185347E+03  0.11604781843E+04  0.46999998093E+01 0.  1.
</event>
<event>
 5   0  0.1497497E-05  0.2596345E+04  0.7818609E-02  0.8369444E-01
        1   -1    0    0  501    0  0.00000000000E+00  0.00000000000E+00  0.15490384671E+04  0.15490384671E+04  0.50400001928E-02 0.  1.
       -1   -1    0    0    0  501  0.00000000000E+00  0.00000000000E+00 -0.10879338731E+04  0.10879338731E+04  0.50400001928E-02 0. -1.
    10030    2    1    2    0    0  0.00000000000E+00  0.00000000000E+00  0.46110459404E+03  0.26369723402E+04  0.25963446760E+04 0.  0.
        3    1    3    3  502    0  0.78862317061E+03 -0.42252792015E+03 -0.72480224496E+03  0.11514315668E+04  0.10100000352E+00 0. -1.
       -3    1    3    3    0  502 -0.78862317061E+03  0.42252792015E+03  0.11859068390E+04  0.14855407734E+04  0.10100000352E+00 0.  1.
</event>
<event>
 5   0  0.1451052E-05  0.2585982E+04  0.7818609E-02  0.8372978E-01
        1   -1    0    0  501    0  0.00000000000E+00  0.00000000000E+00  0.12308103199E+04  0.12308103199E+04  0.50400001928E-02 0. -1.
       -1   -1    0    0    0  501  0.00000000000E+00  0.00000000000E+00 -0.13583130371E+04  0.13583130371E+04  0.50400001928E-02 0.  1.
    10030    2    1    2    0    0  0.00000000000E+00  0.00000000000E+00 -0.12750271725E+03  0.25891233570E+04  0.25859819827E+04 0.  0.
        1    1    3    3  502    0  0.29693340543E+03  0.54108303731E+02  0.11950462125E+04  0.12325715418E+04  0.50400001928E-02 0. -1.
       -1    1    3    3    0  502 -0.29693340543E+03 -0.54108303731E+02 -0.13225489297E+04  0.13565518152E+04  0.50400001928E-02 0.  1.
</event>
<event>
 5   0  0.1497497E-05  0.2483432E+04  0.7818609E-02  0.8408912E-01
        1   -1    0    0  501    0  0.00000000000E+00  0.00000000000E+00  0.14203449677E+04  0.14203449677E+04  0.50400001928E-02 0. -1.
       -1   -1    0    0    0  501  0.00000000000E+00  0.00000000000E+00 -0.10855519884E+04  0.10855519884E+04  0.50400001928E-02 0.  1.
    10030    2    1    2    0    0  0.00000000000E+00  0.00000000000E+00  0.33479297930E+03  0.25058969561E+04  0.24834317417E+04 0.  0.
        3    1    3    3  502    0  0.10365658763E+03  0.85875907140E+03 -0.73153071396E+03  0.11328499576E+04  0.10100000352E+00 0.  1.
       -3    1    3    3    0  502 -0.10365658763E+03 -0.85875907140E+03  0.10663236933E+04  0.13730469984E+04  0.10100000352E+00 0. -1.
</event>
<event>
 5   0  0.1451052E-05  0.2615785E+04  0.7818609E-02  0.8362859E-01
       -1   -1    0    0    0  501  0.00000000000E+00  0.00000000000E+00  0.84898414864E+03  0.84898414865E+03  0.50400001928E-02 0. -1.
        1   -1    0    0  501    0  0.00000000000E+00  0.00000000000E+00 -0.20148582935E+04  0.20148582935E+04  0.50400001928E-02 0.  1.
    10030    2    1    2    0    0  0.00000000000E+00  0.00000000000E+00 -0.11658741449E+04  0.28638424422E+04  0.26157849705E+04 0.  0.
        1    1    3    3  502    0 -0.78763873597E+03 -0.10091898060E+04 -0.87618814001E+03  0.15513041287E+04  0.50400001928E-02 0.  1.
       -1    1    3    3    0  502  0.78763873597E+03  0.10091898060E+04 -0.28968600486E+03  0.13125383135E+04  0.50400001928E-02 0. -1.
</event>
<event>
 5   0  0.1533248E-05  0.2607705E+04  0.7818609E-02  0.8365589E-01
       -1   -1    0    0    0  501  0.00000000000E+00  0.00000000000E+00  0.11992381041E+04  0.11992381042E+04  0.50400001928E-02 0.  1.
        1   -1    0    0  501    0  0.00000000000E+00  0.00000000000E+00 -0.14175925351E+04  0.14175925351E+04  0.50400001928E-02 0. -1.
    10030    2    1    2    0    0  0.00000000000E+00  0.00000000000E+00 -0.21835443099E+03  0.26168306393E+04  0.26077047258E+04 0.  0.
        4    1    3    3  502    0 -0.35385401891E+03 -0.30320748696E+03  0.11128207638E+04  0.12064489679E+04  0.12699999809E+01 0.  1.
       -4    1    3    3    0  502  0.35385401891E+03  0.30320748696E+03 -0.13311751948E+04  0.14103816714E+04  0.12699999809E+01 0. -1.
</event>
<event>
 5   0  0.3441646E-05  0.2629626E+04  0.7818609E-02  0.8358207E-01
       -2   -1    0    0    0  501  0.00000000000E+00  0.00000000000E+00  0.75793050358E+03  0.75793050359E+03  0.25500000920E-02 0.  1.
        2   -1    0    0  501    0  0.00000000000E+00  0.00000000000E+00 -0.22808600314E+04  0.22808600314E+04  0.25500000920E-02 0. -1.
    10030    2    1    2    0    0  0.00000000000E+00  0.00000000000E+00 -0.15229295278E+04  0.30387905350E+04  0.26296261272E+04 0.  0.
        4    1    3    3  502    0  0.12537763000E+03  0.12658085407E+04 -0.37690759173E+03  0.13266694228E+04  0.12699999809E+01 0.  1.
       -4    1    3    3    0  502 -0.12537763000E+03 -0.12658085407E+04 -0.11460219361E+04  0.17121211122E+04  0.12699999809E+01 0. -1.
</event>
<event>
 5   0  0.3508470E-05  0.2241776E+04  0.7818609E-02  0.8501239E-01
       -2   -1    0    0    0  501  0.00000000000E+00  0.00000000000E+00  0.13618918174E+04  0.13618918174E+04  0.25500000920E-02 0. -1.
        2   -1    0    0  501    0  0.00000000000E+00  0.00000000000E+00 -0.92253258599E+03  0.92253258600E+03  0.25500000920E-02 0.  1.
    10030    2    1    2    0    0  0.00000000000E+00  0.00000000000E+00  0.43935923144E+03  0.22844244034E+04  0.22417757071E+04 0.  0.
        5    1    3    3  502    0  0.78049689581E+03 -0.44450497917E+03  0.90296379002E+03  0.12736270164E+04  0.46999998093E+01 0. -1.
       -5    1    3    3    0  502 -0.78049689581E+03  0.44450497917E+03 -0.46360455857E+03  0.10107973870E+04  0.46999998093E+01 0.  1.
</event>
<event>
 5   0  0.1451052E-05  0.2588226E+04  0.7818609E-02  0.8372212E-01
        1   -1    0    0  501    0  0.00000000000E+00  0.00000000000E+00  0.21519358798E+04  0.21519358798E+04  0.50400001928E-02 0.  1.
       -1   -1    0    0    0  501  0.00000000000E+00  0.00000000000E+00 -0.77824247599E+03  0.77824247600E+03  0.50400001928E-02 0. -1.
    10030    2    1    2    0    0  0.00000000000E+00  0.00000000000E+00  0.13736934038E+04  0.29301783558E+04  0.25882255754E+04 0.  0.
        1    1    3    3  502    0 -0.34289791564E+03  0.12471274654E+04  0.63852218649E+03  0.14424342197E+04  0.50400001928E-02 0.  1.
       -1    1    3    3    0  502  0.34289791564E+03 -0.12471274654E+04  0.73517121733E+03  0.14877441361E+04  0.50400001928E-02 0. -1.
</event>
<event>
 5   0  0.3647623E-05  0.2343779E+04  0.7818609E-02  0.8460857E-01
       -2   -1    0    0    0  501  0.00000000000E+00  0.00000000000E+00  0.15999588459E+04  0.15999588459E+04  0.25500000920E-02 0. -1.
        2   -1    0    0  501    0  0.00000000000E+00  0.00000000000E+00 -0.85835041711E+03  0.85835041711E+03  0.25500000920E-02 0.  1.
    10030    2    1    2    0    0  0.00000000000E+00  0.00000000000E+00  0.74160842881E+03  0.24583092630E+04  0.23437792923E+04 0.  0.
        3    1    3    3  502    0  0.63976276611E+03 -0.35384153368E+03  0.13314328193E+04  0.15189514773E+04  0.10100000352E+00 0. -1.
       -3    1    3    3    0  502 -0.63976276611E+03  0.35384153368E+03 -0.58982439048E+03  0.93935778575E+03  0.10100000352E+00 0.  1.
</event>
<event>
 5   0  0.3849687E-05  0.2600987E+04  0.7818609E-02  0.8367866E-01
        2   -1    0    0  501    0  0.00000000000E+00  0.00000000000E+00  0.20827712757E+04  0.20827712757E+04  0.25500000920E-02 0. -1.
       -2   -1    0    0    0  501  0.00000000000E+00  0.00000000000E+00 -0.81203499316E+03  0.81203499316E+03  0.25500000920E-02 0.  1.
    10030    2    1    2    0    0  0.00000000000E+00  0.00000000000E+00  0.12707362826E+04  0.28948062689E+04  0.26009868578E+04 0.  0.
        1    1    3    3  502    0  0.48464340388E+03 -0.71974549218E+03 -0.44275529401E+03  0.97413810768E+03  0.50400001928E-02 0.  1.
       -1    1    3    3    0  502 -0.48464340388E+03  0.71974549218E+03  0.17134915766E+04  0.19206681612E+04  0.50400001928E-02 0. -1.
</event>
<event>
 5   0  0.3499642E-05  0.2623752E+04  0.7818609E-02  0.8360178E-01
        2   -1    0    0  501    0  0.00000000000E+00  0.00000000000E+00  0.11415779277E+04  0.11415779277E+04  0.25500000920E-02 0. -1.
       -2   -1    0    0    0  501  0.00000000000E+00  0.00000000000E+00 -0.15075792436E+04  0.15075792436E+04  0.25500000920E-02 0.  1.
    10030    2    1    2    0    0  0.00000000000E+00  0.00000000000E+00 -0.36600131589E+03  0.26491571713E+04  0.26237524188E+04 0.  0.
        2    1    3    3  502    0 -0.10454432152E+04  0.29704344083E+02  0.61661781211E+03  0.12141051810E+04  0.25500000920E-02 0. -1.
       -2    1    3    3    0  502  0.10454432152E+04 -0.29704344083E+02 -0.98261912799E+03  0.14350519903E+04  0.25500000920E-02 0.  1.
</event>
<event>
 5   0  0.1435062E-05  0.1857546E+04  0.7818609E-02  0.8676282E-01
        1   -1    0    0  501    0  0.00000000000E+00  0.00000000000E+00  0.94458073875E+03  0.94458073877E+03  0.50400001928E-02 0.  1.
       -1   -1    0    0    0  501  0.00000000000E+00  0.00000000000E+00 -0.91322981570E+03  0.91322981571E+03  0.50400001928E-02 0. -1.
    10030    2    1    2    0    0  0.00000000000E+00  0.00000000000E+00  0.31350923058E+02  0.18578105545E+04  0.18575460091E+04 0.  0.
        2    1    3    3  502    0 -0.58812573424E+03 -0.26939288998E+02 -0.70275941672E+03  0.91678154560E+03  0.25500000920E-02 0. -1.
       -2    1    3    3    0  502  0.58812573424E+03  0.26939288998E+02  0.73411033978E+03  0.94102900887E+03  0.25500000920E-02 0.  1.
</event>
<event>
 5   0  0.1533248E-05  0.2244024E+04  0.7818609E-02  0.8500325E-01
       -1   -1    0    0    0  501  0.00000000000E+00  0.00000000000E+00  0.10499447569E+04  0.10499447569E+04  0.50400001928E-02 0. -1.
        1   -1    0    0  501    0  0.00000000000E+00  0.00000000000E+00 -0.11990255500E+04  0.11990255500E+04  0.50400001928E-02 0.  1.
    10030    2    1    2    0    0  0.00000000000E+00  0.00000000000E+00 -0.14908079310E+03  0.22489703070E+04  0.22440236984E+04 0.  0.
        4    1    3    3  502    0  0.10469686894E+04 -0.50080899367E+02 -0.47574452019E+03  0.11510803596E+04  0.12699999809E+01 0.  1.
       -4    1    3    3    0  502 -0.10469686894E+04  0.50080899367E+02  0.32666372709E+03  0.10978899473E+04  0.12699999809E+01 0. -1.
</event>
<event>
 5   0  0.3508470E-05  0.1942142E+04  0.7818609E-02  0.8634160E-01
        2   -1    0    0  501    0  0.00000000000E+00  0.00000000000E+00  0.13839851485E+04  0.13839851485E+04  0.25500000920E-02 0. -1.
       -2   -1    0    0    0  501  0.00000000000E+00  0.00000000000E+00 -0.68135020317E+03  0.68135020317E+03  0.25500000920E-02 0.  1.
    10030    2    1    2    0    0  0.00000000000E+00  0.00000000000E+00  0.70263494534E+03  0.20653353517E+04  0.19421416654E+04 0.  0.
        5    1    3    3  502    0  0.94801725625E+01 -0.21046603992E+03  0.13593760902E+04  0.13756130532E+04  0.46999998093E+01 0. -1.
       -5    1    3    3    0  502 -0.94801725625E+01  0.21046603992E+03 -0.65674114486E+03  0.68972229845E+03  0.46999998093E+01 0.  1.
</event>
<event>
 5   0  0.1435062E-05  0.2544602E+04  0.7818609E-02  0.8387266E-01
        1   -1    0    0  501    0  0.00000000000E+00  0.00000000000E+00  0.13739269249E+04  0.13739269249E+04  0.50400001928E-02 0. -1.
       -1   -1    0    0    0  501  0.00000000000E+00  0.00000000000E+00 -0.11781919036E+04  0.11781919036E+04  0.50400001928E-02 0.  1.
    10030    2    1    2    0    0  0.00000000000E+00  0.00000000000E+00  0.19573502127E+03  0.25521188285E+04  0.25446017991E+04 0.  0.
        2    1    3    3  502    0  0.20226944675E+03 -0.79719402478E+03 -0.87573095952E+03  0.12013891774E+04  0.25500000920E-02 0.  1.
       -2    1    3    3    0  502 -0.20226944675E+03  0.79719402478E+03  0.10714659808E+04  0.13507296510E+04  0.25500000920E-02 0. -1.
</event>
<event>
 5   0  0.1474554E-05  0.2887976E+04  0.7818609E-02  0.8276464E-01
        1   -1    0    0  501    0  0.00000000000E+00  0.00000000000E+00  0.12584334450E+04  0.12584334450E+04  0.50400001928E-02 0. -1.
       -1   -1    0    0    0  501  0.00000000000E+00  0.00000000000E+00 -0.16569024098E+04  0.16569024098E+04  0.50400001928E-02 0.  1.
    10030    2    1    2    0    0  0.00000000000E+00  0.00000000000E+00 -0.39846896484E+03  0.29153358549E+04  0.28879760440E+04 0.  0.
        5    1    3    3  502    0  0.15992251247E+03  0.94212163243E+03  0.89356960637E+03  0.13083031421E+04  0.46999998093E+01 0. -1.
       -5    1    3    3    0  502 -0.15992251247E+03 -0.94212163243E+03 -0.12920385712E+04  0.16070327127E+04  0.46999998093E+01 0.  1.
</event>
<event>
 5   0  0.1533248E-05  0.2706134E+04  0.7818609E-02  0.8333018E-01
        1   -1    0    0  501    0  0.00000000000E+00  0.00000000000E+00  0.15009190537E+04  0.15009190537E+04  0.50400001928E-02 0.  1.
       -1   -1    0    0    0  501  0.00000000000E+00  0.00000000000E+00 -0.12197792922E+04  0.12197792922E+04  0.50400001928E-02 0. -1.
    10030    2    1    2    0    0  0.00000000000E+00  0.00000000000E+00  0.28113976152E+03  0.27206983459E+04  0.27061337594E+04 0.  0.
        4    1    3    3  502    0 -0.81732014008E+03  0.31432602480E+03  0.11776132232E+04  0.14675106737E+04  0.12699999809E+01 0.  1.
       -4    1    3    3    0  502  0.81732014008E+03 -0.31432602480E+03 -0.89647346165E+03  0.12531876721E+04  0.12699999809E+01 0. -1.
</event>
<event>
 5   0  0.1497497E-05  0.2623123E+04  0.7818609E-02  0.8360389E-01
        1   -1    0    0  501    0  0.00000000000E+00  0.00000000000E+00  0.83224526097E+03  0.83224526099E+03  0.50400001928E-02 0.  1.
       -1   -1    0    0    0  501  0.00000000000E+00  0.00000000000E+00 -0.20669307136E+04  0.20669307136E+04  0.50400001928E-02 0. -1.
    10030    2    1    2    0    0  0.00000000000E+00  0.00000000000E+00 -0.12346854527E+04  0.28991759746E+04  0.26231227887E+04 0.  0.
        3    1    3    3  502    0  0.10628140315E+04 -0.69325857076E+03 -0.98392910286E+03  0.16057078194E+04  0.10100000352E+00 0. -1.
       -3    1    3    3    0  502 -0.10628140315E+04  0.69325857076E+03 -0.25075634980E+03  0.12934681553E+04  0.10100000352E+00 0.  1.
</event>
<event>
 5   0  0.1474554E-05  0.2701322E+04  0.7818609E-02  0.8334576E-01
        1   -1    0    0  501    0  0.00000000000E+00  0.00000000000E+00  0.11934301580E+04  0.11934301580E+04  0.50400001928E-02 0.  1.
       -1   -1    0    0    0  501  0.00000000000E+00  0.00000000000E+00 -0.15286068077E+04  0.15286068077E+04  0.50400001928E-02 0. -1.
    10030    2    1    2    0    0  0.00000000000E+00  0.00000000000E+00 -0.33517664964E+03  0.27220369657E+04  0.27013222422E+04 0.  0.
        5    1    3    3  502    0 -0.17834518654E+03  0.30483354353E+02 -0.15163316837E+04  0.15270953165E+04  0.46999998093E+01 0. -1.
       -5    1    3    3    0  502  0.17834518654E+03 -0.30483354353E+02  0.11811550341E+04  0.11949416492E+04  0.46999998093E+01 0.  1.
</event>
<event>
 5   0  0.1451052E-05  0.2596623E+04  0.7818609E-02  0.8369349E-01
        1   -1    0    0  501    0  0.00000000000E+00  0.00000000000E+00  0.21978412259E+04  0.21978412259E+04  0.50400001928E-02 0.  1.
       -1   -1    0    0    0  501  0.00000000000E+00  0.00000000000E+00 -0.76694006250E+03  0.76694006252E+03  0.50400001928E-02 0. -1.
    10030    2    1    2    0    0  0.00000000000E+00  0.00000000000E+00  0.14309011634E+04  0.29647812884E+04  0.25966227968E+04 0.  0.
        1    1    3    3  502    0  0.10047335619E+04 -0.34519617858E+03  0.15675628037E+04  0.18936480866E+04  0.50400001928E-02 0.  1.
       -1    1    3    3    0  502 -0.10047335619E+04  0.34519617858E+03 -0.13666164029E+03  0.10711332019E+04  0.50400001928E-02 0. -1.
</event>
<event>
 5   0  0.3849687E-05  0.2582433E+04  0.7818609E-02  0.8374193E-01
       -2   -1    0    0    0  501  0.00000000000E+00  0.00000000000E+00  0.83540616844E+03  0.83540616844E+03  0.25500000920E-02 0. -1.
        2   -1    0    0  501    0  0.00000000000E+00  0.00000000000E+00 -0.19957244454E+04  0.19957244454E+04  0.25500000920E-02 0.  1.
    10030    2    1    2    0    0  0.00000000000E+00  0.00000000000E+00 -0.11603182770E+04  0.28311306139E+04  0.25824333581E+04 0.  0.
        1    1    3    3  502    0 -0.72802337458E+03 -0.75626496420E+03 -0.14044202572E+04  0.17533827274E+04  0.50400001928E-02 0.  1.
       -1    1    3    3    0  502  0.72802337458E+03  0.75626496420E+03  0.24410198019E+03  0.10777478865E+04  0.50400001928E-02 0. -1.
</event>
<event>
 5   0  0.1451052E-05  0.2046295E+04  0.7818609E-02  0.8585277E-01
        1   -1    0    0  501    0  0.00000000000E+00  0.00000000000E+00  0.12149223017E+04  0.12149223017E+04  0.50400001928E-02 0. -1.
       -1   -1    0    0    0  501  0.00000000000E+00  0.00000000000E+00 -0.86164405300E+03  0.86164405302E+03  0.50400001928E-02 0.  1.
    10030    2    1    2    0    0  0.00000000000E+00  0.00000000000E+00  0.35327824870E+03  0.20765663547E+04  0.20462947746E+04 0.  0.
        1    1    3    3  502    0  0.69890451587E+03 -0.96996009904E+02  0.92851460507E+03  0.11661968616E+04  0.50400001928E-02 0. -1.
       -1    1    3    3    0  502 -0.69890451587E+03  0.96996009904E+02 -0.57523635637E+03  0.91036949309E+03  0.50400001928E-02 0.  1.
</event>
<event>
 5   0  0.3441646E-05  0.2622579E+04  0.7818609E-02  0.8360572E-01
       -2   -1    0    0    0  501  0.00000000000E+00  0.00000000000E+00  0.83463543355E+03  0.83463543356E+03  0.25500000920E-02 0. -1.
        2   -1    0    0  501    0  0.00000000000E+00  0.00000000000E+00 -0.20601570429E+04  0.20601570429E+04  0.25500000920E-02 0.  1.
    10030    2    1    2    0    0  0.00000000000E+00  0.00000000000E+00 -0.12255216093E+04  0.28947924764E+04  0.26225789343E+04 0.  0.
        4    1    3    3  502    0  0.89459805033E+03 -0.33158174509E+03 -0.16057027767E+04  0.18677620688E+04  0.12699999809E+01 0.  1.
       -4    1    3    3    0  502 -0.89459805033E+03  0.33158174509E+03  0.38018116743E+03  0.10270304077E+04  0.12699999809E+01 0. -1.
</event>
<event>
 5   0  0.3508470E-05  0.2578077E+04  0.7818609E-02  0.8375686E-01
        2   -1    0    0  501    0  0.00000000000E+00  0.00000000000E+00  0.18950650815E+04  0.18950650815E+04  0.25500000920E-02 0. -1.
       -2   -1    0    0    0  501  0.00000000000E+00  0.00000000000E+00 -0.87681405028E+03  0.87681405029E+03  0.25500000920E-02 0.  1.
    10030    2    1    2    0    0  0.00000000000E+00  0.00000000000E+00  0.10182510312E+04  0.27718791318E+04  0.25780765618E+04 0.  0.
        5    1    3    3  502    0 -0.49435680137E+03 -0.10184593887E+04  0.11718627555E+04  0.16293963855E+04  0.46999998093E+01 0.  1.
       -5    1    3    3    0  502  0.49435680137E+03  0.10184593887E+04 -0.15361172426E+03  0.11424827462E+04  0.46999998093E+01 0. -1.
</event>
<event>
 5   0  0.1435062E-05  0.2429926E+04  0.7818609E-02  0.8428384E-01
        1   -1    0    0  501    0  0.00000000000E+00  0.00000000000E+00  0.11365171922E+04  0.11365171922E+04  0.50400001928E-02 0.  1.
       -1   -1    0    0    0  501  0.00000000000E+00  0.00000000000E+00 -0.12988238272E+04  0.12988238272E+04  0.50400001928E-02 0. -1.
    10030    2    1    2    0    0  0.00000000000E+00  0.00000000000E+00 -0.16230663504E+03  0.24353410194E+04  0.24299264262E+04 0.  0.
        2    1    3    3  502    0  0.74744184262E+03 -0.10816000607E+03  0.87268568730E+03  0.11541006039E+04  0.25500000920E-02 0.  1.
       -2    1    3    3    0  502 -0.74744184262E+03  0.10816000607E+03 -0.10349923223E+04  0.12812404155E+04  0.25500000920E-02 0. -1.
</event>
<event>
 5   0  0.1451052E-05  0.2004273E+04  0.7818609E-02  0.8604625E-01
        1   -1    0    0  501    0  0.00000000000E+00  0.00000000000E+00  0.41150221275E+03  0.41150221278E+03  0.50400001928E-02 0.  1.
       -1   -1    0    0    0  501  0.00000000000E+00  0.00000000000E+00 -0.24405163560E+04  0.24405163560E+04  0.50400001928E-02 0. -1.
    10030    2    1    2    0    0  0.00000000000E+00  0.00000000000E+00 -0.20290141433E+04  0.28520185688E+04  0.20042733155E+04 0.  0.
        1    1    3    3  502    0  0.29793941898E+03  0.88984307627E+03 -0.15149579322E+04  0.17820454916E+04  0.50400001928E-02 0. -1.
       -1    1    3    3    0  502 -0.29793941898E+03 -0.88984307627E+03 -0.51405621109E+03  0.10699730772E+04  0.50400001928E-02 0.  1.
</event>
<event>
 5   0  0.3499642E-05  0.2103686E+04  0.7818609E-02  0.8559621E-01
       -2   -1    0    0    0  501  0.00000000000E+00  0.00000000000E+00  0.65656624252E+03  0.65656624252E+03  0.25500000920E-02 0.  1.
        2   -1    0    0  501    0  0.00000000000E+00  0.00000000000E+00 -0.16850907638E+04  0.16850907638E+04  0.25500000920E-02 0. -1.
    10030    2    1    2    0    0  0.00000000000E+00  0.00000000000E+00 -0.10285245213E+04  0.23416570063E+04  0.21036860137E+04 0.  0.
        2    1    3    3  502    0 -0.45262004868E+03  0.49174151075E+03  0.38983531545E+03  0.77372229840E+03  0.25500000920E-02 0.  1.
       -2    1    3    3    0  502  0.45262004868E+03 -0.49174151075E+03 -0.14183598367E+04  0.15679347079E+04  0.25500000920E-02 0. -1.
</event>
<event>
 5   0  0.1497497E-05  0.2622719E+04  0.7818609E-02  0.8360525E-01
        1   -1    0    0  501    0  0.00000000000E+00  0.00000000000E+00  0.98121663854E+03  0.98121663856E+03  0.50400001928E-02 0.  1.
       -1   -1    0    0    0  501  0.00000000000E+00  0.00000000000E+00 -0.17525836051E+04  0.17525836051E+04  0.50400001928E-02 0. -1.
    10030    2    1    2    0    0  0.00000000000E+00  0.00000000000E+00 -0.77136696657E+03  0.27338002437E+04  0.26227193474E+04 0.  0.
        3    1    3    3  502    0  0.10691093711E+04  0.61661699732E+03 -0.84768572829E+03  0.14972583187E+04  0.10100000352E+00 0. -1.
       -3    1    3    3    0  502 -0.10691093711E+04 -0.61661699732E+03  0.76318761724E+02  0.12365419250E+04  0.10100000352E+00 0.  1.
</event>
<event>
 5   0  0.1497497E-05  0.2570092E+04  0.7818609E-02  0.8378432E-01
       -1   -1    0    0    0  501  0.00000000000E+00  0.00000000000E+00  0.88226598035E+03  0.88226598037E+03  0.50400001928E-02 0. -1.
        1   -1    0    0  501    0  0.00000000000E+00  0.00000000000E+00 -0.18717062414E+04  0.18717062414E+04  0.50400001928E-02 0.  1.
    10030    2    1    2    0    0  0.00000000000E+00  0.00000000000E+00 -0.98944026104E+03  0.27539722218E+04  0.25700916264E+04 0.  0.
        3    1    3    3  502    0  0.69132328012E+03 -0.56132515059E+03 -0.14874653947E+04  0.17336571497E+04  0.10100000352E+00 0.  1.
       -3    1    3    3    0  502 -0.69132328012E+03  0.56132515059E+03  0.49802513361E+03  0.10203150720E+04  0.10100000352E+00 0. -1.
</event>
<event>
 5   0  0.3499642E-05  0.2424354E+04  0.7818609E-02  0.8430442E-01
       -2   -1    0    0    0  501  0.00000000000E+00  0.00000000000E+00  0.11744431169E+04  0.11744431169E+04  0.25500000920E-02 0. -1.
        2   -1    0    0  501    0  0.00000000000E+00  0.00000000000E+00 -0.12511235555E+04  0.12511235555E+04  0.25500000920E-02 0.  1.
    10030    2    1    2    0    0  0.00000000000E+00  0.00000000000E+00 -0.76680438600E+02  0.24255666723E+04  0.24243543042E+04 0.  0.
        2    1    3    3  502    0  0.83824200045E+03  0.13543675975E+03 -0.90386281668E+03  0.12401454586E+04  0.25500000920E-02 0.  1.
       -2    1    3    3    0  502 -0.83824200045E+03 -0.13543675975E+03  0.82718237808E+03  0.11854212137E+04  0.25500000920E-02 0. -1.
</event>
<event>
 5   0  0.1474554E-05  0.2632790E+04  0.7818609E-02  0.8357148E-01
        1   -1    0    0  501    0  0.00000000000E+00  0.00000000000E+00  0.11457882538E+04  0.11457882538E+04  0.50400001928E-02 0. -1.
       -1   -1    0    0    0  501  0.00000000000E+00  0.00000000000E+00 -0.15124049194E+04  0.15124049195E+04  0.50400001928E-02 0.  1.
    10030    2    1    2    0    0  0.00000000000E+00  0.00000000000E+00 -0.36661666567E+03  0.26581931732E+04  0.26327899967E+04 0.  0.
        5    1    3    3  502    0  0.12414179011E+04 -0.94055981435E+02  0.24849658327E+03  0.12695422697E+04  0.46999998093E+01 0.  1.
       -5    1    3    3    0  502 -0.12414179011E+04  0.94055981435E+02 -0.61511324894E+03  0.13886509035E+04  0.46999998093E+01 0. -1.
</event>
<event>
 5   0  0.3647623E-05  0.2557437E+04  0.7818609E-02  0.8382804E-01
       -2   -1    0    0    0  501  0.00000000000E+00  0.00000000000E+00  0.82899338630E+03  0.82899338630E+03  0.25500000920E-02 0.  1.
        2   -1    0    0  501    0  0.00000000000E+00  0.00000000000E+00 -0.19724169579E+04  0.19724169579E+04  0.25500000920E-02 0. -1.
    10030    2    1    2    0    0  0.00000000000E+00  0.00000000000E+00 -0.11434235716E+04  0.28014103442E+04  0.25574366957E+04 0.  0.
        3    1    3    3  502    0 -0.86319442721E+03 -0.27799291902E+03  0.41580972154E+03  0.99763841993E+03  0.10100000352E+00 0.  1.
       -3    1    3    3    0  502  0.86319442721E+03  0.27799291902E+03 -0.15592332932E+04  0.18037719243E+04  0.10100000352E+00 0. -1.
</event>
<event>
 5   0  0.3647623E-05  0.2606139E+04  0.7818609E-02  0.8366119E-01
       -2   -1    0    0    0  501  0.00000000000E+00  0.00000000000E+00  0.59084554591E+03  0.59084554592E+03  0.25500000920E-02 0.  1.
        2   -1    0    0  501    0  0.00000000000E+00  0.00000000000E+00 -0.28738300424E+04  0.28738300424E+04  0.25500000920E-02 0. -1.
    10030    2    1    2    0    0  0.00000000000E+00  0.00000000000E+00 -0.22829844965E+04  0.34646755883E+04  0.26061386611E+04 0.  0.
        3    1    3    3  502    0  0.10898614712E+04  0.33059138296E+03 -0.19832432012E+04  0.22869941614E+04  0.10100000352E+00 0.  1.
       -3    1    3    3    0  502 -0.10898614712E+04 -0.33059138296E+03 -0.29974129523E+03  0.11776814269E+04  0.10100000352E+00 0. -1.
</event>
<event>
 5   0  0.3499642E-05  0.2140305E+04  0.7818609E-02  0.8543694E-01
        2   -1    0    0  501    0  0.00000000000E+00  0.00000000000E+00  0.12732551397E+04  0.12732551397E+04  0.25500000920E-02 0.  1.
       -2   -1    0    0    0  501  0.00000000000E+00  0.00000000000E+00 -0.89944781269E+03  0.89944781269E+03  0.25500000920E-02 0. -1.
    10030    2    1    2    0    0  0.00000000000E+00  0.00000000000E+00  0.37380732704E+03  0.21727029524E+04  0.21403051656E+04 0.  0.
        2    1    3    3  502    0  0.69243739784E+03  0.55398452953E+03 -0.42121181351E+03  0.98172694816E+03  0.25500000920E-02 0. -1.
       -2    1    3    3    0  502 -0.69243739784E+03 -0.55398452953E+03  0.79501914055E+03  0.11909760043E+04  0.25500000920E-02 0.  1.
</event>
<event>
 5   0  0.1533248E-05  0.2572860E+04  0.7818609E-02  0.8377479E-01
        1   -1    0    0  501    0  0.00000000000E+00  0.00000000000E+00  0.12210393680E+04  0.12210393680E+04  0.50400001928E-02 0.  1.
       -1   -1    0    0    0  501  0.00000000000E+00  0.00000000000E+00 -0.13553228002E+04  0.13553228002E+04  0.50400001928E-02 0. -1.
    10030    2    1    2    0    0  0.00000000000E+00  0.00000000000E+00 -0.13428343221E+03  0.25763621682E+04  0.25728602725E+04 0.  0.
        4    1    3    3  502    0 -0.10717405186E+04 -0.70425767217E+03 -0.16874051741E+03  0.12934765491E+04  0.12699999809E+01 0.  1.
       -4    1    3    3    0  502  0.10717405186E+04  0.70425767217E+03  0.34457085201E+02  0.12828856191E+04  0.12699999809E+01 0. -1.
</event>
<event>
 5   0  0.3849687E-05  0.2470361E+04  0.7818609E-02  0.8413621E-01
       -2   -1    0    0    0  501  0.00000000000E+00  0.00000000000E+00  0.17444769264E+04  0.17444769264E+04  0.25500000920E-02 0. -1.
        2   -1    0    0  501    0  0.00000000000E+00  0.00000000000E+00 -0.87457209733E+03  0.87457209733E+03  0.25500000920E-02 0.  1.
    10030    2    1    2    0    0  0.00000000000E+00  0.00000000000E+00  0.86990482910E+03  0.26190490238E+04  0.24703609811E+04 0.  0.
        1    1    3    3  502    0 -0.64979698433E+02  0.10158236922E+04 -0.30683942396E+03  0.10631418376E+04  0.50400001928E-02 0.  1.
       -1    1    3    3    0  502  0.64979698433E+02 -0.10158236922E+04  0.11767442531E+04  0.15559071861E+04  0.50400001928E-02 0. -1.
</event>
<event>
 5   0  0.3499642E-05  0.2529095E+04  0.7818609E-02  0.8392693E-01
        2   -1    0    0  501    0  0.00000000000E+00  0.00000000000E+00  0.96712258596E+03  0.96712258596E+03  0.25500000920E-02 0. -1.
       -2   -1    0    0    0  501  0.00000000000E+00  0.00000000000E+00 -0.16534411618E+04  0.16534411618E+04  0.25500000920E-02 0.  1.
    10030    2    1    2    0    0  0.00000000000E+00  0.00000000000E+00 -0.68631857582E+03  0.26205637477E+04  0.25290949307E+04 0.  0.
        2    1    3    3  502    0 -0.87248543056E+03 -0.24435207258E+03  0.57086743898E+03  0.10709007399E+04  0.25500000920E-02 0. -1.
       -2    1    3    3    0  502  0.87248543056E+03  0.24435207258E+03 -0.12571860148E+04  0.15496630078E+04  0.25500000920E-02 0.  1.
</event>
<event>
 5   0  0.3441646E-05  0.2621672E+04  0.7818609E-02  0.8360877E-01
       -2   -1    0    0    0  501  0.00000000000E+00  0.00000000000E+00  0.83411599587E+03  0.83411599588E+03  0.25500000920E-02 0.  1.
        2   -1    0    0  501    0  0.00000000000E+00  0.00000000000E+00 -0.20600150650E+04  0.20600150650E+04  0.25500000920E-02 0. -1.
    10030    2    1    2    0    0  0.00000000000E+00  0.00000000000E+00 -0.12258990692E+04  0.28941310609E+04  0.26216723804E+04 0.  0.
        4    1    3    3  502    0  0.65036092021E+03 -0.94450012228E+03 -0.13139553662E+04  0.17439983156E+04  0.12699999809E+01 0. -1.
       -4    1    3    3    0  502 -0.65036092021E+03  0.94450012228E+03  0.88056297023E+02  0.11501327453E+04  0.12699999809E+01 0.  1.
</event>
<event>
 5   0  0.3647623E-05  0.2588821E+04  0.7818609E-02  0.8372009E-01
       -2   -1    0    0    0  501  0.00000000000E+00  0.00000000000E+00  0.90239978012E+03  0.90239978012E+03  0.25500000920E-02 0.  1.
        2   -1    0    0  501    0  0.00000000000E+00  0.00000000000E+00 -0.18567136721E+04  0.18567136721E+04  0.25500000920E-02 0. -1.
    10030    2    1    2    0    0  0.00000000000E+00  0.00000000000E+00 -0.95431389196E+03  0.27591134522E+04  0.25888205882E+04 0.  0.
        3    1    3    3  502    0 -0.42009360340E+03 -0.75506721122E+03 -0.15043460870E+04  0.17348378278E+04  0.10100000352E+00 0. -1.
       -3    1    3    3    0  502  0.42009360340E+03  0.75506721122E+03  0.55003219501E+03  0.10242756244E+04  0.10100000352E+00 0.  1.
</event>
<event>
 5   0  0.1435062E-05  0.3433273E+04  0.7818609E-02  0.8129788E-01
        1   -1    0    0  501    0  0.00000000000E+00  0.00000000000E+00  0.86955121847E+03  0.86955121849E+03  0.50400001928E-02 0. -1.
       -1   -1    0    0    0  501  0.00000000000E+00  0.00000000000E+00 -0.33889213007E+04  0.33889213007E+04  0.50400001928E-02 0.  1.
    10030    2    1    2    0    0  0.00000000000E+00  0.00000000000E+00 -0.25193700822E+04  0.42584725192E+04  0.34332728679E+04 0.  0.
        2    1    3    3  502    0  0.37933712701E+02  0.52817881947E+03  0.76571364765E+03  0.93098293330E+03  0.25500000920E-02 0. -1.
       -2    1    3    3    0  502 -0.37933712701E+02 -0.52817881947E+03 -0.32850837299E+04  0.33274895859E+04  0.25500000920E-02 0.  1.
</event>
<event>
 5   0  0.3849687E-05  0.2657494E+04  0.7818609E-02  0.8348930E-01
        2   -1    0    0  501    0  0.00000000000E+00  0.00000000000E+00  0.13736791355E+04  0.13736791355E+04  0.25500000920E-02 0.  1.
       -2   -1    0    0    0  501  0.00000000000E+00  0.00000000000E+00 -0.12852847678E+04  0.12852847678E+04  0.25500000920E-02 0. -1.
    10030    2    1    2    0    0  0.00000000000E+00  0.00000000000E+00  0.88394367708E+02  0.26589639032E+04  0.26574942097E+04 0.  0.
        1    1    3    3  502    0 -0.66039303478E+03 -0.21993138235E+03 -0.10882768588E+04  0.12918340818E+04  0.50400001928E-02 0. -1.
       -1    1    3    3    0  502  0.66039303478E+03  0.21993138235E+03  0.11766712265E+04  0.13671298215E+04  0.50400001928E-02 0.  1.
</event>
<event>
 5   0  0.3441646E-05  0.2596377E+04  0.7818609E-02  0.8369433E-01
        2   -1    0    0  501    0  0.00000000000E+00  0.00000000000E+00  0.22857539452E+04  0.22857539452E+04  0.25500000920E-02 0. -1.
       -2   -1    0    0    0  501  0.00000000000E+00  0.00000000000E+00 -0.73730309930E+03  0.73730309930E+03  0.25500000920E-02 0.  1.
    10030    2    1    2    0    0  0.00000000000E+00  0.00000000000E+00  0.15484508459E+04  0.30230570445E+04  0.25963770666E+04 0.  0.
        4    1    3    3  502    0 -0.43230802970E+03  0.49764673386E+02  0.21983025220E+04  0.22409601394E+04  0.12699999809E+01 0. -1.
       -4    1    3    3    0  502  0.43230802970E+03 -0.49764673386E+02 -0.64985167606E+03  0.78209690514E+03  0.12699999809E+01 0.  1.
</event>
<event>
 5   0  0.1451052E-05  0.2767637E+04  0.7818609E-02  0.8313387E-01
       -1   -1    0    0    0  501  0.00000000000E+00  0.00000000000E+00  0.21231813723E+04  0.21231813723E+04  0.50400001928E-02 0.  1.
        1   -1    0    0  501    0  0.00000000000E+00  0.00000000000E+00 -0.90192628147E+03  0.90192628149E+03  0.50400001928E-02 0. -1.
    10030    2    1    2    0    0  0.00000000000E+00  0.00000000000E+00  0.12212550908E+04  0.30251076538E+04  0.27676365947E+04 0.  0.
        1    1    3    3  502    0  0.70020270579E+03 -0.57384147126E+03  0.17545938310E+04  0.19743802509E+04  0.50400001928E-02 0.  1.
       -1    1    3    3    0  502 -0.70020270579E+03  0.57384147126E+03 -0.53333874019E+03  0.10507274029E+04  0.50400001928E-02 0. -1.
</event>
<event>
 5   0  0.1435062E-05  0.2584244E+04  0.7818609E-02  0.8373573E-01
       -1   -1    0    0    0  501  0.00000000000E+00  0.00000000000E+00  0.91791616741E+03  0.91791616742E+03  0.50400001928E-02 0. -1.
        1   -1    0    0  501    0  0.00000000000E+00  0.00000000000E+00 -0.18188795298E+04  0.18188795298E+04  0.50400001928E-02 0.  1.
    10030    2    1    2    0    0  0.00000000000E+00  0.00000000000E+00 -0.90096336243E+03  0.27367956973E+04  0.25842437401E+04 0.  0.
        2    1    3    3  502    0  0.12315133604E+04  0.84271637326E+01 -0.36397964349E+02  0.12320799429E+04  0.25500000920E-02 0. -1.
       -2    1    3    3    0  502 -0.12315133604E+04 -0.84271637326E+01 -0.86456539808E+03  0.15047157544E+04  0.25500000920E-02 0.  1.
</event>
<event>
 5   0  0.1474554E-05  0.2587293E+04  0.7818609E-02  0.8372530E-01
        1   -1    0    0  501    0  0.00000000000E+00  0.00000000000E+00  0.15954542294E+04  0.15954542294E+04  0.50400001928E-02 0.  1.
       -1   -1    0    0    0  501  0.00000000000E+00  0.00000000000E+00 -0.10489309006E+04  0.10489309006E+04  0.50400001928E-02 0. -1.
    10030    2    1    2    0    0  0.00000000000E+00  0.00000000000E+00  0.54652332881E+03  0.26443851300E+04  0.25872929805E+04 0.  0.
        5    1    3    3  502    0  0.69090935230E+03  0.97737754213E+03  0.77488342156E+03  0.14258642993E+04  0.46999998093E+01 0.  1.
       -5    1    3    3    0  502 -0.69090935230E+03 -0.97737754213E+03 -0.22836009275E+03  0.12185208307E+04  0.46999998093E+01 0. -1.
</event>
<event>
 5   0  0.1217200E-05  0.2656503E+04  0.7818609E-02  0.8349258E-01
        3   -1    0    0  501    0  0.00000000000E+00  0.00000000000E+00  0.94235211327E+03  0.94235211869E+03  0.10100000352E+00 0.  1.
       -3   -1    0    0    0  501  0.00000000000E+00  0.00000000000E+00 -0.18721798700E+04  0.18721798728E+04  0.10100000352E+00 0. -1.
    10030    2    1    2    0    0  0.00000000000E+00  0.00000000000E+00 -0.92982775677E+03  0.28145319915E+04  0.26565034677E+04 0.  0.
        5    1    3    3  502    0  0.10379210306E+04  0.13991053092E+02 -0.13429181775E+04  0.16973294131E+04  0.46999998093E+01 0. -1.
       -5    1    3    3    0  502 -0.10379210306E+04 -0.13991053092E+02  0.41309042072E+03  0.11172025783E+04  0.46999998093E+01 0.  1.
</event>
<event>
 5   0  0.1497497E-05  0.2629673E+04  0.7818609E-02  0.8358191E-01
        1   -1    0    0  501    0  0.00000000000E+00  0.00000000000E+00  0.22134362418E+04  0.22134362418E+04  0.50400001928E-02 0. -1.
       -1   -1    0    0    0  501  0.00000000000E+00  0.00000000000E+00 -0.78104605672E+03  0.78104605674E+03  0.50400001928E-02 0.  1.
    10030    2    1    2    0    0  0.00000000000E+00  0.00000000000E+00  0.14323901851E+04  0.29944822986E+04  0.26296734767E+04 0.  0.
        3    1    3    3  502    0 -0.12378660649E+04 -0.40754517718E+03  0.51768321120E+03  0.14022843447E+04  0.10100000352E+00 0. -1.
       -3    1    3    3    0  502  0.12378660649E+04  0.40754517718E+03  0.91470697392E+03  0.15921979539E+04  0.10100000352E+00 0.  1.
</event>
<event>
 5   0  0.3441646E-05  0.2564243E+04  0.7818609E-02  0.8380449E-01
        2   -1    0    0  501    0  0.00000000000E+00  0.00000000000E+00  0.19826640746E+04  0.19826640746E+04  0.25500000920E-02 0.  1.
       -2   -1    0    0    0  501  0.00000000000E+00  0.00000000000E+00 -0.82910460532E+03  0.82910460532E+03  0.25500000920E-02 0. -1.
    10030    2    1    2    0    0  0.00000000000E+00  0.00000000000E+00  0.11535594693E+04  0.28117686800E+04  0.25642432920E+04 0.  0.
        4    1    3    3  502    0  0.76595242462E+03 -0.34312617618E+02  0.17035799947E+04  0.18681667174E+04  0.12699999809E+01 0.  1.
       -4    1    3    3    0  502 -0.76595242462E+03  0.34312617618E+02 -0.55002052542E+03  0.94360196259E+03  0.12699999809E+01 0. -1.
</event>
<event>
 5   0  0.1451052E-05  0.2630861E+04  0.7818609E-02  0.8357793E-01
       -1   -1    0    0    0  501  0.00000000000E+00  0.00000000000E+00  0.10811398892E+04  0.10811398893E+04  0.50400001928E-02 0.  1.
        1   -1    0    0  501    0  0.00000000000E+00  0.00000000000E+00 -0.16004932755E+04  0.16004932755E+04  0.50400001928E-02 0. -1.
    10030    2    1    2    0    0  0.00000000000E+00  0.00000000000E+00 -0.51935338622E+03  0.26816331647E+04  0.26308607889E+04 0.  0.
        1    1    3    3  502    0  0.47645123985E+03  0.60273675177E+03  0.82866509781E+03  0.11300368225E+04  0.50400001928E-02 0.  1.
       -1    1    3    3    0  502 -0.47645123985E+03 -0.60273675177E+03 -0.13480184840E+04  0.15515963422E+04  0.50400001928E-02 0. -1.
</event>
<event>
 5   0  0.3508470E-05  0.2463908E+04  0.7818609E-02  0.8415958E-01
       -2   -1    0    0    0  501  0.00000000000E+00  0.00000000000E+00  0.85558723421E+03  0.85558723421E+03  0.25500000920E-02 0. -1.
        2   -1    0    0  501    0  0.00000000000E+00  0.00000000000E+00 -0.17738811664E+04  0.17738811664E+04  0.25500000920E-02 0.  1.
    10030    2    1    2    0    0  0.00000000000E+00  0.00000000000E+00 -0.91829393219E+03  0.26294684006E+04  0.24639075315E+04 0.  0.
        5    1    3    3  502    0 -0.25420009842E+03  0.23289321101E+03 -0.17213411755E+04  0.17555325318E+04  0.46999998093E+01 0.  1.
       -5    1    3    3    0  502  0.25420009842E+03 -0.23289321101E+03  0.80304724332E+03  0.87393586880E+03  0.46999998093E+01 0. -1.
</event>
<event>
 5   0  0.3508470E-05  0.2518942E+04  0.7818609E-02  0.8396268E-01
        2   -1    0    0  501    0  0.00000000000E+00  0.00000000000E+00  0.22144674639E+04  0.22144674639E+04  0.25500000920E-02 0. -1.
       -2   -1    0    0    0  501  0.00000000000E+00  0.00000000000E+00 -0.71632002480E+03  0.71632002481E+03  0.25500000920E-02 0.  1.
    10030    2    1    2    0    0  0.00000000000E+00  0.00000000000E+00  0.14981474391E+04  0.29307874887E+04  0.25189421499E+04 0.  0.
        5    1    3    3  502    0  0.84544191671E+03  0.85192296802E+03  0.30495744588E+03  0.12383722832E+04  0.46999998093E+01 0.  1.
       -5    1    3    3    0  502 -0.84544191671E+03 -0.85192296802E+03  0.11931899932E+04  0.16924152055E+04  0.46999998093E+01 0. -1.
</event>
<event>
 5   0  0.3508470E-05  0.2631005E+04  0.7818609E-02  0.8357745E-01
       -2   -1    0    0    0  501  0.00000000000E+00  0.00000000000E+00  0.10374517206E+04  0.10374517206E+04  0.25500000920E-02 0.  1.
        2   -1    0    0  501    0  0.00000000000E+00  0.00000000000E+00 -0.16680749579E+04  0.16680749579E+04  0.25500000920E-02 0. -1.
    10030    2    1    2    0    0  0.00000000000E+00  0.00000000000E+00 -0.63062323731E+03  0.27055266786E+04  0.26310053100E+04 0.  0.
        5    1    3    3  502    0  0.62609849169E+03  0.98774927618E+03 -0.93476685997E+03  0.14971503353E+04  0.46999998093E+01 0. -1.
       -5    1    3    3    0  502 -0.62609849169E+03 -0.98774927618E+03  0.30414362266E+03  0.12083763433E+04  0.46999998093E+01 0.  1.
</event>
<event>
 5   0  0.3499642E-05  0.2229105E+04  0.7818609E-02  0.8506411E-01
        2   -1    0    0  501    0  0.00000000000E+00  0.00000000000E+00  0.14538156144E+04  0.14538156144E+04  0.25500000920E-02 0. -1.
       -2   -1    0    0    0  501  0.00000000000E+00  0.00000000000E+00 -0.85445980752E+03  0.85445980752E+03  0.25500000920E-02 0.  1.
    10030    2    1    2    0    0  0.00000000000E+00  0.00000000000E+00  0.59935580685E+03  0.23082754219E+04  0.22291047620E+04 0.  0.
        2    1    3    3  502    0 -0.59055215498E+03  0.92214781180E+03  0.51470309823E+03  0.12099701293E+04  0.25500000920E-02 0. -1.
       -2    1    3    3    0  502  0.59055215498E+03 -0.92214781180E+03  0.84652708619E+02  0.10983052926E+04  0.25500000920E-02 0.  1.
</event>
<event>
 5   0  0.1533248E-05  0.2657868E+04  0.7818609E-02  0.8348806E-01
        1   -1    0    0  501    0  0.00000000000E+00  0.00000000000E+00  0.96099460156E+03  0.96099460157E+03  0.50400001928E-02 0.  1.
       -1   -1    0    0    0  501  0.00000000000E+00  0.00000000000E+00 -0.18377475885E+04  0.18377475885E+04  0.50400001928E-02 0. -1.
    10030    2    1    2    0    0  0.00000000000E+00  0.00000000000E+00 -0.87675298689E+03  0.27987421900E+04  0.26578679512E+04 0.  0.
        4    1    3    3  502    0 -0.12863618758E+04 -0.13367362057E+03 -0.11644618413E+03  0.12985210198E+04  0.12699999809E+01 0.  1.
       -4    1    3    3    0  502  0.12863618758E+04  0.13367362057E+03 -0.76030680276E+03  0.15002211702E+04  0.12699999809E+01 0. -1.
</event>
<event>
 5   0  0.3849687E-05  0.2577730E+04  0.7818609E-02  0.8375805E-01
       -2   -1    0    0    0  501  0.00000000000E+00  0.00000000000E+00  0.75587079211E+03  0.75587079212E+03  0.25500000920E-02 0. -1.
        2   -1    0    0  501    0  0.00000000000E+00  0.00000000000E+00 -0.21976943584E+04  0.21976943584E+04  0.25500000920E-02 0.  1.
    10030    2    1    2    0    0  0.00000000000E+00  0.00000000000E+00 -0.14418235662E+04  0.29535651505E+04  0.25777299901E+04 0.  0.
        1    1    3    3  502    0 -0.83668636744E+03  0.96852619313E+03 -0.89500531711E+03  0.15617687351E+04  0.50400001928E-02 0.  1.
       -1    1    3    3    0  502  0.83668636744E+03 -0.96852619313E+03 -0.54681824913E+03  0.13917964154E+04  0.50400001928E-02 0. -1.
</event>
<event>
 5   0  0.3508470E-05  0.2612914E+04  0.7818609E-02  0.8363828E-01
        2   -1    0    0  501    0  0.00000000000E+00  0.00000000000E+00  0.13660231676E+04  0.13660231676E+04  0.25500000920E-02 0.  1.
       -2   -1    0    0    0  501  0.00000000000E+00  0.00000000000E+00 -0.12494881245E+04  0.12494881245E+04  0.25500000920E-02 0. -1.
    10030    2    1    2    0    0  0.00000000000E+00  0.00000000000E+00  0.11653504302E+03  0.26155112921E+04  0.26129138721E+04 0.  0.
        5    1    3    3  502    0  0.81239770510E+03 -0.49994199785E+03 -0.83529875551E+03  0.12679424803E+04  0.46999998093E+01 0. -1.
       -5    1    3    3    0  502 -0.81239770510E+03  0.49994199785E+03  0.95183379853E+03  0.13475688118E+04  0.46999998093E+01 0.  1.
</event>
<event>
 5   0  0.3441646E-05  0.2492531E+04  0.7818609E-02  0.8405651E-01
        2   -1    0    0  501    0  0.00000000000E+00  0.00000000000E+00  0.95773933494E+03  0.95773933495E+03  0.25500000920E-02 0.  1.
       -2   -1    0    0    0  501  0.00000000000E+00  0.00000000000E+00 -0.16217121583E+04  0.16217121583E+04  0.25500000920E-02 0. -1.
    10030    2    1    2    0    0  0.00000000000E+00  0.00000000000E+00 -0.66397282337E+03  0.25794514933E+04  0.24925308616E+04 0.  0.
        4    1    3    3  502    0  0.36248268207E+03 -0.91489089217E+03  0.45937430520E+03  0.10860227459E+04  0.12699999809E+01 0.  1.
       -4    1    3    3    0  502 -0.36248268207E+03  0.91489089217E+03 -0.11233471286E+04  0.14934287474E+04  0.12699999809E+01 0. -1.
</event>
<event>
 5   0  0.3647623E-05  0.2644320E+04  0.7818609E-02  0.8353301E-01
        2   -1    0    0  501    0  0.00000000000E+00  0.00000000000E+00  0.19711870270E+04  0.19711870270E+04  0.25500000920E-02 0. -1.
       -2   -1    0    0    0  501  0.00000000000E+00  0.00000000000E+00 -0.88682978514E+03  0.88682978514E+03  0.25500000920E-02 0.  1.
    10030    2    1    2    0    0  0.00000000000E+00  0.00000000000E+00  0.10843572418E+04  0.28580168121E+04  0.26443202284E+04 0.  0.
        3    1    3    3  502    0  0.13027978827E+04 -0.15947859718E+03  0.36995375209E+03  0.13636647443E+04  0.10100000352E+00 0.  1.
       -3    1    3    3    0  502 -0.13027978827E+04  0.15947859718E+03  0.71440348972E+03  0.14943520678E+04  0.10100000352E+00 0. -1.
</event>
<event>
 5   0  0.3508470E-05  0.2639553E+04  0.7818609E-02  0.8354889E-01
        2   -1    0    0  501    0  0.00000000000E+00  0.00000000000E+00  0.12269888838E+04  0.12269888838E+04  0.25500000920E-02 0.  1.
       -2   -1    0    0    0  501  0.00000000000E+00  0.00000000000E+00 -0.14195813928E+04  0.14195813928E+04  0.25500000920E-02 0. -1.
    10030    2    1    2    0    0  0.00000000000E+00  0.00000000000E+00 -0.19259250906E+03  0.26465702766E+04  0.26395534384E+04 0.  0.
        5    1    3    3  502    0 -0.24399951659E+03  0.82135654861E+03 -0.11027705497E+04  0.13965268774E+04  0.46999998093E+01 0. -1.
       -5    1    3    3    0  502  0.24399951659E+03 -0.82135654861E+03  0.91017804067E+03  0.12500433992E+04  0.46999998093E+01 0.  1.
</event>
<event>
 5   0  0.1533248E-05  0.2389299E+04  0.7818609E-02  0.8443521E-01
       -1   -1    0    0    0  501  0.00000000000E+00  0.00000000000E+00  0.95119081193E+03  0.95119081194E+03  0.50400001928E-02 0.  1.
        1   -1    0    0  501    0  0.00000000000E+00  0.00000000000E+00 -0.15004221516E+04  0.15004221516E+04  0.50400001928E-02 0. -1.
    10030    2    1    2    0    0  0.00000000000E+00  0.00000000000E+00 -0.54923133970E+03  0.24516129636E+04  0.23892992819E+04 0.  0.
        4    1    3    3  502    0  0.89446914538E+03 -0.69413257410E+03  0.11649603795E+03  0.11381862863E+04  0.12699999809E+01 0.  1.
       -4    1    3    3    0  502 -0.89446914538E+03  0.69413257410E+03 -0.66572737765E+03  0.13134266773E+04  0.12699999809E+01 0. -1.
</event>
<event>
 5   0  0.1497497E-05  0.2597225E+04  0.7818609E-02  0.8369144E-01
       -1   -1    0    0    0  501  0.00000000000E+00  0.00000000000E+00  0.11389086582E+04  0.11389086582E+04  0.50400001928E-02 0.  1.
        1   -1    0    0  501    0  0.00000000000E+00  0.00000000000E+00 -0.14807110711E+04  0.14807110711E+04  0.50400001928E-02 0. -1.
    10030    2    1    2    0    0  0.00000000000E+00  0.00000000000E+00 -0.34180241288E+03  0.26196197293E+04  0.25972251802E+04 0.  0.
        3    1    3    3  502    0 -0.87507242311E+03 -0.62727027874E+03  0.56142741910E+03  0.12142571826E+04  0.10100000352E+00 0. -1.
       -3    1    3    3    0  502  0.87507242311E+03  0.62727027874E+03 -0.90322983198E+03  0.14053625468E+04  0.10100000352E+00 0.  1.
</event>
<event>
 5   0  0.1474554E-05  0.1915817E+04  0.7818609E-02  0.8647023E-01
        1   -1    0    0  501    0  0.00000000000E+00  0.00000000000E+00  0.46958722077E+03  0.46958722080E+03  0.50400001928E-02 0. -1.
       -1   -1    0    0    0  501  0.00000000000E+00  0.00000000000E+00 -0.19540329048E+04  0.19540329048E+04  0.50400001928E-02 0.  1.
    10030    2    1    2    0    0  0.00000000000E+00  0.00000000000E+00 -0.14844456840E+04  0.24236201256E+04  0.19158171949E+04 0.  0.
        5    1    3    3  502    0  0.29787692759E+03  0.43106640813E+03  0.27220697901E+03  0.59048085627E+03  0.46999998093E+01 0. -1.
       -5    1    3    3    0  502 -0.29787692759E+03 -0.43106640813E+03 -0.17566526630E+04  0.18331392693E+04  0.46999998093E+01 0.  1.
</event>
<event>
 5   0  0.3849687E-05  0.2587150E+04  0.7818609E-02  0.8372579E-01
       -2   -1    0    0    0  501  0.00000000000E+00  0.00000000000E+00  0.15031750652E+04  0.15031750652E+04  0.25500000920E-02 0.  1.
        2   -1    0    0  501    0  0.00000000000E+00  0.00000000000E+00 -0.11132008930E+04  0.11132008930E+04  0.25500000920E-02 0. -1.
    10030    2    1    2    0    0  0.00000000000E+00  0.00000000000E+00  0.38997417223E+03  0.26163759583E+04  0.25871496478E+04 0.  0.
        1    1    3    3  502    0 -0.58616810362E+02 -0.43354065900E+03 -0.10361155471E+04  0.11246905621E+04  0.50400001928E-02 0. -1.
       -1    1    3    3    0  502  0.58616810362E+02  0.43354065900E+03  0.14260897194E+04  0.14916853962E+04  0.50400001928E-02 0.  1.
</event>
<event>
 5   0  0.3508470E-05  0.1791775E+04  0.7818609E-02  0.8710686E-01
        2   -1    0    0  501    0  0.00000000000E+00  0.00000000000E+00  0.11380867947E+04  0.11380867947E+04  0.25500000920E-02 0. -1.
       -2   -1    0    0    0  501  0.00000000000E+00  0.00000000000E+00 -0.70523097122E+03  0.70523097122E+03  0.25500000920E-02 0.  1.
    10030    2    1    2    0    0  0.00000000000E+00  0.00000000000E+00  0.43285582346E+03  0.18433177659E+04  0.17917746014E+04 0.  0.
        5    1    3    3  502    0  0.45106347068E+03  0.75145670021E+03  0.25491117285E+02  0.87682228184E+03  0.46999998093E+01 0.  1.
       -5    1    3    3    0  502 -0.45106347068E+03 -0.75145670021E+03  0.40736470617E+03  0.96649548406E+03  0.46999998093E+01 0. -1.
</event>
<event>
 5   0  0.1474554E-05  0.1821521E+04  0.7818609E-02  0.8694938E-01
        1   -1    0    0  501    0  0.00000000000E+00  0.00000000000E+00  0.87915544858E+03  0.87915544859E+03  0.50400001928E-02 0. -1.
       -1   -1    0    0    0  501  0.00000000000E+00  0.00000000000E+00 -0.94350153359E+03  0.94350153360E+03  0.50400001928E-02 0.  1.
    10030    2    1    2    0    0  0.00000000000E+00  0.00000000000E+00 -0.64346085007E+02  0.18226569822E+04  0.18215208086E+04 0.  0.
        5    1    3    3  502    0  0.57398429168E+03 -0.42115083855E+02 -0.73846796205E+03  0.93626314055E+03  0.46999998093E+01 0.  1.
       -5    1    3    3    0  502 -0.57398429168E+03  0.42115083855E+02  0.67412187704E+03  0.88639384164E+03  0.46999998093E+01 0. -1.
</event>
<event>
 5   0  0.1451052E-05  0.2566540E+04  0.7818609E-02  0.8379656E-01
        1   -1    0    0  501    0  0.00000000000E+00  0.00000000000E+00  0.11065854323E+04  0.11065854323E+04  0.50400001928E-02 0.  1.
       -1   -1    0    0    0  501  0.00000000000E+00  0.00000000000E+00 -0.14881651387E+04  0.14881651387E+04  0.50400001928E-02 0. -1.
    10030    2    1    2    0    0  0.00000000000E+00  0.00000000000E+00 -0.38157970641E+03  0.25947505709E+04  0.25665399769E+04 0.  0.
        1    1    3    3  502    0 -0.98584492099E+03  0.48375548740E+03 -0.86207027535E+03  0.13960926687E+04  0.50400001928E-02 0. -1.
       -1    1    3    3    0  502  0.98584492099E+03 -0.48375548740E+03  0.48049056895E+03  0.11986579023E+04  0.50400001928E-02 0.  1.
</event>
<event>
 5   0  0.3499642E-05  0.2627438E+04  0.7818609E-02  0.8358940E-01
        2   -1    0    0  501    0  0.00000000000E+00  0.00000000000E+00  0.13802400112E+04  0.13802400112E+04  0.25500000920E-02 0. -1.
       -2   -1    0    0    0  501  0.00000000000E+00  0.00000000000E+00 -0.12504039553E+04  0.12504039554E+04  0.25500000920E-02 0.  1.
    10030    2    1    2    0    0  0.00000000000E+00  0.00000000000E+00  0.12983605586E+03  0.26306439666E+04  0.26274379683E+04 0.  0.
        2    1    3    3  502    0  0.32622092054E+03  0.11874130807E+04 -0.39333867030E+03  0.12927046154E+04  0.25500000920E-02 0.  1.
       -2    1    3    3    0  502 -0.32622092054E+03 -0.11874130807E+04  0.52317472616E+03  0.13379393511E+04  0.25500000920E-02 0. -1.
</event>
<event>
 5   0  0.1451052E-05  0.1777738E+04  0.7818609E-02  0.8718229E-01
       -1   -1    0    0    0  501  0.00000000000E+00  0.00000000000E+00  0.36451815571E+03  0.36451815574E+03  0.50400001928E-02 0.  1.
        1   -1    0    0  501    0  0.00000000000E+00  0.00000000000E+00 -0.21674853043E+04  0.21674853043E+04  0.50400001928E-02 0. -1.
    10030    2    1    2    0    0  0.00000000000E+00  0.00000000000E+00 -0.18029671486E+04  0.25320034600E+04  0.17777376023E+04 0.  0.
        1    1    3    3  502    0  0.11499688828E+03 -0.41558169682E+03  0.20557585745E+03  0.47769641430E+03  0.50400001928E-02 0.  1.
       -1    1    3    3    0  502 -0.11499688828E+03  0.41558169682E+03 -0.20085430060E+04  0.20543070457E+04  0.50400001928E-02 0. -1.
</event>
<event>
 5   0  0.3441646E-05  0.2694344E+04  0.7818609E-02  0.8336843E-01
        2   -1    0    0  501    0  0.00000000000E+00  0.00000000000E+00  0.14369556447E+04  0.14369556447E+04  0.25500000920E-02 0. -1.
       -2   -1    0    0    0  501  0.00000000000E+00  0.00000000000E+00 -0.12629981051E+04  0.12629981051E+04  0.25500000920E-02 0.  1.
    10030    2    1    2    0    0  0.00000000000E+00  0.00000000000E+00  0.17395753951E+03  0.26999537498E+04  0.26943438952E+04 0.  0.
        4    1    3    3  502    0  0.11601323034E+04  0.64930807491E+03  0.30506163854E+03  0.13640279153E+04  0.12699999809E+01 0. -1.
       -4    1    3    3    0  502 -0.11601323034E+04 -0.64930807491E+03 -0.13110409903E+03  0.13359258345E+04  0.12699999809E+01 0.  1.
</event>
<event>
 5   0  0.3849687E-05  0.2611676E+04  0.7818609E-02  0.8364246E-01
        2   -1    0    0  501    0  0.00000000000E+00  0.00000000000E+00  0.28020255200E+04  0.28020255200E+04  0.25500000920E-02 0.  1.
       -2   -1    0    0    0  501  0.00000000000E+00  0.00000000000E+00 -0.60856420316E+03  0.60856420316E+03  0.25500000920E-02 0. -1.
    10030    2    1    2    0    0  0.00000000000E+00  0.00000000000E+00  0.21934613169E+04  0.34105897232E+04  0.26116756520E+04 0.  0.
        1    1    3    3  502    0  0.12398395114E+04  0.18286453791E+03  0.15757862763E+04  0.20133911299E+04  0.50400001928E-02 0.  1.
       -1    1    3    3    0  502 -0.12398395114E+04 -0.18286453791E+03  0.61767504053E+03  0.13971985933E+04  0.50400001928E-02 0. -1.
</event>
<event>
 5   0  0.1217200E-05  0.1899662E+04  0.7818609E-02  0.8655025E-01
       -4   -1    0    0    0  501  0.00000000000E+00  0.00000000000E+00  0.11523298476E+04  0.11523305474E+04  0.12699999809E+01 0. -1.
        4   -1    0    0  501    0  0.00000000000E+00  0.00000000000E+00 -0.78291539955E+03  0.78291642961E+03  0.12699999809E+01 0.  1.
    10030    2    1    2    0    0  0.00000000000E+00  0.00000000000E+00  0.36941444802E+03  0.19352469770E+04  0.18996615034E+04 0.  0.
        5    1    3    3  502    0  0.93792258246E+03 -0.39767810119E+02  0.33189950733E+03  0.99572065479E+03  0.46999998093E+01 0. -1.
       -5    1    3    3    0  502 -0.93792258246E+03  0.39767810119E+02  0.37514940685E+02  0.93952632224E+03  0.46999998093E+01 0.  1.
</event>
<event>
 5   0  0.1451052E-05  0.2533585E+04  0.7818609E-02  0.8391117E-01
        1   -1    0    0  501    0  0.00000000000E+00  0.00000000000E+00  0.14853748341E+04  0.14853748341E+04  0.50400001928E-02 0.  1.
       -1   -1    0    0    0  501  0.00000000000E+00  0.00000000000E+00 -0.10803761407E+04  0.10803761407E+04  0.50400001928E-02 0. -1.
    10030    2    1    2    0    0  0.00000000000E+00  0.00000000000E+00  0.40499869339E+03  0.25657509748E+04  0.25335852310E+04 0.  0.
        1    1    3    3  502    0  0.92742834372E+03  0.37715717612E+03  0.98849260401E+03  0.14069429613E+04  0.50400001928E-02 0.  1.
       -1    1    3    3    0  502 -0.92742834372E+03 -0.37715717612E+03 -0.58349391061E+03  0.11588080134E+04  0.50400001928E-02 0. -1.
</event>
<event>
 5   0  0.1217200E-05  0.2547025E+04  0.7818609E-02  0.8386421E-01
       -3   -1    0    0    0  501  0.00000000000E+00  0.00000000000E+00  0.97710080891E+03  0.97710081413E+03  0.10100000352E+00 0. -1.
        3   -1    0    0  501    0  0.00000000000E+00  0.00000000000E+00 -0.16598436173E+04  0.16598436204E+04  0.10100000352E+00 0.  1.
    10030    2    1    2    0    0  0.00000000000E+00  0.00000000000E+00 -0.68274280837E+03  0.26369444345E+04  0.25470253647E+04 0.  0.
        3    1    3    3  502    0  0.11042589037E+04  0.29989372331E+03  0.23739066966E+03  0.11686223992E+04  0.10100000352E+00 0.  1.
       -3    1    3    3    0  502 -0.11042589037E+04 -0.29989372331E+03 -0.92013347803E+03  0.14683220353E+04  0.10100000352E+00 0. -1.
</event>
<event>
 5   0  0.3441646E-05  0.2555487E+04  0.7818609E-02  0.8383480E-01
        2   -1    0    0  501    0  0.00000000000E+00  0.00000000000E+00  0.22993282432E+04  0.22993282432E+04  0.25500000920E-02 0. -1.
       -2   -1    0    0    0  501  0.00000000000E+00  0.00000000000E+00 -0.71004586865E+03  0.71004586865E+03  0.25500000920E-02 0.  1.
    10030    2    1    2    0    0  0.00000000000E+00  0.00000000000E+00  0.15892823746E+04  0.30093741119E+04  0.25554870532E+04 0.  0.
        4    1    3    3  502    0 -0.19951568428E+02 -0.98826448567E+03  0.17481164508E+04  0.20082274516E+04  0.12699999809E+01 0. -1.
       -4    1    3    3    0  502  0.19951568428E+02  0.98826448567E+03 -0.15883407627E+03  0.10011466603E+04  0.12699999809E+01 0.  1.
</event>
<event>
 5   0  0.1533248E-05  0.2929922E+04  0.7818609E-02  0.8264030E-01
        1   -1    0    0  501    0  0.00000000000E+00  0.00000000000E+00  0.24067779748E+04  0.24067779748E+04  0.50400001928E-02 0. -1.
       -1   -1    0    0    0  501  0.00000000000E+00  0.00000000000E+00 -0.89169476362E+03  0.89169476364E+03  0.50400001928E-02 0.  1.
    10030    2    1    2    0    0  0.00000000000E+00  0.00000000000E+00  0.15150832112E+04  0.32984727385E+04  0.29299223999E+04 0.  0.
        4    1    3    3  502    0  0.13941733924E+04  0.42243135986E+03  0.58334607094E+03  0.15692233599E+04  0.12699999809E+01 0.  1.
       -4    1    3    3    0  502 -0.13941733924E+04 -0.42243135986E+03  0.93173714026E+03  0.17292493786E+04  0.12699999809E+01 0. -1.
</event>
<event>
 5   0  0.3441646E-05  0.2641514E+04  0.7818609E-02  0.8354235E-01
       -2   -1    0    0    0  501  0.00000000000E+00  0.00000000000E+00  0.17336352443E+04  0.17336352443E+04  0.25500000920E-02 0.  1.
        2   -1    0    0  501    0  0.00000000000E+00  0.00000000000E+00 -0.10062089911E+04  0.10062089911E+04  0.25500000920E-02 0. -1.
    10030    2    1    2    0    0  0.00000000000E+00  0.00000000000E+00  0.72742625313E+03  0.27398442354E+04  0.26415142401E+04 0.  0.
        4    1    3    3  502    0 -0.52721593982E+03  0.15015898962E+03  0.16100644544E+04  0.17008273074E+04  0.12699999809E+01 0.  1.
       -4    1    3    3    0  502  0.52721593982E+03 -0.15015898962E+03 -0.88263820130E+03  0.10390169280E+04  0.12699999809E+01 0. -1.
</event>
<event>
 5   0  0.1435062E-05  0.2529802E+04  0.7818609E-02  0.8392445E-01
       -1   -1    0    0    0  501  0.00000000000E+00  0.00000000000E+00  0.13607679912E+04  0.13607679912E+04  0.50400001928E-02 0. -1.
        1   -1    0    0  501    0  0.00000000000E+00  0.00000000000E+00 -0.11757881831E+04  0.11757881831E+04  0.50400001928E-02 0.  1.
    10030    2    1    2    0    0  0.00000000000E+00  0.00000000000E+00  0.18497980814E+03  0.25365561743E+04  0.25298023037E+04 0.  0.
        2    1    3    3  502    0  0.24145887383E+01  0.86463141396E+03  0.10181998652E+04  0.13357860149E+04  0.25500000920E-02 0. -1.
       -2    1    3    3    0  502 -0.24145887383E+01 -0.86463141396E+03 -0.83322005702E+03  0.12007701594E+04  0.25500000920E-02 0.  1.
</event>
<event>
 5   0  0.3849687E-05  0.2537409E+04  0.7818609E-02  0.8389778E-01
        2   -1    0    0  501    0  0.00000000000E+00  0.00000000000E+00  0.21517002898E+04  0.21517002898E+04  0.25500000920E-02 0. -1.
       -2   -1    0    0    0  501  0.00000000000E+00  0.00000000000E+00 -0.74806485705E+03  0.74806485706E+03  0.25500000920E-02 0.  1.
    10030    2    1    2    0    0  0.00000000000E+00  0.00000000000E+00  0.14036354327E+04  0.28997651468E+04  0.25374092060E+04 0.  0.
        1    1    3    3  502    0 -0.25022874172E+03  0.60253923181E+03 -0.54165937497E+03  0.84797572345E+03  0.50400001928E-02 0.  1.
       -1    1    3    3    0  502  0.25022874172E+03 -0.60253923181E+03  0.19452948077E+04  0.20517894234E+04  0.50400001928E-02 0. -1.
</event>
<event>
 5   0  0.1497497E-05  0.2557412E+04  0.7818609E-02  0.8382813E-01
       -1   -1    0    0    0  501  0.00000000000E+00  0.00000000000E+00  0.10369821376E+04  0.10369821376E+04  0.50400001928E-02 0.  1.
        1   -1    0    0  501    0  0.00000000000E+00  0.00000000000E+00 -0.15767766217E+04  0.15767766217E+04  0.50400001928E-02 0. -1.
    10030    2    1    2    0    0  0.00000000000E+00  0.00000000000E+00 -0.53979448412E+03  0.26137587593E+04  0.25574121229E+04 0.  0.
        3    1    3    3  502    0  0.65061799029E+03  0.10866899023E+04 -0.90268003778E+02  0.12697822789E+04  0.10100000352E+00 0.  1.
       -3    1    3    3    0  502 -0.65061799029E+03 -0.10866899023E+04 -0.44952648034E+03  0.13439764804E+04  0.10100000352E+00 0. -1.
</event>
<event>
 5   0  0.1451052E-05  0.2677489E+04  0.7818609E-02  0.8342346E-01
       -1   -1    0    0    0  501  0.00000000000E+00  0.00000000000E+00  0.15125729597E+04  0.15125729597E+04  0.50400001928E-02 0. -1.
        1   -1    0    0  501    0  0.00000000000E+00  0.00000000000E+00 -0.11848929677E+04  0.11848929678E+04  0.50400001928E-02 0.  1.
    10030    2    1    2    0    0  0.00000000000E+00  0.00000000000E+00  0.32767999200E+03  0.26974659275E+04  0.26774891695E+04 0.  0.
        1    1    3    3  502    0 -0.12421681144E+04  0.28286195663E+03 -0.25062283974E+03  0.12983852736E+04  0.50400001928E-02 0.  1.
       -1    1    3    3    0  502  0.12421681144E+04 -0.28286195663E+03  0.57830283173E+03  0.13990806539E+04  0.50400001928E-02 0. -1.
</event>
<event>
 5   0  0.1497497E-05  0.2596340E+04  0.7818609E-02  0.8369445E-01
        1   -1    0    0  501    0  0.00000000000E+00  0.00000000000E+00  0.19563011338E+04  0.19563011338E+04  0.50400001928E-02 0. -1.
       -1   -1    0    0    0  501  0.00000000000E+00  0.00000000000E+00 -0.86144472884E+03  0.86144472886E+03  0.50400001928E-02 0.  1.
    10030    2    1    2    0    0  0.00000000000E+00  0.00000000000E+00  0.10948564050E+04  0.28177458627E+04  0.25963399622E+04 0.  0.
        3    1    3    3  502    0 -0.10417553696E+04 -0.86973215111E+02  0.13827572319E+04  0.17334463254E+04  0.10100000352E+00 0. -1.
       -3    1    3    3    0  502  0.10417553696E+04  0.86973215111E+02 -0.28790082692E+03  0.10842995373E+04  0.10100000352E+00 0.  1.
</event>
<event>
 5   0  0.3647623E-05  0.2492487E+04  0.7818609E-02  0.8405667E-01
        2   -1    0    0  501    0  0.00000000000E+00  0.00000000000E+00  0.15067193155E+04  0.15067193155E+04  0.25500000920E-02 0. -1.
       -2   -1    0    0    0  501  0.00000000000E+00  0.00000000000E+00 -0.10307976431E+04  0.10307976431E+04  0.25500000920E-02 0.  1.
    10030    2    1    2    0    0  0.00000000000E+00  0.00000000000E+00  0.47592167240E+03  0.25375169585E+04  0.24924868859E+04 0.  0.
        3    1    3    3  502    0 -0.86566362929E+03  0.72894460265E+03  0.76929876569E+03  0.13684130787E+04  0.10100000352E+00 0. -1.
       -3    1    3    3    0  502  0.86566362929E+03 -0.72894460265E+03 -0.29337709329E+03  0.11691038798E+04  0.10100000352E+00 0.  1.
</event>
<event>
 5   0  0.3499642E-05  0.2613980E+04  0.7818609E-02  0.8363468E-01
       -2   -1    0    0    0  501  0.00000000000E+00  0.00000000000E+00  0.74000270263E+03  0.74000270264E+03  0.25500000920E-02 0.  1.
        2   -1    0    0  501    0  0.00000000000E+00  0.00000000000E+00 -0.23084003222E+04  0.23084003222E+04  0.25500000920E-02 0. -1.
    10030    2    1    2    0    0  0.00000000000E+00  0.00000000000E+00 -0.15683976196E+04  0.30484030248E+04  0.26139797070E+04 0.  0.
        2    1    3    3  502    0  0.43396722984E+03  0.12170156611E+04 -0.10138167188E+04  0.16423394945E+04  0.25500000920E-02 0.  1.
       -2    1    3    3    0  502 -0.43396722984E+03 -0.12170156611E+04 -0.55458090079E+03  0.14060635304E+04  0.25500000920E-02 0. -1.
</event>
<event>
 5   0  0.1533248E-05  0.2110623E+04  0.7818609E-02  0.8556578E-01
       -1   -1    0    0    0  501  0.00000000000E+00  0.00000000000E+00  0.62460208556E+03  0.62460208558E+03  0.50400001928E-02 0.  1.
        1   -1    0    0  501    0  0.00000000000E+00  0.00000000000E+00 -0.17830271700E+04  0.17830271700E+04  0.50400001928E-02 0. -1.
    10030    2    1    2    0    0  0.00000000000E+00  0.00000000000E+00 -0.11584250845E+04  0.24076292556E+04  0.21106231203E+04 0.  0.
        4    1    3    3  502    0  0.64557943509E+02  0.57144421435E+03 -0.15885816299E+04  0.16894701613E+04  0.12699999809E+01 0. -1.
       -4    1    3    3    0  502 -0.64557943509E+02 -0.57144421435E+03  0.43015654546E+03  0.71815909428E+03  0.12699999809E+01 0.  1.
</event>
<event>
 5   0  0.3441646E-05  0.2645154E+04  0.7818609E-02  0.8353023E-01
        2   -1    0    0  501    0  0.00000000000E+00  0.00000000000E+00  0.32171753464E+04  0.32171753464E+04  0.25500000920E-02 0. -1.
       -2   -1    0    0    0  501  0.00000000000E+00  0.00000000000E+00 -0.54370968548E+03  0.54370968549E+03  0.25500000920E-02 0.  1.
    10030    2    1    2    0    0  0.00000000000E+00  0.00000000000E+00  0.26734656609E+04  0.37608850319E+04  0.26451536029E+04 0.  0.
        4    1    3    3  502    0 -0.86015301784E+03 -0.47668730026E+03  0.25941347870E+04  0.27742802494E+04  0.12699999809E+01 0. -1.
       -4    1    3    3    0  502  0.86015301784E+03  0.47668730026E+03  0.79330873918E+02  0.98660478246E+03  0.12699999809E+01 0.  1.
</event>
<event>
 5   0  0.3508470E-05  0.2544257E+04  0.7818609E-02  0.8387386E-01
       -2   -1    0    0    0  501  0.00000000000E+00  0.00000000000E+00  0.10500595757E+04  0.10500595757E+04  0.25500000920E-02 0. -1.
        2   -1    0    0  501    0  0.00000000000E+00  0.00000000000E+00 -0.15411610399E+04  0.15411610399E+04  0.25500000920E-02 0.  1.
    10030    2    1    2    0    0  0.00000000000E+00  0.00000000000E+00 -0.49110146428E+03  0.25912206156E+04  0.25442569899E+04 0.  0.
        5    1    3    3  502    0  0.52937802688E+03 -0.11168666890E+04  0.61099246840E+02  0.12374924259E+04  0.46999998093E+01 0. -1.
       -5    1    3    3    0  502 -0.52937802688E+03  0.11168666890E+04 -0.55220071112E+03  0.13537281897E+04  0.46999998093E+01 0.  1.
</event>
<event>
 5   0  0.1533248E-05  0.2698569E+04  0.7818609E-02  0.8335469E-01
       -1   -1    0    0    0  501  0.00000000000E+00  0.00000000000E+00  0.10490026784E+04  0.10490026784E+04  0.50400001928E-02 0. -1.
        1   -1    0    0  501    0  0.00000000000E+00  0.00000000000E+00 -0.17355233508E+04  0.17355233508E+04  0.50400001928E-02 0.  1.
    10030    2    1    2    0    0  0.00000000000E+00  0.00000000000E+00 -0.68652067242E+03  0.27845260293E+04  0.26985689863E+04 0.  0.
        4    1    3    3  502    0  0.24263205406E+03 -0.25041743366E+03 -0.16882312442E+04  0.17238635536E+04  0.12699999809E+01 0.  1.
       -4    1    3    3    0  502 -0.24263205406E+03  0.25041743366E+03  0.10017105718E+04  0.10606624757E+04  0.12699999809E+01 0. -1.
</event>
<event>
 5   0  0.3849687E-05  0.2614993E+04  0.7818609E-02  0.8363126E-01
       -2   -1    0    0    0  501  0.00000000000E+00  0.00000000000E+00  0.72743277376E+03  0.72743277377E+03  0.25500000920E-02 0. -1.
        2   -1    0    0  501    0  0.00000000000E+00  0.00000000000E+00 -0.23501103168E+04  0.23501103169E+04  0.25500000920E-02 0.  1.
    10030    2    1    2    0    0  0.00000000000E+00  0.00000000000E+00 -0.16226775431E+04  0.30775430906E+04  0.26149931292E+04 0.  0.
        1    1    3    3  502    0  0.27082696772E+03  0.30703946089E+03 -0.22727265375E+04  0.23093086393E+04  0.50400001928E-02 0.  1.
       -1    1    3    3    0  502 -0.27082696772E+03 -0.30703946089E+03  0.65004899446E+03  0.76823445133E+03  0.50400001928E-02 0. -1.
</event>
<event>
 5   0  0.1451052E-05  0.2614373E+04  0.7818609E-02  0.8363335E-01
       -1   -1    0    0    0  501  0.00000000000E+00  0.00000000000E+00  0.12712137981E+04  0.12712137981E+04  0.50400001928E-02 0.  1.
        1   -1    0    0  501    0  0.00000000000E+00  0.00000000000E+00 -0.13441775856E+04  0.13441775856E+04  0.50400001928E-02 0. -1.
    10030    2    1    2    0    0  0.00000000000E+00  0.00000000000E+00 -0.72963787435E+02  0.26153913837E+04  0.26143734193E+04 0.  0.
        1    1    3    3  502    0 -0.44482922699E+03 -0.83833651725E+03 -0.93575122387E+03  0.13327833696E+04  0.50400001928E-02 0. -1.
       -1    1    3    3    0  502  0.44482922699E+03  0.83833651725E+03  0.86278743643E+03  0.12826080141E+04  0.50400001928E-02 0.  1.
</event>
<event>
 5   0  0.3849687E-05  0.2529264E+04  0.7818609E-02  0.8392634E-01
       -2   -1    0    0    0  501  0.00000000000E+00  0.00000000000E+00  0.63278668685E+03  0.63278668686E+03  0.25500000920E-02 0. -1.
        2   -1    0    0  501    0  0.00000000000E+00  0.00000000000E+00 -0.25273823882E+04  0.25273823882E+04  0.25500000920E-02 0.  1.
    10030    2    1    2    0    0  0.00000000000E+00  0.00000000000E+00 -0.18945957014E+04  0.31601690751E+04  0.25292638675E+04 0.  0.
        1    1    3    3  502    0 -0.12295899028E+04  0.20919392495E+02 -0.13157561765E+04  0.18009839716E+04  0.50400001928E-02 0.  1.
       -1    1    3    3    0  502  0.12295899028E+04 -0.20919392495E+02 -0.57883952492E+03  0.13591851035E+04  0.50400001928E-02 0. -1.
</event>
<event>
 5   0  0.1533248E-05  0.2576831E+04  0.7818609E-02  0.8376114E-01
        1   -1    0    0  501    0  0.00000000000E+00  0.00000000000E+00  0.10081983609E+04  0.10081983610E+04  0.50400001928E-02 0.  1.
       -1   -1    0    0    0  501  0.00000000000E+00  0.00000000000E+00 -0.16465157298E+04  0.16465157298E+04  0.50400001928E-02 0. -1.
    10030    2    1    2    0    0  0.00000000000E+00  0.00000000000E+00 -0.63831736883E+03  0.26547140907E+04  0.25768309685E+04 0.  0.
        4    1    3    3  502    0  0.98483412418E+03 -0.74979709266E+03 -0.68762620081E+03  0.14159538613E+04  0.12699999809E+01 0. -1.
       -4    1    3    3    0  502 -0.98483412418E+03  0.74979709266E+03  0.49308831975E+02  0.12387602295E+04  0.12699999809E+01 0.  1.
</event>
<event>
 5   0  0.3499642E-05  0.2594638E+04  0.7818609E-02  0.8370025E-01
        2   -1    0    0  501    0  0.00000000000E+00  0.00000000000E+00  0.92981925180E+03  0.92981925180E+03  0.25500000920E-02 0. -1.
       -2   -1    0    0    0  501  0.00000000000E+00  0.00000000000E+00 -0.18100687114E+04  0.18100687114E+04  0.25500000920E-02 0.  1.
    10030    2    1    2    0    0  0.00000000000E+00  0.00000000000E+00 -0.88024945961E+03  0.27398879632E+04  0.25946381135E+04 0.  0.
        2    1    3    3  502    0  0.72106918610E+03 -0.70974180577E+03  0.41734370933E+03  0.10944633268E+04  0.25500000920E-02 0. -1.
       -2    1    3    3    0  502 -0.72106918610E+03  0.70974180577E+03 -0.12975931689E+04  0.16454246364E+04  0.25500000920E-02 0.  1.
</event>
<event>
 5   0  0.3499642E-05  0.2029292E+04  0.7818609E-02  0.8593047E-01
       -2   -1    0    0    0  501  0.00000000000E+00  0.00000000000E+00  0.43484981254E+03  0.43484981255E+03  0.25500000920E-02 0.  1.
        2   -1    0    0  501    0  0.00000000000E+00  0.00000000000E+00 -0.23674996740E+04  0.23674996740E+04  0.25500000920E-02 0. -1.
    10030    2    1    2    0    0  0.00000000000E+00  0.00000000000E+00 -0.19326498615E+04  0.28023494866E+04  0.20292922800E+04 0.  0.
        2    1    3    3  502    0  0.90127540511E+03  0.35124945123E+03 -0.13893402423E+04  0.16929086927E+04  0.25500000920E-02 0. -1.
       -2    1    3    3    0  502 -0.90127540511E+03 -0.35124945123E+03 -0.54330961918E+03  0.11094407939E+04  0.25500000920E-02 0.  1.
</event>
<event>
 5   0  0.1533248E-05  0.2643226E+04  0.7818609E-02  0.8353665E-01
       -1   -1    0    0    0  501  0.00000000000E+00  0.00000000000E+00  0.93017555266E+03  0.93017555267E+03  0.50400001928E-02 0.  1.
        1   -1    0    0  501    0  0.00000000000E+00  0.00000000000E+00 -0.18777758303E+04  0.18777758303E+04  0.50400001928E-02 0. -1.
    10030    2    1    2    0    0  0.00000000000E+00  0.00000000000E+00 -0.94760027764E+03  0.28079513830E+04  0.26432261884E+04 0.  0.
        4    1    3    3  502    0  0.37198531036E+02 -0.85444456818E+03 -0.15441632317E+04  0.17651914768E+04  0.12699999809E+01 0. -1.
       -4    1    3    3    0  502 -0.37198531036E+02  0.85444456818E+03  0.59656295407E+03  0.10427599061E+04  0.12699999809E+01 0.  1.
</event>
<event>
 5   0  0.1474554E-05  0.2603043E+04  0.7818609E-02  0.8367168E-01
       -1   -1    0    0    0  501  0.00000000000E+00  0.00000000000E+00  0.91554135444E+03  0.91554135446E+03  0.50400001928E-02 0.  1.
        1   -1    0    0  501    0  0.00000000000E+00  0.00000000000E+00 -0.18502254392E+04  0.18502254392E+04  0.50400001928E-02 0. -1.
    10030    2    1    2    0    0  0.00000000000E+00  0.00000000000E+00 -0.93468408471E+03  0.27657667936E+04  0.26030427616E+04 0.  0.
        5    1    3    3  502    0  0.67559851598E+03 -0.15356835055E+03  0.70331356484E+03  0.98726321392E+03  0.46999998093E+01 0.  1.
       -5    1    3    3    0  502 -0.67559851598E+03  0.15356835055E+03 -0.16379976495E+04  0.17785035797E+04  0.46999998093E+01 0. -1.
</event>
<event>
 5   0  0.1435062E-05  0.2584602E+04  0.7818609E-02  0.8373450E-01
        1   -1    0    0  501    0  0.00000000000E+00  0.00000000000E+00  0.15466395877E+04  0.15466395877E+04  0.50400001928E-02 0.  1.
       -1   -1    0    0    0  501  0.00000000000E+00  0.00000000000E+00 -0.10797872966E+04  0.10797872966E+04  0.50400001928E-02 0. -1.
    10030    2    1    2    0    0  0.00000000000E+00  0.00000000000E+00  0.46685229116E+03  0.26264268843E+04  0.25846019262E+04 0.  0.
        2    1    3    3  502    0  0.11770504967E+04  0.53322887530E+03  0.24983910892E+03  0.13161308771E+04  0.25500000920E-02 0. -1.
       -2    1    3    3    0  502 -0.11770504967E+04 -0.53322887530E+03  0.21701318224E+03  0.13102960072E+04  0.25500000920E-02 0.  1.
</event>
<event>
 5   0  0.3647623E-05  0.2571433E+04  0.7818609E-02  0.8377970E-01
       -2   -1    0    0    0  501  0.00000000000E+00  0.00000000000E+00  0.14757252262E+04  0.14757252262E+04  0.25500000920E-02 0. -1.
        2   -1    0    0  501    0  0.00000000000E+00  0.00000000000E+00 -0.11201722030E+04  0.11201722030E+04  0.25500000920E-02 0.  1.
    10030    2    1    2    0    0  0.00000000000E+00  0.00000000000E+00  0.35555302325E+03  0.25958974292E+04  0.25714325794E+04 0.  0.
        3    1    3    3  502    0  0.90436448802E+03  0.28093188844E+02 -0.74437027642E+03  0.11716447726E+04  0.10100000352E+00 0.  1.
       -3    1    3    3    0  502 -0.90436448802E+03 -0.28093188844E+02  0.10999232997E+04  0.14242526566E+04  0.10100000352E+00 0. -1.
</event>
<event>
 5   0  0.1435062E-05  0.1740122E+04  0.7818609E-02  0.8738806E-01
       -1   -1    0    0    0  501  0.00000000000E+00  0.00000000000E+00  0.31958773574E+03  0.31958773578E+03  0.50400001928E-02 0. -1.
        1   -1    0    0  501    0  0.00000000000E+00  0.00000000000E+00 -0.23686955888E+04  0.23686955888E+04  0.50400001928E-02 0.  1.
    10030    2    1    2    0    0  0.00000000000E+00  0.00000000000E+00 -0.20491078530E+04  0.26882833245E+04  0.17401219037E+04 0.  0.
        2    1    3    3  502    0  0.36203822170E+03 -0.77938069297E+03 -0.12346813101E+04  0.15043084379E+04  0.25500000920E-02 0.  1.
       -2    1    3    3    0  502 -0.36203822170E+03  0.77938069297E+03 -0.81442654287E+03  0.11839748867E+04  0.25500000920E-02 0. -1.
</event>
<event>
 5   0  0.1451052E-05  0.2576383E+04  0.7818609E-02  0.8376268E-01
        1   -1    0    0  501    0  0.00000000000E+00  0.00000000000E+00  0.20100765180E+04  0.20100765180E+04  0.50400001928E-02 0. -1.
       -1   -1    0    0    0  501  0.00000000000E+00  0.00000000000E+00 -0.82555945337E+03  0.82555945338E+03  0.50400001928E-02 0.  1.
    10030    2    1    2    0    0  0.00000000000E+00  0.00000000000E+00  0.11845170646E+04  0.28356359714E+04  0.25763832568E+04 0.  0.
        1    1    3    3  502    0  0.15161467672E+03 -0.12044321533E+04  0.10666705426E+04  0.16159919148E+04  0.50400001928E-02 0.  1.
       -1    1    3    3    0  502 -0.15161467672E+03  0.12044321533E+04  0.11784652196E+03  0.12196440566E+04  0.50400001928E-02 0. -1.
</event>
<event>
 5   0  0.3849687E-05  0.2453669E+04  0.7818609E-02  0.8419680E-01
       -2   -1    0    0    0  501  0.00000000000E+00  0.00000000000E+00  0.69377539824E+03  0.69377539824E+03  0.25500000920E-02 0.  1.
        2   -1    0    0  501    0  0.00000000000E+00  0.00000000000E+00 -0.21694663798E+04  0.21694663798E+04  0.25500000920E-02 0. -1.
    10030    2    1    2    0    0  0.00000000000E+00  0.00000000000E+00 -0.14756909816E+04  0.28632417781E+04  0.24536686016E+04 0.  0.
        1    1    3    3  502    0  0.53688974745E+03  0.57750068470E+03  0.35891589533E+03  0.86635919900E+03  0.50400001928E-02 0.  1.
       -1    1    3    3    0  502 -0.53688974745E+03 -0.57750068470E+03 -0.18346068769E+04  0.19968825791E+04  0.50400001928E-02 0. -1.
</event>
<event>
 5   0  0.1217200E-05  0.2502194E+04  0.7818609E-02  0.8402204E-01
       -3   -1    0    0    0  501  0.00000000000E+00  0.00000000000E+00  0.68067421712E+03  0.68067422461E+03  0.10100000352E+00 0. -1.
        3   -1    0    0  501    0  0.00000000000E+00  0.00000000000E+00 -0.22995487263E+04  0.22995487285E+04  0.10100000352E+00 0.  1.
    10030    2    1    2    0    0  0.00000000000E+00  0.00000000000E+00 -0.16188745092E+04  0.29802229531E+04  0.25021938722E+04 0.  0.
        2    1    3    3  502    0  0.63337848878E+03  0.24490029364E+03 -0.20609400471E+04  0.21699351008E+04  0.25500000920E-02 0.  1.
       -2    1    3    3    0  502 -0.63337848878E+03 -0.24490029364E+03  0.44206553790E+03  0.81028785236E+03  0.25500000920E-02 0. -1.
</event>
<event>
 5   0  0.1474554E-05  0.2618350E+04  0.7818609E-02  0.8361995E-01
        1   -1    0    0  501    0  0.00000000000E+00  0.00000000000E+00  0.21594397398E+04  0.21594397398E+04  0.50400001928E-02 0.  1.
       -1   -1    0    0    0  501  0.00000000000E+00  0.00000000000E+00 -0.79369618899E+03  0.79369618901E+03  0.50400001928E-02 0. -1.
    10030    2    1    2    0    0  0.00000000000E+00  0.00000000000E+00  0.13657435508E+04  0.29531359288E+04  0.26183499322E+04 0.  0.
        5    1    3    3  502    0 -0.11088361283E+04 -0.62752121741E+03  0.10223872277E+04  0.16335844548E+04  0.46999998093E+01 0.  1.
       -5    1    3    3    0  502  0.11088361283E+04  0.62752121741E+03  0.34335632316E+03  0.13195514740E+04  0.46999998093E+01 0. -1.
</event>
<event>
 5   0  0.3499642E-05  0.2607236E+04  0.7818609E-02  0.8365748E-01
        2   -1    0    0  501    0  0.00000000000E+00  0.00000000000E+00  0.26192116069E+04  0.26192116069E+04  0.25500000920E-02 0. -1.
       -2   -1    0    0    0  501  0.00000000000E+00  0.00000000000E+00 -0.64882863565E+03  0.64882863566E+03  0.25500000920E-02 0.  1.
    10030    2    1    2    0    0  0.00000000000E+00  0.00000000000E+00  0.19703829713E+04  0.32680402426E+04  0.26072356958E+04 0.  0.
        2    1    3    3  502    0  0.31736222499E+03 -0.58485085848E+03 -0.41993138303E+03  0.78683649825E+03  0.25500000920E-02 0.  1.
       -2    1    3    3    0  502 -0.31736222499E+03  0.58485085848E+03  0.23903143543E+04  0.24812037443E+04  0.25500000920E-02 0. -1.
</event>
<event>
 5   0  0.3499642E-05  0.2234061E+04  0.7818609E-02  0.8504384E-01
        2   -1    0    0  501    0  0.00000000000E+00  0.00000000000E+00  0.13024486029E+04  0.13024486029E+04  0.25500000920E-02 0.  1.
       -2   -1    0    0    0  501  0.00000000000E+00  0.00000000000E+00 -0.95800856262E+03  0.95800856262E+03  0.25500000920E-02 0. -1.
    10030    2    1    2    0    0  0.00000000000E+00  0.00000000000E+00  0.34444004028E+03  0.22604571655E+04  0.22340607995E+04 0.  0.
        2    1    3    3  502    0  0.45363906291E+03 -0.21060896083E+03  0.11828268027E+04  0.12842210787E+04  0.25500000920E-02 0.  1.
       -2    1    3    3    0  502 -0.45363906291E+03  0.21060896083E+03 -0.83838676243E+03  0.97623608682E+03  0.25500000920E-02 0. -1.
</event>
<event>
 5   0  0.1497497E-05  0.1940154E+04  0.7818609E-02  0.8635124E-01
        1   -1    0    0  501    0  0.00000000000E+00  0.00000000000E+00  0.99078801458E+03  0.99078801460E+03  0.50400001928E-02 0.  1.
       -1   -1    0    0    0  501  0.00000000000E+00  0.00000000000E+00 -0.94979843431E+03  0.94979843433E+03  0.50400001928E-02 0. -1.
    10030    2    1    2    0    0  0.00000000000E+00  0.00000000000E+00  0.40989580271E+02  0.19405864489E+04  0.19401535042E+04 0.  0.
        3    1    3    3  502    0  0.26303521483E+03 -0.51920654458E+03 -0.75574922078E+03  0.95389719314E+03  0.10100000352E+00 0. -1.
       -3    1    3    3    0  502 -0.26303521483E+03  0.51920654458E+03  0.79673880105E+03  0.98668925578E+03  0.10100000352E+00 0.  1.
</event>
<event>
 5   0  0.3508470E-05  0.2338871E+04  0.7818609E-02  0.8462751E-01
        2   -1    0    0  501    0  0.00000000000E+00  0.00000000000E+00  0.21145238691E+04  0.21145238691E+04  0.25500000920E-02 0.  1.
       -2   -1    0    0    0  501  0.00000000000E+00  0.00000000000E+00 -0.64675531870E+03  0.64675531871E+03  0.25500000920E-02 0. -1.
    10030    2    1    2    0    0  0.00000000000E+00  0.00000000000E+00  0.14677685504E+04  0.27612791878E+04  0.23388711456E+04 0.  0.
        5    1    3    3  502    0 -0.10433662178E+04 -0.51199306541E+03  0.88694214072E+03  0.14619980898E+04  0.46999998093E+01 0.  1.
       -5    1    3    3    0  502  0.10433662178E+04  0.51199306541E+03  0.58082640971E+03  0.12992810981E+04  0.46999998093E+01 0. -1.
</event>
<event>
 5   0  0.1533248E-05  0.2569824E+04  0.7818609E-02  0.8378524E-01
        1   -1    0    0  501    0  0.00000000000E+00  0.00000000000E+00  0.99759619493E+03  0.99759619495E+03  0.50400001928E-02 0.  1.
       -1   -1    0    0    0  501  0.00000000000E+00  0.00000000000E+00 -0.16549774077E+04  0.16549774077E+04  0.50400001928E-02 0. -1.
    10030    2    1    2    0    0  0.00000000000E+00  0.00000000000E+00 -0.65738121281E+03  0.26525736027E+04  0.25698242467E+04 0.  0.
        4    1    3    3  502    0  0.10497732194E+03  0.23653408134E+03  0.97041835069E+03  0.10043316176E+04  0.12699999809E+01 0.  1.
       -4    1    3    3    0  502 -0.10497732194E+03 -0.23653408134E+03 -0.16277995635E+04  0.16482419851E+04  0.12699999809E+01 0. -1.
</event>
<event>
 5   0  0.3499642E-05  0.2608483E+04  0.7818609E-02  0.8365325E-01
       -2   -1    0    0    0  501  0.00000000000E+00  0.00000000000E+00  0.87664397118E+03  0.87664397118E+03  0.25500000920E-02 0. -1.
        2   -1    0    0  501    0  0.00000000000E+00  0.00000000000E+00 -0.19404069351E+04  0.19404069351E+04  0.25500000920E-02 0.  1.
    10030    2    1    2    0    0  0.00000000000E+00  0.00000000000E+00 -0.10637629639E+04  0.28170509062E+04  0.26084831157E+04 0.  0.
        2    1    3    3  502    0  0.73400678713E+03  0.67733056753E+02 -0.16938737534E+04  0.18473121076E+04  0.25500000920E-02 0.  1.
       -2    1    3    3    0  502 -0.73400678713E+03 -0.67733056753E+02  0.63011078949E+03  0.96973879863E+03  0.25500000920E-02 0. -1.
</event>
<event>
 5   0  0.1474554E-05  0.2284602E+04  0.7818609E-02  0.8484017E-01
       -1   -1    0    0    0  501  0.00000000000E+00  0.00000000000E+00  0.13723057575E+04  0.13723057575E+04  0.50400001928E-02 0.  1.
        1   -1    0    0  501    0  0.00000000000E+00  0.00000000000E+00 -0.95084579339E+03  0.95084579340E+03  0.50400001928E-02 0. -1.
    10030    2    1    2    0    0  0.00000000000E+00  0.00000000000E+00  0.42145996415E+03  0.23231515509E+04  0.22846016343E+04 0.  0.
        5    1    3    3  502    0  0.10379504463E+04 -0.48881256249E+02 -0.27172124771E+03  0.10740507589E+04  0.46999998093E+01 0. -1.
       -5    1    3    3    0  502 -0.10379504463E+04  0.48881256249E+02  0.69318121186E+03  0.12491007920E+04  0.46999998093E+01 0.  1.
</event>
<event>
 5   0  0.1217200E-05  0.2630875E+04  0.7818609E-02  0.8357789E-01
        3   -1    0    0  501    0  0.00000000000E+00  0.00000000000E+00  0.10391445568E+04  0.10391445617E+04  0.10100000352E+00 0. -1.
       -3   -1    0    0    0  501  0.00000000000E+00  0.00000000000E+00 -0.16651931948E+04  0.16651931979E+04  0.10100000352E+00 0.  1.
    10030    2    1    2    0    0  0.00000000000E+00  0.00000000000E+00 -0.62604863798E+03  0.27043377596E+04  0.26308754856E+04 0.  0.
        2    1    3    3  502    0 -0.99505254500E+03 -0.75837529529E+03  0.10466399354E+03  0.12554748932E+04  0.25500000920E-02 0. -1.
       -2    1    3    3    0  502  0.99505254500E+03  0.75837529529E+03 -0.73071263151E+03  0.14488628664E+04  0.25500000920E-02 0.  1.
</event>
<event>
 5   0  0.1435062E-05  0.2662124E+04  0.7818609E-02  0.8347400E-01
        1   -1    0    0  501    0  0.00000000000E+00  0.00000000000E+00  0.13614254027E+04  0.13614254027E+04  0.50400001928E-02 0.  1.
       -1   -1    0    0    0  501  0.00000000000E+00  0.00000000000E+00 -0.13013752938E+04  0.13013752938E+04  0.50400001928E-02 0. -1.
    10030    2    1    2    0    0  0.00000000000E+00  0.00000000000E+00  0.60050108905E+02  0.26628006965E+04  0.26621235008E+04 0.  0.
        2    1    3    3  502    0 -0.11558783537E+04 -0.49180239693E+03 -0.41031530111E+03  0.13214700195E+04  0.25500000920E-02 0.  1.
       -2    1    3    3    0  502  0.11558783537E+04  0.49180239693E+03  0.47036541001E+03  0.13413306770E+04  0.25500000920E-02 0. -1.
</event>
<event>
 5   0  0.1474554E-05  0.2589457E+04  0.7818609E-02  0.8371791E-01
       -1   -1    0    0    0  501  0.00000000000E+00  0.00000000000E+00  0.10449284508E+04  0.10449284509E+04  0.50400001928E-02 0. -1.
        1   -1    0    0  501    0  0.00000000000E+00  0.00000000000E+00 -0.16042458900E+04  0.16042458900E+04  0.50400001928E-02 0.  1.
    10030    2    1    2    0    0  0.00000000000E+00  0.00000000000E+00 -0.55931743918E+03  0.26491743409E+04  0.25894572193E+04 0.  0.
        5    1    3    3  502    0  0.10564091552E+04  0.26585613689E+03  0.43620689895E+03  0.11734472027E+04  0.46999998093E+01 0. -1.
       -5    1    3    3    0  502 -0.10564091552E+04 -0.26585613689E+03 -0.99552433813E+03  0.14757271382E+04  0.46999998093E+01 0.  1.
</event>
<event>
 5   0  0.3499642E-05  0.2541509E+04  0.7818609E-02  0.8388345E-01
       -2   -1    0    0    0  501  0.00000000000E+00  0.00000000000E+00  0.11923888286E+04  0.11923888286E+04  0.25500000920E-02 0.  1.
        2   -1    0    0  501    0  0.00000000000E+00  0.00000000000E+00 -0.13542702442E+04  0.13542702442E+04  0.25500000920E-02 0. -1.
    10030    2    1    2    0    0  0.00000000000E+00  0.00000000000E+00 -0.16188141560E+03  0.25466590728E+04  0.25415087724E+04 0.  0.
        2    1    3    3  502    0  0.11479258978E+04 -0.25148377647E+03 -0.56548941510E+03  0.13041304518E+04  0.25500000920E-02 0. -1.
       -2    1    3    3    0  502 -0.11479258978E+04  0.25148377647E+03  0.40360799950E+03  0.12425286210E+04  0.25500000920E-02 0.  1.
</event>
<event>
 5   0  0.3499642E-05  0.2321978E+04  0.7818609E-02  0.8469305E-01
       -2   -1    0    0    0  501  0.00000000000E+00  0.00000000000E+00  0.80427654523E+03  0.80427654524E+03  0.25500000920E-02 0.  1.
        2   -1    0    0  501    0  0.00000000000E+00  0.00000000000E+00 -0.16759108259E+04  0.16759108259E+04  0.25500000920E-02 0. -1.
    10030    2    1    2    0    0  0.00000000000E+00  0.00000000000E+00 -0.87163428063E+03  0.24801873711E+04  0.23219782679E+04 0.  0.
        2    1    3    3  502    0  0.40782510892E+03  0.53504411351E+03 -0.14464913373E+04  0.15952838970E+04  0.25500000920E-02 0. -1.
       -2    1    3    3    0  502 -0.40782510892E+03 -0.53504411351E+03  0.57485705672E+03  0.88490347414E+03  0.25500000920E-02 0.  1.
</event>
<event>
 5   0  0.1533248E-05  0.2631116E+04  0.7818609E-02  0.8357708E-01
       -1   -1    0    0    0  501  0.00000000000E+00  0.00000000000E+00  0.64297434971E+03  0.64297434973E+03  0.50400001928E-02 0. -1.
        1   -1    0    0  501    0  0.00000000000E+00  0.00000000000E+00 -0.26916971616E+04  0.26916971616E+04  0.50400001928E-02 0.  1.
    10030    2    1    2    0    0  0.00000000000E+00  0.00000000000E+00 -0.20487228119E+04  0.33346715114E+04  0.26311155293E+04 0.  0.
        4    1    3    3  502    0  0.70276379467E+03  0.10646490111E+03  0.37866569252E+03  0.80535771298E+03  0.12699999809E+01 0. -1.
       -4    1    3    3    0  502 -0.70276379467E+03 -0.10646490111E+03 -0.24273885044E+04  0.25293137984E+04  0.12699999809E+01 0.  1.
</event>
<event>
 5   0  0.3441646E-05  0.2664785E+04  0.7818609E-02  0.8346522E-01
        2   -1    0    0  501    0  0.00000000000E+00  0.00000000000E+00  0.16319063628E+04  0.16319063628E+04  0.25500000920E-02 0.  1.
       -2   -1    0    0    0  501  0.00000000000E+00  0.00000000000E+00 -0.10878505562E+04  0.10878505562E+04  0.25500000920E-02 0. -1.
    10030    2    1    2    0    0  0.00000000000E+00  0.00000000000E+00  0.54405580663E+03  0.27197569190E+04  0.26647853530E+04 0.  0.
        4    1    3    3  502    0 -0.11800702249E+04  0.43804046402E+03 -0.17381691831E+03  0.12706923773E+04  0.12699999809E+01 0. -1.
       -4    1    3    3    0  502  0.11800702249E+04 -0.43804046402E+03  0.71787272495E+03  0.14490645417E+04  0.12699999809E+01 0.  1.
</event>
<event>
 5   0  0.1217200E-05  0.2497936E+04  0.7818609E-02  0.8403721E-01
        3   -1    0    0  501    0  0.00000000000E+00  0.00000000000E+00  0.91720106082E+03  0.91720106638E+03  0.10100000352E+00 0. -1.
       -3   -1    0    0    0  501  0.00000000000E+00  0.00000000000E+00 -0.17007406028E+04  0.17007406058E+04  0.10100000352E+00 0.  1.
    10030    2    1    2    0    0  0.00000000000E+00  0.00000000000E+00 -0.78353954196E+03  0.26179416721E+04  0.24979360250E+04 0.  0.
        5    1    3    3  502    0 -0.56612215982E+03 -0.10292360883E+04  0.52972817975E+02  0.11758611461E+04  0.46999998093E+01 0. -1.
       -5    1    3    3    0  502  0.56612215982E+03  0.10292360883E+04 -0.83651235993E+03  0.14420805261E+04  0.46999998093E+01 0.  1.
</event>
<event>
 5   0  0.1217200E-05  0.2016117E+04  0.7818609E-02  0.8599122E-01
        3   -1    0    0  501    0  0.00000000000E+00  0.00000000000E+00  0.69844886979E+03  0.69844887709E+03  0.10100000352E+00 0. -1.
       -3   -1    0    0    0  501  0.00000000000E+00  0.00000000000E+00 -0.14549125569E+04  0.14549125604E+04  0.10100000352E+00 0.  1.
    10030    2    1    2    0    0  0.00000000000E+00  0.00000000000E+00 -0.75646368709E+03  0.21533614375E+04  0.20161171024E+04 0.  0.
        2    1    3    3  502    0  0.75759083674E+03 -0.53762053911E+03  0.39823570804E+02  0.92982021745E+03  0.25500000920E-02 0. -1.
       -2    1    3    3    0  502 -0.75759083674E+03  0.53762053911E+03 -0.79628725789E+03  0.12235412200E+04  0.25500000920E-02 0.  1.
</event>
<event>
 5   0  0.1497497E-05  0.1966628E+04  0.7818609E-02  0.8622384E-01
       -1   -1    0    0    0  501  0.00000000000E+00  0.00000000000E+00  0.16421780811E+04  0.16421780811E+04  0.50400001928E-02 0. -1.
        1   -1    0    0  501    0  0.00000000000E+00  0.00000000000E+00 -0.58879518217E+03  0.58879518219E+03  0.50400001928E-02 0.  1.
    10030    2    1    2    0    0  0.00000000000E+00  0.00000000000E+00  0.10533828989E+04  0.22309732633E+04  0.19666281219E+04 0.  0.
        3    1    3    3  502    0 -0.93931508028E+03 -0.10891984257E+03  0.22075624700E+03  0.97103536647E+03  0.10100000352E+00 0.  1.
       -3    1    3    3    0  502  0.93931508028E+03  0.10891984257E+03  0.83262665192E+03  0.12599378968E+04  0.10100000352E+00 0. -1.
</event>
<event>
 5   0  0.3499642E-05  0.2584578E+04  0.7818609E-02  0.8373459E-01
       -2   -1    0    0    0  501  0.00000000000E+00  0.00000000000E+00  0.11769497445E+04  0.11769497445E+04  0.25500000920E-02 0. -1.
        2   -1    0    0  501    0  0.00000000000E+00  0.00000000000E+00 -0.14189315452E+04  0.14189315452E+04  0.25500000920E-02 0.  1.
    10030    2    1    2    0    0  0.00000000000E+00  0.00000000000E+00 -0.24198180063E+03  0.25958812897E+04  0.25845782013E+04 0.  0.
        2    1    3    3  502    0 -0.12559747972E+04 -0.70105513348E+02  0.17631656166E+03  0.12702263594E+04  0.25500000920E-02 0. -1.
       -2    1    3    3    0  502  0.12559747972E+04  0.70105513348E+02 -0.41829836229E+03  0.13256549303E+04  0.25500000920E-02 0.  1.
</event>
<event>
 5   0  0.1451052E-05  0.2667166E+04  0.7818609E-02  0.8345738E-01
        1   -1    0    0  501    0  0.00000000000E+00  0.00000000000E+00  0.12461016887E+04  0.12461016887E+04  0.50400001928E-02 0.  1.
       -1   -1    0    0    0  501  0.00000000000E+00  0.00000000000E+00 -0.14272054607E+04  0.14272054607E+04  0.50400001928E-02 0. -1.
    10030    2    1    2    0    0  0.00000000000E+00  0.00000000000E+00 -0.18110377196E+03  0.26733071494E+04  0.26671656377E+04 0.  0.
        1    1    3    3  502    0  0.23245536515E+03 -0.37101254155E+03  0.11720142289E+04  0.12511207598E+04  0.50400001928E-02 0.  1.
       -1    1    3    3    0  502 -0.23245536515E+03  0.37101254155E+03 -0.13531180008E+04  0.14221863897E+04  0.50400001928E-02 0. -1.
</event>
<event>
 5   0  0.3499642E-05  0.2561150E+04  0.7818609E-02  0.8381519E-01
        2   -1    0    0  501    0  0.00000000000E+00  0.00000000000E+00  0.24020041977E+04  0.24020041977E+04  0.25500000920E-02 0. -1.
       -2   -1    0    0    0  501  0.00000000000E+00  0.00000000000E+00 -0.68270991796E+03  0.68270991797E+03  0.25500000920E-02 0.  1.
    10030    2    1    2    0    0  0.00000000000E+00  0.00000000000E+00  0.17192942797E+04  0.30847141156E+04  0.25611498111E+04 0.  0.
        2    1    3    3  502    0  0.36582212728E+03  0.58815865394E+03 -0.43762347953E+03  0.81931113800E+03  0.25500000920E-02 0.  1.
       -2    1    3    3    0  502 -0.36582212728E+03 -0.58815865394E+03  0.21569177592E+04  0.22654029776E+04  0.25500000920E-02 0. -1.
</event>
<event>
 5   0  0.3499642E-05  0.2639920E+04  0.7818609E-02  0.8354766E-01
       -2   -1    0    0    0  501  0.00000000000E+00  0.00000000000E+00  0.16105686721E+04  0.16105686721E+04  0.25500000920E-02 0. -1.
        2   -1    0    0  501    0  0.00000000000E+00  0.00000000000E+00 -0.10817881045E+04  0.10817881046E+04  0.25500000920E-02 0.  1.
    10030    2    1    2    0    0  0.00000000000E+00  0.00000000000E+00  0.52878056751E+03  0.26923567766E+04  0.26399197192E+04 0.  0.
        2    1    3    3  502    0 -0.45074328368E+03 -0.63045432043E+01  0.15296310044E+04  0.15946724631E+04  0.25500000920E-02 0. -1.
       -2    1    3    3    0  502  0.45074328368E+03  0.63045432043E+01 -0.10008504369E+04  0.10976843135E+04  0.25500000920E-02 0.  1.
</event>
<event>
 5   0  0.1497497E-05  0.2415038E+04  0.7818609E-02  0.8433895E-01
        1   -1    0    0  501    0  0.00000000000E+00  0.00000000000E+00  0.13910307007E+04  0.13910307007E+04  0.50400001928E-02 0. -1.
       -1   -1    0    0    0  501  0.00000000000E+00  0.00000000000E+00 -0.10482171756E+04  0.10482171756E+04  0.50400001928E-02 0.  1.
    10030    2    1    2    0    0  0.00000000000E+00  0.00000000000E+00  0.34281352517E+03  0.24392478763E+04  0.24150381134E+04 0.  0.
        3    1    3    3  502    0  0.45782458351E+03 -0.84739581693E+03  0.90700652770E+03  0.13230056203E+04  0.10100000352E+00 0. -1.
       -3    1    3    3    0  502 -0.45782458351E+03  0.84739581693E+03 -0.56419300253E+03  0.11162422560E+04  0.10100000352E+00 0.  1.
</event>
<event>
 5   0  0.1451052E-05  0.2624844E+04  0.7818609E-02  0.8359811E-01
        1   -1    0    0  501    0  0.00000000000E+00  0.00000000000E+00  0.15062137416E+04  0.15062137416E+04  0.50400001928E-02 0.  1.
       -1   -1    0    0    0  501  0.00000000000E+00  0.00000000000E+00 -0.11435639652E+04  0.11435639652E+04  0.50400001928E-02 0. -1.
    10030    2    1    2    0    0  0.00000000000E+00  0.00000000000E+00  0.36264977645E+03  0.26497777068E+04  0.26248441925E+04 0.  0.
        1    1    3    3  502    0  0.40233637090E+02  0.64149765525E+03  0.13364466893E+04  0.14829793460E+04  0.50400001928E-02 0.  1.
       -1    1    3    3    0  502 -0.40233637090E+02 -0.64149765525E+03 -0.97379691286E+03  0.11667983608E+04  0.50400001928E-02 0. -1.
</event>
<event>
 5   0  0.1497497E-05  0.2618019E+04  0.7818609E-02  0.8362106E-01
       -1   -1    0    0    0  501  0.00000000000E+00  0.00000000000E+00  0.98319481916E+03  0.98319481918E+03  0.50400001928E-02 0. -1.
        1   -1    0    0  501    0  0.00000000000E+00  0.00000000000E+00 -0.17427937017E+04  0.17427937017E+04  0.50400001928E-02 0.  1.
    10030    2    1    2    0    0  0.00000000000E+00  0.00000000000E+00 -0.75959888254E+03  0.27259885209E+04  0.26180188986E+04 0.  0.
        3    1    3    3  502    0 -0.70687542162E+03  0.58711224579E+03  0.59092091026E+03  0.10925022578E+04  0.10100000352E+00 0. -1.
       -3    1    3    3    0  502  0.70687542162E+03 -0.58711224579E+03 -0.13505197928E+04  0.16334862631E+04  0.10100000352E+00 0.  1.
</event>
<event>
 5   0  0.1217200E-05  0.2644474E+04  0.7818609E-02  0.8353249E-01
        3   -1    0    0  501    0  0.00000000000E+00  0.00000000000E+00  0.99042105103E+03  0.99042105618E+03  0.10100000352E+00 0.  1.
       -3   -1    0    0    0  501  0.00000000000E+00  0.00000000000E+00 -0.17652200578E+04  0.17652200607E+04  0.10100000352E+00 0. -1.
    10030    2    1    2    0    0  0.00000000000E+00  0.00000000000E+00 -0.77479900676E+03  0.27556411169E+04  0.26444743266E+04 0.  0.
        1    1    3    3  502    0  0.12071700708E+03 -0.12055289907E+04  0.16442632046E+03  0.12226646139E+04  0.50400001928E-02 0. -1.
       -1    1    3    3    0  502 -0.12071700708E+03  0.12055289907E+04 -0.93922532722E+03  0.15329765029E+04  0.50400001928E-02 0.  1.
</event>
<event>
 5   0  0.1533248E-05  0.2525331E+04  0.7818609E-02  0.8394017E-01
       -1   -1    0    0    0  501  0.00000000000E+00  0.00000000000E+00  0.80795504056E+03  0.80795504058E+03  0.50400001928E-02 0. -1.
        1   -1    0    0  501    0  0.00000000000E+00  0.00000000000E+00 -0.19732827912E+04  0.19732827912E+04  0.50400001928E-02 0.  1.
    10030    2    1    2    0    0  0.00000000000E+00  0.00000000000E+00 -0.11653277506E+04  0.27812378318E+04  0.25253306933E+04 0.  0.
        4    1    3    3  502    0  0.59575185031E+03 -0.80513597706E+03  0.26411816903E+03  0.10358205582E+04  0.12699999809E+01 0. -1.
       -4    1    3    3    0  502 -0.59575185031E+03  0.80513597706E+03 -0.14294459197E+04  0.17454172736E+04  0.12699999809E+01 0.  1.
</event>
<event>
 5   0  0.1533248E-05  0.2617433E+04  0.7818609E-02  0.8362304E-01
        1   -1    0    0  501    0  0.00000000000E+00  0.00000000000E+00  0.17862158924E+04  0.17862158924E+04  0.50400001928E-02 0.  1.
       -1   -1    0    0    0  501  0.00000000000E+00  0.00000000000E+00 -0.95886429102E+03  0.95886429104E+03  0.50400001928E-02 0. -1.
    10030    2    1    2    0    0  0.00000000000E+00  0.00000000000E+00  0.82735160134E+03  0.27450801834E+04  0.26174328150E+04 0.  0.
        4    1    3    3  502    0  0.40424260641E+03 -0.39765450907E+03  0.16506869819E+04  0.17453682473E+04  0.12699999809E+01 0.  1.
       -4    1    3    3    0  502 -0.40424260641E+03  0.39765450907E+03 -0.82333538058E+03  0.99971193613E+03  0.12699999809E+01 0. -1.
</event>
<event>
 5   0  0.3849687E-05  0.2620069E+04  0.7818609E-02  0.8361416E-01
        2   -1    0    0  501    0  0.00000000000E+00  0.00000000000E+00  0.16671862693E+04  0.16671862693E+04  0.25500000920E-02 0. -1.
       -2   -1    0    0    0  501  0.00000000000E+00  0.00000000000E+00 -0.10293933436E+04  0.10293933436E+04  0.25500000920E-02 0.  1.
    10030    2    1    2    0    0  0.00000000000E+00  0.00000000000E+00  0.63779292570E+03  0.26965796130E+04  0.26200690436E+04 0.  0.
        1    1    3    3  502    0 -0.45474710059E+03  0.41677654998E+02  0.15826197851E+04  0.16471846699E+04  0.50400001928E-02 0. -1.
       -1    1    3    3    0  502  0.45474710059E+03 -0.41677654998E+02 -0.94482685939E+03  0.10493949431E+04  0.50400001928E-02 0.  1.
</event>
<event>
 5   0  0.3647623E-05  0.2573474E+04  0.7818609E-02  0.8377268E-01
       -2   -1    0    0    0  501  0.00000000000E+00  0.00000000000E+00  0.87549693886E+03  0.87549693887E+03  0.25500000920E-02 0. -1.
        2   -1    0    0  501    0  0.00000000000E+00  0.00000000000E+00 -0.18911457057E+04  0.18911457057E+04  0.25500000920E-02 0.  1.
    10030    2    1    2    0    0  0.00000000000E+00  0.00000000000E+00 -0.10156487668E+04  0.27666426446E+04  0.25734741314E+04 0.  0.
        3    1    3    3  502    0  0.70175242116E+03  0.60499116827E+03  0.45206847103E+03  0.10309397106E+04  0.10100000352E+00 0. -1.
       -3    1    3    3    0  502 -0.70175242116E+03 -0.60499116827E+03 -0.14677172379E+04  0.17357029339E+04  0.10100000352E+00 0.  1.
</event>
<event>
 5   0  0.1217200E-05  0.2790066E+04  0.7818609E-02  0.8306359E-01
        3   -1    0    0  501    0  0.00000000000E+00  0.00000000000E+00  0.12624558302E+04  0.12624558342E+04  0.10100000352E+00 0. -1.
       -3   -1    0    0    0  501  0.00000000000E+00  0.00000000000E+00 -0.15415326129E+04  0.15415326162E+04  0.10100000352E+00 0.  1.
    10030    2    1    2    0    0  0.00000000000E+00  0.00000000000E+00 -0.27907678268E+03  0.28039884504E+04  0.27900658378E+04 0.  0.
        4    1    3    3  502    0  0.80173728660E+02 -0.50575149090E+03  0.11645897993E+04  0.12721962941E+04  0.12699999809E+01 0. -1.
       -4    1    3    3    0  502 -0.80173728660E+02  0.50575149090E+03 -0.14436665819E+04  0.15317921563E+04  0.12699999809E+01 0.  1.
</event>
<event>
 5   0  0.3499642E-05  0.1679390E+04  0.7818609E-02  0.8773207E-01
       -2   -1    0    0    0  501  0.00000000000E+00  0.00000000000E+00  0.14739555155E+04  0.14739555155E+04  0.25500000920E-02 0. -1.
        2   -1    0    0  501    0  0.00000000000E+00  0.00000000000E+00 -0.47836438174E+03  0.47836438175E+03  0.25500000920E-02 0.  1.
    10030    2    1    2    0    0  0.00000000000E+00  0.00000000000E+00  0.99559113372E+03  0.19523198972E+04  0.16793901499E+04 0.  0.
        2    1    3    3  502    0  0.44216384304E+03  0.71030863343E+03  0.41526012161E+03  0.93407076147E+03  0.25500000920E-02 0.  1.
       -2    1    3    3    0  502 -0.44216384304E+03 -0.71030863343E+03  0.58033101211E+03  0.10182491357E+04  0.25500000920E-02 0. -1.
</event>
<event>
 5   0  0.3441646E-05  0.1745614E+04  0.7818609E-02  0.8735769E-01
        2   -1    0    0  501    0  0.00000000000E+00  0.00000000000E+00  0.62158882723E+03  0.62158882724E+03  0.25500000920E-02 0. -1.
       -2   -1    0    0    0  501  0.00000000000E+00  0.00000000000E+00 -0.12255555964E+04  0.12255555964E+04  0.25500000920E-02 0.  1.
    10030    2    1    2    0    0  0.00000000000E+00  0.00000000000E+00 -0.60396676913E+03  0.18471444236E+04  0.17456135493E+04 0.  0.
        4    1    3    3  502    0 -0.36714181950E+03  0.30529002676E+03  0.47112427137E+03  0.67078670831E+03  0.12699999809E+01 0. -1.
       -4    1    3    3    0  502  0.36714181950E+03 -0.30529002676E+03 -0.10750910405E+04  0.11763577153E+04  0.12699999809E+01 0.  1.
</event>
<event>
 5   0  0.1533248E-05  0.2556028E+04  0.7818609E-02  0.8383293E-01
       -1   -1    0    0    0  501  0.00000000000E+00  0.00000000000E+00  0.11074625786E+04  0.11074625786E+04  0.50400001928E-02 0.  1.
        1   -1    0    0  501    0  0.00000000000E+00  0.00000000000E+00 -0.14748311302E+04  0.14748311302E+04  0.50400001928E-02 0. -1.
    10030    2    1    2    0    0  0.00000000000E+00  0.00000000000E+00 -0.36736855158E+03  0.25822937088E+04  0.25560283930E+04 0.  0.
        4    1    3    3  502    0 -0.74518388159E+03  0.56828354153E+03  0.69419454140E+03  0.11662559218E+04  0.12699999809E+01 0.  1.
       -4    1    3    3    0  502  0.74518388159E+03 -0.56828354153E+03 -0.10615630930E+04  0.14160377870E+04  0.12699999809E+01 0. -1.
</event>
<event>
 5   0  0.3508470E-05  0.2659426E+04  0.7818609E-02  0.8348291E-01
        2   -1    0    0  501    0  0.00000000000E+00  0.00000000000E+00  0.16131474985E+04  0.16131474985E+04  0.25500000920E-02 0.  1.
       -2   -1    0    0    0  501  0.00000000000E+00  0.00000000000E+00 -0.10960787685E+04  0.10960787685E+04  0.25500000920E-02 0. -1.
    10030    2    1    2    0    0  0.00000000000E+00  0.00000000000E+00  0.51706873000E+03  0.27092262671E+04  0.26594260461E+04 0.  0.
        5    1    3    3  502    0 -0.54610582082E+02  0.13252776801E+04  0.16312488293E+03  0.13364037797E+04  0.46999998093E+01 0. -1.
       -5    1    3    3    0  502  0.54610582082E+02 -0.13252776801E+04  0.35394384707E+03  0.13728224874E+04  0.46999998093E+01 0.  1.
</event>
<event>
 5   0  0.3647623E-05  0.2601130E+04  0.7818609E-02  0.8367817E-01
       -2   -1    0    0    0  501  0.00000000000E+00  0.00000000000E+00  0.58960818288E+03  0.58960818289E+03  0.25500000920E-02 0.  1.
        2   -1    0    0  501    0  0.00000000000E+00  0.00000000000E+00 -0.28688027953E+04  0.28688027953E+04  0.25500000920E-02 0. -1.
    10030    2    1    2    0    0  0.00000000000E+00  0.00000000000E+00 -0.22791946124E+04  0.34584109781E+04  0.26011302183E+04 0.  0.
        3    1    3    3  502    0  0.11054064644E+04  0.29541595990E+03 -0.19616558904E+04  0.22709662885E+04  0.10100000352E+00 0. -1.
       -3    1    3    3    0  502 -0.11054064644E+04 -0.29541595990E+03 -0.31753872196E+03  0.11874446897E+04  0.10100000352E+00 0.  1.
</event>
<event>
 5   0  0.1533248E-05  0.2591228E+04  0.7818609E-02  0.8371187E-01
        1   -1    0    0  501    0  0.00000000000E+00  0.00000000000E+00  0.14092315316E+04  0.14092315316E+04  0.50400001928E-02 0.  1.
       -1   -1    0    0    0  501  0.00000000000E+00  0.00000000000E+00 -0.11911565694E+04  0.11911565694E+04  0.50400001928E-02 0. -1.
    10030    2    1    2    0    0  0.00000000000E+00  0.00000000000E+00  0.21807496219E+03  0.26003881010E+04  0.25912278145E+04 0.  0.
        4    1    3    3  502    0 -0.12767850936E+04 -0.21849278211E+03  0.82590709068E+02  0.12979761589E+04  0.12699999809E+01 0.  1.
       -4    1    3    3    0  502  0.12767850936E+04  0.21849278211E+03  0.13548425312E+03  0.13024119421E+04  0.12699999809E+01 0. -1.
</event>
<event>
 5   0  0.1497497E-05  0.2593853E+04  0.7818609E-02  0.8370292E-01
       -1   -1    0    0    0  501  0.00000000000E+00  0.00000000000E+00  0.18989928449E+04  0.18989928449E+04  0.50400001928E-02 0.  1.
        1   -1    0    0  501    0  0.00000000000E+00  0.00000000000E+00 -0.88574199638E+03  0.88574199639E+03  0.50400001928E-02 0. -1.
    10030    2    1    2    0    0  0.00000000000E+00  0.00000000000E+00  0.10132508485E+04  0.27847348413E+04  0.25938525120E+04 0.  0.
        3    1    3    3  502    0 -0.68955896530E+03  0.24775936221E+03 -0.64223729020E+03  0.97434337649E+03  0.10100000352E+00 0. -1.
       -3    1    3    3    0  502  0.68955896530E+03 -0.24775936221E+03  0.16554881387E+04  0.18103914648E+04  0.10100000352E+00 0.  1.
</event>
<event>
 5   0  0.3441646E-05  0.2579961E+04  0.7818609E-02  0.8375040E-01
        2   -1    0    0  501    0  0.00000000000E+00  0.00000000000E+00  0.17370402373E+04  0.17370402373E+04  0.25500000920E-02 0. -1.
       -2   -1    0    0    0  501  0.00000000000E+00  0.00000000000E+00 -0.95797983690E+03  0.95797983691E+03  0.25500000920E-02 0.  1.
    10030    2    1    2    0    0  0.00000000000E+00  0.00000000000E+00  0.77906040041E+03  0.26950200742E+04  0.25799608704E+04 0.  0.
        4    1    3    3  502    0 -0.11788057228E+03  0.94409136304E+03  0.12994958891E+04  0.16105575152E+04  0.12699999809E+01 0. -1.
       -4    1    3    3    0  502  0.11788057228E+03 -0.94409136304E+03 -0.52043548871E+03  0.10844625590E+04  0.12699999809E+01 0.  1.
</event>
<event>
 5   0  0.3647623E-05  0.2632218E+04  0.7818609E-02  0.8357339E-01
       -2   -1    0    0    0  501  0.00000000000E+00  0.00000000000E+00  0.12865656202E+04  0.12865656202E+04  0.25500000920E-02 0.  1.
        2   -1    0    0  501    0  0.00000000000E+00  0.00000000000E+00 -0.13463306417E+04  0.13463306417E+04  0.25500000920E-02 0. -1.
    10030    2    1    2    0    0  0.00000000000E+00  0.00000000000E+00 -0.59765021469E+02  0.26328962619E+04  0.26322178610E+04 0.  0.
        3    1    3    3  502    0 -0.29982933587E+03 -0.64475899896E+03  0.10778914815E+04  0.12913023865E+04  0.10100000352E+00 0.  1.
       -3    1    3    3    0  502  0.29982933587E+03  0.64475899896E+03 -0.11376565030E+04  0.13415938753E+04  0.10100000352E+00 0. -1.
</event>
<event>
 5   0  0.3499642E-05  0.2610650E+04  0.7818609E-02  0.8364593E-01
        2   -1    0    0  501    0  0.00000000000E+00  0.00000000000E+00  0.19382106787E+04  0.19382106787E+04  0.25500000920E-02 0.  1.
       -2   -1    0    0    0  501  0.00000000000E+00  0.00000000000E+00 -0.87909587663E+03  0.87909587664E+03  0.25500000920E-02 0. -1.
    10030    2    1    2    0    0  0.00000000000E+00  0.00000000000E+00  0.10591148020E+04  0.28173065553E+04  0.26106497396E+04 0.  0.
        2    1    3    3  502    0  0.88007185551E+02 -0.11539358302E+04 -0.12202585650E+03  0.11637024854E+04  0.25500000920E-02 0. -1.
       -2    1    3    3    0  502 -0.88007185551E+02  0.11539358302E+04  0.11811406585E+04  0.16536040699E+04  0.25500000920E-02 0.  1.
</event>
<event>
 5   0  0.3499642E-05  0.2786510E+04  0.7818609E-02  0.8307469E-01
        2   -1    0    0  501    0  0.00000000000E+00  0.00000000000E+00  0.15719084877E+04  0.15719084877E+04  0.25500000920E-02 0. -1.
       -2   -1    0    0    0  501  0.00000000000E+00  0.00000000000E+00 -0.12349063087E+04  0.12349063087E+04  0.25500000920E-02 0.  1.
    10030    2    1    2    0    0  0.00000000000E+00  0.00000000000E+00  0.33700217898E+03  0.28068147964E+04  0.27865101530E+04 0.  0.
        2    1    3    3  502    0 -0.10016961823E+04 -0.67406716739E+03 -0.53183340273E+03  0.13193212482E+04  0.25500000920E-02 0.  1.
       -2    1    3    3    0  502  0.10016961823E+04  0.67406716739E+03  0.86883558171E+03  0.14874935482E+04  0.25500000920E-02 0. -1.
</event>
<event>
 5   0  0.3441646E-05  0.2650310E+04  0.7818609E-02  0.8351310E-01
       -2   -1    0    0    0  501  0.00000000000E+00  0.00000000000E+00  0.84022819691E+03  0.84022819691E+03  0.25500000920E-02 0.  1.
        2   -1    0    0  501    0  0.00000000000E+00  0.00000000000E+00 -0.20899516584E+04  0.20899516584E+04  0.25500000920E-02 0. -1.
    10030    2    1    2    0    0  0.00000000000E+00  0.00000000000E+00 -0.12497234615E+04  0.29301798553E+04  0.26503104072E+04 0.  0.
        4    1    3    3  502    0  0.12455108850E+04  0.23439805750E+03 -0.19695804154E+03  0.12825887482E+04  0.12699999809E+01 0.  1.
       -4    1    3    3    0  502 -0.12455108850E+04 -0.23439805750E+03 -0.10527654200E+04  0.16475911072E+04  0.12699999809E+01 0. -1.
</event>
<event>
 5   0  0.3508470E-05  0.2601935E+04  0.7818609E-02  0.8367544E-01
        2   -1    0    0  501    0  0.00000000000E+00  0.00000000000E+00  0.13370117664E+04  0.13370117665E+04  0.25500000920E-02 0. -1.
       -2   -1    0    0    0  501  0.00000000000E+00  0.00000000000E+00 -0.12658952453E+04  0.12658952453E+04  0.25500000920E-02 0.  1.
    10030    2    1    2    0    0  0.00000000000E+00  0.00000000000E+00  0.71116521121E+02  0.26029070118E+04  0.26019353090E+04 0.  0.
        5    1    3    3  502    0  0.85401928540E+03 -0.95080349672E+03  0.27879206417E+03  0.13080991301E+04  0.46999998093E+01 0. -1.
       -5    1    3    3    0  502 -0.85401928540E+03  0.95080349672E+03 -0.20767554305E+03  0.12948078817E+04  0.46999998093E+01 0.  1.
</event>
<event>
 5   0  0.3508470E-05  0.2508576E+04  0.7818609E-02  0.8399937E-01
        2   -1    0    0  501    0  0.00000000000E+00  0.00000000000E+00  0.12307299564E+04  0.12307299564E+04  0.25500000920E-02 0.  1.
       -2   -1    0    0    0  501  0.00000000000E+00  0.00000000000E+00 -0.12782970670E+04  0.12782970670E+04  0.25500000920E-02 0. -1.
    10030    2    1    2    0    0  0.00000000000E+00  0.00000000000E+00 -0.47567110543E+02  0.25090270234E+04  0.25085760850E+04 0.  0.
        5    1    3    3  502    0 -0.23284152265E+03 -0.19432875057E+03 -0.12410633687E+04  0.12775911760E+04  0.46999998093E+01 0. -1.
       -5    1    3    3    0  502  0.23284152265E+03  0.19432875057E+03  0.11934962581E+04  0.12314358474E+04  0.46999998093E+01 0.  1.
</event>
<event>
 5   0  0.3647623E-05  0.2562775E+04  0.7818609E-02  0.8380957E-01
       -2   -1    0    0    0  501  0.00000000000E+00  0.00000000000E+00  0.12661661489E+04  0.12661661489E+04  0.25500000920E-02 0. -1.
        2   -1    0    0  501    0  0.00000000000E+00  0.00000000000E+00 -0.12967914248E+04  0.12967914248E+04  0.25500000920E-02 0.  1.
    10030    2    1    2    0    0  0.00000000000E+00  0.00000000000E+00 -0.30625275916E+02  0.25629575737E+04  0.25627745935E+04 0.  0.
        3    1    3    3  502    0  0.34983678898E+03  0.45982917219E+03 -0.11591271126E+04  0.12951464473E+04  0.10100000352E+00 0.  1.
       -3    1    3    3    0  502 -0.34983678898E+03 -0.45982917219E+03  0.11285018367E+04  0.12678111264E+04  0.10100000352E+00 0. -1.
</event>
<event>
 5   0  0.1451052E-05  0.2601369E+04  0.7818609E-02  0.8367736E-01
       -1   -1    0    0    0  501  0.00000000000E+00  0.00000000000E+00  0.90719188197E+03  0.90719188199E+03  0.50400001928E-02 0.  1.
        1   -1    0    0  501    0  0.00000000000E+00  0.00000000000E+00 -0.18648536174E+04  0.18648536174E+04  0.50400001928E-02 0. -1.
    10030    2    1    2    0    0  0.00000000000E+00  0.00000000000E+00 -0.95766173541E+03  0.27720454994E+04  0.26013689187E+04 0.  0.
        1    1    3    3  502    0 -0.12858810583E+04 -0.13695827053E+03 -0.62775881377E+03  0.14374730579E+04  0.50400001928E-02 0. -1.
       -1    1    3    3    0  502  0.12858810583E+04  0.13695827053E+03 -0.32990292164E+03  0.13345724415E+04  0.50400001928E-02 0.  1.
</event>
<event>
 5   0  0.1451052E-05  0.2560620E+04  0.7818609E-02  0.8381702E-01
       -1   -1    0    0    0  501  0.00000000000E+00  0.00000000000E+00  0.91995890793E+03  0.91995890794E+03  0.50400001928E-02 0. -1.
        1   -1    0    0  501    0  0.00000000000E+00  0.00000000000E+00 -0.17818113846E+04  0.17818113846E+04  0.50400001928E-02 0.  1.
    10030    2    1    2    0    0  0.00000000000E+00  0.00000000000E+00 -0.86185247671E+03  0.27017702926E+04  0.25606196559E+04 0.  0.
        1    1    3    3  502    0 -0.55181190237E+03  0.64598105428E+03 -0.14415371503E+04  0.16732654463E+04  0.50400001928E-02 0.  1.
       -1    1    3    3    0  502  0.55181190237E+03 -0.64598105428E+03  0.57968467356E+03  0.10285048463E+04  0.50400001928E-02 0. -1.
</event>
<event>
 5   0  0.3499642E-05  0.2537670E+04  0.7818609E-02  0.8389687E-01
       -2   -1    0    0    0  501  0.00000000000E+00  0.00000000000E+00  0.96211453894E+03  0.96211453895E+03  0.25500000920E-02 0. -1.
        2   -1    0    0  501    0  0.00000000000E+00  0.00000000000E+00 -0.16733369218E+04  0.16733369218E+04  0.25500000920E-02 0.  1.
    10030    2    1    2    0    0  0.00000000000E+00  0.00000000000E+00 -0.71122238285E+03  0.26354514607E+04  0.25376696247E+04 0.  0.
        2    1    3    3  502    0 -0.45457798586E+03  0.25543273685E+03  0.84570376211E+03  0.99353001038E+03  0.25500000920E-02 0. -1.
       -2    1    3    3    0  502  0.45457798586E+03 -0.25543273685E+03 -0.15569261450E+04  0.16419214504E+04  0.25500000920E-02 0.  1.
</event>
<event>
 5   0  0.3441646E-05  0.2582335E+04  0.7818609E-02  0.8374226E-01
       -2   -1    0    0    0  501  0.00000000000E+00  0.00000000000E+00  0.10011769053E+04  0.10011769053E+04  0.25500000920E-02 0. -1.
        2   -1    0    0  501    0  0.00000000000E+00  0.00000000000E+00 -0.16651539805E+04  0.16651539805E+04  0.25500000920E-02 0.  1.
    10030    2    1    2    0    0  0.00000000000E+00  0.00000000000E+00 -0.66397707513E+03  0.26663308858E+04  0.25823351518E+04 0.  0.
        4    1    3    3  502    0  0.28754056524E+03 -0.12431716184E+04 -0.12819362686E+03  0.12824158718E+04  0.12699999809E+01 0. -1.
       -4    1    3    3    0  502 -0.28754056524E+03  0.12431716184E+04 -0.53578344827E+03  0.13839150139E+04  0.12699999809E+01 0.  1.
</event>
<event>
 5   0  0.1474554E-05  0.2603257E+04  0.7818609E-02  0.8367096E-01
        1   -1    0    0  501    0  0.00000000000E+00  0.00000000000E+00  0.13145869562E+04  0.13145869562E+04  0.50400001928E-02 0. -1.
       -1   -1    0    0    0  501  0.00000000000E+00  0.00000000000E+00 -0.12887981317E+04  0.12887981317E+04  0.50400001928E-02 0.  1.
    10030    2    1    2    0    0  0.00000000000E+00  0.00000000000E+00  0.25788824491E+02  0.26033850880E+04  0.26032573543E+04 0.  0.
        5    1    3    3  502    0 -0.32882218401E+03 -0.87837583828E+02 -0.12435014446E+04  0.12892468354E+04  0.46999998093E+01 0.  1.
       -5    1    3    3    0  502  0.32882218401E+03  0.87837583828E+02  0.12692902691E+04  0.13141382526E+04  0.46999998093E+01 0. -1.
</event>
<event>
 5   0  0.3441646E-05  0.2605886E+04  0.7818609E-02  0.8366205E-01
       -2   -1    0    0    0  501  0.00000000000E+00  0.00000000000E+00  0.15289317049E+04  0.15289317049E+04  0.25500000920E-02 0.  1.
        2   -1    0    0  501    0  0.00000000000E+00  0.00000000000E+00 -0.11103571114E+04  0.11103571114E+04  0.25500000920E-02 0. -1.
    10030    2    1    2    0    0  0.00000000000E+00  0.00000000000E+00  0.41857459355E+03  0.26392888163E+04  0.26058857928E+04 0.  0.
        4    1    3    3  502    0 -0.11724549290E+04  0.37609959445E+03  0.64084430468E+03  0.13880866332E+04  0.12699999809E+01 0.  1.
       -4    1    3    3    0  502  0.11724549290E+04 -0.37609959445E+03 -0.22226971113E+03  0.12512021831E+04  0.12699999809E+01 0. -1.
</event>
<event>
 5   0  0.1474554E-05  0.2591063E+04  0.7818609E-02  0.8371243E-01
        1   -1    0    0  501    0  0.00000000000E+00  0.00000000000E+00  0.18537449399E+04  0.18537449399E+04  0.50400001928E-02 0. -1.
       -1   -1    0    0    0  501  0.00000000000E+00  0.00000000000E+00 -0.90541112009E+03  0.90541112010E+03  0.50400001928E-02 0.  1.
    10030    2    1    2    0    0  0.00000000000E+00  0.00000000000E+00  0.94833381981E+03  0.27591560600E+04  0.25910625484E+04 0.  0.
        5    1    3    3  502    0 -0.49013634100E+03 -0.67482077313E+03 -0.58148965500E+03  0.10167443226E+04  0.46999998093E+01 0.  1.
       -5    1    3    3    0  502  0.49013634100E+03  0.67482077313E+03  0.15298234748E+04  0.17424117374E+04  0.46999998093E+01 0. -1.
</event>
<event>
 5   0  0.1533248E-05  0.2596396E+04  0.7818609E-02  0.8369426E-01
       -1   -1    0    0    0  501  0.00000000000E+00  0.00000000000E+00  0.76753211050E+03  0.76753211051E+03  0.50400001928E-02 0.  1.
        1   -1    0    0  501    0  0.00000000000E+00  0.00000000000E+00 -0.21957627729E+04  0.21957627729E+04  0.50400001928E-02 0. -1.
    10030    2    1    2    0    0  0.00000000000E+00  0.00000000000E+00 -0.14282306624E+04  0.29632948834E+04  0.25963962989E+04 0.  0.
        4    1    3    3  502    0  0.23042899091E+03 -0.11562745483E+03  0.73802016038E+03  0.78175609892E+03  0.12699999809E+01 0.  1.
       -4    1    3    3    0  502 -0.23042899091E+03  0.11562745483E+03 -0.21662508228E+04  0.21815387845E+04  0.12699999809E+01 0. -1.
</event>
<event>
 5   0  0.1451052E-05  0.2636936E+04  0.7818609E-02  0.8355762E-01
       -1   -1    0    0    0  501  0.00000000000E+00  0.00000000000E+00  0.20100201432E+04  0.20100201432E+04  0.50400001928E-02 0.  1.
        1   -1    0    0  501    0  0.00000000000E+00  0.00000000000E+00 -0.86484570120E+03  0.86484570121E+03  0.50400001928E-02 0. -1.
    10030    2    1    2    0    0  0.00000000000E+00  0.00000000000E+00  0.11451744420E+04  0.28748658444E+04  0.26369355549E+04 0.  0.
        1    1    3    3  502    0  0.15019464672E+02  0.27109542600E+03  0.19792114548E+04  0.19977478062E+04  0.50400001928E-02 0.  1.
       -1    1    3    3    0  502 -0.15019464672E+02 -0.27109542600E+03 -0.83403701277E+03  0.87711803825E+03  0.50400001928E-02 0. -1.
</event>
<event>
 5   0  0.1451052E-05  0.2526062E+04  0.7818609E-02  0.8393759E-01
       -1   -1    0    0    0  501  0.00000000000E+00  0.00000000000E+00  0.10726868380E+04  0.10726868380E+04  0.50400001928E-02 0.  1.
        1   -1    0    0  501    0  0.00000000000E+00  0.00000000000E+00 -0.14871514369E+04  0.14871514369E+04  0.50400001928E-02 0. -1.
    10030    2    1    2    0    0  0.00000000000E+00  0.00000000000E+00 -0.41446459895E+03  0.25598382749E+04  0.25260623686E+04 0.  0.
        1    1    3    3  502    0 -0.58354437798E+03  0.10741195435E+04  0.11480758444E+03  0.12277775109E+04  0.50400001928E-02 0.  1.
       -1    1    3    3    0  502  0.58354437798E+03 -0.10741195435E+04 -0.52927218339E+03  0.13320607640E+04  0.50400001928E-02 0. -1.
</event>
<event>
 5   0  0.1451052E-05  0.2640913E+04  0.7818609E-02  0.8354435E-01
        1   -1    0    0  501    0  0.00000000000E+00  0.00000000000E+00  0.10211323694E+04  0.10211323695E+04  0.50400001928E-02 0. -1.
       -1   -1    0    0    0  501  0.00000000000E+00  0.00000000000E+00 -0.17075216198E+04  0.17075216198E+04  0.50400001928E-02 0.  1.
    10030    2    1    2    0    0  0.00000000000E+00  0.00000000000E+00 -0.68638925036E+03  0.27286539893E+04  0.26409131735E+04 0.  0.
        1    1    3    3  502    0 -0.10542059588E+04  0.74155211011E+03 -0.63970616701E+03  0.14389140752E+04  0.50400001928E-02 0.  1.
       -1    1    3    3    0  502  0.10542059588E+04 -0.74155211011E+03 -0.46683083349E+02  0.12897399141E+04  0.50400001928E-02 0. -1.
</event>
<event>
 5   0  0.1435062E-05  0.2559044E+04  0.7818609E-02  0.8382248E-01
       -1   -1    0    0    0  501  0.00000000000E+00  0.00000000000E+00  0.90090813663E+03  0.90090813664E+03  0.50400001928E-02 0. -1.
        1   -1    0    0  501    0  0.00000000000E+00  0.00000000000E+00 -0.18172514490E+04  0.18172514490E+04  0.50400001928E-02 0.  1.
    10030    2    1    2    0    0  0.00000000000E+00  0.00000000000E+00 -0.91634331232E+03  0.27181595856E+04  0.25590440533E+04 0.  0.
        2    1    3    3  502    0 -0.10668830276E+04  0.31856491469E+03  0.21146684500E+03  0.11333319134E+04  0.25500000920E-02 0. -1.
       -2    1    3    3    0  502  0.10668830276E+04 -0.31856491469E+03 -0.11278101573E+04  0.15848276722E+04  0.25500000920E-02 0.  1.
</event>
<event>
 5   0  0.1474554E-05  0.2288497E+04  0.7818609E-02  0.8482470E-01
        1   -1    0    0  501    0  0.00000000000E+00  0.00000000000E+00  0.16608996326E+04  0.16608996326E+04  0.50400001928E-02 0. -1.
       -1   -1    0    0    0  501  0.00000000000E+00  0.00000000000E+00 -0.78831037378E+03  0.78831037380E+03  0.50400001928E-02 0.  1.
    10030    2    1    2    0    0  0.00000000000E+00  0.00000000000E+00  0.87258925877E+03  0.24492100064E+04  0.22884968081E+04 0.  0.
        5    1    3    3  502    0 -0.82684035829E+03 -0.67391684175E+03 -0.68533833766E+01  0.10667229943E+04  0.46999998093E+01 0.  1.
       -5    1    3    3    0  502  0.82684035829E+03  0.67391684175E+03  0.87944264215E+03  0.13824870121E+04  0.46999998093E+01 0. -1.
</event>
<event>
 5   0  0.3647623E-05  0.1912407E+04  0.7818609E-02  0.8648705E-01
       -2   -1    0    0    0  501  0.00000000000E+00  0.00000000000E+00  0.84029797032E+03  0.84029797032E+03  0.25500000920E-02 0. -1.
        2   -1    0    0  501    0  0.00000000000E+00  0.00000000000E+00 -0.10880964783E+04  0.10880964783E+04  0.25500000920E-02 0.  1.
    10030    2    1    2    0    0  0.00000000000E+00  0.00000000000E+00 -0.24779850802E+03  0.19283944487E+04  0.19124071348E+04 0.  0.
        3    1    3    3  502    0 -0.60275832282E+03 -0.43408242960E+03 -0.73107931283E+03  0.10422198056E+04  0.10100000352E+00 0.  1.
       -3    1    3    3    0  502  0.60275832282E+03  0.43408242960E+03  0.48328080482E+03  0.88617464302E+03  0.10100000352E+00 0. -1.
</event>
<event>
 5   0  0.1497497E-05  0.2637493E+04  0.7818609E-02  0.8355576E-01
        1   -1    0    0  501    0  0.00000000000E+00  0.00000000000E+00  0.13426189345E+04  0.13426189345E+04  0.50400001928E-02 0.  1.
       -1   -1    0    0    0  501  0.00000000000E+00  0.00000000000E+00 -0.12952982669E+04  0.12952982669E+04  0.50400001928E-02 0. -1.
    10030    2    1    2    0    0  0.00000000000E+00  0.00000000000E+00  0.47320667605E+02  0.26379172014E+04  0.26374927328E+04 0.  0.
        3    1    3    3  502    0 -0.79608193642E+03 -0.10513458814E+04  0.27827157608E+02  0.13190333479E+04  0.10100000352E+00 0. -1.
       -3    1    3    3    0  502  0.79608193642E+03  0.10513458814E+04  0.19493509997E+02  0.13188838535E+04  0.10100000352E+00 0.  1.
</event>
<event>
 5   0  0.1435062E-05  0.2647426E+04  0.7818609E-02  0.8352268E-01
       -1   -1    0    0    0  501  0.00000000000E+00  0.00000000000E+00  0.10864154336E+04  0.10864154336E+04  0.50400001928E-02 0.  1.
        1   -1    0    0  501    0  0.00000000000E+00  0.00000000000E+00 -0.16128411545E+04  0.16128411545E+04  0.50400001928E-02 0. -1.
    10030    2    1    2    0    0  0.00000000000E+00  0.00000000000E+00 -0.52642572094E+03  0.26992565881E+04  0.26474255587E+04 0.  0.
        2    1    3    3  502    0 -0.10177592687E+04 -0.35744156864E+03 -0.10454471632E+04  0.15021844677E+04  0.25500000920E-02 0. -1.
       -2    1    3    3    0  502  0.10177592687E+04  0.35744156864E+03  0.51902144225E+03  0.11970721204E+04  0.25500000920E-02 0.  1.
</event>
<event>
 5   0  0.3508470E-05  0.2446507E+04  0.7818609E-02  0.8422295E-01
       -2   -1    0    0    0  501  0.00000000000E+00  0.00000000000E+00  0.86942247471E+03  0.86942247472E+03  0.25500000920E-02 0. -1.
        2   -1    0    0  501    0  0.00000000000E+00  0.00000000000E+00 -0.17210833175E+04  0.17210833175E+04  0.25500000920E-02 0.  1.
    10030    2    1    2    0    0  0.00000000000E+00  0.00000000000E+00 -0.85166084280E+03  0.25905057922E+04  0.24465065028E+04 0.  0.
        5    1    3    3  502    0  0.56785780037E+03  0.76853930239E+03 -0.12344628487E+04  0.15611008153E+04  0.46999998093E+01 0.  1.
       -5    1    3    3    0  502 -0.56785780037E+03 -0.76853930239E+03  0.38280200591E+03  0.10294049769E+04  0.46999998093E+01 0. -1.
</event>
<event>
 5   0  0.3647623E-05  0.2613701E+04  0.7818609E-02  0.8363562E-01
       -2   -1    0    0    0  501  0.00000000000E+00  0.00000000000E+00  0.82545523394E+03  0.82545523395E+03  0.25500000920E-02 0. -1.
        2   -1    0    0  501    0  0.00000000000E+00  0.00000000000E+00 -0.20689891552E+04  0.20689891552E+04  0.25500000920E-02 0.  1.
    10030    2    1    2    0    0  0.00000000000E+00  0.00000000000E+00 -0.12435339212E+04  0.28944443891E+04  0.26137007687E+04 0.  0.
        3    1    3    3  502    0 -0.10099552075E+04  0.39679762812E+03  0.18474556682E+03  0.11007219510E+04  0.10100000352E+00 0. -1.
       -3    1    3    3    0  502  0.10099552075E+04 -0.39679762812E+03 -0.14282794881E+04  0.17937224381E+04  0.10100000352E+00 0.  1.
</event>
<event>
 5   0  0.1451052E-05  0.2563243E+04  0.7818609E-02  0.8380795E-01
        1   -1    0    0  501    0  0.00000000000E+00  0.00000000000E+00  0.22582910971E+04  0.22582910971E+04  0.50400001928E-02 0. -1.
       -1   -1    0    0    0  501  0.00000000000E+00  0.00000000000E+00 -0.72734391101E+03  0.72734391102E+03  0.50400001928E-02 0.  1.
    10030    2    1    2    0    0  0.00000000000E+00  0.00000000000E+00  0.15309471861E+04  0.29856350082E+04  0.25632434756E+04 0.  0.
        1    1    3    3  502    0 -0.69427679490E+03 -0.99772362142E+03  0.12387296384E+04  0.17354895015E+04  0.50400001928E-02 0.  1.
       -1    1    3    3    0  502  0.69427679490E+03  0.99772362142E+03  0.29221754774E+03  0.12501455067E+04  0.50400001928E-02 0. -1.
</event>
<event>
 5   0  0.3441646E-05  0.2648252E+04  0.7818609E-02  0.8351993E-01
       -2   -1    0    0    0  501  0.00000000000E+00  0.00000000000E+00  0.13211662112E+04  0.13211662112E+04  0.25500000920E-02 0.  1.
        2   -1    0    0  501    0  0.00000000000E+00  0.00000000000E+00 -0.13270926983E+04  0.13270926983E+04  0.25500000920E-02 0. -1.
    10030    2    1    2    0    0  0.00000000000E+00  0.00000000000E+00 -0.59264871104E+01  0.26482589095E+04  0.26482522781E+04 0.  0.
        4    1    3    3  502    0 -0.11203279356E+04  0.21444229785E+03  0.66948787093E+03  0.13226245895E+04  0.12699999809E+01 0.  1.
       -4    1    3    3    0  502  0.11203279356E+04 -0.21444229785E+03 -0.67541435804E+03  0.13256343200E+04  0.12699999809E+01 0. -1.
</event>
<event>
 5   0  0.3849687E-05  0.2594941E+04  0.7818609E-02  0.8369921E-01
       -2   -1    0    0    0  501  0.00000000000E+00  0.00000000000E+00  0.11748242743E+04  0.11748242743E+04  0.25500000920E-02 0.  1.
        2   -1    0    0  501    0  0.00000000000E+00  0.00000000000E+00 -0.14329209394E+04  0.14329209394E+04  0.25500000920E-02 0. -1.
    10030    2    1    2    0    0  0.00000000000E+00  0.00000000000E+00 -0.25809666507E+03  0.26077452137E+04  0.25949414658E+04 0.  0.
        1    1    3    3  502    0 -0.33938447609E+03  0.10349250922E+04 -0.83763630373E+03  0.13740037651E+04  0.50400001928E-02 0. -1.
       -1    1    3    3    0  502  0.33938447609E+03 -0.10349250922E+04  0.57953963866E+03  0.12337414486E+04  0.50400001928E-02 0.  1.
</event>
<event>
 5   0  0.3647623E-05  0.2607226E+04  0.7818609E-02  0.8365751E-01
       -2   -1    0    0    0  501  0.00000000000E+00  0.00000000000E+00  0.97657333240E+03  0.97657333241E+03  0.25500000920E-02 0. -1.
        2   -1    0    0  501    0  0.00000000000E+00  0.00000000000E+00 -0.17401733747E+04  0.17401733747E+04  0.25500000920E-02 0.  1.
    10030    2    1    2    0    0  0.00000000000E+00  0.00000000000E+00 -0.76360004231E+03  0.27167467071E+04  0.26072260443E+04 0.  0.
        3    1    3    3  502    0 -0.60734230267E+03 -0.52457064879E+03 -0.14522648342E+04  0.16592504925E+04  0.10100000352E+00 0.  1.
       -3    1    3    3    0  502  0.60734230267E+03  0.52457064879E+03  0.68866479184E+03  0.10574962146E+04  0.10100000352E+00 0. -1.
</event>
<event>
 5   0  0.1474554E-05  0.2613094E+04  0.7818609E-02  0.8363767E-01
       -1   -1    0    0    0  501  0.00000000000E+00  0.00000000000E+00  0.14614417118E+04  0.14614417118E+04  0.50400001928E-02 0. -1.
        1   -1    0    0  501    0  0.00000000000E+00  0.00000000000E+00 -0.11680690524E+04  0.11680690524E+04  0.50400001928E-02 0.  1.
    10030    2    1    2    0    0  0.00000000000E+00  0.00000000000E+00  0.29337265945E+03  0.26295107642E+04  0.26130938257E+04 0.  0.
        5    1    3    3  502    0 -0.55169346154E+03  0.89391625718E+03  0.92847838591E+03  0.14019793698E+04  0.46999998093E+01 0. -1.
       -5    1    3    3    0  502  0.55169346154E+03 -0.89391625718E+03 -0.63510572647E+03  0.12275313944E+04  0.46999998093E+01 0.  1.
</event>
<event>
 5   0  0.1435062E-05  0.2635320E+04  0.7818609E-02  0.8356302E-01
       -1   -1    0    0    0  501  0.00000000000E+00  0.00000000000E+00  0.96179869521E+03  0.96179869522E+03  0.50400001928E-02 0. -1.
        1   -1    0    0  501    0  0.00000000000E+00  0.00000000000E+00 -0.18051880404E+04  0.18051880404E+04  0.50400001928E-02 0.  1.
    10030    2    1    2    0    0  0.00000000000E+00  0.00000000000E+00 -0.84338934522E+03  0.27669867357E+04  0.26353197164E+04 0.  0.
        2    1    3    3  502    0 -0.36768958441E+03 -0.43675330700E+03 -0.16685790863E+04  0.17635490492E+04  0.25500000920E-02 0.  1.
       -2    1    3    3    0  502  0.36768958441E+03  0.43675330700E+03  0.82518974113E+03  0.10034376864E+04  0.25500000920E-02 0. -1.
</event>
<event>
 5   0  0.1497497E-05  0.2606635E+04  0.7818609E-02  0.8365951E-01
       -1   -1    0    0    0  501  0.00000000000E+00  0.00000000000E+00  0.59242203927E+03  0.59242203929E+03  0.50400001928E-02 0. -1.
        1   -1    0    0  501    0  0.00000000000E+00  0.00000000000E+00 -0.28672732367E+04  0.28672732367E+04  0.50400001928E-02 0.  1.
    10030    2    1    2    0    0  0.00000000000E+00  0.00000000000E+00 -0.22748511975E+04  0.34596952760E+04  0.26066345030E+04 0.  0.
        3    1    3    3  502    0  0.88962860231E+03 -0.80791880336E+03 -0.18069569041E+04  0.21700841242E+04  0.10100000352E+00 0.  1.
       -3    1    3    3    0  502 -0.88962860231E+03  0.80791880336E+03 -0.46789429340E+03  0.12896111518E+04  0.10100000352E+00 0. -1.
</event>
<event>
 5   0  0.3499642E-05  0.2656103E+04  0.7818609E-02  0.8349390E-01
       -2   -1    0    0    0  501  0.00000000000E+00  0.00000000000E+00  0.68670739262E+03  0.68670739263E+03  0.25500000920E-02 0.  1.
        2   -1    0    0  501    0  0.00000000000E+00  0.00000000000E+00 -0.25683730179E+04  0.25683730179E+04  0.25500000920E-02 0. -1.
    10030    2    1    2    0    0  0.00000000000E+00  0.00000000000E+00 -0.18816656253E+04  0.32550804106E+04  0.26561029637E+04 0.  0.
        2    1    3    3  502    0  0.58294503195E+03 -0.10328740776E+04 -0.16731372284E+04  0.20508637096E+04  0.25500000920E-02 0. -1.
       -2    1    3    3    0  502 -0.58294503195E+03  0.10328740776E+04 -0.20852839692E+03  0.12042167009E+04  0.25500000920E-02 0.  1.
</event>
<event>
 5   0  0.3441646E-05  0.2608929E+04  0.7818609E-02  0.8365174E-01
       -2   -1    0    0    0  501  0.00000000000E+00  0.00000000000E+00  0.12360556998E+04  0.12360556998E+04  0.25500000920E-02 0.  1.
        2   -1    0    0  501    0  0.00000000000E+00  0.00000000000E+00 -0.13766597924E+04  0.13766597924E+04  0.25500000920E-02 0. -1.
    10030    2    1    2    0    0  0.00000000000E+00  0.00000000000E+00 -0.14060409263E+03  0.26127154922E+04  0.26089294226E+04 0.  0.
        4    1    3    3  502    0  0.12675622609E+04  0.17879542550E+03  0.18094982618E+03  0.12928365488E+04  0.12699999809E+01 0. -1.
       -4    1    3    3    0  502 -0.12675622609E+04 -0.17879542550E+03 -0.32155391881E+03  0.13198789434E+04  0.12699999809E+01 0.  1.
</event>
<event>
 5   0  0.1435062E-05  0.2735633E+04  0.7818609E-02  0.8323535E-01
        1   -1    0    0  501    0  0.00000000000E+00  0.00000000000E+00  0.10993116926E+04  0.10993116926E+04  0.50400001928E-02 0.  1.
       -1   -1    0    0    0  501  0.00000000000E+00  0.00000000000E+00 -0.17019033901E+04  0.17019033901E+04  0.50400001928E-02 0. -1.
    10030    2    1    2    0    0  0.00000000000E+00  0.00000000000E+00 -0.60259169752E+03  0.28012150827E+04  0.27356332331E+04 0.  0.
        2    1    3    3  502    0  0.24735028580E+02  0.69863200243E+03 -0.15051607934E+04  0.16595805224E+04  0.25500000920E-02 0. -1.
       -2    1    3    3    0  502 -0.24735028580E+02 -0.69863200243E+03  0.90256909587E+03  0.11416345603E+04  0.25500000920E-02 0.  1.
</event>
<event>
 5   0  0.1474554E-05  0.2602629E+04  0.7818609E-02  0.8367309E-01
       -1   -1    0    0    0  501  0.00000000000E+00  0.00000000000E+00  0.29099584054E+04  0.29099584054E+04  0.50400001928E-02 0. -1.
        1   -1    0    0  501    0  0.00000000000E+00  0.00000000000E+00 -0.58193940668E+03  0.58193940670E+03  0.50400001928E-02 0.  1.
    10030    2    1    2    0    0  0.00000000000E+00  0.00000000000E+00  0.23280189987E+04  0.34918978121E+04  0.26026290308E+04 0.  0.
        5    1    3    3  502    0  0.87346790725E+03  0.40912540833E+03  0.23360179984E+04  0.25273171474E+04  0.46999998093E+01 0. -1.
       -5    1    3    3    0  502 -0.87346790725E+03 -0.40912540833E+03 -0.79989996654E+01  0.96458066471E+03  0.46999998093E+01 0.  1.
</event>
<event>
 5   0  0.1435062E-05  0.2633319E+04  0.7818609E-02  0.8356971E-01
        1   -1    0    0  501    0  0.00000000000E+00  0.00000000000E+00  0.11152866158E+04  0.11152866158E+04  0.50400001928E-02 0.  1.
       -1   -1    0    0    0  501  0.00000000000E+00  0.00000000000E+00 -0.15543921249E+04  0.15543921250E+04  0.50400001928E-02 0. -1.
    10030    2    1    2    0    0  0.00000000000E+00  0.00000000000E+00 -0.43910550918E+03  0.26696787407E+04  0.26333193750E+04 0.  0.
        2    1    3    3  502    0  0.11283401489E+04 -0.19814195774E+03  0.43839264889E+03  0.12266213114E+04  0.25500000920E-02 0.  1.
       -2    1    3    3    0  502 -0.11283401489E+04  0.19814195774E+03 -0.87749815806E+03  0.14430574293E+04  0.25500000920E-02 0. -1.
</event>
<event>
 5   0  0.3499642E-05  0.2606207E+04  0.7818609E-02  0.8366096E-01
        2   -1    0    0  501    0  0.00000000000E+00  0.00000000000E+00  0.17904627972E+04  0.17904627972E+04  0.25500000920E-02 0.  1.
       -2   -1    0    0    0  501  0.00000000000E+00  0.00000000000E+00 -0.94840229813E+03  0.94840229813E+03  0.25500000920E-02 0. -1.
    10030    2    1    2    0    0  0.00000000000E+00  0.00000000000E+00  0.84206049911E+03  0.27388650954E+04  0.26062072302E+04 0.  0.
        2    1    3    3  502    0 -0.72785800219E+03 -0.94904618390E+03  0.96467522861E+03  0.15365754870E+04  0.25500000920E-02 0.  1.
       -2    1    3    3    0  502  0.72785800219E+03  0.94904618390E+03 -0.12261472950E+03  0.12022896084E+04  0.25500000920E-02 0. -1.
</event>
<event>
 5   0  0.3647623E-05  0.2522166E+04  0.7818609E-02  0.8395131E-01
        2   -1    0    0  501    0  0.00000000000E+00  0.00000000000E+00  0.10975330847E+04  0.10975330847E+04  0.25500000920E-02 0. -1.
       -2   -1    0    0    0  501  0.00000000000E+00  0.00000000000E+00 -0.14490040103E+04  0.14490040103E+04  0.25500000920E-02 0.  1.
    10030    2    1    2    0    0  0.00000000000E+00  0.00000000000E+00 -0.35147092554E+03  0.25465370950E+04  0.25221656101E+04 0.  0.
        3    1    3    3  502    0  0.12160132747E+04  0.23686114053E+03 -0.41367843446E+03  0.13061092380E+04  0.10100000352E+00 0. -1.
       -3    1    3    3    0  502 -0.12160132747E+04 -0.23686114053E+03  0.62207508923E+02  0.12404278571E+04  0.10100000352E+00 0.  1.
</event>
<event>
 5   0  0.3499642E-05  0.2581398E+04  0.7818609E-02  0.8374548E-01
        2   -1    0    0  501    0  0.00000000000E+00  0.00000000000E+00  0.23726508123E+04  0.23726508124E+04  0.25500000920E-02 0. -1.
       -2   -1    0    0    0  501  0.00000000000E+00  0.00000000000E+00 -0.70212752116E+03  0.70212752116E+03  0.25500000920E-02 0.  1.
    10030    2    1    2    0    0  0.00000000000E+00  0.00000000000E+00  0.16705232912E+04  0.30747783335E+04  0.25813976319E+04 0.  0.
        2    1    3    3  502    0  0.25447623011E+03  0.11309040072E+04  0.15914345285E+03  0.11700549833E+04  0.25500000920E-02 0.  1.
       -2    1    3    3    0  502 -0.25447623011E+03 -0.11309040072E+04  0.15113798383E+04  0.19047233503E+04  0.25500000920E-02 0. -1.
</event>
<event>
 5   0  0.1497497E-05  0.2600306E+04  0.7818609E-02  0.8368097E-01
       -1   -1    0    0    0  501  0.00000000000E+00  0.00000000000E+00  0.12255604471E+04  0.12255604471E+04  0.50400001928E-02 0.  1.
        1   -1    0    0  501    0  0.00000000000E+00  0.00000000000E+00 -0.13792852846E+04  0.13792852846E+04  0.50400001928E-02 0. -1.
    10030    2    1    2    0    0  0.00000000000E+00  0.00000000000E+00 -0.15372483748E+03  0.26048457318E+04  0.26003057437E+04 0.  0.
        3    1    3    3  502    0 -0.42206935258E+03  0.88361865895E+03  0.77989277302E+03  0.12518615021E+04  0.10100000352E+00 0.  1.
       -3    1    3    3    0  502  0.42206935258E+03 -0.88361865895E+03 -0.93361761051E+03  0.13529842297E+04  0.10100000352E+00 0. -1.
</event>
<event>
 5   0  0.1474554E-05  0.2619172E+04  0.7818609E-02  0.8361718E-01
        1   -1    0    0  501    0  0.00000000000E+00  0.00000000000E+00  0.83763461619E+03  0.83763461621E+03  0.50400001928E-02 0. -1.
       -1   -1    0    0    0  501  0.00000000000E+00  0.00000000000E+00 -0.20474499437E+04  0.20474499437E+04  0.50400001928E-02 0.  1.
    10030    2    1    2    0    0  0.00000000000E+00  0.00000000000E+00 -0.12098153275E+04  0.28850845599E+04  0.26191715849E+04 0.  0.
        5    1    3    3  502    0  0.87198553394E+03  0.36823014966E+03  0.39198252723E+03  0.10245118868E+04  0.46999998093E+01 0. -1.
       -5    1    3    3    0  502 -0.87198553394E+03 -0.36823014966E+03 -0.16017978548E+04  0.18605726731E+04  0.46999998093E+01 0.  1.
</event>
<event>
 5   0  0.3508470E-05  0.2614773E+04  0.7818609E-02  0.8363200E-01
        2   -1    0    0  501    0  0.00000000000E+00  0.00000000000E+00  0.17321264998E+04  0.17321264998E+04  0.25500000920E-02 0. -1.
       -2   -1    0    0    0  501  0.00000000000E+00  0.00000000000E+00 -0.98679818902E+03  0.98679818902E+03  0.25500000920E-02 0.  1.
    10030    2    1    2    0    0  0.00000000000E+00  0.00000000000E+00  0.74532831074E+03  0.27189246888E+04  0.26147728721E+04 0.  0.
        5    1    3    3  502    0  0.31712439691E+03 -0.12178061830E+04  0.74120713550E+03  0.14604896064E+04  0.46999998093E+01 0. -1.
       -5    1    3    3    0  502 -0.31712439691E+03  0.12178061830E+04  0.41211752346E+01  0.12584350824E+04  0.46999998093E+01 0.  1.
</event>
<event>
 5   0  0.1474554E-05  0.2599668E+04  0.7818609E-02  0.8368314E-01
       -1   -1    0    0    0  501  0.00000000000E+00  0.00000000000E+00  0.15529034109E+04  0.15529034109E+04  0.50400001928E-02 0.  1.
        1   -1    0    0  501    0  0.00000000000E+00  0.00000000000E+00 -0.10880061487E+04  0.10880061488E+04  0.50400001928E-02 0. -1.
    10030    2    1    2    0    0  0.00000000000E+00  0.00000000000E+00  0.46489726219E+03  0.26409095597E+04  0.25996680246E+04 0.  0.
        5    1    3    3  502    0 -0.43483818640E+03 -0.12119779406E+04  0.41295140548E+03  0.13522299102E+04  0.46999998093E+01 0.  1.
       -5    1    3    3    0  502  0.43483818640E+03  0.12119779406E+04  0.51945856702E+02  0.12886796494E+04  0.46999998093E+01 0. -1.
</event>
<event>
 5   0  0.1435062E-05  0.2424560E+04  0.7818609E-02  0.8430366E-01
       -1   -1    0    0    0  501  0.00000000000E+00  0.00000000000E+00  0.70873359534E+03  0.70873359536E+03  0.50400001928E-02 0. -1.
        1   -1    0    0  501    0  0.00000000000E+00  0.00000000000E+00 -0.20735892501E+04  0.20735892501E+04  0.50400001928E-02 0.  1.
    10030    2    1    2    0    0  0.00000000000E+00  0.00000000000E+00 -0.13648556548E+04  0.27823228455E+04  0.24245596421E+04 0.  0.
        2    1    3    3  502    0 -0.33912600575E+03  0.21916742475E+03  0.62929752251E+03  0.74770059495E+03  0.25500000920E-02 0. -1.
       -2    1    3    3    0  502  0.33912600575E+03 -0.21916742475E+03 -0.19941531773E+04  0.20346222505E+04  0.25500000920E-02 0.  1.
</event>
<event>
 5   0  0.3508470E-05  0.2512934E+04  0.7818609E-02  0.8398392E-01
       -2   -1    0    0    0  501  0.00000000000E+00  0.00000000000E+00  0.67076947573E+03  0.67076947574E+03  0.25500000920E-02 0.  1.
        2   -1    0    0  501    0  0.00000000000E+00  0.00000000000E+00 -0.23535802829E+04  0.23535802829E+04  0.25500000920E-02 0. -1.
    10030    2    1    2    0    0  0.00000000000E+00  0.00000000000E+00 -0.16828108071E+04  0.30243497586E+04  0.25129343903E+04 0.  0.
        5    1    3    3  502    0 -0.56961283123E+03 -0.24324911432E+02 -0.21889303314E+04  0.22619656417E+04  0.46999998093E+01 0. -1.
       -5    1    3    3    0  502  0.56961283123E+03  0.24324911432E+02  0.50611952424E+03  0.76238411686E+03  0.46999998093E+01 0.  1.
</event>
<event>
 5   0  0.1451052E-05  0.2605265E+04  0.7818609E-02  0.8366415E-01
       -1   -1    0    0    0  501  0.00000000000E+00  0.00000000000E+00  0.13094501217E+04  0.13094501217E+04  0.50400001928E-02 0.  1.
        1   -1    0    0  501    0  0.00000000000E+00  0.00000000000E+00 -0.12958502866E+04  0.12958502866E+04  0.50400001928E-02 0. -1.
    10030    2    1    2    0    0  0.00000000000E+00  0.00000000000E+00  0.13599835020E+02  0.26053004083E+04  0.26052649121E+04 0.  0.
        1    1    3    3  502    0 -0.63684163725E+03  0.10580755247E+04  0.42124522022E+03  0.13048136352E+04  0.50400001928E-02 0. -1.
       -1    1    3    3    0  502  0.63684163725E+03 -0.10580755247E+04 -0.40764538520E+03  0.13004867731E+04  0.50400001928E-02 0.  1.
</event>
<event>
 5   0  0.3647623E-05  0.2644130E+04  0.7818609E-02  0.8353364E-01
        2   -1    0    0  501    0  0.00000000000E+00  0.00000000000E+00  0.14339551353E+04  0.14339551353E+04  0.25500000920E-02 0.  1.
       -2   -1    0    0    0  501  0.00000000000E+00  0.00000000000E+00 -0.12189056227E+04  0.12189056227E+04  0.25500000920E-02 0. -1.
    10030    2    1    2    0    0  0.00000000000E+00  0.00000000000E+00  0.21504951267E+03  0.26528607580E+04  0.26441300854E+04 0.  0.
        3    1    3    3  502    0 -0.53003016122E+03 -0.89660330951E+03  0.92447777417E+03  0.13926552451E+04  0.10100000352E+00 0.  1.
       -3    1    3    3    0  502  0.53003016122E+03  0.89660330951E+03 -0.70942826151E+03  0.12602055129E+04  0.10100000352E+00 0. -1.
</event>
<event>
 5   0  0.3441646E-05  0.2587849E+04  0.7818609E-02  0.8372340E-01
       -2   -1    0    0    0  501  0.00000000000E+00  0.00000000000E+00  0.12503225191E+04  0.12503225191E+04  0.25500000920E-02 0. -1.
        2   -1    0    0  501    0  0.00000000000E+00  0.00000000000E+00 -0.13390467887E+04  0.13390467887E+04  0.25500000920E-02 0.  1.
    10030    2    1    2    0    0  0.00000000000E+00  0.00000000000E+00 -0.88724269607E+02  0.25893693077E+04  0.25878488008E+04 0.  0.
        4    1    3    3  502    0  0.67008514675E+03 -0.13939936364E+03  0.10543688663E+04  0.12570368354E+04  0.12699999809E+01 0. -1.
       -4    1    3    3    0  502 -0.67008514675E+03  0.13939936364E+03 -0.11430931359E+04  0.13323324723E+04  0.12699999809E+01 0.  1.
</event>
<event>
 5   0  0.3647623E-05  0.2552933E+04  0.7818609E-02  0.8384367E-01
       -2   -1    0    0    0  501  0.00000000000E+00  0.00000000000E+00  0.93008144678E+03  0.93008144678E+03  0.25500000920E-02 0.  1.
        2   -1    0    0  501    0  0.00000000000E+00  0.00000000000E+00 -0.17518537089E+04  0.17518537089E+04  0.25500000920E-02 0. -1.
    10030    2    1    2    0    0  0.00000000000E+00  0.00000000000E+00 -0.82177226212E+03  0.26819351557E+04  0.25529329268E+04 0.  0.
        3    1    3    3  502    0 -0.53996922601E+03 -0.10431022419E+04  0.11410360071E+03  0.11801053741E+04  0.10100000352E+00 0. -1.
       -3    1    3    3    0  502  0.53996922601E+03  0.10431022419E+04 -0.93587586283E+03  0.15018297816E+04  0.10100000352E+00 0.  1.
</event>
<event>
 5   0  0.1435062E-05  0.2506399E+04  0.7818609E-02  0.8400709E-01
        1   -1    0    0  501    0  0.00000000000E+00  0.00000000000E+00  0.18805779053E+04  0.18805779053E+04  0.50400001928E-02 0. -1.
       -1   -1    0    0    0  501  0.00000000000E+00  0.00000000000E+00 -0.83512060073E+03  0.83512060075E+03  0.50400001928E-02 0.  1.
    10030    2    1    2    0    0  0.00000000000E+00  0.00000000000E+00  0.10454573046E+04  0.27156985060E+04  0.25063992898E+04 0.  0.
        2    1    3    3  502    0 -0.11185157775E+04  0.64894068742E+02  0.11310577166E+04  0.15920365394E+04  0.25500000920E-02 0. -1.
       -2    1    3    3    0  502  0.11185157775E+04 -0.64894068742E+02 -0.85600412018E+02  0.11236619666E+04  0.25500000920E-02 0.  1.
</event>
<event>
 5   0  0.3441646E-05  0.2235451E+04  0.7818609E-02  0.8503816E-01
       -2   -1    0    0    0  501  0.00000000000E+00  0.00000000000E+00  0.65617721231E+03  0.65617721232E+03  0.25500000920E-02 0. -1.
        2   -1    0    0  501    0  0.00000000000E+00  0.00000000000E+00 -0.19039213726E+04  0.19039213726E+04  0.25500000920E-02 0.  1.
    10030    2    1    2    0    0  0.00000000000E+00  0.00000000000E+00 -0.12477441603E+04  0.25600985849E+04  0.22354505754E+04 0.  0.
        4    1    3    3  502    0  0.90062607681E+03  0.55913075695E+02 -0.13792486356E+04  0.16482056952E+04  0.12699999809E+01 0.  1.
       -4    1    3    3    0  502 -0.90062607681E+03 -0.55913075695E+02  0.13150447530E+03  0.91189288964E+03  0.12699999809E+01 0. -1.
</event>
<event>
 5   0  0.1474554E-05  0.2622345E+04  0.7818609E-02  0.8360650E-01
       -1   -1    0    0    0  501  0.00000000000E+00  0.00000000000E+00  0.11560365715E+04  0.11560365715E+04  0.50400001928E-02 0.  1.
        1   -1    0    0  501    0  0.00000000000E+00  0.00000000000E+00 -0.14871276662E+04  0.14871276662E+04  0.50400001928E-02 0. -1.
    10030    2    1    2    0    0  0.00000000000E+00  0.00000000000E+00 -0.33109109470E+03  0.26431642378E+04  0.26223454911E+04 0.  0.
        5    1    3    3  502    0 -0.83205689391E+03  0.41788542614E+03  0.76493280395E+03  0.12050274639E+04  0.46999998093E+01 0.  1.
       -5    1    3    3    0  502  0.83205689391E+03 -0.41788542614E+03 -0.10960238986E+04  0.14381367739E+04  0.46999998093E+01 0. -1.
</event>
<event>
 5   0  0.1435062E-05  0.2604166E+04  0.7818609E-02  0.8366788E-01
       -1   -1    0    0    0  501  0.00000000000E+00  0.00000000000E+00  0.13758046184E+04  0.13758046184E+04  0.50400001928E-02 0. -1.
        1   -1    0    0  501    0  0.00000000000E+00  0.00000000000E+00 -0.12323112653E+04  0.12323112653E+04  0.50400001928E-02 0.  1.
    10030    2    1    2    0    0  0.00000000000E+00  0.00000000000E+00  0.14349335310E+03  0.26081158838E+04  0.26041655325E+04 0.  0.
        2    1    3    3  502    0  0.14369136661E+03  0.44505738134E+03  0.12887839614E+04  0.13710169148E+04  0.25500000920E-02 0. -1.
       -2    1    3    3    0  502 -0.14369136661E+03 -0.44505738134E+03 -0.11452906083E+04  0.12370989690E+04  0.25500000920E-02 0.  1.
</event>
<event>
 5   0  0.1435062E-05  0.2611894E+04  0.7818609E-02  0.8364172E-01
       -1   -1    0    0    0  501  0.00000000000E+00  0.00000000000E+00  0.99107852789E+03  0.99107852790E+03  0.50400001928E-02 0. -1.
        1   -1    0    0  501    0  0.00000000000E+00  0.00000000000E+00 -0.17208495460E+04  0.17208495460E+04  0.50400001928E-02 0.  1.
    10030    2    1    2    0    0  0.00000000000E+00  0.00000000000E+00 -0.72977101808E+03  0.27119280739E+04  0.26118935926E+04 0.  0.
        2    1    3    3  502    0  0.41214474503E+03 -0.47948683576E+03  0.82156255657E+03  0.10366947241E+04  0.25500000920E-02 0. -1.
       -2    1    3    3    0  502 -0.41214474503E+03  0.47948683576E+03 -0.15513335746E+04  0.16752333498E+04  0.25500000920E-02 0.  1.
</event>
<event>
 5   0  0.1497497E-05  0.2602358E+04  0.7818609E-02  0.8367401E-01
       -1   -1    0    0    0  501  0.00000000000E+00  0.00000000000E+00  0.74732518274E+03  0.74732518276E+03  0.50400001928E-02 0.  1.
        1   -1    0    0  501    0  0.00000000000E+00  0.00000000000E+00 -0.22655013370E+04  0.22655013370E+04  0.50400001928E-02 0. -1.
    10030    2    1    2    0    0  0.00000000000E+00  0.00000000000E+00 -0.15181761542E+04  0.30128265198E+04  0.26023575471E+04 0.  0.
        3    1    3    3  502    0  0.50839732829E+03 -0.91063251399E+03 -0.16598484566E+04  0.19603102632E+04  0.10100000352E+00 0. -1.
       -3    1    3    3    0  502 -0.50839732829E+03  0.91063251399E+03  0.14167230231E+03  0.10525162566E+04  0.10100000352E+00 0.  1.
</event>
<event>
 5   0  0.1474554E-05  0.2579746E+04  0.7818609E-02  0.8375114E-01
        1   -1    0    0  501    0  0.00000000000E+00  0.00000000000E+00  0.15397984192E+04  0.15397984192E+04  0.50400001928E-02 0. -1.
       -1   -1    0    0    0  501  0.00000000000E+00  0.00000000000E+00 -0.10805127396E+04  0.10805127396E+04  0.50400001928E-02 0.  1.
    10030    2    1    2    0    0  0.00000000000E+00  0.00000000000E+00  0.45928567960E+03  0.26203111588E+04  0.25797455754E+04 0.  0.
        5    1    3    3  502    0  0.18687199992E+03 -0.84984316476E+03  0.11967680192E+04  0.14796723728E+04  0.46999998093E+01 0. -1.
       -5    1    3    3    0  502 -0.18687199992E+03  0.84984316476E+03 -0.73748233958E+03  0.11406387860E+04  0.46999998093E+01 0.  1.
</event>
<event>
 5   0  0.3508470E-05  0.2580912E+04  0.7818609E-02  0.8374714E-01
       -2   -1    0    0    0  501  0.00000000000E+00  0.00000000000E+00  0.87845491672E+03  0.87845491673E+03  0.25500000920E-02 0.  1.
        2   -1    0    0  501    0  0.00000000000E+00  0.00000000000E+00 -0.18956877795E+04  0.18956877795E+04  0.25500000920E-02 0. -1.
    10030    2    1    2    0    0  0.00000000000E+00  0.00000000000E+00 -0.10172328628E+04  0.27741426963E+04  0.25809116610E+04 0.  0.
        5    1    3    3  502    0 -0.54537972390E+03 -0.65449010053E+03  0.53320743196E+03  0.10050515362E+04  0.46999998093E+01 0.  1.
       -5    1    3    3    0  502  0.54537972390E+03  0.65449010053E+03 -0.15504402948E+04  0.17690911601E+04  0.46999998093E+01 0. -1.
</event>
<event>
 5   0  0.1451052E-05  0.2602164E+04  0.7818609E-02  0.8367466E-01
       -1   -1    0    0    0  501  0.00000000000E+00  0.00000000000E+00  0.86912919701E+03  0.86912919703E+03  0.50400001928E-02 0.  1.
        1   -1    0    0  501    0  0.00000000000E+00  0.00000000000E+00 -0.19477137797E+04  0.19477137797E+04  0.50400001928E-02 0. -1.
    10030    2    1    2    0    0  0.00000000000E+00  0.00000000000E+00 -0.10785845827E+04  0.28168429768E+04  0.26021644171E+04 0.  0.
        1    1    3    3  502    0  0.60548721593E+03 -0.69456632090E+03  0.45506381279E+03  0.10276770974E+04  0.50400001928E-02 0.  1.
       -1    1    3    3    0  502 -0.60548721593E+03  0.69456632090E+03 -0.15336483955E+04  0.17891658794E+04  0.50400001928E-02 0. -1.
</event>
<event>
 5   0  0.1474554E-05  0.2599339E+04  0.7818609E-02  0.8368426E-01
       -1   -1    0    0    0  501  0.00000000000E+00  0.00000000000E+00  0.11296918375E+04  0.11296918375E+04  0.50400001928E-02 0. -1.
        1   -1    0    0  501    0  0.00000000000E+00  0.00000000000E+00 -0.14952221074E+04  0.14952221074E+04  0.50400001928E-02 0.  1.
    10030    2    1    2    0    0  0.00000000000E+00  0.00000000000E+00 -0.36553026991E+03  0.26249139449E+04  0.25993385389E+04 0.  0.
        5    1    3    3  502    0 -0.12641578742E+04 -0.55337792446E+02  0.11673471311E+03  0.12707503632E+04  0.46999998093E+01 0.  1.
       -5    1    3    3    0  502  0.12641578742E+04  0.55337792446E+02 -0.48226498302E+03  0.13541635817E+04  0.46999998093E+01 0. -1.
</event>
<event>
 5   0  0.1533248E-05  0.2088116E+04  0.7818609E-02  0.8566496E-01
        1   -1    0    0  501    0  0.00000000000E+00  0.00000000000E+00  0.14768432955E+04  0.14768432955E+04  0.50400001928E-02 0. -1.
       -1   -1    0    0    0  501  0.00000000000E+00  0.00000000000E+00 -0.73809962252E+03  0.73809962253E+03  0.50400001928E-02 0.  1.
    10030    2    1    2    0    0  0.00000000000E+00  0.00000000000E+00  0.73874367296E+03  0.22149429180E+04  0.20881163559E+04 0.  0.
        4    1    3    3  502    0  0.20496914917E+03 -0.18225077281E+01  0.14552892872E+04  0.14696544478E+04  0.12699999809E+01 0. -1.
       -4    1    3    3    0  502 -0.20496914917E+03  0.18225077281E+01 -0.71654561423E+03  0.74528847021E+03  0.12699999809E+01 0.  1.
</event>
<event>
 5   0  0.1435062E-05  0.2613339E+04  0.7818609E-02  0.8363684E-01
       -1   -1    0    0    0  501  0.00000000000E+00  0.00000000000E+00  0.89441731875E+03  0.89441731876E+03  0.50400001928E-02 0.  1.
        1   -1    0    0  501    0  0.00000000000E+00  0.00000000000E+00 -0.19089361078E+04  0.19089361078E+04  0.50400001928E-02 0. -1.
    10030    2    1    2    0    0  0.00000000000E+00  0.00000000000E+00 -0.10145187890E+04  0.28033534265E+04  0.26133392548E+04 0.  0.
        2    1    3    3  502    0 -0.75752417964E+03 -0.55613982988E+00 -0.16493509803E+04  0.18149936221E+04  0.25500000920E-02 0. -1.
       -2    1    3    3    0  502  0.75752417964E+03  0.55613982988E+00  0.63483219125E+03  0.98835980447E+03  0.25500000920E-02 0.  1.
</event>
<event>
 5   0  0.3499642E-05  0.2465705E+04  0.7818609E-02  0.8415306E-01
        2   -1    0    0  501    0  0.00000000000E+00  0.00000000000E+00  0.17552942118E+04  0.17552942118E+04  0.25500000920E-02 0. -1.
       -2   -1    0    0    0  501  0.00000000000E+00  0.00000000000E+00 -0.86590945861E+03  0.86590945861E+03  0.25500000920E-02 0.  1.
    10030    2    1    2    0    0  0.00000000000E+00  0.00000000000E+00  0.88938475322E+03  0.26212036704E+04  0.24657054655E+04 0.  0.
        2    1    3    3  502    0  0.12181946060E+03  0.12233222139E+04  0.54309700673E+03  0.13439909147E+04  0.25500000920E-02 0. -1.
       -2    1    3    3    0  502 -0.12181946060E+03 -0.12233222139E+04  0.34628774649E+03  0.12772127557E+04  0.25500000920E-02 0.  1.
</event>
<event>
 5   0  0.3647623E-05  0.2454905E+04  0.7818609E-02  0.8419229E-01
        2   -1    0    0  501    0  0.00000000000E+00  0.00000000000E+00  0.13860241770E+04  0.13860241770E+04  0.25500000920E-02 0.  1.
       -2   -1    0    0    0  501  0.00000000000E+00  0.00000000000E+00 -0.10870225550E+04  0.10870225550E+04  0.25500000920E-02 0. -1.
    10030    2    1    2    0    0  0.00000000000E+00  0.00000000000E+00  0.29900162200E+03  0.24730467321E+04  0.24549049206E+04 0.  0.
        3    1    3    3  502    0 -0.11607048844E+04  0.37627671442E+03  0.15024477281E+02  0.12202646187E+04  0.10100000352E+00 0. -1.
       -3    1    3    3    0  502  0.11607048844E+04 -0.37627671442E+03  0.28397714472E+03  0.12527821133E+04  0.10100000352E+00 0.  1.
</event>
<event>
 5   0  0.3441646E-05  0.2191724E+04  0.7818609E-02  0.8521881E-01
        2   -1    0    0  501    0  0.00000000000E+00  0.00000000000E+00  0.13120060089E+04  0.13120060089E+04  0.25500000920E-02 0. -1.
       -2   -1    0    0    0  501  0.00000000000E+00  0.00000000000E+00 -0.91532654734E+03  0.91532654735E+03  0.25500000920E-02 0.  1.
    10030    2    1    2    0    0  0.00000000000E+00  0.00000000000E+00  0.39667946153E+03  0.22273325562E+04  0.21917243715E+04 0.  0.
        4    1    3    3  502    0  0.10653859238E+04  0.22286911909E+03  0.69014582103E+02  0.10906339607E+04  0.12699999809E+01 0.  1.
       -4    1    3    3    0  502 -0.10653859238E+04 -0.22286911909E+03  0.32766487943E+03  0.11366985955E+04  0.12699999809E+01 0. -1.
</event>
<event>
 5   0  0.1474554E-05  0.2576261E+04  0.7818609E-02  0.8376310E-01
       -1   -1    0    0    0  501  0.00000000000E+00  0.00000000000E+00  0.13968348831E+04  0.13968348831E+04  0.50400001928E-02 0.  1.
        1   -1    0    0  501    0  0.00000000000E+00  0.00000000000E+00 -0.11878859608E+04  0.11878859608E+04  0.50400001928E-02 0. -1.
    10030    2    1    2    0    0  0.00000000000E+00  0.00000000000E+00  0.20894892229E+03  0.25847208439E+04  0.25762612811E+04 0.  0.
        5    1    3    3  502    0 -0.13329718978E+03  0.45707307472E+03  0.13053067304E+04  0.13894357441E+04  0.46999998093E+01 0.  1.
       -5    1    3    3    0  502  0.13329718978E+03 -0.45707307472E+03 -0.10963578081E+04  0.11952850998E+04  0.46999998093E+01 0. -1.
</event>
<event>
 5   0  0.3849687E-05  0.3016177E+04  0.7818609E-02  0.8239126E-01
        2   -1    0    0  501    0  0.00000000000E+00  0.00000000000E+00  0.19265771040E+04  0.19265771040E+04  0.25500000920E-02 0. -1.
       -2   -1    0    0    0  501  0.00000000000E+00  0.00000000000E+00 -0.11805034898E+04  0.11805034898E+04  0.25500000920E-02 0.  1.
    10030    2    1    2    0    0  0.00000000000E+00  0.00000000000E+00  0.74607361415E+03  0.31070805938E+04  0.30161770470E+04 0.  0.
        1    1    3    3  502    0 -0.61704170520E+03  0.89945744204E+02 -0.10414828588E+04  0.12138851874E+04  0.50400001928E-02 0.  1.
       -1    1    3    3    0  502  0.61704170520E+03 -0.89945744204E+02  0.17875564730E+04  0.18931954065E+04  0.50400001928E-02 0. -1.
</event>
<event>
 5   0  0.3508470E-05  0.2559052E+04  0.7818609E-02  0.8382245E-01
        2   -1    0    0  501    0  0.00000000000E+00  0.00000000000E+00  0.21244175866E+04  0.21244175866E+04  0.25500000920E-02 0.  1.
       -2   -1    0    0    0  501  0.00000000000E+00  0.00000000000E+00 -0.77065225619E+03  0.77065225619E+03  0.25500000920E-02 0. -1.
    10030    2    1    2    0    0  0.00000000000E+00  0.00000000000E+00  0.13537653304E+04  0.28950698428E+04  0.25590523294E+04 0.  0.
        5    1    3    3  502    0 -0.75370298831E+03 -0.99627498037E+03  0.98985394725E+03  0.15938836087E+04  0.46999998093E+01 0. -1.
       -5    1    3    3    0  502  0.75370298831E+03  0.99627498037E+03  0.36391138316E+03  0.13011862341E+04  0.46999998093E+01 0.  1.
</event>
<event>
 5   0  0.1533248E-05  0.2672158E+04  0.7818609E-02  0.8344096E-01
       -1   -1    0    0    0  501  0.00000000000E+00  0.00000000000E+00  0.12514482385E+04  0.12514482385E+04  0.50400001928E-02 0.  1.
        1   -1    0    0  501    0  0.00000000000E+00  0.00000000000E+00 -0.14264328053E+04  0.14264328054E+04  0.50400001928E-02 0. -1.
    10030    2    1    2    0    0  0.00000000000E+00  0.00000000000E+00 -0.17498456687E+03  0.26778810438E+04  0.26721577959E+04 0.  0.
        4    1    3    3  502    0  0.66283091593E+03 -0.11674258435E+03 -0.12441443506E+04  0.14145212731E+04  0.12699999809E+01 0. -1.
       -4    1    3    3    0  502 -0.66283091593E+03  0.11674258435E+03  0.10691597837E+04  0.12633597707E+04  0.12699999809E+01 0.  1.
</event>
<event>
 5   0  0.1435062E-05  0.2579019E+04  0.7818609E-02  0.8375363E-01
        1   -1    0    0  501    0  0.00000000000E+00  0.00000000000E+00  0.17813918604E+04  0.17813918604E+04  0.50400001928E-02 0.  1.
       -1   -1    0    0    0  501  0.00000000000E+00  0.00000000000E+00 -0.93344697826E+03  0.93344697827E+03  0.50400001928E-02 0. -1.
    10030    2    1    2    0    0  0.00000000000E+00  0.00000000000E+00  0.84794488213E+03  0.27148388387E+04  0.25790190765E+04 0.  0.
        2    1    3    3  502    0 -0.84549609118E+03 -0.83146288950E+03  0.95724868975E+03  0.15239813748E+04  0.25500000920E-02 0.  1.
       -2    1    3    3    0  502  0.84549609118E+03  0.83146288950E+03 -0.10930380761E+03  0.11908574638E+04  0.25500000920E-02 0. -1.
</event>
<event>
 5   0  0.1435062E-05  0.2600100E+04  0.7818609E-02  0.8368167E-01
       -1   -1    0    0    0  501  0.00000000000E+00  0.00000000000E+00  0.12228757244E+04  0.12228757244E+04  0.50400001928E-02 0.  1.
        1   -1    0    0  501    0  0.00000000000E+00  0.00000000000E+00 -0.13820951779E+04  0.13820951779E+04  0.50400001928E-02 0. -1.
    10030    2    1    2    0    0  0.00000000000E+00  0.00000000000E+00 -0.15921945348E+03  0.26049709023E+04  0.26001004918E+04 0.  0.
        2    1    3    3  502    0  0.51966525209E+03 -0.41073751143E+03  0.10411336900E+04  0.12339840510E+04  0.25500000920E-02 0.  1.
       -2    1    3    3    0  502 -0.51966525209E+03  0.41073751143E+03 -0.12003531435E+04  0.13709868514E+04  0.25500000920E-02 0. -1.
</event>
<event>
 5   0  0.1474554E-05  0.2459884E+04  0.7818609E-02  0.8417418E-01
       -1   -1    0    0    0  501  0.00000000000E+00  0.00000000000E+00  0.10636301993E+04  0.10636301993E+04  0.50400001928E-02 0. -1.
        1   -1    0    0  501    0  0.00000000000E+00  0.00000000000E+00 -0.14222589686E+04  0.14222589687E+04  0.50400001928E-02 0.  1.
    10030    2    1    2    0    0  0.00000000000E+00  0.00000000000E+00 -0.35862876932E+03  0.24858891680E+04  0.24598842171E+04 0.  0.
        5    1    3    3  502    0  0.48860438371E+02  0.95905363577E+03  0.59729151279E+03  0.11309069192E+04  0.46999998093E+01 0. -1.
       -5    1    3    3    0  502 -0.48860438371E+02 -0.95905363577E+03 -0.95592028211E+03  0.13549822488E+04  0.46999998093E+01 0.  1.
</event>
<event>
 5   0  0.1435062E-05  0.2547113E+04  0.7818609E-02  0.8386391E-01
       -1   -1    0    0    0  501  0.00000000000E+00  0.00000000000E+00  0.94259102063E+03  0.94259102064E+03  0.50400001928E-02 0. -1.
        1   -1    0    0  501    0  0.00000000000E+00  0.00000000000E+00 -0.17207313985E+04  0.17207313985E+04  0.50400001928E-02 0.  1.
    10030    2    1    2    0    0  0.00000000000E+00  0.00000000000E+00 -0.77814037787E+03  0.26633224191E+04  0.25471128480E+04 0.  0.
        2    1    3    3  502    0 -0.12311129970E+04  0.27436419294E+03 -0.20487692345E+03  0.12778456384E+04  0.25500000920E-02 0.  1.
       -2    1    3    3    0  502  0.12311129970E+04 -0.27436419294E+03 -0.57326345441E+03  0.13854767807E+04  0.25500000920E-02 0. -1.
</event>
<event>
 5   0  0.3499642E-05  0.2614575E+04  0.7818609E-02  0.8363267E-01
        2   -1    0    0  501    0  0.00000000000E+00  0.00000000000E+00  0.12533356117E+04  0.12533356117E+04  0.25500000920E-02 0.  1.
       -2   -1    0    0    0  501  0.00000000000E+00  0.00000000000E+00 -0.13635619195E+04  0.13635619195E+04  0.25500000920E-02 0. -1.
    10030    2    1    2    0    0  0.00000000000E+00  0.00000000000E+00 -0.11022630778E+03  0.26168975311E+04  0.26145750801E+04 0.  0.
        2    1    3    3  502    0  0.73928513038E+03 -0.50686342926E+03 -0.10075611211E+04  0.13485668143E+04  0.25500000920E-02 0. -1.
       -2    1    3    3    0  502 -0.73928513038E+03  0.50686342926E+03  0.89733481335E+03  0.12683307168E+04  0.25500000920E-02 0.  1.
</event>
<event>
 5   0  0.3499642E-05  0.2594089E+04  0.7818609E-02  0.8370212E-01
        2   -1    0    0  501    0  0.00000000000E+00  0.00000000000E+00  0.16551187776E+04  0.16551187776E+04  0.25500000920E-02 0.  1.
       -2   -1    0    0    0  501  0.00000000000E+00  0.00000000000E+00 -0.10164370896E+04  0.10164370896E+04  0.25500000920E-02 0. -1.
    10030    2    1    2    0    0  0.00000000000E+00  0.00000000000E+00  0.63868168800E+03  0.26715558672E+04  0.25940887519E+04 0.  0.
        2    1    3    3  502    0  0.27914982522E+03  0.16327547917E+03  0.16129325771E+04  0.16450334359E+04  0.25500000920E-02 0.  1.
       -2    1    3    3    0  502 -0.27914982522E+03 -0.16327547917E+03 -0.97425088908E+03  0.10265224313E+04  0.25500000920E-02 0. -1.
</event>
<event>
 5   0  0.3647623E-05  0.2532909E+04  0.7818609E-02  0.8391354E-01
        2   -1    0    0  501    0  0.00000000000E+00  0.00000000000E+00  0.17773260689E+04  0.17773260689E+04  0.25500000920E-02 0. -1.
       -2   -1    0    0    0  501  0.00000000000E+00  0.00000000000E+00 -0.90242699813E+03  0.90242699814E+03  0.25500000920E-02 0.  1.
    10030    2    1    2    0    0  0.00000000000E+00  0.00000000000E+00  0.87489907078E+03  0.26797530670E+04  0.25329090225E+04 0.  0.
        3    1    3    3  502    0  0.11352693484E+03 -0.96544518117E+03 -0.42135875578E+03  0.10594885436E+04  0.10100000352E+00 0.  1.
       -3    1    3    3    0  502 -0.11352693484E+03  0.96544518117E+03  0.12962578266E+04  0.16202645234E+04  0.10100000352E+00 0. -1.
</event>
<event>
 5   0  0.1451052E-05  0.2626392E+04  0.7818609E-02  0.8359291E-01
        1   -1    0    0  501    0  0.00000000000E+00  0.00000000000E+00  0.10634816657E+04  0.10634816657E+04  0.50400001928E-02 0. -1.
       -1   -1    0    0    0  501  0.00000000000E+00  0.00000000000E+00 -0.16215448577E+04  0.16215448577E+04  0.50400001928E-02 0.  1.
    10030    2    1    2    0    0  0.00000000000E+00  0.00000000000E+00 -0.55806319201E+03  0.26850265234E+04  0.26263916131E+04 0.  0.
        1    1    3    3  502    0 -0.53544863403E+03 -0.11926021960E+04 -0.15184353154E+03  0.13160781496E+04  0.50400001928E-02 0.  1.
       -1    1    3    3    0  502  0.53544863403E+03  0.11926021960E+04 -0.40621966048E+03  0.13689483739E+04  0.50400001928E-02 0. -1.
</event>
<event>
 5   0  0.1435062E-05  0.2587810E+04  0.7818609E-02  0.8372354E-01
        1   -1    0    0  501    0  0.00000000000E+00  0.00000000000E+00  0.21230845271E+04  0.21230845271E+04  0.50400001928E-02 0. -1.
       -1   -1    0    0    0  501  0.00000000000E+00  0.00000000000E+00 -0.78856502953E+03  0.78856502954E+03  0.50400001928E-02 0.  1.
    10030    2    1    2    0    0  0.00000000000E+00  0.00000000000E+00  0.13345194975E+04  0.29116495566E+04  0.25878100493E+04 0.  0.
        2    1    3    3  502    0  0.23270691393E+03 -0.11080977842E+04  0.13718501078E+04  0.17787652812E+04  0.25500000920E-02 0. -1.
       -2    1    3    3    0  502 -0.23270691393E+03  0.11080977842E+04 -0.37330610289E+02  0.11328842755E+04  0.25500000920E-02 0.  1.
</event>
<event>
 5   0  0.1435062E-05  0.2590725E+04  0.7818609E-02  0.8371358E-01
        1   -1    0    0  501    0  0.00000000000E+00  0.00000000000E+00  0.11947418460E+04  0.11947418460E+04  0.50400001928E-02 0. -1.
       -1   -1    0    0    0  501  0.00000000000E+00  0.00000000000E+00 -0.14044575947E+04  0.14044575947E+04  0.50400001928E-02 0.  1.
    10030    2    1    2    0    0  0.00000000000E+00  0.00000000000E+00 -0.20971574872E+03  0.25991994407E+04  0.25907251953E+04 0.  0.
        2    1    3    3  502    0  0.47518284656E+02  0.28720094188E+03 -0.13712155547E+04  0.14017754691E+04  0.25500000920E-02 0.  1.
       -2    1    3    3    0  502 -0.47518284656E+02 -0.28720094188E+03  0.11614998060E+04  0.11974239716E+04  0.25500000920E-02 0. -1.
</event>
<event>
 5   0  0.3647623E-05  0.2638236E+04  0.7818609E-02  0.8355328E-01
       -2   -1    0    0    0  501  0.00000000000E+00  0.00000000000E+00  0.82347169754E+03  0.82347169754E+03  0.25500000920E-02 0. -1.
        2   -1    0    0  501    0  0.00000000000E+00  0.00000000000E+00 -0.21130926683E+04  0.21130926684E+04  0.25500000920E-02 0.  1.
    10030    2    1    2    0    0  0.00000000000E+00  0.00000000000E+00 -0.12896209708E+04  0.29365643659E+04  0.26382357792E+04 0.  0.
        3    1    3    3  502    0 -0.51846366763E+03 -0.42498193576E+03  0.61972630669E+03  0.91294847925E+03  0.10100000352E+00 0. -1.
       -3    1    3    3    0  502  0.51846366763E+03  0.42498193576E+03 -0.19093472775E+04  0.20236158866E+04  0.10100000352E+00 0.  1.
</event>
<event>
 5   0  0.3499642E-05  0.2719821E+04  0.7818609E-02  0.8328602E-01
       -2   -1    0    0    0  501  0.00000000000E+00  0.00000000000E+00  0.95595083561E+03  0.95595083562E+03  0.25500000920E-02 0. -1.
        2   -1    0    0  501    0  0.00000000000E+00  0.00000000000E+00 -0.19345729820E+04  0.19345729820E+04  0.25500000920E-02 0.  1.
    10030    2    1    2    0    0  0.00000000000E+00  0.00000000000E+00 -0.97862214635E+03  0.28905238176E+04  0.27198210667E+04 0.  0.
        2    1    3    3  502    0 -0.67066020415E+02 -0.93583916282E+03 -0.15355055421E+04  0.17994638256E+04  0.25500000920E-02 0.  1.
       -2    1    3    3    0  502  0.67066020415E+02  0.93583916282E+03  0.55688339572E+03  0.10910599920E+04  0.25500000920E-02 0. -1.
</event>
<event>
 5   0  0.3499642E-05  0.2603793E+04  0.7818609E-02  0.8366914E-01
       -2   -1    0    0    0  501  0.00000000000E+00  0.00000000000E+00  0.13961272429E+04  0.13961272429E+04  0.25500000920E-02 0.  1.
        2   -1    0    0  501    0  0.00000000000E+00  0.00000000000E+00 -0.12140260148E+04  0.12140260149E+04  0.25500000920E-02 0. -1.
    10030    2    1    2    0    0  0.00000000000E+00  0.00000000000E+00  0.18210122804E+03  0.26101532577E+04  0.26037932275E+04 0.  0.
        2    1    3    3  502    0 -0.16385250162E+03  0.59621532337E+03 -0.10574417278E+04  0.12249503508E+04  0.25500000920E-02 0. -1.
       -2    1    3    3    0  502  0.16385250162E+03 -0.59621532337E+03  0.12395429559E+04  0.13852029070E+04  0.25500000920E-02 0.  1.
</event>
<event>
 5   0  0.1533248E-05  0.2708887E+04  0.7818609E-02  0.8332127E-01
       -1   -1    0    0    0  501  0.00000000000E+00  0.00000000000E+00  0.16349530094E+04  0.16349530094E+04  0.50400001928E-02 0.  1.
        1   -1    0    0  501    0  0.00000000000E+00  0.00000000000E+00 -0.11220610312E+04  0.11220610312E+04  0.50400001928E-02 0. -1.
    10030    2    1    2    0    0  0.00000000000E+00  0.00000000000E+00  0.51289197827E+03  0.27570140406E+04  0.27088869003E+04 0.  0.
        4    1    3    3  502    0  0.10773308640E+04 -0.18762161309E+02 -0.57881823664E+03  0.12231214057E+04  0.12699999809E+01 0. -1.
       -4    1    3    3    0  502 -0.10773308640E+04  0.18762161309E+02  0.10917102149E+04  0.15338926349E+04  0.12699999809E+01 0.  1.
</event>
<event>
 5   0  0.1217200E-05  0.2543649E+04  0.7818609E-02  0.8387598E-01
       -3   -1    0    0    0  501  0.00000000000E+00  0.00000000000E+00  0.11113614642E+04  0.11113614688E+04  0.10100000352E+00 0. -1.
        3   -1    0    0  501    0  0.00000000000E+00  0.00000000000E+00 -0.14554554600E+04  0.14554554635E+04  0.10100000352E+00 0.  1.
    10030    2    1    2    0    0  0.00000000000E+00  0.00000000000E+00 -0.34409399583E+03  0.25668169323E+04  0.25436486562E+04 0.  0.
        3    1    3    3  502    0 -0.11742391185E+04  0.45559625810E+03  0.60017259489E+01  0.12595401894E+04  0.10100000352E+00 0. -1.
       -3    1    3    3    0  502  0.11742391185E+04 -0.45559625810E+03 -0.35009572178E+03  0.13072767429E+04  0.10100000352E+00 0.  1.
</event>
<event>
 5   0  0.3849687E-05  0.2552264E+04  0.7818609E-02  0.8384599E-01
        2   -1    0    0  501    0  0.00000000000E+00  0.00000000000E+00  0.22348723179E+04  0.22348723179E+04  0.25500000920E-02 0.  1.
       -2   -1    0    0    0  501  0.00000000000E+00  0.00000000000E+00 -0.72868260032E+03  0.72868260033E+03  0.25500000920E-02 0. -1.
    10030    2    1    2    0    0  0.00000000000E+00  0.00000000000E+00  0.15061897175E+04  0.29635549182E+04  0.25522637575E+04 0.  0.
        1    1    3    3  502    0 -0.14597900467E+03 -0.16820907916E+03 -0.70594076205E+03  0.74024085517E+03  0.50400001928E-02 0. -1.
       -1    1    3    3    0  502  0.14597900467E+03  0.16820907916E+03  0.22121304796E+04  0.22233140630E+04  0.50400001928E-02 0.  1.
</event>
<event>
 5   0  0.3647623E-05  0.2632632E+04  0.7818609E-02  0.8357201E-01
        2   -1    0    0  501    0  0.00000000000E+00  0.00000000000E+00  0.15445636482E+04  0.15445636482E+04  0.25500000920E-02 0. -1.
       -2   -1    0    0    0  501  0.00000000000E+00  0.00000000000E+00 -0.11217976118E+04  0.11217976118E+04  0.25500000920E-02 0.  1.
    10030    2    1    2    0    0  0.00000000000E+00  0.00000000000E+00  0.42276603643E+03  0.26663612600E+04  0.26326319999E+04 0.  0.
        3    1    3    3  502    0 -0.54927989778E+03 -0.95433969614E+03 -0.51911716389E+03  0.12173558649E+04  0.10100000352E+00 0.  1.
       -3    1    3    3    0  502  0.54927989778E+03  0.95433969614E+03  0.94188320032E+03  0.14490053951E+04  0.10100000352E+00 0. -1.
</event>
<event>
 5   0  0.1435062E-05  0.2573892E+04  0.7818609E-02  0.8377124E-01
       -1   -1    0    0    0  501  0.00000000000E+00  0.00000000000E+00  0.93841890727E+03  0.93841890729E+03  0.50400001928E-02 0. -1.
        1   -1    0    0  501    0  0.00000000000E+00  0.00000000000E+00 -0.17649156474E+04  0.17649156474E+04  0.50400001928E-02 0.  1.
    10030    2    1    2    0    0  0.00000000000E+00  0.00000000000E+00 -0.82649674014E+03  0.27033345547E+04  0.25738921604E+04 0.  0.
        2    1    3    3  502    0  0.24904405282E+03 -0.59405331851E+03  0.75692231263E+03  0.99390828190E+03  0.25500000920E-02 0. -1.
       -2    1    3    3    0  502 -0.24904405282E+03  0.59405331851E+03 -0.15834190528E+04  0.17094262728E+04  0.25500000920E-02 0.  1.
</event>
<event>
 5   0  0.3647623E-05  0.2580698E+04  0.7818609E-02  0.8374787E-01
       -2   -1    0    0    0  501  0.00000000000E+00  0.00000000000E+00  0.15162759926E+04  0.15162759926E+04  0.25500000920E-02 0. -1.
        2   -1    0    0  501    0  0.00000000000E+00  0.00000000000E+00 -0.10980855866E+04  0.10980855866E+04  0.25500000920E-02 0.  1.
    10030    2    1    2    0    0  0.00000000000E+00  0.00000000000E+00  0.41819040602E+03  0.26143615793E+04  0.25806982101E+04 0.  0.
        3    1    3    3  502    0 -0.10790363174E+04 -0.68151701752E+03  0.40188257010E+03  0.13380188451E+04  0.10100000352E+00 0. -1.
       -3    1    3    3    0  502  0.10790363174E+04  0.68151701752E+03  0.16307835926E+02  0.12763427342E+04  0.10100000352E+00 0.  1.
</event>
<event>
 5   0  0.3499642E-05  0.2603651E+04  0.7818609E-02  0.8366962E-01
       -2   -1    0    0    0  501  0.00000000000E+00  0.00000000000E+00  0.93347624825E+03  0.93347624826E+03  0.25500000920E-02 0.  1.
        2   -1    0    0  501    0  0.00000000000E+00  0.00000000000E+00 -0.18155250886E+04  0.18155250886E+04  0.25500000920E-02 0. -1.
    10030    2    1    2    0    0  0.00000000000E+00  0.00000000000E+00 -0.88204884036E+03  0.27490013369E+04  0.26036509354E+04 0.  0.
        2    1    3    3  502    0 -0.26624732758E+03  0.71690294061E+03 -0.15533616713E+04  0.17314069272E+04  0.25500000920E-02 0. -1.
       -2    1    3    3    0  502  0.26624732758E+03 -0.71690294061E+03  0.67131283091E+03  0.10175944097E+04  0.25500000920E-02 0.  1.
</event>
<event>
 5   0  0.3508470E-05  0.2447995E+04  0.7818609E-02  0.8421750E-01
       -2   -1    0    0    0  501  0.00000000000E+00  0.00000000000E+00  0.82077611468E+03  0.82077611468E+03  0.25500000920E-02 0.  1.
        2   -1    0    0  501    0  0.00000000000E+00  0.00000000000E+00 -0.18253091179E+04  0.18253091179E+04  0.25500000920E-02 0. -1.
    10030    2    1    2    0    0  0.00000000000E+00  0.00000000000E+00 -0.10045330033E+04  0.26460852326E+04  0.24479952009E+04 0.  0.
        5    1    3    3  502    0  0.61096001534E+03  0.10606000070E+04 -0.50429470644E+03  0.13238125834E+04  0.46999998093E+01 0. -1.
       -5    1    3    3    0  502 -0.61096001534E+03 -0.10606000070E+04 -0.50023829681E+03  0.13222726492E+04  0.46999998093E+01 0.  1.
</event>
<event>
 5   0  0.1474554E-05  0.2570607E+04  0.7818609E-02  0.8378254E-01
       -1   -1    0    0    0  501  0.00000000000E+00  0.00000000000E+00  0.11339234146E+04  0.11339234147E+04  0.50400001928E-02 0.  1.
        1   -1    0    0  501    0  0.00000000000E+00  0.00000000000E+00 -0.14568933648E+04  0.14568933648E+04  0.50400001928E-02 0. -1.
    10030    2    1    2    0    0  0.00000000000E+00  0.00000000000E+00 -0.32296995017E+03  0.25908167795E+04  0.25706073205E+04 0.  0.
        5    1    3    3  502    0  0.32866316046E+02 -0.77862892939E+03  0.86862674718E+03  0.11669951672E+04  0.46999998093E+01 0.  1.
       -5    1    3    3    0  502 -0.32866316046E+02  0.77862892939E+03 -0.11915966974E+04  0.14238216123E+04  0.46999998093E+01 0. -1.
</event>
<event>
 5   0  0.1474554E-05  0.2607765E+04  0.7818609E-02  0.8365568E-01
       -1   -1    0    0    0  501  0.00000000000E+00  0.00000000000E+00  0.25667642242E+04  0.25667642242E+04  0.50400001928E-02 0.  1.
        1   -1    0    0  501    0  0.00000000000E+00  0.00000000000E+00 -0.66235509877E+03  0.66235509879E+03  0.50400001928E-02 0. -1.
    10030    2    1    2    0    0  0.00000000000E+00  0.00000000000E+00  0.19044091254E+04  0.32291193230E+04  0.26077648447E+04 0.  0.
        5    1    3    3  502    0  0.12775970241E+03 -0.81613317691E+03 -0.29697167565E+03  0.87784404660E+03  0.46999998093E+01 0. -1.
       -5    1    3    3    0  502 -0.12775970241E+03  0.81613317691E+03  0.22013808011E+04  0.23512752764E+04  0.46999998093E+01 0.  1.
</event>
<event>
 5   0  0.3849687E-05  0.1823524E+04  0.7818609E-02  0.8693889E-01
        2   -1    0    0  501    0  0.00000000000E+00  0.00000000000E+00  0.24440510826E+04  0.24440510826E+04  0.25500000920E-02 0.  1.
       -2   -1    0    0    0  501  0.00000000000E+00  0.00000000000E+00 -0.34013612355E+03  0.34013612356E+03  0.25500000920E-02 0. -1.
    10030    2    1    2    0    0  0.00000000000E+00  0.00000000000E+00  0.21039149590E+04  0.27841872061E+04  0.18235241276E+04 0.  0.
        1    1    3    3  502    0 -0.81237903851E+03 -0.15601426920E+03  0.46654736699E+03  0.94971922171E+03  0.50400001928E-02 0. -1.
       -1    1    3    3    0  502  0.81237903851E+03  0.15601426920E+03  0.16373675920E+04  0.18344679844E+04  0.50400001928E-02 0.  1.
</event>
<event>
 5   0  0.1533248E-05  0.2596304E+04  0.7818609E-02  0.8369458E-01
        1   -1    0    0  501    0  0.00000000000E+00  0.00000000000E+00  0.16472595011E+04  0.16472595011E+04  0.50400001928E-02 0. -1.
       -1   -1    0    0    0  501  0.00000000000E+00  0.00000000000E+00 -0.10230314669E+04  0.10230314669E+04  0.50400001928E-02 0.  1.
    10030    2    1    2    0    0  0.00000000000E+00  0.00000000000E+00  0.62422803416E+03  0.26702909680E+04  0.25963037602E+04 0.  0.
        4    1    3    3  502    0 -0.23222566103E+03 -0.10902420467E+04 -0.37215758627E+03  0.11751848194E+04  0.12699999809E+01 0.  1.
       -4    1    3    3    0  502  0.23222566103E+03  0.10902420467E+04  0.99638562043E+03  0.14951061486E+04  0.12699999809E+01 0. -1.
</event>
<event>
 5   0  0.3499642E-05  0.2534237E+04  0.7818609E-02  0.8390889E-01
       -2   -1    0    0    0  501  0.00000000000E+00  0.00000000000E+00  0.86786313589E+03  0.86786313590E+03  0.25500000920E-02 0.  1.
        2   -1    0    0  501    0  0.00000000000E+00  0.00000000000E+00 -0.18500484573E+04  0.18500484573E+04  0.25500000920E-02 0. -1.
    10030    2    1    2    0    0  0.00000000000E+00  0.00000000000E+00 -0.98218532140E+03  0.27179115932E+04  0.25342366549E+04 0.  0.
        2    1    3    3  502    0  0.61969750257E+03  0.38336656462E+02 -0.16757284046E+04  0.17870535470E+04  0.25500000920E-02 0. -1.
       -2    1    3    3    0  502 -0.61969750257E+03 -0.38336656462E+02  0.69354308318E+03  0.93085804619E+03  0.25500000920E-02 0.  1.
</event>
<event>
 5   0  0.1451052E-05  0.2615691E+04  0.7818609E-02  0.8362891E-01
        1   -1    0    0  501    0  0.00000000000E+00  0.00000000000E+00  0.15873632128E+04  0.15873632128E+04  0.50400001928E-02 0. -1.
       -1   -1    0    0    0  501  0.00000000000E+00  0.00000000000E+00 -0.10775479718E+04  0.10775479718E+04  0.50400001928E-02 0.  1.
    10030    2    1    2    0    0  0.00000000000E+00  0.00000000000E+00  0.50981524097E+03  0.26649111846E+04  0.26156911212E+04 0.  0.
        1    1    3    3  502    0 -0.10617117884E+04 -0.17906593514E+03 -0.50146621623E+03  0.11877562447E+04  0.50400001928E-02 0.  1.
       -1    1    3    3    0  502  0.10617117884E+04  0.17906593514E+03  0.10112814572E+04  0.14771549399E+04  0.50400001928E-02 0. -1.
</event>
<event>
 5   0  0.3441646E-05  0.2783342E+04  0.7818609E-02  0.8308459E-01
        2   -1    0    0  501    0  0.00000000000E+00  0.00000000000E+00  0.11159979690E+04  0.11159979690E+04  0.25500000920E-02 0.  1.
       -2   -1    0    0    0  501  0.00000000000E+00  0.00000000000E+00 -0.17354405471E+04  0.17354405471E+04  0.25500000920E-02 0. -1.
    10030    2    1    2    0    0  0.00000000000E+00  0.00000000000E+00 -0.61944257807E+03  0.28514385161E+04  0.27833419667E+04 0.  0.
        4    1    3    3  502    0  0.15111375226E+03 -0.11383622001E+03 -0.17222037763E+04  0.17325650092E+04  0.12699999809E+01 0. -1.
       -4    1    3    3    0  502 -0.15111375226E+03  0.11383622001E+03  0.11027611982E+04  0.11188735069E+04  0.12699999809E+01 0.  1.
</event>
<event>
 5   0  0.1533248E-05  0.2667355E+04  0.7818609E-02  0.8345675E-01
        1   -1    0    0  501    0  0.00000000000E+00  0.00000000000E+00  0.19452954704E+04  0.19452954704E+04  0.50400001928E-02 0.  1.
       -1   -1    0    0    0  501  0.00000000000E+00  0.00000000000E+00 -0.91435768522E+03  0.91435768523E+03  0.50400001928E-02 0. -1.
    10030    2    1    2    0    0  0.00000000000E+00  0.00000000000E+00  0.10309377852E+04  0.28596531557E+04  0.26673551420E+04 0.  0.
        4    1    3    3  502    0 -0.12143500576E+04 -0.13033839687E+02 -0.75524148596E+02  0.12167668032E+04  0.12699999809E+01 0.  1.
       -4    1    3    3    0  502  0.12143500576E+04  0.13033839687E+02  0.11064619338E+04  0.16428863525E+04  0.12699999809E+01 0. -1.
</event>
<event>
 5   0  0.3508470E-05  0.2606073E+04  0.7818609E-02  0.8366141E-01
       -2   -1    0    0    0  501  0.00000000000E+00  0.00000000000E+00  0.12901240449E+04  0.12901240449E+04  0.25500000920E-02 0.  1.
        2   -1    0    0  501    0  0.00000000000E+00  0.00000000000E+00 -0.13160780247E+04  0.13160780247E+04  0.25500000920E-02 0. -1.
    10030    2    1    2    0    0  0.00000000000E+00  0.00000000000E+00 -0.25953979785E+02  0.26062020696E+04  0.26060728345E+04 0.  0.
        5    1    3    3  502    0 -0.34928566119E+03 -0.45439326198E+03 -0.11832521397E+04  0.13147552722E+04  0.46999998093E+01 0. -1.
       -5    1    3    3    0  502  0.34928566119E+03  0.45439326198E+03  0.11572981599E+04  0.12914467974E+04  0.46999998093E+01 0.  1.
</event>
<event>
 5   0  0.1533248E-05  0.2525245E+04  0.7818609E-02  0.8394047E-01
       -1   -1    0    0    0  501  0.00000000000E+00  0.00000000000E+00  0.86717926305E+03  0.86717926306E+03  0.50400001928E-02 0.  1.
        1   -1    0    0  501    0  0.00000000000E+00  0.00000000000E+00 -0.18383920142E+04  0.18383920142E+04  0.50400001928E-02 0. -1.
    10030    2    1    2    0    0  0.00000000000E+00  0.00000000000E+00 -0.97121275113E+03  0.27055712772E+04  0.25252448848E+04 0.  0.
        4    1    3    3  502    0  0.44769156524E+03 -0.32555018274E+03  0.73024425094E+03  0.91633451207E+03  0.12699999809E+01 0.  1.
       -4    1    3    3    0  502 -0.44769156524E+03  0.32555018274E+03 -0.17014570021E+04  0.17892367652E+04  0.12699999809E+01 0. -1.
</event>
<event>
 5   0  0.1474554E-05  0.2707671E+04  0.7818609E-02  0.8332520E-01
        1   -1    0    0  501    0  0.00000000000E+00  0.00000000000E+00  0.16119320944E+04  0.16119320944E+04  0.50400001928E-02 0.  1.
       -1   -1    0    0    0  501  0.00000000000E+00  0.00000000000E+00 -0.11370645559E+04  0.11370645560E+04  0.50400001928E-02 0. -1.
    10030    2    1    2    0    0  0.00000000000E+00  0.00000000000E+00  0.47486753846E+03  0.27489966504E+04  0.27076712143E+04 0.  0.
        5    1    3    3  502    0  0.97649650046E+03  0.93564012344E+03  0.17418606031E+03  0.13635727812E+04  0.46999998093E+01 0. -1.
       -5    1    3    3    0  502 -0.97649650046E+03 -0.93564012344E+03  0.30068147815E+03  0.13854238692E+04  0.46999998093E+01 0.  1.
</event>
<event>
 5   0  0.3849687E-05  0.2386464E+04  0.7818609E-02  0.8444589E-01
        2   -1    0    0  501    0  0.00000000000E+00  0.00000000000E+00  0.15442338201E+04  0.15442338201E+04  0.25500000920E-02 0. -1.
       -2   -1    0    0    0  501  0.00000000000E+00  0.00000000000E+00 -0.92201234235E+03  0.92201234236E+03  0.25500000920E-02 0.  1.
    10030    2    1    2    0    0  0.00000000000E+00  0.00000000000E+00  0.62222147778E+03  0.24662461625E+04  0.23864640300E+04 0.  0.
        1    1    3    3  502    0  0.61529721624E+03  0.10221609643E+04  0.33175196717E+03  0.12383307591E+04  0.50400001928E-02 0.  1.
       -1    1    3    3    0  502 -0.61529721624E+03 -0.10221609643E+04  0.29046951060E+03  0.12279154034E+04  0.50400001928E-02 0. -1.
</event>
<event>
 5   0  0.1474554E-05  0.2034935E+04  0.7818609E-02  0.8590460E-01
        1   -1    0    0  501    0  0.00000000000E+00  0.00000000000E+00  0.99181614471E+03  0.99181614472E+03  0.50400001928E-02 0.  1.
       -1   -1    0    0    0  501  0.00000000000E+00  0.00000000000E+00 -0.10437819684E+04  0.10437819684E+04  0.50400001928E-02 0. -1.
    10030    2    1    2    0    0  0.00000000000E+00  0.00000000000E+00 -0.51965823719E+02  0.20355981132E+04  0.20349346996E+04 0.  0.
        5    1    3    3  502    0 -0.92244161375E+03 -0.42528104413E+03  0.32817376028E+02  0.10162979718E+04  0.46999998093E+01 0.  1.
       -5    1    3    3    0  502  0.92244161375E+03  0.42528104413E+03 -0.84783199748E+02  0.10193001414E+04  0.46999998093E+01 0. -1.
</event>
<event>
 5   0  0.3849687E-05  0.1657133E+04  0.7818609E-02  0.8786198E-01
       -2   -1    0    0    0  501  0.00000000000E+00  0.00000000000E+00  0.34347776383E+04  0.34347776383E+04  0.25500000920E-02 0.  1.
        2   -1    0    0  501    0  0.00000000000E+00  0.00000000000E+00 -0.19987397279E+03  0.19987397281E+03  0.25500000920E-02 0. -1.
    10030    2    1    2    0    0  0.00000000000E+00  0.00000000000E+00  0.32349036655E+04  0.36346516111E+04  0.16571332502E+04 0.  0.
        1    1    3    3  502    0 -0.82758842413E+03  0.13589033049E+02  0.17005498030E+04  0.18912844561E+04  0.50400001928E-02 0. -1.
       -1    1    3    3    0  502  0.82758842413E+03 -0.13589033049E+02  0.15343538625E+04  0.17433671550E+04  0.50400001928E-02 0.  1.
</event>
<event>
 5   0  0.1497497E-05  0.2413432E+04  0.7818609E-02  0.8434492E-01
        1   -1    0    0  501    0  0.00000000000E+00  0.00000000000E+00  0.12273113812E+04  0.12273113812E+04  0.50400001928E-02 0. -1.
       -1   -1    0    0    0  501  0.00000000000E+00  0.00000000000E+00 -0.11864662747E+04  0.11864662747E+04  0.50400001928E-02 0.  1.
    10030    2    1    2    0    0  0.00000000000E+00  0.00000000000E+00  0.40845106452E+02  0.24137776559E+04  0.24134320478E+04 0.  0.
        3    1    3    3  502    0 -0.93056395814E+03  0.65193920729E+03 -0.38607081232E+03  0.12000102885E+04  0.10100000352E+00 0.  1.
       -3    1    3    3    0  502  0.93056395814E+03 -0.65193920729E+03  0.42691591877E+03  0.12137673674E+04  0.10100000352E+00 0. -1.
</event>
<event>
 5   0  0.1474554E-05  0.2567663E+04  0.7818609E-02  0.8379269E-01
        1   -1    0    0  501    0  0.00000000000E+00  0.00000000000E+00  0.23169530418E+04  0.23169530418E+04  0.50400001928E-02 0.  1.
       -1   -1    0    0    0  501  0.00000000000E+00  0.00000000000E+00 -0.71137544975E+03  0.71137544977E+03  0.50400001928E-02 0. -1.
    10030    2    1    2    0    0  0.00000000000E+00  0.00000000000E+00  0.16055775920E+04  0.30283284915E+04  0.25676631494E+04 0.  0.
        5    1    3    3  502    0  0.18461954591E+03  0.67102972174E+03 -0.46957369345E+03  0.83957537349E+03  0.46999998093E+01 0. -1.
       -5    1    3    3    0  502 -0.18461954591E+03 -0.67102972174E+03  0.20751512855E+04  0.21887531180E+04  0.46999998093E+01 0.  1.
</event>
<event>
 5   0  0.3441646E-05  0.2858245E+04  0.7818609E-02  0.8285410E-01
        2   -1    0    0  501    0  0.00000000000E+00  0.00000000000E+00  0.14133177231E+04  0.14133177231E+04  0.25500000920E-02 0. -1.
       -2   -1    0    0    0  501  0.00000000000E+00  0.00000000000E+00 -0.14451045210E+04  0.14451045210E+04  0.25500000920E-02 0.  1.
    10030    2    1    2    0    0  0.00000000000E+00  0.00000000000E+00 -0.31786797867E+02  0.28584222441E+04  0.28582454977E+04 0.  0.
        4    1    3    3  502    0  0.54765206645E+03 -0.54118020201E+03 -0.12199576434E+04  0.14426007977E+04  0.12699999809E+01 0.  1.
       -4    1    3    3    0  502 -0.54765206645E+03  0.54118020201E+03  0.11881708456E+04  0.14158214464E+04  0.12699999809E+01 0. -1.
</event>
<event>
 5   0  0.3499642E-05  0.2632173E+04  0.7818609E-02  0.8357354E-01
        2   -1    0    0  501    0  0.00000000000E+00  0.00000000000E+00  0.11518581108E+04  0.11518581108E+04  0.25500000920E-02 0. -1.
       -2   -1    0    0    0  501  0.00000000000E+00  0.00000000000E+00 -0.15037302020E+04  0.15037302020E+04  0.25500000920E-02 0.  1.
    10030    2    1    2    0    0  0.00000000000E+00  0.00000000000E+00 -0.35187209112E+03  0.26555883128E+04  0.26321731171E+04 0.  0.
        2    1    3    3  502    0  0.10583586167E+04  0.31034606891E+03 -0.90040904469E+03  0.14237886402E+04  0.25500000920E-02 0.  1.
       -2    1    3    3    0  502 -0.10583586167E+04 -0.31034606891E+03  0.54853695357E+03  0.12317996726E+04  0.25500000920E-02 0. -1.
</event>
<event>
 5   0  0.1533248E-05  0.2546142E+04  0.7818609E-02  0.8386729E-01
       -1   -1    0    0    0  501  0.00000000000E+00  0.00000000000E+00  0.92791322238E+03  0.92791322239E+03  0.50400001928E-02 0. -1.
        1   -1    0    0  501    0  0.00000000000E+00  0.00000000000E+00 -0.17466180600E+04  0.17466180600E+04  0.50400001928E-02 0.  1.
    10030    2    1    2    0    0  0.00000000000E+00  0.00000000000E+00 -0.81870483760E+03  0.26745312824E+04  0.25461421738E+04 0.  0.
        4    1    3    3  502    0  0.17015792416E+03 -0.12615728429E+04 -0.42377893394E+03  0.13416817637E+04  0.12699999809E+01 0. -1.
       -4    1    3    3    0  502 -0.17015792416E+03  0.12615728429E+04 -0.39492590366E+03  0.13328495187E+04  0.12699999809E+01 0.  1.
</event>
<event>
 5   0  0.3508470E-05  0.2615516E+04  0.7818609E-02  0.8362950E-01
       -2   -1    0    0    0  501  0.00000000000E+00  0.00000000000E+00  0.99912301244E+03  0.99912301244E+03  0.25500000920E-02 0. -1.
        2   -1    0    0  501    0  0.00000000000E+00  0.00000000000E+00 -0.17117321487E+04  0.17117321487E+04  0.25500000920E-02 0.  1.
    10030    2    1    2    0    0  0.00000000000E+00  0.00000000000E+00 -0.71260913625E+03  0.27108551611E+04  0.26155159957E+04 0.  0.
        5    1    3    3  502    0  0.11343419212E+04 -0.62080071705E+03 -0.55856870256E+03  0.14085972490E+04  0.46999998093E+01 0.  1.
       -5    1    3    3    0  502 -0.11343419212E+04  0.62080071705E+03 -0.15404043369E+03  0.13022579121E+04  0.46999998093E+01 0. -1.
</event>
<event>
 5   0  0.1451052E-05  0.2614855E+04  0.7818609E-02  0.8363173E-01
       -1   -1    0    0    0  501  0.00000000000E+00  0.00000000000E+00  0.32638212516E+04  0.32638212516E+04  0.50400001928E-02 0.  1.
        1   -1    0    0  501    0  0.00000000000E+00  0.00000000000E+00 -0.52373153161E+03  0.52373153164E+03  0.50400001928E-02 0. -1.
    10030    2    1    2    0    0  0.00000000000E+00  0.00000000000E+00  0.27400897200E+04  0.37875527832E+04  0.26148545681E+04 0.  0.
        1    1    3    3  502    0 -0.42406412118E+03  0.48830849558E+03  0.30158920239E+04  0.30844578561E+04  0.50400001928E-02 0.  1.
       -1    1    3    3    0  502  0.42406412118E+03 -0.48830849558E+03 -0.27580230396E+03  0.70309492718E+03  0.50400001928E-02 0. -1.
</event>
<event>
 5   0  0.3441646E-05  0.2608598E+04  0.7818609E-02  0.8365287E-01
        2   -1    0    0  501    0  0.00000000000E+00  0.00000000000E+00  0.12496561587E+04  0.12496561587E+04  0.25500000920E-02 0.  1.
       -2   -1    0    0    0  501  0.00000000000E+00  0.00000000000E+00 -0.13613309241E+04  0.13613309241E+04  0.25500000920E-02 0. -1.
    10030    2    1    2    0    0  0.00000000000E+00  0.00000000000E+00 -0.11167476541E+03  0.26109870828E+04  0.26085977638E+04 0.  0.
        4    1    3    3  502    0 -0.12724133422E+04 -0.19110978659E+03 -0.26965724426E+03  0.13146388501E+04  0.12699999809E+01 0.  1.
       -4    1    3    3    0  502  0.12724133422E+04  0.19110978659E+03  0.15798247885E+03  0.12963482327E+04  0.12699999809E+01 0. -1.
</event>
<event>
 5   0  0.1435062E-05  0.2362418E+04  0.7818609E-02  0.8453709E-01
        1   -1    0    0  501    0  0.00000000000E+00  0.00000000000E+00  0.20774107429E+04  0.20774107429E+04  0.50400001928E-02 0.  1.
       -1   -1    0    0    0  501  0.00000000000E+00  0.00000000000E+00 -0.67163144722E+03  0.67163144724E+03  0.50400001928E-02 0. -1.
    10030    2    1    2    0    0  0.00000000000E+00  0.00000000000E+00  0.14057792956E+04  0.27490421901E+04  0.23624177308E+04 0.  0.
        2    1    3    3  502    0 -0.36943137429E+03  0.40098033217E+03  0.19222268605E+04  0.19980542712E+04  0.25500000920E-02 0.  1.
       -2    1    3    3    0  502  0.36943137429E+03 -0.40098033217E+03 -0.51644756490E+03  0.75098791894E+03  0.25500000920E-02 0. -1.
</event>
<event>
 5   0  0.1435062E-05  0.2743266E+04  0.7818609E-02  0.8321102E-01
        1   -1    0    0  501    0  0.00000000000E+00  0.00000000000E+00  0.12476357826E+04  0.12476357826E+04  0.50400001928E-02 0.  1.
       -1   -1    0    0    0  501  0.00000000000E+00  0.00000000000E+00 -0.15079542590E+04  0.15079542590E+04  0.50400001928E-02 0. -1.
    10030    2    1    2    0    0  0.00000000000E+00  0.00000000000E+00 -0.26031847637E+03  0.27555900416E+04  0.27432664414E+04 0.  0.
        2    1    3    3  502    0 -0.98192154348E+03 -0.65045147230E+03 -0.83625421322E+03  0.14444992712E+04  0.25500000920E-02 0. -1.
       -2    1    3    3    0  502  0.98192154348E+03  0.65045147230E+03  0.57593573684E+03  0.13110907704E+04  0.25500000920E-02 0.  1.
</event>
<event>
 5   0  0.3499642E-05  0.2606642E+04  0.7818609E-02  0.8365948E-01
        2   -1    0    0  501    0  0.00000000000E+00  0.00000000000E+00  0.16528156895E+04  0.16528156895E+04  0.25500000920E-02 0. -1.
       -2   -1    0    0    0  501  0.00000000000E+00  0.00000000000E+00 -0.10277286805E+04  0.10277286805E+04  0.25500000920E-02 0.  1.
    10030    2    1    2    0    0  0.00000000000E+00  0.00000000000E+00  0.62508700907E+03  0.26805443700E+04  0.26066423519E+04 0.  0.
        2    1    3    3  502    0 -0.27494949102E+03  0.54056749832E+03  0.14988687304E+04  0.16169161740E+04  0.25500000920E-02 0. -1.
       -2    1    3    3    0  502  0.27494949102E+03 -0.54056749832E+03 -0.87378172129E+03  0.10636281960E+04  0.25500000920E-02 0.  1.
</event>
<event>
 5   0  0.1474554E-05  0.2663858E+04  0.7818609E-02  0.8346828E-01
        1   -1    0    0  501    0  0.00000000000E+00  0.00000000000E+00  0.16512746853E+04  0.16512746853E+04  0.50400001928E-02 0.  1.
       -1   -1    0    0    0  501  0.00000000000E+00  0.00000000000E+00 -0.10743430650E+04  0.10743430650E+04  0.50400001928E-02 0. -1.
    10030    2    1    2    0    0  0.00000000000E+00  0.00000000000E+00  0.57693162028E+03  0.27256177504E+04  0.26638584847E+04 0.  0.
        5    1    3    3  502    0  0.12797623464E+04 -0.36864655542E+03  0.30681109269E+03  0.13666920219E+04  0.46999998093E+01 0. -1.
       -5    1    3    3    0  502 -0.12797623464E+04  0.36864655542E+03  0.27012052759E+03  0.13589257285E+04  0.46999998093E+01 0.  1.
</event>
<event>
 5   0  0.1451052E-05  0.2584968E+04  0.7818609E-02  0.8373325E-01
       -1   -1    0    0    0  501  0.00000000000E+00  0.00000000000E+00  0.11189215891E+04  0.11189215891E+04  0.50400001928E-02 0. -1.
        1   -1    0    0  501    0  0.00000000000E+00  0.00000000000E+00 -0.14929683848E+04  0.14929683848E+04  0.50400001928E-02 0.  1.
    10030    2    1    2    0    0  0.00000000000E+00  0.00000000000E+00 -0.37404679570E+03  0.26118899738E+04  0.25849677425E+04 0.  0.
        1    1    3    3  502    0 -0.19372252388E+03  0.37475241276E+03  0.10473988059E+04  0.11291643130E+04  0.50400001928E-02 0. -1.
       -1    1    3    3    0  502  0.19372252388E+03 -0.37475241276E+03 -0.14214456016E+04  0.14827256609E+04  0.50400001928E-02 0.  1.
</event>
<event>
 5   0  0.1474554E-05  0.2562773E+04  0.7818609E-02  0.8380957E-01
       -1   -1    0    0    0  501  0.00000000000E+00  0.00000000000E+00  0.94474049243E+03  0.94474049245E+03  0.50400001928E-02 0. -1.
        1   -1    0    0  501    0  0.00000000000E+00  0.00000000000E+00 -0.17379921232E+04  0.17379921232E+04  0.50400001928E-02 0.  1.
    10030    2    1    2    0    0  0.00000000000E+00  0.00000000000E+00 -0.79325163077E+03  0.26827326157E+04  0.25627731342E+04 0.  0.
        5    1    3    3  502    0 -0.58848761540E+03  0.10414926354E+04  0.84114475342E+02  0.11992172105E+04  0.46999998093E+01 0. -1.
       -5    1    3    3    0  502  0.58848761540E+03 -0.10414926354E+04 -0.87736610612E+03  0.14835154051E+04  0.46999998093E+01 0.  1.
</event>
<event>
 5   0  0.3499642E-05  0.2656149E+04  0.7818609E-02  0.8349375E-01
       -2   -1    0    0    0  501  0.00000000000E+00  0.00000000000E+00  0.80698556967E+03  0.80698556967E+03  0.25500000920E-02 0. -1.
        2   -1    0    0  501    0  0.00000000000E+00  0.00000000000E+00 -0.21856420967E+04  0.21856420967E+04  0.25500000920E-02 0.  1.
    10030    2    1    2    0    0  0.00000000000E+00  0.00000000000E+00 -0.13786565271E+04  0.29926276664E+04  0.26561488155E+04 0.  0.
        2    1    3    3  502    0  0.81993242507E+03  0.56799565921E+02  0.48602350602E+03  0.95484774744E+03  0.25500000920E-02 0. -1.
       -2    1    3    3    0  502 -0.81993242507E+03 -0.56799565921E+02 -0.18646800331E+04  0.20377799190E+04  0.25500000920E-02 0.  1.
</event>
<event>
 5   0  0.3499642E-05  0.2495933E+04  0.7818609E-02  0.8404436E-01
       -2   -1    0    0    0  501  0.00000000000E+00  0.00000000000E+00  0.65487982987E+03  0.65487982987E+03  0.25500000920E-02 0. -1.
        2   -1    0    0  501    0  0.00000000000E+00  0.00000000000E+00 -0.23781779203E+04  0.23781779203E+04  0.25500000920E-02 0.  1.
    10030    2    1    2    0    0  0.00000000000E+00  0.00000000000E+00 -0.17232980904E+04  0.30330577502E+04  0.24959332939E+04 0.  0.
        2    1    3    3  502    0  0.26706315867E+03 -0.12181482396E+04 -0.80448441816E+03  0.14840495421E+04  0.25500000920E-02 0. -1.
       -2    1    3    3    0  502 -0.26706315867E+03  0.12181482396E+04 -0.91881367225E+03  0.15490082081E+04  0.25500000920E-02 0.  1.
</event>
<event>
 5   0  0.1451052E-05  0.2103585E+04  0.7818609E-02  0.8559666E-01
        1   -1    0    0  501    0  0.00000000000E+00  0.00000000000E+00  0.11206680459E+04  0.11206680459E+04  0.50400001928E-02 0. -1.
       -1   -1    0    0    0  501  0.00000000000E+00  0.00000000000E+00 -0.98714998529E+03  0.98714998531E+03  0.50400001928E-02 0.  1.
    10030    2    1    2    0    0  0.00000000000E+00  0.00000000000E+00  0.13351806061E+03  0.21078180312E+04  0.21035849829E+04 0.  0.
        1    1    3    3  502    0  0.52616530038E+03  0.51699518160E+03  0.81802339454E+03  0.11014972606E+04  0.50400001928E-02 0. -1.
       -1    1    3    3    0  502 -0.52616530038E+03 -0.51699518160E+03 -0.68450533393E+03  0.10063207706E+04  0.50400001928E-02 0.  1.
</event>
<event>
 5   0  0.3647623E-05  0.2603346E+04  0.7818609E-02  0.8367066E-01
        2   -1    0    0  501    0  0.00000000000E+00  0.00000000000E+00  0.21444680750E+04  0.21444680750E+04  0.25500000920E-02 0.  1.
       -2   -1    0    0    0  501  0.00000000000E+00  0.00000000000E+00 -0.79010365610E+03  0.79010365610E+03  0.25500000920E-02 0. -1.
    10030    2    1    2    0    0  0.00000000000E+00  0.00000000000E+00  0.13543644189E+04  0.29345717311E+04  0.26033455909E+04 0.  0.
        3    1    3    3  502    0 -0.90627896932E+03 -0.77227161025E+03  0.84332617910E+02  0.11936737456E+04  0.10100000352E+00 0. -1.
       -3    1    3    3    0  502  0.90627896932E+03  0.77227161025E+03  0.12700318009E+04  0.17408979855E+04  0.10100000352E+00 0.  1.
</event>
<event>
 5   0  0.3647623E-05  0.2616702E+04  0.7818609E-02  0.8362550E-01
        2   -1    0    0  501    0  0.00000000000E+00  0.00000000000E+00  0.11498639938E+04  0.11498639938E+04  0.25500000920E-02 0. -1.
       -2   -1    0    0    0  501  0.00000000000E+00  0.00000000000E+00 -0.14886826382E+04  0.14886826383E+04  0.25500000920E-02 0.  1.
    10030    2    1    2    0    0  0.00000000000E+00  0.00000000000E+00 -0.33881864443E+03  0.26385466321E+04  0.26167021718E+04 0.  0.
        3    1    3    3  502    0  0.95819103487E+02 -0.38300380620E+03 -0.14271833505E+04  0.14807854478E+04  0.10100000352E+00 0.  1.
       -3    1    3    3    0  502 -0.95819103487E+02  0.38300380620E+03  0.10883647061E+04  0.11577611843E+04  0.10100000352E+00 0. -1.
</event>
<event>
 5   0  0.3441646E-05  0.2641855E+04  0.7818609E-02  0.8354121E-01
       -2   -1    0    0    0  501  0.00000000000E+00  0.00000000000E+00  0.11562665894E+04  0.11562665894E+04  0.25500000920E-02 0.  1.
        2   -1    0    0  501    0  0.00000000000E+00  0.00000000000E+00 -0.15090374960E+04  0.15090374960E+04  0.25500000920E-02 0. -1.
    10030    2    1    2    0    0  0.00000000000E+00  0.00000000000E+00 -0.35277090657E+03  0.26653040853E+04  0.26418551351E+04 0.  0.
        4    1    3    3  502    0 -0.77067330751E+03 -0.10211771443E+04 -0.50810152898E+03  0.13765568944E+04  0.12699999809E+01 0. -1.
       -4    1    3    3    0  502  0.77067330751E+03  0.10211771443E+04  0.15533062241E+03  0.12887471909E+04  0.12699999809E+01 0.  1.
</event>
<event>
 5   0  0.1533248E-05  0.2622804E+04  0.7818609E-02  0.8360496E-01
        1   -1    0    0  501    0  0.00000000000E+00  0.00000000000E+00  0.12112140597E+04  0.12112140598E+04  0.50400001928E-02 0. -1.
       -1   -1    0    0    0  501  0.00000000000E+00  0.00000000000E+00 -0.14198772101E+04  0.14198772101E+04  0.50400001928E-02 0.  1.
    10030    2    1    2    0    0  0.00000000000E+00  0.00000000000E+00 -0.20866315036E+03  0.26310912699E+04  0.26228040263E+04 0.  0.
        4    1    3    3  502    0  0.29953388770E+03 -0.12749510428E+04 -0.17202007323E+03  0.13209137859E+04  0.12699999809E+01 0.  1.
       -4    1    3    3    0  502 -0.29953388770E+03  0.12749510428E+04 -0.36643077136E+02  0.13101774839E+04  0.12699999809E+01 0. -1.
</event>
<event>
 5   0  0.1533248E-05  0.2588003E+04  0.7818609E-02  0.8372288E-01
       -1   -1    0    0    0  501  0.00000000000E+00  0.00000000000E+00  0.24673592278E+04  0.24673592278E+04  0.50400001928E-02 0.  1.
        1   -1    0    0  501    0  0.00000000000E+00  0.00000000000E+00 -0.67863651811E+03  0.67863651813E+03  0.50400001928E-02 0. -1.
    10030    2    1    2    0    0  0.00000000000E+00  0.00000000000E+00  0.17887227097E+04  0.31459957459E+04  0.25880031494E+04 0.  0.
        4    1    3    3  502    0 -0.88210195733E+03  0.72419176415E+03  0.15305920399E+03  0.11515147881E+04  0.12699999809E+01 0. -1.
       -4    1    3    3    0  502  0.88210195733E+03 -0.72419176415E+03  0.16356635057E+04  0.19944809578E+04  0.12699999809E+01 0.  1.
</event>
<event>
 5   0  0.3508470E-05  0.2546921E+04  0.7818609E-02  0.8386458E-01
        2   -1    0    0  501    0  0.00000000000E+00  0.00000000000E+00  0.21139455237E+04  0.21139455237E+04  0.25500000920E-02 0.  1.
       -2   -1    0    0    0  501  0.00000000000E+00  0.00000000000E+00 -0.76714421445E+03  0.76714421445E+03  0.25500000920E-02 0. -1.
    10030    2    1    2    0    0  0.00000000000E+00  0.00000000000E+00  0.13468013092E+04  0.28810897381E+04  0.25469205548E+04 0.  0.
        5    1    3    3  502    0 -0.12640082999E+03  0.59211979992E+03  0.19407018752E+04  0.20329606208E+04  0.46999998093E+01 0.  1.
       -5    1    3    3    0  502  0.12640082999E+03 -0.59211979992E+03 -0.59390056602E+03  0.84812911729E+03  0.46999998093E+01 0. -1.
</event>
<event>
 5   0  0.1533248E-05  0.2592981E+04  0.7818609E-02  0.8370589E-01
       -1   -1    0    0    0  501  0.00000000000E+00  0.00000000000E+00  0.15196972285E+04  0.15196972285E+04  0.50400001928E-02 0.  1.
        1   -1    0    0  501    0  0.00000000000E+00  0.00000000000E+00 -0.11060677043E+04  0.11060677043E+04  0.50400001928E-02 0. -1.
    10030    2    1    2    0    0  0.00000000000E+00  0.00000000000E+00  0.41362952416E+03  0.26257649328E+04  0.25929813149E+04 0.  0.
        4    1    3    3  502    0  0.21181450427E+03 -0.70602412282E+02 -0.10864524696E+04  0.11091576383E+04  0.12699999809E+01 0. -1.
       -4    1    3    3    0  502 -0.21181450427E+03  0.70602412282E+02  0.15000819938E+04  0.15166072946E+04  0.12699999809E+01 0.  1.
</event>
<event>
 5   0  0.3647623E-05  0.2563609E+04  0.7818609E-02  0.8380668E-01
        2   -1    0    0  501    0  0.00000000000E+00  0.00000000000E+00  0.21963832926E+04  0.21963832926E+04  0.25500000920E-02 0. -1.
       -2   -1    0    0    0  501  0.00000000000E+00  0.00000000000E+00 -0.74805834886E+03  0.74805834886E+03  0.25500000920E-02 0.  1.
    10030    2    1    2    0    0  0.00000000000E+00  0.00000000000E+00  0.14483249438E+04  0.29444416415E+04  0.25636090648E+04 0.  0.
        3    1    3    3  502    0  0.99469655243E+03  0.74414205577E+03  0.10871020760E+04  0.16507451543E+04  0.10100000352E+00 0. -1.
       -3    1    3    3    0  502 -0.99469655243E+03 -0.74414205577E+03  0.36122286778E+03  0.12936964872E+04  0.10100000352E+00 0.  1.
</event>
<event>
 5   0  0.3508470E-05  0.2626009E+04  0.7818609E-02  0.8359420E-01
        2   -1    0    0  501    0  0.00000000000E+00  0.00000000000E+00  0.13683637054E+04  0.13683637054E+04  0.25500000920E-02 0. -1.
       -2   -1    0    0    0  501  0.00000000000E+00  0.00000000000E+00 -0.12598850732E+04  0.12598850732E+04  0.25500000920E-02 0.  1.
    10030    2    1    2    0    0  0.00000000000E+00  0.00000000000E+00  0.10847863221E+03  0.26282487786E+04  0.26260091448E+04 0.  0.
        5    1    3    3  502    0 -0.10802600809E+04  0.55198869751E+03 -0.44848933998E+03  0.12933747109E+04  0.46999998093E+01 0.  1.
       -5    1    3    3    0  502  0.10802600809E+04 -0.55198869751E+03  0.55696797218E+03  0.13348740677E+04  0.46999998093E+01 0. -1.
</event>
<event>
 5   0  0.1533248E-05  0.2624787E+04  0.7818609E-02  0.8359830E-01
        1   -1    0    0  501    0  0.00000000000E+00  0.00000000000E+00  0.17137868280E+04  0.17137868280E+04  0.50400001928E-02 0. -1.
       -1   -1    0    0    0  501  0.00000000000E+00  0.00000000000E+00 -0.10050125544E+04  0.10050125545E+04  0.50400001928E-02 0.  1.
    10030    2    1    2    0    0  0.00000000000E+00  0.00000000000E+00  0.70877427359E+03  0.27187993825E+04  0.26247874412E+04 0.  0.
        4    1    3    3  502    0 -0.83674460565E+03  0.99486011446E+03  0.16768854050E+03  0.13107285157E+04  0.12699999809E+01 0.  1.
       -4    1    3    3    0  502  0.83674460565E+03 -0.99486011446E+03  0.54108573309E+03  0.14080708668E+04  0.12699999809E+01 0. -1.
</event>
<event>
 5   0  0.1497497E-05  0.2545225E+04  0.7818609E-02  0.8387049E-01
        1   -1    0    0  501    0  0.00000000000E+00  0.00000000000E+00  0.23835539248E+04  0.23835539248E+04  0.50400001928E-02 0. -1.
       -1   -1    0    0    0  501  0.00000000000E+00  0.00000000000E+00 -0.67946543029E+03  0.67946543031E+03  0.50400001928E-02 0.  1.
    10030    2    1    2    0    0  0.00000000000E+00  0.00000000000E+00  0.17040884945E+04  0.30630193551E+04  0.25452249356E+04 0.  0.
        3    1    3    3  502    0 -0.63113721443E+03 -0.78450392217E+03  0.17886882299E+04  0.20526047309E+04  0.10100000352E+00 0. -1.
       -3    1    3    3    0  502  0.63113721443E+03  0.78450392217E+03 -0.84599735411E+02  0.10104146242E+04  0.10100000352E+00 0.  1.
</event>
<event>
 5   0  0.1533248E-05  0.2653641E+04  0.7818609E-02  0.8350206E-01
        1   -1    0    0  501    0  0.00000000000E+00  0.00000000000E+00  0.11832736439E+04  0.11832736439E+04  0.50400001928E-02 0. -1.
       -1   -1    0    0    0  501  0.00000000000E+00  0.00000000000E+00 -0.14877810573E+04  0.14877810573E+04  0.50400001928E-02 0.  1.
    10030    2    1    2    0    0  0.00000000000E+00  0.00000000000E+00 -0.30450741336E+03  0.26710547012E+04  0.26536406034E+04 0.  0.
        4    1    3    3  502    0  0.11896769450E+01 -0.56623199588E+03 -0.13600573897E+04  0.14732202160E+04  0.12699999809E+01 0.  1.
       -4    1    3    3    0  502 -0.11896769450E+01  0.56623199588E+03  0.10555499763E+04  0.11978344852E+04  0.12699999809E+01 0. -1.
</event>
<event>
 5   0  0.3508470E-05  0.2580621E+04  0.7818609E-02  0.8374814E-01
        2   -1    0    0  501    0  0.00000000000E+00  0.00000000000E+00  0.15011680428E+04  0.15011680428E+04  0.25500000920E-02 0. -1.
       -2   -1    0    0    0  501  0.00000000000E+00  0.00000000000E+00 -0.11090704484E+04  0.11090704484E+04  0.25500000920E-02 0.  1.
    10030    2    1    2    0    0  0.00000000000E+00  0.00000000000E+00  0.39209759436E+03  0.26102384912E+04  0.25806209442E+04 0.  0.
        5    1    3    3  502    0 -0.12007917831E+04 -0.43096336124E+03  0.83454237142E+00  0.12757950900E+04  0.46999998093E+01 0. -1.
       -5    1    3    3    0  502  0.12007917831E+04  0.43096336124E+03  0.39126305198E+03  0.13344434012E+04  0.46999998093E+01 0.  1.
</event>
<event>
 5   0  0.1533248E-05  0.1768065E+04  0.7818609E-02  0.8723469E-01
       -1   -1    0    0    0  501  0.00000000000E+00  0.00000000000E+00  0.12934257874E+04  0.12934257874E+04  0.50400001928E-02 0.  1.
        1   -1    0    0  501    0  0.00000000000E+00  0.00000000000E+00 -0.60421986858E+03  0.60421986860E+03  0.50400001928E-02 0. -1.
    10030    2    1    2    0    0  0.00000000000E+00  0.00000000000E+00  0.68920591878E+03  0.18976456560E+04  0.17680651111E+04 0.  0.
        4    1    3    3  502    0  0.29452916607E+03 -0.23627051158E+03 -0.51331777475E+03  0.63723459972E+03  0.12699999809E+01 0. -1.
       -4    1    3    3    0  502 -0.29452916607E+03  0.23627051158E+03  0.12025236935E+04  0.12604110563E+04  0.12699999809E+01 0.  1.
</event>
<event>
 5   0  0.1435062E-05  0.2514081E+04  0.7818609E-02  0.8397986E-01
       -1   -1    0    0    0  501  0.00000000000E+00  0.00000000000E+00  0.11510666222E+04  0.11510666222E+04  0.50400001928E-02 0.  1.
        1   -1    0    0  501    0  0.00000000000E+00  0.00000000000E+00 -0.13727706610E+04  0.13727706610E+04  0.50400001928E-02 0. -1.
    10030    2    1    2    0    0  0.00000000000E+00  0.00000000000E+00 -0.22170403876E+03  0.25238372832E+04  0.25140807368E+04 0.  0.
        2    1    3    3  502    0 -0.41294240270E+03  0.10873293377E+04  0.36780436088E+03  0.12198715360E+04  0.25500000920E-02 0.  1.
       -2    1    3    3    0  502  0.41294240270E+03 -0.10873293377E+04 -0.58950839964E+03  0.13039657472E+04  0.25500000920E-02 0. -1.
</event>
<event>
 5   0  0.1474554E-05  0.2605085E+04  0.7818609E-02  0.8366476E-01
       -1   -1    0    0    0  501  0.00000000000E+00  0.00000000000E+00  0.12730437227E+04  0.12730437227E+04  0.50400001928E-02 0. -1.
        1   -1    0    0  501    0  0.00000000000E+00  0.00000000000E+00 -0.13327251418E+04  0.13327251418E+04  0.50400001928E-02 0.  1.
    10030    2    1    2    0    0  0.00000000000E+00  0.00000000000E+00 -0.59681419127E+02  0.26057688645E+04  0.26050853159E+04 0.  0.
        5    1    3    3  502    0  0.36736939301E+02  0.12881571919E+04  0.15967333347E+03  0.12985438834E+04  0.46999998093E+01 0. -1.
       -5    1    3    3    0  502 -0.36736939301E+02 -0.12881571919E+04 -0.21935475260E+03  0.13072249811E+04  0.46999998093E+01 0.  1.
</event>
<event>
 5   0  0.3499642E-05  0.2543236E+04  0.7818609E-02  0.8387743E-01
       -2   -1    0    0    0  501  0.00000000000E+00  0.00000000000E+00  0.71650813752E+03  0.71650813753E+03  0.25500000920E-02 0. -1.
        2   -1    0    0  501    0  0.00000000000E+00  0.00000000000E+00 -0.22567946999E+04  0.22567946999E+04  0.25500000920E-02 0.  1.
    10030    2    1    2    0    0  0.00000000000E+00  0.00000000000E+00 -0.15402865624E+04  0.29733028374E+04  0.25432355512E+04 0.  0.
        2    1    3    3  502    0 -0.10290382489E+04  0.59917660454E+03 -0.12917771374E+04  0.17568780533E+04  0.25500000920E-02 0.  1.
       -2    1    3    3    0  502  0.10290382489E+04 -0.59917660454E+03 -0.24850942492E+03  0.12164247842E+04  0.25500000920E-02 0. -1.
</event>
<event>
 5   0  0.3441646E-05  0.2629908E+04  0.7818609E-02  0.8358113E-01
        2   -1    0    0  501    0  0.00000000000E+00  0.00000000000E+00  0.17140583637E+04  0.17140583637E+04  0.25500000920E-02 0. -1.
       -2   -1    0    0    0  501  0.00000000000E+00  0.00000000000E+00 -0.10087775779E+04  0.10087775779E+04  0.25500000920E-02 0.  1.
    10030    2    1    2    0    0  0.00000000000E+00  0.00000000000E+00  0.70528078583E+03  0.27228359416E+04  0.26299077128E+04 0.  0.
        4    1    3    3  502    0 -0.15807786250E+03  0.80969167345E+03  0.14127916614E+04  0.16360229546E+04  0.12699999809E+01 0. -1.
       -4    1    3    3    0  502  0.15807786250E+03 -0.80969167345E+03 -0.70751087555E+03  0.10868129869E+04  0.12699999809E+01 0.  1.
</event>
<event>
 5   0  0.3647623E-05  0.2553425E+04  0.7818609E-02  0.8384196E-01
        2   -1    0    0  501    0  0.00000000000E+00  0.00000000000E+00  0.23617305679E+04  0.23617305679E+04  0.25500000920E-02 0.  1.
       -2   -1    0    0    0  501  0.00000000000E+00  0.00000000000E+00 -0.69016946691E+03  0.69016946692E+03  0.25500000920E-02 0. -1.
    10030    2    1    2    0    0  0.00000000000E+00  0.00000000000E+00  0.16715611010E+04  0.30519000348E+04  0.25534246236E+04 0.  0.
        3    1    3    3  502    0 -0.79798541417E+03  0.52425328737E+03  0.18488098031E+04  0.20807979068E+04  0.10100000352E+00 0.  1.
       -3    1    3    3    0  502  0.79798541417E+03 -0.52425328737E+03 -0.17724870209E+03  0.97110212807E+03  0.10100000352E+00 0. -1.
</event>
<event>
 5   0  0.1451052E-05  0.2622939E+04  0.7818609E-02  0.8360451E-01
       -1   -1    0    0    0  501  0.00000000000E+00  0.00000000000E+00  0.10415097399E+04  0.10415097399E+04  0.50400001928E-02 0. -1.
        1   -1    0    0  501    0  0.00000000000E+00  0.00000000000E+00 -0.16514032330E+04  0.16514032330E+04  0.50400001928E-02 0.  1.
    10030    2    1    2    0    0  0.00000000000E+00  0.00000000000E+00 -0.60989349307E+03  0.26929129729E+04  0.26229392305E+04 0.  0.
        1    1    3    3  502    0 -0.61032504854E+03 -0.72579745413E+03 -0.12350248324E+04  0.15571014565E+04  0.50400001928E-02 0.  1.
       -1    1    3    3    0  502  0.61032504854E+03  0.72579745413E+03  0.62513133934E+03  0.11358115164E+04  0.50400001928E-02 0. -1.
</event>
<event>
 5   0  0.1497497E-05  0.2128319E+04  0.7818609E-02  0.8548870E-01
       -1   -1    0    0    0  501  0.00000000000E+00  0.00000000000E+00  0.87652389503E+03  0.87652389505E+03  0.50400001928E-02 0. -1.
        1   -1    0    0  501    0  0.00000000000E+00  0.00000000000E+00 -0.12919616417E+04  0.12919616417E+04  0.50400001928E-02 0.  1.
    10030    2    1    2    0    0  0.00000000000E+00  0.00000000000E+00 -0.41543774662E+03  0.21684855367E+04  0.21283188205E+04 0.  0.
        3    1    3    3  502    0  0.17470279689E+03 -0.27174893986E+03  0.82535288147E+03  0.88632722101E+03  0.10100000352E+00 0. -1.
       -3    1    3    3    0  502 -0.17470279689E+03  0.27174893986E+03 -0.12407906281E+04  0.12821583157E+04  0.10100000352E+00 0.  1.
</event>
<event>
 5   0  0.1474554E-05  0.1813251E+04  0.7818609E-02  0.8699284E-01
        1   -1    0    0  501    0  0.00000000000E+00  0.00000000000E+00  0.10621815688E+04  0.10621815688E+04  0.50400001928E-02 0. -1.
       -1   -1    0    0    0  501  0.00000000000E+00  0.00000000000E+00 -0.77385031218E+03  0.77385031219E+03  0.50400001928E-02 0.  1.
    10030    2    1    2    0    0  0.00000000000E+00  0.00000000000E+00  0.28833125661E+03  0.18360318810E+04  0.18132507147E+04 0.  0.
        5    1    3    3  502    0 -0.63607445755E+03  0.61940474085E+03 -0.41701192003E+02  0.88882733304E+03  0.46999998093E+01 0. -1.
       -5    1    3    3    0  502  0.63607445755E+03 -0.61940474085E+03  0.33003244862E+03  0.94720454796E+03  0.46999998093E+01 0.  1.
</event>
<event>
 5   0  0.1474554E-05  0.2631415E+04  0.7818609E-02  0.8357608E-01
        1   -1    0    0  501    0  0.00000000000E+00  0.00000000000E+00  0.11868904505E+04  0.11868904505E+04  0.50400001928E-02 0.  1.
       -1   -1    0    0    0  501  0.00000000000E+00  0.00000000000E+00 -0.14585054705E+04  0.14585054705E+04  0.50400001928E-02 0. -1.
    10030    2    1    2    0    0  0.00000000000E+00  0.00000000000E+00 -0.27161501997E+03  0.26453959210E+04  0.26314149919E+04 0.  0.
        5    1    3    3  502    0 -0.23370002177E+03  0.98971467466E+03 -0.97505626830E+03  0.14088675075E+04  0.46999998093E+01 0. -1.
       -5    1    3    3    0  502  0.23370002177E+03 -0.98971467466E+03  0.70344124833E+03  0.12365284134E+04  0.46999998093E+01 0.  1.
</event>
<event>
 5   0  0.3499642E-05  0.2581391E+04  0.7818609E-02  0.8374550E-01
       -2   -1    0    0    0  501  0.00000000000E+00  0.00000000000E+00  0.58845115340E+03  0.58845115341E+03  0.25500000920E-02 0.  1.
        2   -1    0    0  501    0  0.00000000000E+00  0.00000000000E+00 -0.28309832727E+04  0.28309832727E+04  0.25500000920E-02 0. -1.
    10030    2    1    2    0    0  0.00000000000E+00  0.00000000000E+00 -0.22425321193E+04  0.34194344261E+04  0.25813913861E+04 0.  0.
        2    1    3    3  502    0 -0.58010942282E+03  0.10105890059E+04 -0.18565091830E+04  0.21919040645E+04  0.25500000920E-02 0. -1.
       -2    1    3    3    0  502  0.58010942282E+03 -0.10105890059E+04 -0.38602293631E+03  0.12275303616E+04  0.25500000920E-02 0.  1.
</event>
<event>
 5   0  0.3499642E-05  0.2593560E+04  0.7818609E-02  0.8370392E-01
        2   -1    0    0  501    0  0.00000000000E+00  0.00000000000E+00  0.20532202941E+04  0.20532202941E+04  0.25500000920E-02 0. -1.
       -2   -1    0    0    0  501  0.00000000000E+00  0.00000000000E+00 -0.81902470418E+03  0.81902470418E+03  0.25500000920E-02 0.  1.
    10030    2    1    2    0    0  0.00000000000E+00  0.00000000000E+00  0.12341955899E+04  0.28722449983E+04  0.25935598270E+04 0.  0.
        2    1    3    3  502    0 -0.30464315893E+03  0.22098287021E+03  0.19914093103E+04  0.20266602884E+04  0.25500000920E-02 0. -1.
       -2    1    3    3    0  502  0.30464315893E+03 -0.22098287021E+03 -0.75721372042E+03  0.84558470989E+03  0.25500000920E-02 0.  1.
</event>
<event>
 5   0  0.1497497E-05  0.2571914E+04  0.7818609E-02  0.8377804E-01
       -1   -1    0    0    0  501  0.00000000000E+00  0.00000000000E+00  0.86957352998E+03  0.86957353000E+03  0.50400001928E-02 0. -1.
        1   -1    0    0  501    0  0.00000000000E+00  0.00000000000E+00 -0.19017202863E+04  0.19017202863E+04  0.50400001928E-02 0.  1.
    10030    2    1    2    0    0  0.00000000000E+00  0.00000000000E+00 -0.10321467563E+04  0.27712938163E+04  0.25719141684E+04 0.  0.
        3    1    3    3  502    0 -0.59338272489E+02 -0.12845358871E+04 -0.50368720332E+03  0.13810337740E+04  0.10100000352E+00 0. -1.
       -3    1    3    3    0  502  0.59338272489E+02  0.12845358871E+04 -0.52845955296E+03  0.13902600423E+04  0.10100000352E+00 0.  1.
</event>
<event>
 5   0  0.1451052E-05  0.2651665E+04  0.7818609E-02  0.8350861E-01
        1   -1    0    0  501    0  0.00000000000E+00  0.00000000000E+00  0.12948687997E+04  0.12948687997E+04  0.50400001928E-02 0.  1.
       -1   -1    0    0    0  501  0.00000000000E+00  0.00000000000E+00 -0.13575361134E+04  0.13575361134E+04  0.50400001928E-02 0. -1.
    10030    2    1    2    0    0  0.00000000000E+00  0.00000000000E+00 -0.62667313629E+02  0.26524049131E+04  0.26516645020E+04 0.  0.
        1    1    3    3  502    0  0.52727747788E+03 -0.54323728340E+03  0.10574108324E+04  0.13004791245E+04  0.50400001928E-02 0.  1.
       -1    1    3    3    0  502 -0.52727747788E+03  0.54323728340E+03 -0.11200781460E+04  0.13519257886E+04  0.50400001928E-02 0. -1.
</event>
<event>
 5   0  0.3849687E-05  0.2723433E+04  0.7818609E-02  0.8327442E-01
       -2   -1    0    0    0  501  0.00000000000E+00  0.00000000000E+00  0.10531097892E+04  0.10531097892E+04  0.25500000920E-02 0.  1.
        2   -1    0    0  501    0  0.00000000000E+00  0.00000000000E+00 -0.17607579202E+04  0.17607579202E+04  0.25500000920E-02 0. -1.
    10030    2    1    2    0    0  0.00000000000E+00  0.00000000000E+00 -0.70764813103E+03  0.28138677095E+04  0.27234326885E+04 0.  0.
        1    1    3    3  502    0  0.12202472060E+04  0.58774057971E+03 -0.20833200598E+03  0.13703446492E+04  0.50400001928E-02 0. -1.
       -1    1    3    3    0  502 -0.12202472060E+04 -0.58774057971E+03 -0.49931612505E+03  0.14435230603E+04  0.50400001928E-02 0.  1.
</event>
<event>
 5   0  0.3508470E-05  0.2612197E+04  0.7818609E-02  0.8364070E-01
        2   -1    0    0  501    0  0.00000000000E+00  0.00000000000E+00  0.14503985342E+04  0.14503985342E+04  0.25500000920E-02 0. -1.
       -2   -1    0    0    0  501  0.00000000000E+00  0.00000000000E+00 -0.11761549134E+04  0.11761549134E+04  0.25500000920E-02 0.  1.
    10030    2    1    2    0    0  0.00000000000E+00  0.00000000000E+00  0.27424362073E+03  0.26265534476E+04  0.26121970541E+04 0.  0.
        5    1    3    3  502    0 -0.95697180974E+03  0.80732428070E+03  0.51105779427E+03  0.13523201167E+04  0.46999998093E+01 0. -1.
       -5    1    3    3    0  502  0.95697180974E+03 -0.80732428070E+03 -0.23681417354E+03  0.12742333309E+04  0.46999998093E+01 0.  1.
</event>
<event>
 5   0  0.1435062E-05  0.2562926E+04  0.7818609E-02  0.8380905E-01
        1   -1    0    0  501    0  0.00000000000E+00  0.00000000000E+00  0.22428409990E+04  0.22428409990E+04  0.50400001928E-02 0.  1.
       -1   -1    0    0    0  501  0.00000000000E+00  0.00000000000E+00 -0.73217264031E+03  0.73217264033E+03  0.50400001928E-02 0. -1.
    10030    2    1    2    0    0  0.00000000000E+00  0.00000000000E+00  0.15106683586E+04  0.29750136393E+04  0.25629255284E+04 0.  0.
        2    1    3    3  502    0 -0.87737241908E+03 -0.22144732559E+03  0.18086018816E+04  0.20223407343E+04  0.25500000920E-02 0.  1.
       -2    1    3    3    0  502  0.87737241908E+03  0.22144732559E+03 -0.29793352291E+03  0.95267290496E+03  0.25500000920E-02 0. -1.
</event>
<event>
 5   0  0.1435062E-05  0.2626394E+04  0.7818609E-02  0.8359291E-01
        1   -1    0    0  501    0  0.00000000000E+00  0.00000000000E+00  0.10846145459E+04  0.10846145459E+04  0.50400001928E-02 0.  1.
       -1   -1    0    0    0  501  0.00000000000E+00  0.00000000000E+00 -0.15899532747E+04  0.15899532747E+04  0.50400001928E-02 0. -1.
    10030    2    1    2    0    0  0.00000000000E+00  0.00000000000E+00 -0.50533872885E+03  0.26745678206E+04  0.26263940672E+04 0.  0.
        2    1    3    3  502    0  0.12291592972E+04  0.11303364082E+03  0.20374480869E+03  0.12510480122E+04  0.25500000920E-02 0.  1.
       -2    1    3    3    0  502 -0.12291592972E+04 -0.11303364082E+03 -0.70908353754E+03  0.14235198084E+04  0.25500000920E-02 0. -1.
</event>
<event>
 5   0  0.1497497E-05  0.2736521E+04  0.7818609E-02  0.8323252E-01
       -1   -1    0    0    0  501  0.00000000000E+00  0.00000000000E+00  0.61219099964E+03  0.61219099966E+03  0.50400001928E-02 0.  1.
        1   -1    0    0  501    0  0.00000000000E+00  0.00000000000E+00 -0.30580927222E+04  0.30580927222E+04  0.50400001928E-02 0. -1.
    10030    2    1    2    0    0  0.00000000000E+00  0.00000000000E+00 -0.24459017225E+04  0.36702837218E+04  0.27365210327E+04 0.  0.
        3    1    3    3  502    0 -0.43245085719E+03 -0.11085636891E+04 -0.21288567300E+04  0.24388436161E+04  0.10100000352E+00 0. -1.
       -3    1    3    3    0  502  0.43245085719E+03  0.11085636891E+04 -0.31704499253E+03  0.12314401058E+04  0.10100000352E+00 0.  1.
</event>
<event>
 5   0  0.3647623E-05  0.2622317E+04  0.7818609E-02  0.8360660E-01
        2   -1    0    0  501    0  0.00000000000E+00  0.00000000000E+00  0.18119534581E+04  0.18119534581E+04  0.25500000920E-02 0. -1.
       -2   -1    0    0    0  501  0.00000000000E+00  0.00000000000E+00 -0.94877543627E+03  0.94877543628E+03  0.25500000920E-02 0.  1.
    10030    2    1    2    0    0  0.00000000000E+00  0.00000000000E+00  0.86317802181E+03  0.27607288944E+04  0.26223172445E+04 0.  0.
        3    1    3    3  502    0 -0.73107300195E+03  0.89554094658E+03 -0.21967025661E+03  0.11767397134E+04  0.10100000352E+00 0.  1.
       -3    1    3    3    0  502  0.73107300195E+03 -0.89554094658E+03  0.10828482784E+04  0.15839891810E+04  0.10100000352E+00 0. -1.
</event>
<event>
 5   0  0.1474554E-05  0.2609926E+04  0.7818609E-02  0.8364837E-01
       -1   -1    0    0    0  501  0.00000000000E+00  0.00000000000E+00  0.10515700079E+04  0.10515700079E+04  0.50400001928E-02 0. -1.
        1   -1    0    0  501    0  0.00000000000E+00  0.00000000000E+00 -0.16194157180E+04  0.16194157180E+04  0.50400001928E-02 0.  1.
    10030    2    1    2    0    0  0.00000000000E+00  0.00000000000E+00 -0.56784571014E+03  0.26709857259E+04  0.26099264353E+04 0.  0.
        5    1    3    3  502    0 -0.19583296794E+03 -0.60032853963E+03  0.88479336694E+03  0.10870263562E+04  0.46999998093E+01 0. -1.
       -5    1    3    3    0  502  0.19583296794E+03  0.60032853963E+03 -0.14526390771E+04  0.15839593698E+04  0.46999998093E+01 0.  1.
</event>
<event>
 5   0  0.1435062E-05  0.2487501E+04  0.7818609E-02  0.8407452E-01
        1   -1    0    0  501    0  0.00000000000E+00  0.00000000000E+00  0.94655614823E+03  0.94655614824E+03  0.50400001928E-02 0.  1.
       -1   -1    0    0    0  501  0.00000000000E+00  0.00000000000E+00 -0.16342557427E+04  0.16342557427E+04  0.50400001928E-02 0. -1.
    10030    2    1    2    0    0  0.00000000000E+00  0.00000000000E+00 -0.68769959446E+03  0.25808118909E+04  0.24875006099E+04 0.  0.
        2    1    3    3  502    0  0.83339871096E+03  0.90532389404E+03 -0.53160811339E+03  0.13404372237E+04  0.25500000920E-02 0. -1.
       -2    1    3    3    0  502 -0.83339871096E+03 -0.90532389404E+03 -0.15609148107E+03  0.12403746672E+04  0.25500000920E-02 0.  1.
</event>
<event>
 5   0  0.3647623E-05  0.2597069E+04  0.7818609E-02  0.8369197E-01
        2   -1    0    0  501    0  0.00000000000E+00  0.00000000000E+00  0.23468983777E+04  0.23468983777E+04  0.25500000920E-02 0.  1.
       -2   -1    0    0    0  501  0.00000000000E+00  0.00000000000E+00 -0.71847692841E+03  0.71847692841E+03  0.25500000920E-02 0. -1.
    10030    2    1    2    0    0  0.00000000000E+00  0.00000000000E+00  0.16284214493E+04  0.30653753061E+04  0.25970693774E+04 0.  0.
        3    1    3    3  502    0  0.29068285178E+03 -0.23160877279E+03  0.22827752783E+04  0.23128342191E+04  0.10100000352E+00 0.  1.
       -3    1    3    3    0  502 -0.29068285178E+03  0.23160877279E+03 -0.65435382896E+03  0.75254108700E+03  0.10100000352E+00 0. -1.
</event>
<event>
 5   0  0.3508470E-05  0.2555930E+04  0.7818609E-02  0.8383327E-01
       -2   -1    0    0    0  501  0.00000000000E+00  0.00000000000E+00  0.81919047083E+03  0.81919047083E+03  0.25500000920E-02 0. -1.
        2   -1    0    0  501    0  0.00000000000E+00  0.00000000000E+00 -0.19936682976E+04  0.19936682976E+04  0.25500000920E-02 0.  1.
    10030    2    1    2    0    0  0.00000000000E+00  0.00000000000E+00 -0.11744778267E+04  0.28128587684E+04  0.25559296323E+04 0.  0.
        5    1    3    3  502    0  0.51195435220E+03 -0.67004844034E+03 -0.16440329533E+04  0.18476819566E+04  0.46999998093E+01 0.  1.
       -5    1    3    3    0  502 -0.51195435220E+03  0.67004844034E+03  0.46955512658E+03  0.96517681180E+03  0.46999998093E+01 0. -1.
</event>
<event>
 5   0  0.3508470E-05  0.2585926E+04  0.7818609E-02  0.8372998E-01
       -2   -1    0    0    0  501  0.00000000000E+00  0.00000000000E+00  0.90832628128E+03  0.90832628129E+03  0.25500000920E-02 0.  1.
        2   -1    0    0  501    0  0.00000000000E+00  0.00000000000E+00 -0.18404765820E+04  0.18404765820E+04  0.25500000920E-02 0. -1.
    10030    2    1    2    0    0  0.00000000000E+00  0.00000000000E+00 -0.93215030070E+03  0.27488028633E+04  0.25859259460E+04 0.  0.
        5    1    3    3  502    0 -0.92528187427E+03 -0.51115403706E+03 -0.12574866646E+04  0.16427780733E+04  0.46999998093E+01 0. -1.
       -5    1    3    3    0  502  0.92528187427E+03  0.51115403706E+03  0.32533636386E+03  0.11060247900E+04  0.46999998093E+01 0.  1.
</event>
<event>
 5   0  0.3508470E-05  0.2645314E+04  0.7818609E-02  0.8352970E-01
        2   -1    0    0  501    0  0.00000000000E+00  0.00000000000E+00  0.19030456234E+04  0.19030456234E+04  0.25500000920E-02 0. -1.
       -2   -1    0    0    0  501  0.00000000000E+00  0.00000000000E+00 -0.91927441547E+03  0.91927441547E+03  0.25500000920E-02 0.  1.
    10030    2    1    2    0    0  0.00000000000E+00  0.00000000000E+00  0.98377120789E+03  0.28223200388E+04  0.26453137077E+04 0.  0.
        5    1    3    3  502    0  0.94971328724E+03 -0.46905291919E+03 -0.35322351499E+03  0.11165817975E+04  0.46999998093E+01 0.  1.
       -5    1    3    3    0  502 -0.94971328724E+03  0.46905291919E+03  0.13369947229E+04  0.17057382413E+04  0.46999998093E+01 0. -1.
</event>
<event>
 5   0  0.3499642E-05  0.2495169E+04  0.7818609E-02  0.8404709E-01
       -2   -1    0    0    0  501  0.00000000000E+00  0.00000000000E+00  0.13544736325E+04  0.13544736325E+04  0.25500000920E-02 0.  1.
        2   -1    0    0  501    0  0.00000000000E+00  0.00000000000E+00 -0.11491304775E+04  0.11491304775E+04  0.25500000920E-02 0. -1.
    10030    2    1    2    0    0  0.00000000000E+00  0.00000000000E+00  0.20534315499E+03  0.25036041100E+04  0.24951688778E+04 0.  0.
        2    1    3    3  502    0 -0.35755093656E+03 -0.23017003842E+03  0.12795160124E+04  0.13483256820E+04  0.25500000920E-02 0.  1.
       -2    1    3    3    0  502  0.35755093656E+03  0.23017003842E+03 -0.10741728574E+04  0.11552784281E+04  0.25500000920E-02 0. -1.
</event>
<event>
 5   0  0.3441646E-05  0.2602321E+04  0.7818609E-02  0.8367413E-01
       -2   -1    0    0    0  501  0.00000000000E+00  0.00000000000E+00  0.65648404031E+03  0.65648404032E+03  0.25500000920E-02 0.  1.
        2   -1    0    0  501    0  0.00000000000E+00  0.00000000000E+00 -0.25789180695E+04  0.25789180695E+04  0.25500000920E-02 0. -1.
    10030    2    1    2    0    0  0.00000000000E+00  0.00000000000E+00 -0.19224340292E+04  0.32354021098E+04  0.26023209286E+04 0.  0.
        4    1    3    3  502    0 -0.10144948056E+03  0.12240731243E+04 -0.42737536277E+03  0.13004992596E+04  0.12699999809E+01 0. -1.
       -4    1    3    3    0  502  0.10144948056E+03 -0.12240731243E+04 -0.14950586664E+04  0.19349028502E+04  0.12699999809E+01 0.  1.
</event>
<event>
 5   0  0.3647623E-05  0.2593893E+04  0.7818609E-02  0.8370279E-01
       -2   -1    0    0    0  501  0.00000000000E+00  0.00000000000E+00  0.96747277701E+03  0.96747277701E+03  0.25500000920E-02 0. -1.
        2   -1    0    0  501    0  0.00000000000E+00  0.00000000000E+00 -0.17386221485E+04  0.17386221485E+04  0.25500000920E-02 0.  1.
    10030    2    1    2    0    0  0.00000000000E+00  0.00000000000E+00 -0.77114937152E+03  0.27060949255E+04  0.25938925176E+04 0.  0.
        3    1    3    3  502    0  0.11604659794E+04 -0.42892494870E+03 -0.79152300696E+03  0.14687295809E+04  0.10100000352E+00 0.  1.
       -3    1    3    3    0  502 -0.11604659794E+04  0.42892494870E+03  0.20373635445E+02  0.12373653447E+04  0.10100000352E+00 0. -1.
</event>
<event>
 5   0  0.3508470E-05  0.2577790E+04  0.7818609E-02  0.8375785E-01
        2   -1    0    0  501    0  0.00000000000E+00  0.00000000000E+00  0.94389477837E+03  0.94389477837E+03  0.25500000920E-02 0. -1.
       -2   -1    0    0    0  501  0.00000000000E+00  0.00000000000E+00 -0.17599952872E+04  0.17599952872E+04  0.25500000920E-02 0.  1.
    10030    2    1    2    0    0  0.00000000000E+00  0.00000000000E+00 -0.81610050885E+03  0.27038900656E+04  0.25777900315E+04 0.  0.
        5    1    3    3  502    0 -0.29633643304E+03 -0.71363706523E+02  0.90553680049E+03  0.95547215930E+03  0.46999998093E+01 0. -1.
       -5    1    3    3    0  502  0.29633643304E+03  0.71363706523E+02 -0.17216373093E+04  0.17484179063E+04  0.46999998093E+01 0.  1.
</event>
<event>
 5   0  0.3441646E-05  0.2367702E+04  0.7818609E-02  0.8451695E-01
        2   -1    0    0  501    0  0.00000000000E+00  0.00000000000E+00  0.13664258228E+04  0.13664258228E+04  0.25500000920E-02 0. -1.
       -2   -1    0    0    0  501  0.00000000000E+00  0.00000000000E+00 -0.10256707169E+04  0.10256707169E+04  0.25500000920E-02 0.  1.
    10030    2    1    2    0    0  0.00000000000E+00  0.00000000000E+00  0.34075510592E+03  0.23920965396E+04  0.23677017998E+04 0.  0.
        4    1    3    3  502    0  0.80285422941E+03  0.71270941198E+02  0.10464023494E+04  0.13208383514E+04  0.12699999809E+01 0. -1.
       -4    1    3    3    0  502 -0.80285422941E+03 -0.71270941198E+02 -0.70564724348E+03  0.10712581882E+04  0.12699999809E+01 0.  1.
</event>
<event>
 5   0  0.3849687E-05  0.2569205E+04  0.7818609E-02  0.8378737E-01
       -2   -1    0    0    0  501  0.00000000000E+00  0.00000000000E+00  0.10619920628E+04  0.10619920628E+04  0.25500000920E-02 0.  1.
        2   -1    0    0  501    0  0.00000000000E+00  0.00000000000E+00 -0.15538758545E+04  0.15538758545E+04  0.25500000920E-02 0. -1.
    10030    2    1    2    0    0  0.00000000000E+00  0.00000000000E+00 -0.49188379167E+03  0.26158679174E+04  0.25692051877E+04 0.  0.
        1    1    3    3  502    0 -0.61978263194E+02  0.73301532566E+03  0.82630004356E+03  0.11063112287E+04  0.50400001928E-02 0.  1.
       -1    1    3    3    0  502  0.61978263194E+02 -0.73301532566E+03 -0.13181838352E+04  0.15095566886E+04  0.50400001928E-02 0. -1.
</event>
<event>
 5   0  0.1435062E-05  0.2628070E+04  0.7818609E-02  0.8358729E-01
       -1   -1    0    0    0  501  0.00000000000E+00  0.00000000000E+00  0.12959476885E+04  0.12959476885E+04  0.50400001928E-02 0. -1.
        1   -1    0    0  501    0  0.00000000000E+00  0.00000000000E+00 -0.13323747323E+04  0.13323747323E+04  0.50400001928E-02 0.  1.
    10030    2    1    2    0    0  0.00000000000E+00  0.00000000000E+00 -0.36427043828E+02  0.26283224208E+04  0.26280699797E+04 0.  0.
        2    1    3    3  502    0  0.77368148650E+03 -0.57756178314E+03  0.87323470638E+03  0.13018062484E+04  0.25500000920E-02 0. -1.
       -2    1    3    3    0  502 -0.77368148650E+03  0.57756178314E+03 -0.90966175021E+03  0.13265161724E+04  0.25500000920E-02 0.  1.
</event>
<event>
 5   0  0.3647623E-05  0.2561711E+04  0.7818609E-02  0.8381325E-01
        2   -1    0    0  501    0  0.00000000000E+00  0.00000000000E+00  0.15028482969E+04  0.15028482969E+04  0.25500000920E-02 0.  1.
       -2   -1    0    0    0  501  0.00000000000E+00  0.00000000000E+00 -0.10916545535E+04  0.10916545535E+04  0.25500000920E-02 0. -1.
    10030    2    1    2    0    0  0.00000000000E+00  0.00000000000E+00  0.41119374341E+03  0.25945028505E+04  0.25617112926E+04 0.  0.
        3    1    3    3  502    0  0.54658824040E+03  0.11171772283E+04 -0.10450461313E+03  0.12481045182E+04  0.10100000352E+00 0. -1.
       -3    1    3    3    0  502 -0.54658824040E+03 -0.11171772283E+04  0.51569835655E+03  0.13463983323E+04  0.10100000352E+00 0.  1.
</event>
<event>
 5   0  0.1533248E-05  0.2827353E+04  0.7818609E-02  0.8294826E-01
        1   -1    0    0  501    0  0.00000000000E+00  0.00000000000E+00  0.15364000352E+04  0.15364000352E+04  0.50400001928E-02 0.  1.
       -1   -1    0    0    0  501  0.00000000000E+00  0.00000000000E+00 -0.13007554413E+04  0.13007554413E+04  0.50400001928E-02 0. -1.
    10030    2    1    2    0    0  0.00000000000E+00  0.00000000000E+00  0.23564459384E+03  0.28371554765E+04  0.28273526174E+04 0.  0.
        4    1    3    3  502    0  0.73713859027E+03 -0.71343136108E+03  0.10938825157E+04  0.14996460180E+04  0.12699999809E+01 0.  1.
       -4    1    3    3    0  502 -0.73713859027E+03  0.71343136108E+03 -0.85823792183E+03  0.13375094585E+04  0.12699999809E+01 0. -1.
</event>
<event>
 5   0  0.1451052E-05  0.2589490E+04  0.7818609E-02  0.8371780E-01
       -1   -1    0    0    0  501  0.00000000000E+00  0.00000000000E+00  0.10786454528E+04  0.10786454528E+04  0.50400001928E-02 0. -1.
        1   -1    0    0  501    0  0.00000000000E+00  0.00000000000E+00 -0.15541390657E+04  0.15541390657E+04  0.50400001928E-02 0.  1.
    10030    2    1    2    0    0  0.00000000000E+00  0.00000000000E+00 -0.47549361290E+03  0.26327845186E+04  0.25894903254E+04 0.  0.
        1    1    3    3  502    0  0.69890256683E+03  0.35378141338E+03 -0.12858748034E+04  0.15056892430E+04  0.50400001928E-02 0.  1.
       -1    1    3    3    0  502 -0.69890256683E+03 -0.35378141338E+03  0.81038119049E+03  0.11270952756E+04  0.50400001928E-02 0. -1.
</event>
<event>
 5   0  0.1474554E-05  0.2586588E+04  0.7818609E-02  0.8372771E-01
        1   -1    0    0  501    0  0.00000000000E+00  0.00000000000E+00  0.11038960498E+04  0.11038960498E+04  0.50400001928E-02 0. -1.
       -1   -1    0    0    0  501  0.00000000000E+00  0.00000000000E+00 -0.15151868398E+04  0.15151868398E+04  0.50400001928E-02 0.  1.
    10030    2    1    2    0    0  0.00000000000E+00  0.00000000000E+00 -0.41129079002E+03  0.26190828896E+04  0.25865875335E+04 0.  0.
        5    1    3    3  502    0 -0.95165822716E+03 -0.12242592626E+02 -0.10923080533E+04  0.14487795677E+04  0.46999998093E+01 0.  1.
       -5    1    3    3    0  502  0.95165822716E+03  0.12242592626E+02  0.68101726326E+03  0.11703033219E+04  0.46999998093E+01 0. -1.
</event>
<event>
 5   0  0.3441646E-05  0.1833394E+04  0.7818609E-02  0.8688740E-01
        2   -1    0    0  501    0  0.00000000000E+00  0.00000000000E+00  0.21574209699E+04  0.21574209699E+04  0.25500000920E-02 0.  1.
       -2   -1    0    0    0  501  0.00000000000E+00  0.00000000000E+00 -0.38950837216E+03  0.38950837217E+03  0.25500000920E-02 0. -1.
    10030    2    1    2    0    0  0.00000000000E+00  0.00000000000E+00  0.17679125977E+04  0.25469293421E+04  0.18333941530E+04 0.  0.
        4    1    3    3  502    0 -0.34406578818E+03  0.26038628420E+03  0.20075249309E+04  0.20533728947E+04  0.12699999809E+01 0.  1.
       -4    1    3    3    0  502  0.34406578818E+03 -0.26038628420E+03 -0.23961233319E+03  0.49355644735E+03  0.12699999809E+01 0. -1.
</event>
<event>
 5   0  0.1435062E-05  0.2601446E+04  0.7818609E-02  0.8367710E-01
       -1   -1    0    0    0  501  0.00000000000E+00  0.00000000000E+00  0.91192030812E+03  0.91192030813E+03  0.50400001928E-02 0. -1.
        1   -1    0    0  501    0  0.00000000000E+00  0.00000000000E+00 -0.18552933632E+04  0.18552933632E+04  0.50400001928E-02 0.  1.
    10030    2    1    2    0    0  0.00000000000E+00  0.00000000000E+00 -0.94337305509E+03  0.27672136714E+04  0.26014455178E+04 0.  0.
        2    1    3    3  502    0  0.67900354074E+03  0.17065991475E+02 -0.16516710021E+04  0.17858762991E+04  0.25500000920E-02 0.  1.
       -2    1    3    3    0  502 -0.67900354074E+03 -0.17065991475E+02  0.70829794704E+03  0.98133737225E+03  0.25500000920E-02 0. -1.
</event>
<event>
 5   0  0.3499642E-05  0.2121912E+04  0.7818609E-02  0.8551652E-01
        2   -1    0    0  501    0  0.00000000000E+00  0.00000000000E+00  0.18177626255E+04  0.18177626255E+04  0.25500000920E-02 0.  1.
       -2   -1    0    0    0  501  0.00000000000E+00  0.00000000000E+00 -0.61923824668E+03  0.61923824669E+03  0.25500000920E-02 0. -1.
    10030    2    1    2    0    0  0.00000000000E+00  0.00000000000E+00  0.11985243788E+04  0.24370008721E+04  0.21219124780E+04 0.  0.
        2    1    3    3  502    0  0.26491891531E+03  0.10119108951E+04  0.39548175817E+03  0.11182806054E+04  0.25500000920E-02 0. -1.
       -2    1    3    3    0  502 -0.26491891531E+03 -0.10119108951E+04  0.80304262061E+03  0.13187202667E+04  0.25500000920E-02 0.  1.
</event>
<event>
 5   0  0.3849687E-05  0.2688515E+04  0.7818609E-02  0.8338741E-01
        2   -1    0    0  501    0  0.00000000000E+00  0.00000000000E+00  0.15794098866E+04  0.15794098866E+04  0.25500000920E-02 0.  1.
       -2   -1    0    0    0  501  0.00000000000E+00  0.00000000000E+00 -0.11441158307E+04  0.11441158307E+04  0.25500000920E-02 0. -1.
    10030    2    1    2    0    0  0.00000000000E+00  0.00000000000E+00  0.43529405590E+03  0.27235257174E+04  0.26885147234E+04 0.  0.
        1    1    3    3  502    0  0.12109258031E+03  0.10548233997E+04 -0.61753577204E+03  0.12282777566E+04  0.50400001928E-02 0. -1.
       -1    1    3    3    0  502 -0.12109258031E+03 -0.10548233997E+04  0.10528298279E+04  0.14952479608E+04  0.50400001928E-02 0.  1.
</event>
<event>
 5   0  0.3508470E-05  0.2592332E+04  0.7818609E-02  0.8370810E-01
       -2   -1    0    0    0  501  0.00000000000E+00  0.00000000000E+00  0.11714796384E+04  0.11714796384E+04  0.25500000920E-02 0.  1.
        2   -1    0    0  501    0  0.00000000000E+00  0.00000000000E+00 -0.14341237681E+04  0.14341237681E+04  0.25500000920E-02 0. -1.
    10030    2    1    2    0    0  0.00000000000E+00  0.00000000000E+00 -0.26264412969E+03  0.26056034065E+04  0.25923323809E+04 0.  0.
        5    1    3    3  502    0 -0.10698131076E+04  0.57621741449E+03  0.32209495481E+03  0.12570973884E+04  0.46999998093E+01 0.  1.
       -5    1    3    3    0  502  0.10698131076E+04 -0.57621741449E+03 -0.58473908450E+03  0.13485060181E+04  0.46999998093E+01 0. -1.
</event>
<event>
 5   0  0.1435062E-05  0.2717856E+04  0.7818609E-02  0.8329234E-01
        1   -1    0    0  501    0  0.00000000000E+00  0.00000000000E+00  0.17941552205E+04  0.17941552205E+04  0.50400001928E-02 0. -1.
       -1   -1    0    0    0  501  0.00000000000E+00  0.00000000000E+00 -0.10292786759E+04  0.10292786759E+04  0.50400001928E-02 0.  1.
    10030    2    1    2    0    0  0.00000000000E+00  0.00000000000E+00  0.76487654462E+03  0.28234338964E+04  0.27178562947E+04 0.  0.
        2    1    3    3  502    0  0.14366936333E+03 -0.11480472496E+03 -0.10162915368E+04  0.10327969300E+04  0.25500000920E-02 0.  1.
       -2    1    3    3    0  502 -0.14366936333E+03  0.11480472496E+03  0.17811680815E+04  0.17906369663E+04  0.25500000920E-02 0. -1.
</event>
<event>
 5   0  0.1533248E-05  0.1589102E+04  0.7818609E-02  0.8827271E-01
       -1   -1    0    0    0  501  0.00000000000E+00  0.00000000000E+00  0.47400860581E+03  0.47400860584E+03  0.50400001928E-02 0.  1.
        1   -1    0    0  501    0  0.00000000000E+00  0.00000000000E+00 -0.13318568631E+04  0.13318568631E+04  0.50400001928E-02 0. -1.
    10030    2    1    2    0    0  0.00000000000E+00  0.00000000000E+00 -0.85784825731E+03  0.18058654690E+04  0.15891024069E+04 0.  0.
        4    1    3    3  502    0  0.18246656506E+03  0.70581739627E+01  0.44983895343E+03  0.48549002266E+03  0.12699999809E+01 0.  1.
       -4    1    3    3    0  502 -0.18246656506E+03 -0.70581739627E+01 -0.13076872107E+04  0.13203754463E+04  0.12699999809E+01 0. -1.
</event>
<event>
 5   0  0.3441646E-05  0.2602304E+04  0.7818609E-02  0.8367419E-01
        2   -1    0    0  501    0  0.00000000000E+00  0.00000000000E+00  0.16747254966E+04  0.16747254966E+04  0.25500000920E-02 0.  1.
       -2   -1    0    0    0  501  0.00000000000E+00  0.00000000000E+00 -0.10109095170E+04  0.10109095170E+04  0.25500000920E-02 0. -1.
    10030    2    1    2    0    0  0.00000000000E+00  0.00000000000E+00  0.66381597963E+03  0.26856350136E+04  0.26023035510E+04 0.  0.
        4    1    3    3  502    0  0.80416125381E+03  0.53160913887E+02 -0.72231817420E+03  0.10822414530E+04  0.12699999809E+01 0. -1.
       -4    1    3    3    0  502 -0.80416125381E+03 -0.53160913887E+02  0.13861341538E+04  0.16033935606E+04  0.12699999809E+01 0.  1.
</event>
<event>
 5   0  0.3647623E-05  0.2476930E+04  0.7818609E-02  0.8411251E-01
        2   -1    0    0  501    0  0.00000000000E+00  0.00000000000E+00  0.21999486681E+04  0.21999486681E+04  0.25500000920E-02 0. -1.
       -2   -1    0    0    0  501  0.00000000000E+00  0.00000000000E+00 -0.69719629869E+03  0.69719629869E+03  0.25500000920E-02 0.  1.
    10030    2    1    2    0    0  0.00000000000E+00  0.00000000000E+00  0.15027523694E+04  0.28971449668E+04  0.24769304138E+04 0.  0.
        3    1    3    3  502    0 -0.53915237128E+03  0.27188687114E+03  0.20161086096E+04  0.21045906219E+04  0.10100000352E+00 0. -1.
       -3    1    3    3    0  502  0.53915237128E+03 -0.27188687114E+03 -0.51335624011E+03  0.79255434490E+03  0.10100000352E+00 0.  1.
</event>
<event>
 5   0  0.1451052E-05  0.2615606E+04  0.7818609E-02  0.8362920E-01
        1   -1    0    0  501    0  0.00000000000E+00  0.00000000000E+00  0.13164050077E+04  0.13164050077E+04  0.50400001928E-02 0.  1.
       -1   -1    0    0    0  501  0.00000000000E+00  0.00000000000E+00 -0.12992569480E+04  0.12992569481E+04  0.50400001928E-02 0. -1.
    10030    2    1    2    0    0  0.00000000000E+00  0.00000000000E+00  0.17148059615E+02  0.26156619557E+04  0.26156057445E+04 0.  0.
        1    1    3    3  502    0  0.82346149830E+03  0.76471172284E+03  0.67752449715E+03  0.13122165608E+04  0.50400001928E-02 0.  1.
       -1    1    3    3    0  502 -0.82346149830E+03 -0.76471172284E+03 -0.66037643753E+03  0.13034453949E+04  0.50400001928E-02 0. -1.
</event>
<event>
 5   0  0.1497497E-05  0.2776199E+04  0.7818609E-02  0.8310696E-01
       -1   -1    0    0    0  501  0.00000000000E+00  0.00000000000E+00  0.14667501140E+04  0.14667501140E+04  0.50400001928E-02 0.  1.
        1   -1    0    0  501    0  0.00000000000E+00  0.00000000000E+00 -0.13136664498E+04  0.13136664498E+04  0.50400001928E-02 0. -1.
    10030    2    1    2    0    0  0.00000000000E+00  0.00000000000E+00  0.15308366420E+03  0.27804165638E+04  0.27761991391E+04 0.  0.
        3    1    3    3  502    0 -0.13352081258E+04  0.37565527627E+03  0.13068669245E+03  0.13931893796E+04  0.10100000352E+00 0.  1.
       -3    1    3    3    0  502  0.13352081258E+04 -0.37565527627E+03  0.22396971746E+02  0.13872271841E+04  0.10100000352E+00 0. -1.
</event>
<event>
 5   0  0.1435062E-05  0.1588481E+04  0.7818609E-02  0.8827656E-01
       -1   -1    0    0    0  501  0.00000000000E+00  0.00000000000E+00  0.65010255406E+03  0.65010255407E+03  0.50400001928E-02 0.  1.
        1   -1    0    0  501    0  0.00000000000E+00  0.00000000000E+00 -0.97033566672E+03  0.97033566673E+03  0.50400001928E-02 0. -1.
    10030    2    1    2    0    0  0.00000000000E+00  0.00000000000E+00 -0.32023311266E+03  0.16204382208E+04  0.15884806518E+04 0.  0.
        2    1    3    3  502    0 -0.68207945463E+03  0.27484117487E+03 -0.46623304272E+03  0.87071424932E+03  0.25500000920E-02 0.  1.
       -2    1    3    3    0  502  0.68207945463E+03 -0.27484117487E+03  0.14599993006E+03  0.74972397149E+03  0.25500000920E-02 0. -1.
</event>
<event>
 5   0  0.1435062E-05  0.2365104E+04  0.7818609E-02  0.8452685E-01
        1   -1    0    0  501    0  0.00000000000E+00  0.00000000000E+00  0.20319270097E+04  0.20319270097E+04  0.50400001928E-02 0.  1.
       -1   -1    0    0    0  501  0.00000000000E+00  0.00000000000E+00 -0.68822788947E+03  0.68822788949E+03  0.50400001928E-02 0. -1.
    10030    2    1    2    0    0  0.00000000000E+00  0.00000000000E+00  0.13436991202E+04  0.27201548992E+04  0.23651036658E+04 0.  0.
        2    1    3    3  502    0 -0.18066719864E+03  0.10212282710E+04  0.18320788361E+02  0.10372480269E+04  0.25500000920E-02 0. -1.
       -2    1    3    3    0  502  0.18066719864E+03 -0.10212282710E+04  0.13253783319E+04  0.16829068723E+04  0.25500000920E-02 0.  1.
</event>
<event>
 5   0  0.3508470E-05  0.1925389E+04  0.7818609E-02  0.8642321E-01
        2   -1    0    0  501    0  0.00000000000E+00  0.00000000000E+00  0.99389073306E+03  0.99389073306E+03  0.25500000920E-02 0.  1.
       -2   -1    0    0    0  501  0.00000000000E+00  0.00000000000E+00 -0.93247784662E+03  0.93247784663E+03  0.25500000920E-02 0. -1.
    10030    2    1    2    0    0  0.00000000000E+00  0.00000000000E+00  0.61412886431E+02  0.19263685797E+04  0.19253894053E+04 0.  0.
        5    1    3    3  502    0 -0.23445688112E+03  0.17199374834E+03  0.94889159014E+03  0.99245615440E+03  0.46999998093E+01 0.  1.
       -5    1    3    3    0  502  0.23445688112E+03 -0.17199374834E+03 -0.88747870371E+03  0.93391242529E+03  0.46999998093E+01 0. -1.
</event>
<event>
 5   0  0.1474554E-05  0.2493186E+04  0.7818609E-02  0.8405417E-01
        1   -1    0    0  501    0  0.00000000000E+00  0.00000000000E+00  0.13040355662E+04  0.13040355662E+04  0.50400001928E-02 0. -1.
       -1   -1    0    0    0  501  0.00000000000E+00  0.00000000000E+00 -0.11916804373E+04  0.11916804373E+04  0.50400001928E-02 0.  1.
    10030    2    1    2    0    0  0.00000000000E+00  0.00000000000E+00  0.11235512888E+03  0.24957160035E+04  0.24931856519E+04 0.  0.
        5    1    3    3  502    0  0.10186602979E+04  0.59480378884E+03  0.45971352191E+03  0.12660248663E+04  0.46999998093E+01 0. -1.
       -5    1    3    3    0  502 -0.10186602979E+04 -0.59480378884E+03 -0.34735839303E+03  0.12296911372E+04  0.46999998093E+01 0.  1.
</event>
<event>
 5   0  0.1497497E-05  0.2524371E+04  0.7818609E-02  0.8394354E-01
       -1   -1    0    0    0  501  0.00000000000E+00  0.00000000000E+00  0.82324312184E+03  0.82324312186E+03  0.50400001928E-02 0. -1.
        1   -1    0    0  501    0  0.00000000000E+00  0.00000000000E+00 -0.19351664628E+04  0.19351664628E+04  0.50400001928E-02 0.  1.
    10030    2    1    2    0    0  0.00000000000E+00  0.00000000000E+00 -0.11119233410E+04  0.27584095847E+04  0.25243711931E+04 0.  0.
        3    1    3    3  502    0  0.26657919660E+03  0.75069085296E+03  0.51384214823E+03  0.94796360071E+03  0.10100000352E+00 0. -1.
       -3    1    3    3    0  502 -0.26657919660E+03 -0.75069085296E+03 -0.16257654892E+04  0.18104459840E+04  0.10100000352E+00 0.  1.
</event>
<event>
 5   0  0.1474554E-05  0.2490023E+04  0.7818609E-02  0.8406549E-01
       -1   -1    0    0    0  501  0.00000000000E+00  0.00000000000E+00  0.91059253602E+03  0.91059253604E+03  0.50400001928E-02 0. -1.
        1   -1    0    0  501    0  0.00000000000E+00  0.00000000000E+00 -0.17022466096E+04  0.17022466096E+04  0.50400001928E-02 0.  1.
    10030    2    1    2    0    0  0.00000000000E+00  0.00000000000E+00 -0.79165407356E+03  0.26128391456E+04  0.24900225358E+04 0.  0.
        5    1    3    3  502    0 -0.89166326569E+03  0.85440560606E+03 -0.23005169737E+03  0.12561919409E+04  0.46999998093E+01 0. -1.
       -5    1    3    3    0  502  0.89166326569E+03 -0.85440560606E+03 -0.56160237618E+03  0.13566472047E+04  0.46999998093E+01 0.  1.
</event>
<event>
 5   0  0.1451052E-05  0.2606897E+04  0.7818609E-02  0.8365862E-01
       -1   -1    0    0    0  501  0.00000000000E+00  0.00000000000E+00  0.96893819857E+03  0.96893819858E+03  0.50400001928E-02 0.  1.
        1   -1    0    0  501    0  0.00000000000E+00  0.00000000000E+00 -0.17534437392E+04  0.17534437392E+04  0.50400001928E-02 0. -1.
    10030    2    1    2    0    0  0.00000000000E+00  0.00000000000E+00 -0.78450554061E+03  0.27223819378E+04  0.26068974801E+04 0.  0.
        1    1    3    3  502    0 -0.93741729799E+03  0.86639253445E+03 -0.66774090628E+03  0.14405780549E+04  0.50400001928E-02 0.  1.
       -1    1    3    3    0  502  0.93741729799E+03 -0.86639253445E+03 -0.11676463434E+03  0.12818038829E+04  0.50400001928E-02 0. -1.
</event>
<event>
 5   0  0.3499642E-05  0.2706208E+04  0.7818609E-02  0.8332994E-01
        2   -1    0    0  501    0  0.00000000000E+00  0.00000000000E+00  0.16603104875E+04  0.16603104875E+04  0.25500000920E-02 0. -1.
       -2   -1    0    0    0  501  0.00000000000E+00  0.00000000000E+00 -0.11027396230E+04  0.11027396230E+04  0.25500000920E-02 0.  1.
    10030    2    1    2    0    0  0.00000000000E+00  0.00000000000E+00  0.55757086446E+03  0.27630501105E+04  0.27062077977E+04 0.  0.
        2    1    3    3  502    0 -0.61443754568E+03  0.11647933899E+04  0.59614051194E+03  0.14455658576E+04  0.25500000920E-02 0. -1.
       -2    1    3    3    0  502  0.61443754568E+03 -0.11647933899E+04 -0.38569647474E+02  0.13174842528E+04  0.25500000920E-02 0.  1.
</event>
<event>
 5   0  0.3849687E-05  0.2433529E+04  0.7818609E-02  0.8427057E-01
       -2   -1    0    0    0  501  0.00000000000E+00  0.00000000000E+00  0.73689970146E+03  0.73689970146E+03  0.25500000920E-02 0.  1.
        2   -1    0    0  501    0  0.00000000000E+00  0.00000000000E+00 -0.20091137939E+04  0.20091137939E+04  0.25500000920E-02 0. -1.
    10030    2    1    2    0    0  0.00000000000E+00  0.00000000000E+00 -0.12722140924E+04  0.27460134954E+04  0.24335285944E+04 0.  0.
        1    1    3    3  502    0 -0.84663425507E+03 -0.87068659073E+03 -0.55143391394E+03  0.13337781160E+04  0.50400001928E-02 0.  1.
       -1    1    3    3    0  502  0.84663425507E+03  0.87068659073E+03 -0.72078017851E+03  0.14122353794E+04  0.50400001928E-02 0. -1.
</event>
<event>
 5   0  0.1217200E-05  0.2696389E+04  0.7818609E-02  0.8336178E-01
        3   -1    0    0  501    0  0.00000000000E+00  0.00000000000E+00  0.10119436455E+04  0.10119436505E+04  0.10100000352E+00 0.  1.
       -3   -1    0    0    0  501  0.00000000000E+00  0.00000000000E+00 -0.17961754313E+04  0.17961754342E+04  0.10100000352E+00 0. -1.
    10030    2    1    2    0    0  0.00000000000E+00  0.00000000000E+00 -0.78423178584E+03  0.28081190847E+04  0.26963889371E+04 0.  0.
        2    1    3    3  502    0 -0.19793701469E+03 -0.10689401463E+04 -0.12225377820E+04  0.16359739382E+04  0.25500000920E-02 0. -1.
       -2    1    3    3    0  502  0.19793701469E+03  0.10689401463E+04  0.43830599619E+03  0.11721451465E+04  0.25500000920E-02 0.  1.
</event>
<event>
 5   0  0.1435062E-05  0.2401348E+04  0.7818609E-02  0.8438999E-01
       -1   -1    0    0    0  501  0.00000000000E+00  0.00000000000E+00  0.14030204464E+04  0.14030204464E+04  0.50400001928E-02 0. -1.
        1   -1    0    0  501    0  0.00000000000E+00  0.00000000000E+00 -0.10275105738E+04  0.10275105738E+04  0.50400001928E-02 0.  1.
    10030    2    1    2    0    0  0.00000000000E+00  0.00000000000E+00  0.37550987264E+03  0.24305310202E+04  0.24013482413E+04 0.  0.
        2    1    3    3  502    0 -0.57476438973E+02  0.43240674773E+03  0.13199820447E+04  0.13901912583E+04  0.25500000920E-02 0. -1.
       -2    1    3    3    0  502  0.57476438973E+02 -0.43240674773E+03 -0.94447217201E+03  0.10403397619E+04  0.25500000920E-02 0.  1.
</event>
<event>
 5   0  0.1497497E-05  0.2620326E+04  0.7818609E-02  0.8361330E-01
       -1   -1    0    0    0  501  0.00000000000E+00  0.00000000000E+00  0.13109748854E+04  0.13109748854E+04  0.50400001928E-02 0. -1.
        1   -1    0    0  501    0  0.00000000000E+00  0.00000000000E+00 -0.13093515064E+04  0.13093515064E+04  0.50400001928E-02 0.  1.
    10030    2    1    2    0    0  0.00000000000E+00  0.00000000000E+00  0.16233790398E+01  0.26203263918E+04  0.26203258889E+04 0.  0.
        3    1    3    3  502    0 -0.24747881362E+03  0.76756556920E+03 -0.10317214450E+04  0.13095235074E+04  0.10100000352E+00 0.  1.
       -3    1    3    3    0  502  0.24747881362E+03 -0.76756556920E+03  0.10333448240E+04  0.13108028844E+04  0.10100000352E+00 0. -1.
</event>
<event>
 5   0  0.3499642E-05  0.2583528E+04  0.7818609E-02  0.8373818E-01
       -2   -1    0    0    0  501  0.00000000000E+00  0.00000000000E+00  0.10494198496E+04  0.10494198496E+04  0.25500000920E-02 0.  1.
        2   -1    0    0  501    0  0.00000000000E+00  0.00000000000E+00 -0.15900734279E+04  0.15900734279E+04  0.25500000920E-02 0. -1.
    10030    2    1    2    0    0  0.00000000000E+00  0.00000000000E+00 -0.54065357833E+03  0.26394932775E+04  0.25835282987E+04 0.  0.
        2    1    3    3  502    0 -0.29195106644E+03 -0.24186161617E+03  0.99130078909E+03  0.10613245126E+04  0.25500000920E-02 0.  1.
       -2    1    3    3    0  502  0.29195106644E+03  0.24186161617E+03 -0.15319543674E+04  0.15781687649E+04  0.25500000920E-02 0. -1.
</event>
<event>
 5   0  0.3849687E-05  0.2549718E+04  0.7818609E-02  0.8385484E-01
       -2   -1    0    0    0  501  0.00000000000E+00  0.00000000000E+00  0.10132974071E+04  0.10132974071E+04  0.25500000920E-02 0. -1.
        2   -1    0    0  501    0  0.00000000000E+00  0.00000000000E+00 -0.16039369343E+04  0.16039369343E+04  0.25500000920E-02 0.  1.
    10030    2    1    2    0    0  0.00000000000E+00  0.00000000000E+00 -0.59063952716E+03  0.26172343414E+04  0.25497177386E+04 0.  0.
        1    1    3    3  502    0 -0.73869777382E+03 -0.71199727030E+03 -0.10720950028E+04  0.14839144885E+04  0.50400001928E-02 0.  1.
       -1    1    3    3    0  502  0.73869777382E+03  0.71199727030E+03  0.48145547565E+03  0.11333198529E+04  0.50400001928E-02 0. -1.
</event>
<event>
 5   0  0.1451052E-05  0.2543537E+04  0.7818609E-02  0.8387637E-01
        1   -1    0    0  501    0  0.00000000000E+00  0.00000000000E+00  0.13277025454E+04  0.13277025455E+04  0.50400001928E-02 0. -1.
       -1   -1    0    0    0  501  0.00000000000E+00  0.00000000000E+00 -0.12181908242E+04  0.12181908242E+04  0.50400001928E-02 0.  1.
    10030    2    1    2    0    0  0.00000000000E+00  0.00000000000E+00  0.10951172124E+03  0.25458933697E+04  0.25435369533E+04 0.  0.
        1    1    3    3  502    0 -0.32241672378E+02  0.47842449312E+03 -0.11242426616E+04  0.12222320088E+04  0.50400001928E-02 0.  1.
       -1    1    3    3    0  502  0.32241672378E+02 -0.47842449312E+03  0.12337543829E+04  0.13236613609E+04  0.50400001928E-02 0. -1.
</event>
<event>
 5   0  0.3499642E-05  0.2588342E+04  0.7818609E-02  0.8372172E-01
        2   -1    0    0  501    0  0.00000000000E+00  0.00000000000E+00  0.23294243481E+04  0.23294243481E+04  0.25500000920E-02 0. -1.
       -2   -1    0    0    0  501  0.00000000000E+00  0.00000000000E+00 -0.71900956699E+03  0.71900956699E+03  0.25500000920E-02 0.  1.
    10030    2    1    2    0    0  0.00000000000E+00  0.00000000000E+00  0.16104147811E+04  0.30484339151E+04  0.25883418568E+04 0.  0.
        2    1    3    3  502    0 -0.96133702661E+03  0.47084564234E+03  0.16618283346E+04  0.19767493294E+04  0.25500000920E-02 0. -1.
       -2    1    3    3    0  502  0.96133702661E+03 -0.47084564234E+03 -0.51413553529E+02  0.10716845857E+04  0.25500000920E-02 0.  1.
</event>
<event>
 5   0  0.1533248E-05  0.2611575E+04  0.7818609E-02  0.8364280E-01
        1   -1    0    0  501    0  0.00000000000E+00  0.00000000000E+00  0.17783780281E+04  0.17783780281E+04  0.50400001928E-02 0.  1.
       -1   -1    0    0    0  501  0.00000000000E+00  0.00000000000E+00 -0.95878446484E+03  0.95878446485E+03  0.50400001928E-02 0. -1.
    10030    2    1    2    0    0  0.00000000000E+00  0.00000000000E+00  0.81959356325E+03  0.27371624929E+04  0.26115751768E+04 0.  0.
        4    1    3    3  502    0  0.32604133716E+03 -0.92223328203E+03  0.13164162052E+04  0.16400519559E+04  0.12699999809E+01 0. -1.
       -4    1    3    3    0  502 -0.32604133716E+03  0.92223328203E+03 -0.49682264191E+03  0.10971105370E+04  0.12699999809E+01 0.  1.
</event>
<event>
 5   0  0.1497497E-05  0.1659856E+04  0.7818609E-02  0.8784597E-01
        1   -1    0    0  501    0  0.00000000000E+00  0.00000000000E+00  0.14935969740E+04  0.14935969740E+04  0.50400001928E-02 0.  1.
       -1   -1    0    0    0  501  0.00000000000E+00  0.00000000000E+00 -0.46115550828E+03  0.46115550831E+03  0.50400001928E-02 0. -1.
    10030    2    1    2    0    0  0.00000000000E+00  0.00000000000E+00  0.10324414657E+04  0.19547524823E+04  0.16598559838E+04 0.  0.
        3    1    3    3  502    0  0.43416592538E+03 -0.90041694325E+02 -0.30996980181E+03  0.54100725107E+03  0.10100000352E+00 0. -1.
       -3    1    3    3    0  502 -0.43416592538E+03  0.90041694325E+02  0.13424112675E+04  0.14137452312E+04  0.10100000352E+00 0.  1.
</event>
<event>
 5   0  0.3508470E-05  0.2686237E+04  0.7818609E-02  0.8339484E-01
        2   -1    0    0  501    0  0.00000000000E+00  0.00000000000E+00  0.10993981307E+04  0.10993981307E+04  0.25500000920E-02 0. -1.
       -2   -1    0    0    0  501  0.00000000000E+00  0.00000000000E+00 -0.16408681465E+04  0.16408681465E+04  0.25500000920E-02 0.  1.
    10030    2    1    2    0    0  0.00000000000E+00  0.00000000000E+00 -0.54147001581E+03  0.27402662772E+04  0.26862370506E+04 0.  0.
        5    1    3    3  502    0  0.10036757965E+04  0.88810902970E+03 -0.18039574899E+03  0.13522823187E+04  0.46999998093E+01 0. -1.
       -5    1    3    3    0  502 -0.10036757965E+04 -0.88810902970E+03 -0.36107426682E+03  0.13879839586E+04  0.46999998093E+01 0.  1.
</event>
<event>
 5   0  0.3499642E-05  0.2662842E+04  0.7818609E-02  0.8347163E-01
        2   -1    0    0  501    0  0.00000000000E+00  0.00000000000E+00  0.87755044197E+03  0.87755044197E+03  0.25500000920E-02 0. -1.
       -2   -1    0    0    0  501  0.00000000000E+00  0.00000000000E+00 -0.20200343467E+04  0.20200343467E+04  0.25500000920E-02 0.  1.
    10030    2    1    2    0    0  0.00000000000E+00  0.00000000000E+00 -0.11424839048E+04  0.28975847887E+04  0.26628421161E+04 0.  0.
        2    1    3    3  502    0  0.19437489249E+03 -0.13171018497E+04 -0.55822257349E+03  0.14436590050E+04  0.25500000920E-02 0. -1.
       -2    1    3    3    0  502 -0.19437489249E+03  0.13171018497E+04 -0.58426133129E+03  0.14539257837E+04  0.25500000920E-02 0.  1.
</event>
<event>
 5   0  0.1217200E-05  0.2371500E+04  0.7818609E-02  0.8450251E-01
        3   -1    0    0  501    0  0.00000000000E+00  0.00000000000E+00  0.24739030062E+04  0.24739030083E+04  0.10100000352E+00 0.  1.
       -3   -1    0    0    0  501  0.00000000000E+00  0.00000000000E+00 -0.56833392882E+03  0.56833393779E+03  0.10100000352E+00 0. -1.
    10030    2    1    2    0    0  0.00000000000E+00  0.00000000000E+00  0.19055690774E+04  0.30422369461E+04  0.23714999741E+04 0.  0.
        3    1    3    3  502    0  0.57851626665E+03 -0.69492637707E+03  0.19368091912E+04  0.21374830042E+04  0.10100000352E+00 0.  1.
       -3    1    3    3    0  502 -0.57851626665E+03  0.69492637707E+03 -0.31240113759E+02  0.90475394181E+03  0.10100000352E+00 0. -1.
</event>
<event>
 5   0  0.1474554E-05  0.2584851E+04  0.7818609E-02  0.8373365E-01
        1   -1    0    0  501    0  0.00000000000E+00  0.00000000000E+00  0.12920037632E+04  0.12920037632E+04  0.50400001928E-02 0.  1.
       -1   -1    0    0    0  501  0.00000000000E+00  0.00000000000E+00 -0.12928477947E+04  0.12928477947E+04  0.50400001928E-02 0. -1.
    10030    2    1    2    0    0  0.00000000000E+00  0.00000000000E+00 -0.84403147273E+00  0.25848515579E+04  0.25848514201E+04 0.  0.
        5    1    3    3  502    0  0.73981413552E+03  0.47790980683E+03 -0.94626528116E+03  0.12927346251E+04  0.46999998093E+01 0. -1.
       -5    1    3    3    0  502 -0.73981413552E+03 -0.47790980683E+03  0.94542124969E+03  0.12921169328E+04  0.46999998093E+01 0.  1.
</event>
<event>
 5   0  0.1435062E-05  0.2587675E+04  0.7818609E-02  0.8372400E-01
       -1   -1    0    0    0  501  0.00000000000E+00  0.00000000000E+00  0.14406707731E+04  0.14406707731E+04  0.50400001928E-02 0. -1.
        1   -1    0    0  501    0  0.00000000000E+00  0.00000000000E+00 -0.11619696451E+04  0.11619696451E+04  0.50400001928E-02 0.  1.
    10030    2    1    2    0    0  0.00000000000E+00  0.00000000000E+00  0.27870112798E+03  0.26026404183E+04  0.25876751782E+04 0.  0.
        2    1    3    3  502    0  0.58441222477E+03 -0.65108062595E+03  0.10980536003E+04  0.14039819582E+04  0.25500000920E-02 0. -1.
       -2    1    3    3    0  502 -0.58441222477E+03  0.65108062595E+03 -0.81935247230E+03  0.11986584600E+04  0.25500000920E-02 0.  1.
</event>
<event>
 5   0  0.1451052E-05  0.2517440E+04  0.7818609E-02  0.8396799E-01
        1   -1    0    0  501    0  0.00000000000E+00  0.00000000000E+00  0.17265278533E+04  0.17265278533E+04  0.50400001928E-02 0.  1.
       -1   -1    0    0    0  501  0.00000000000E+00  0.00000000000E+00 -0.91766628674E+03  0.91766628676E+03  0.50400001928E-02 0. -1.
    10030    2    1    2    0    0  0.00000000000E+00  0.00000000000E+00  0.80886156654E+03  0.26441941400E+04  0.25174402905E+04 0.  0.
        1    1    3    3  502    0 -0.50314490701E+03  0.32703970199E+03 -0.75774592583E+03  0.96658608114E+03  0.50400001928E-02 0. -1.
       -1    1    3    3    0  502  0.50314490701E+03 -0.32703970199E+03  0.15666074924E+04  0.16776080589E+04  0.50400001928E-02 0.  1.
</event>
<event>
 5   0  0.3499642E-05  0.1872227E+04  0.7818609E-02  0.8668805E-01
       -2   -1    0    0    0  501  0.00000000000E+00  0.00000000000E+00  0.16681442608E+04  0.16681442608E+04  0.25500000920E-02 0.  1.
        2   -1    0    0  501    0  0.00000000000E+00  0.00000000000E+00 -0.52531956451E+03  0.52531956451E+03  0.25500000920E-02 0. -1.
    10030    2    1    2    0    0  0.00000000000E+00  0.00000000000E+00  0.11428246963E+04  0.21934638253E+04  0.18722273544E+04 0.  0.
        2    1    3    3  502    0  0.22450454944E+03  0.31207124817E+03  0.15713940458E+04  0.16177360736E+04  0.25500000920E-02 0.  1.
       -2    1    3    3    0  502 -0.22450454944E+03 -0.31207124817E+03 -0.42856934955E+03  0.57572775166E+03  0.25500000920E-02 0. -1.
</event>
<event>
 5   0  0.1451052E-05  0.2463250E+04  0.7818609E-02  0.8416196E-01
        1   -1    0    0  501    0  0.00000000000E+00  0.00000000000E+00  0.15328241365E+04  0.15328241365E+04  0.50400001928E-02 0. -1.
       -1   -1    0    0    0  501  0.00000000000E+00  0.00000000000E+00 -0.98961166630E+03  0.98961166631E+03  0.50400001928E-02 0.  1.
    10030    2    1    2    0    0  0.00000000000E+00  0.00000000000E+00  0.54321247021E+03  0.25224358028E+04  0.24632504119E+04 0.  0.
        1    1    3    3  502    0 -0.91396290605E+03 -0.75225349512E+03 -0.76694256757E+02  0.11862105730E+04  0.50400001928E-02 0. -1.
       -1    1    3    3    0  502  0.91396290605E+03  0.75225349512E+03  0.61990672697E+03  0.13362252298E+04  0.50400001928E-02 0.  1.
</event>
<event>
 5   0  0.3508470E-05  0.2536703E+04  0.7818609E-02  0.8390025E-01
        2   -1    0    0  501    0  0.00000000000E+00  0.00000000000E+00  0.16399405341E+04  0.16399405341E+04  0.25500000920E-02 0.  1.
       -2   -1    0    0    0  501  0.00000000000E+00  0.00000000000E+00 -0.98095953086E+03  0.98095953086E+03  0.25500000920E-02 0. -1.
    10030    2    1    2    0    0  0.00000000000E+00  0.00000000000E+00  0.65898100326E+03  0.26209000650E+04  0.25367028182E+04 0.  0.
        5    1    3    3  502    0 -0.45250624538E+03 -0.18258773194E+03 -0.88009097889E+03  0.10063212226E+04  0.46999998093E+01 0. -1.
       -5    1    3    3    0  502  0.45250624538E+03  0.18258773194E+03  0.15390719821E+04  0.16145788424E+04  0.46999998093E+01 0.  1.
</event>
<event>
 5   0  0.1497497E-05  0.2608092E+04  0.7818609E-02  0.8365458E-01
        1   -1    0    0  501    0  0.00000000000E+00  0.00000000000E+00  0.10189695597E+04  0.10189695597E+04  0.50400001928E-02 0.  1.
       -1   -1    0    0    0  501  0.00000000000E+00  0.00000000000E+00 -0.16688780521E+04  0.16688780521E+04  0.50400001928E-02 0. -1.
    10030    2    1    2    0    0  0.00000000000E+00  0.00000000000E+00 -0.64990849242E+03  0.26878476118E+04  0.26080919722E+04 0.  0.
        3    1    3    3  502    0  0.93154133350E+01  0.11257134365E+04 -0.10032751332E+04  0.15079385004E+04  0.10100000352E+00 0. -1.
       -3    1    3    3    0  502 -0.93154133350E+01 -0.11257134365E+04  0.35336664076E+03  0.11799091113E+04  0.10100000352E+00 0.  1.
</event>
<event>
 5   0  0.1217200E-05  0.2608278E+04  0.7818609E-02  0.8365395E-01
       -3   -1    0    0    0  501  0.00000000000E+00  0.00000000000E+00  0.13912464888E+04  0.13912464924E+04  0.10100000352E+00 0. -1.
        3   -1    0    0  501    0  0.00000000000E+00  0.00000000000E+00 -0.12224854936E+04  0.12224854977E+04  0.10100000352E+00 0.  1.
    10030    2    1    2    0    0  0.00000000000E+00  0.00000000000E+00  0.16876099522E+03  0.26137319902E+04  0.26082780992E+04 0.  0.
        1    1    3    3  502    0  0.43417544550E+03 -0.64384678481E+03 -0.96553719377E+03  0.12390758945E+04  0.50400001928E-02 0.  1.
       -1    1    3    3    0  502 -0.43417544550E+03  0.64384678481E+03  0.11342981890E+04  0.13746560957E+04  0.50400001928E-02 0. -1.
</event>
<event>
 5   0  0.1474554E-05  0.2624673E+04  0.7818609E-02  0.8359868E-01
        1   -1    0    0  501    0  0.00000000000E+00  0.00000000000E+00  0.19097245245E+04  0.19097245245E+04  0.50400001928E-02 0.  1.
       -1   -1    0    0    0  501  0.00000000000E+00  0.00000000000E+00 -0.90181935198E+03  0.90181935200E+03  0.50400001928E-02 0. -1.
    10030    2    1    2    0    0  0.00000000000E+00  0.00000000000E+00  0.10079051725E+04  0.28115438765E+04  0.26246725763E+04 0.  0.
        5    1    3    3  502    0 -0.12214859564E+04  0.41174112629E+03  0.24015555425E+03  0.13112038274E+04  0.46999998093E+01 0. -1.
       -5    1    3    3    0  502  0.12214859564E+04 -0.41174112629E+03  0.76774961826E+03  0.15003400491E+04  0.46999998093E+01 0.  1.
</event>
<event>
 5   0  0.3499642E-05  0.2646790E+04  0.7818609E-02  0.8352479E-01
        2   -1    0    0  501    0  0.00000000000E+00  0.00000000000E+00  0.12996646452E+04  0.12996646452E+04  0.25500000920E-02 0. -1.
       -2   -1    0    0    0  501  0.00000000000E+00  0.00000000000E+00 -0.13475582270E+04  0.13475582270E+04  0.25500000920E-02 0.  1.
    10030    2    1    2    0    0  0.00000000000E+00  0.00000000000E+00 -0.47893581868E+02  0.26472228722E+04  0.26467895912E+04 0.  0.
        2    1    3    3  502    0  0.33988171700E+03  0.10274435585E+04 -0.78578923903E+03  0.13373946971E+04  0.25500000920E-02 0.  1.
       -2    1    3    3    0  502 -0.33988171700E+03 -0.10274435585E+04  0.73789565717E+03  0.13098281751E+04  0.25500000920E-02 0. -1.
</event>
<event>
 5   0  0.1217200E-05  0.2599641E+04  0.7818609E-02  0.8368323E-01
       -3   -1    0    0    0  501  0.00000000000E+00  0.00000000000E+00  0.12899049031E+04  0.12899049070E+04  0.10100000352E+00 0. -1.
        3   -1    0    0  501    0  0.00000000000E+00  0.00000000000E+00 -0.13098121943E+04  0.13098121982E+04  0.10100000352E+00 0.  1.
    10030    2    1    2    0    0  0.00000000000E+00  0.00000000000E+00 -0.19907291268E+02  0.25997171052E+04  0.25996408842E+04 0.  0.
        3    1    3    3  502    0 -0.77632952692E+03 -0.91464618174E+03  0.49032894978E+03  0.12960276468E+04  0.10100000352E+00 0. -1.
       -3    1    3    3    0  502  0.77632952692E+03  0.91464618174E+03 -0.51023624105E+03  0.13036894584E+04  0.10100000352E+00 0.  1.
</event>
<event>
 5   0  0.1451052E-05  0.2295718E+04  0.7818609E-02  0.8479611E-01
       -1   -1    0    0    0  501  0.00000000000E+00  0.00000000000E+00  0.12162747450E+04  0.12162747450E+04  0.50400001928E-02 0. -1.
        1   -1    0    0  501    0  0.00000000000E+00  0.00000000000E+00 -0.10832915689E+04  0.10832915689E+04  0.50400001928E-02 0.  1.
    10030    2    1    2    0    0  0.00000000000E+00  0.00000000000E+00  0.13298317606E+03  0.22995663139E+04  0.22957179067E+04 0.  0.
        1    1    3    3  502    0 -0.28156068105E+03  0.11026727144E+04 -0.83481287669E+02  0.11411102741E+04  0.50400001928E-02 0.  1.
       -1    1    3    3    0  502  0.28156068105E+03 -0.11026727144E+04  0.21646446373E+03  0.11584560398E+04  0.50400001928E-02 0. -1.
</event>
<event>
 5   0  0.3499642E-05  0.2626609E+04  0.7818609E-02  0.8359218E-01
        2   -1    0    0  501    0  0.00000000000E+00  0.00000000000E+00  0.61617836166E+03  0.61617836166E+03  0.25500000920E-02 0.  1.
       -2   -1    0    0    0  501  0.00000000000E+00  0.00000000000E+00 -0.27991389275E+04  0.27991389275E+04  0.25500000920E-02 0. -1.
    10030    2    1    2    0    0  0.00000000000E+00  0.00000000000E+00 -0.21829605658E+04  0.34153172891E+04  0.26266090980E+04 0.  0.
        2    1    3    3  502    0 -0.11732700772E+04 -0.35833035601E+03 -0.48186631396E+03  0.13180130738E+04  0.25500000920E-02 0. -1.
       -2    1    3    3    0  502  0.11732700772E+04  0.35833035601E+03 -0.17010942518E+04  0.20973042153E+04  0.25500000920E-02 0.  1.
</event>
<event>
 5   0  0.1435062E-05  0.2689500E+04  0.7818609E-02  0.8338420E-01
       -1   -1    0    0    0  501  0.00000000000E+00  0.00000000000E+00  0.14456352982E+04  0.14456352983E+04  0.50400001928E-02 0. -1.
        1   -1    0    0  501    0  0.00000000000E+00  0.00000000000E+00 -0.12509055042E+04  0.12509055042E+04  0.50400001928E-02 0.  1.
    10030    2    1    2    0    0  0.00000000000E+00  0.00000000000E+00  0.19472979403E+03  0.26965408025E+04  0.26895004381E+04 0.  0.
        2    1    3    3  502    0  0.36424762814E+03 -0.11882700672E+04 -0.41748790823E+03  0.13110904778E+04  0.25500000920E-02 0.  1.
       -2    1    3    3    0  502 -0.36424762814E+03  0.11882700672E+04  0.61221770226E+03  0.13854503247E+04  0.25500000920E-02 0. -1.
</event>
<event>
 5   0  0.1435062E-05  0.2602371E+04  0.7818609E-02  0.8367396E-01
       -1   -1    0    0    0  501  0.00000000000E+00  0.00000000000E+00  0.81677541807E+03  0.81677541809E+03  0.50400001928E-02 0. -1.
        1   -1    0    0  501    0  0.00000000000E+00  0.00000000000E+00 -0.20728883694E+04  0.20728883694E+04  0.50400001928E-02 0.  1.
    10030    2    1    2    0    0  0.00000000000E+00  0.00000000000E+00 -0.12561129513E+04  0.28896637875E+04  0.26023714297E+04 0.  0.
        2    1    3    3  502    0  0.74082264024E+03  0.28127121049E+03 -0.17740547041E+04  0.19429878464E+04  0.25500000920E-02 0.  1.
       -2    1    3    3    0  502 -0.74082264024E+03 -0.28127121049E+03  0.51794175278E+03  0.94667594108E+03  0.25500000920E-02 0. -1.
</event>
<event>
 5   0  0.1533248E-05  0.2710283E+04  0.7818609E-02  0.8331676E-01
        1   -1    0    0  501    0  0.00000000000E+00  0.00000000000E+00  0.18451079558E+04  0.18451079558E+04  0.50400001928E-02 0. -1.
       -1   -1    0    0    0  501  0.00000000000E+00  0.00000000000E+00 -0.99528522423E+03  0.99528522424E+03  0.50400001928E-02 0.  1.
    10030    2    1    2    0    0  0.00000000000E+00  0.00000000000E+00  0.84982273158E+03  0.28403931801E+04  0.27102831480E+04 0.  0.
        4    1    3    3  502    0 -0.11398970810E+03  0.13480194142E+04  0.34201230971E+03  0.13953938610E+04  0.12699999809E+01 0. -1.
       -4    1    3    3    0  502  0.11398970810E+03 -0.13480194142E+04  0.50781042187E+03  0.14449993190E+04  0.12699999809E+01 0.  1.
</event>
<event>
 5   0  0.1533248E-05  0.2625502E+04  0.7818609E-02  0.8359590E-01
       -1   -1    0    0    0  501  0.00000000000E+00  0.00000000000E+00  0.86039842053E+03  0.86039842055E+03  0.50400001928E-02 0.  1.
        1   -1    0    0  501    0  0.00000000000E+00  0.00000000000E+00 -0.20029263426E+04  0.20029263426E+04  0.50400001928E-02 0. -1.
    10030    2    1    2    0    0  0.00000000000E+00  0.00000000000E+00 -0.11425279220E+04  0.28633247631E+04  0.26255015990E+04 0.  0.
        4    1    3    3  502    0 -0.50330753830E+02 -0.12576083296E+04 -0.97815651160E+03  0.15940212262E+04  0.12699999809E+01 0. -1.
       -4    1    3    3    0  502  0.50330753830E+02  0.12576083296E+04 -0.16437141042E+03  0.12693035369E+04  0.12699999809E+01 0.  1.
</event>
<event>
 5   0  0.1474554E-05  0.1727372E+04  0.7818609E-02  0.8745905E-01
        1   -1    0    0  501    0  0.00000000000E+00  0.00000000000E+00  0.53905583865E+03  0.53905583867E+03  0.50400001928E-02 0.  1.
       -1   -1    0    0    0  501  0.00000000000E+00  0.00000000000E+00 -0.13838144582E+04  0.13838144582E+04  0.50400001928E-02 0. -1.
    10030    2    1    2    0    0  0.00000000000E+00  0.00000000000E+00 -0.84475861955E+03  0.19228702969E+04  0.17273717183E+04 0.  0.
        5    1    3    3  502    0  0.47149018205E+03 -0.33729449220E+03 -0.11350391326E+04  0.12745220629E+04  0.46999998093E+01 0. -1.
       -5    1    3    3    0  502 -0.47149018205E+03  0.33729449220E+03  0.29028051307E+03  0.64834823398E+03  0.46999998093E+01 0.  1.
</event>
<event>
 5   0  0.1497497E-05  0.2665195E+04  0.7818609E-02  0.8346387E-01
        1   -1    0    0  501    0  0.00000000000E+00  0.00000000000E+00  0.15665584246E+04  0.15665584246E+04  0.50400001928E-02 0. -1.
       -1   -1    0    0    0  501  0.00000000000E+00  0.00000000000E+00 -0.11335783091E+04  0.11335783091E+04  0.50400001928E-02 0.  1.
    10030    2    1    2    0    0  0.00000000000E+00  0.00000000000E+00  0.43298011555E+03  0.27001367337E+04  0.26651954150E+04 0.  0.
        3    1    3    3  502    0 -0.11618575126E+04 -0.52599876114E+03  0.60785633976E+03  0.14128258620E+04  0.10100000352E+00 0.  1.
       -3    1    3    3    0  502  0.11618575126E+04  0.52599876114E+03 -0.17487622422E+03  0.12873108717E+04  0.10100000352E+00 0. -1.
</event>
<event>
 5   0  0.3508470E-05  0.2751923E+04  0.7818609E-02  0.8318352E-01
        2   -1    0    0  501    0  0.00000000000E+00  0.00000000000E+00  0.21758362080E+04  0.21758362080E+04  0.25500000920E-02 0. -1.
       -2   -1    0    0    0  501  0.00000000000E+00  0.00000000000E+00 -0.87013475743E+03  0.87013475744E+03  0.25500000920E-02 0.  1.
    10030    2    1    2    0    0  0.00000000000E+00  0.00000000000E+00  0.13057014505E+04  0.30459709654E+04  0.27519234808E+04 0.  0.
        5    1    3    3  502    0  0.50352310575E+03  0.19634142195E+03 -0.74772694661E+03  0.92260671399E+03  0.46999998093E+01 0.  1.
       -5    1    3    3    0  502 -0.50352310575E+03 -0.19634142195E+03  0.20534283972E+04  0.21233642514E+04  0.46999998093E+01 0. -1.
</event>
<event>
 5   0  0.1474554E-05  0.2592552E+04  0.7818609E-02  0.8370736E-01
        1   -1    0    0  501    0  0.00000000000E+00  0.00000000000E+00  0.27168844529E+04  0.27168844529E+04  0.50400001928E-02 0. -1.
       -1   -1    0    0    0  501  0.00000000000E+00  0.00000000000E+00 -0.61847711315E+03  0.61847711317E+03  0.50400001928E-02 0.  1.
    10030    2    1    2    0    0  0.00000000000E+00  0.00000000000E+00  0.20984073397E+04  0.33353615661E+04  0.25925515256E+04 0.  0.
        5    1    3    3  502    0 -0.21651338874E+03 -0.91524799251E+02  0.26892246816E+04  0.26994826013E+04  0.46999998093E+01 0. -1.
       -5    1    3    3    0  502  0.21651338874E+03  0.91524799251E+02 -0.59081734188E+03  0.63587896478E+03  0.46999998093E+01 0.  1.
</event>
<event>
 5   0  0.3849687E-05  0.2626394E+04  0.7818609E-02  0.8359291E-01
       -2   -1    0    0    0  501  0.00000000000E+00  0.00000000000E+00  0.16000671959E+04  0.16000671959E+04  0.25500000920E-02 0. -1.
        2   -1    0    0  501    0  0.00000000000E+00  0.00000000000E+00 -0.10777584600E+04  0.10777584600E+04  0.25500000920E-02 0.  1.
    10030    2    1    2    0    0  0.00000000000E+00  0.00000000000E+00  0.52230873583E+03  0.26778256559E+04  0.26263936925E+04 0.  0.
        1    1    3    3  502    0  0.11934497621E+04 -0.50076946433E+03  0.34555538967E+02  0.12947148244E+04  0.50400001928E-02 0.  1.
       -1    1    3    3    0  502 -0.11934497621E+04  0.50076946433E+03  0.48775319686E+03  0.13831108315E+04  0.50400001928E-02 0. -1.
</event>
<event>
 5   0  0.1497497E-05  0.2525652E+04  0.7818609E-02  0.8393904E-01
        1   -1    0    0  501    0  0.00000000000E+00  0.00000000000E+00  0.90147776647E+03  0.90147776649E+03  0.50400001928E-02 0. -1.
       -1   -1    0    0    0  501  0.00000000000E+00  0.00000000000E+00 -0.17690168916E+04  0.17690168916E+04  0.50400001928E-02 0.  1.
    10030    2    1    2    0    0  0.00000000000E+00  0.00000000000E+00 -0.86753912512E+03  0.26704946581E+04  0.25256519129E+04 0.  0.
        3    1    3    3  502    0  0.37927256741E+02  0.97597171490E+03 -0.12801572641E+04  0.16102055447E+04  0.10100000352E+00 0.  1.
       -3    1    3    3    0  502 -0.37927256741E+02 -0.97597171490E+03  0.41261813902E+03  0.10602891134E+04  0.10100000352E+00 0. -1.
</event>
<event>
 5   0  0.1533248E-05  0.2561571E+04  0.7818609E-02  0.8381373E-01
       -1   -1    0    0    0  501  0.00000000000E+00  0.00000000000E+00  0.83305303127E+03  0.83305303128E+03  0.50400001928E-02 0.  1.
        1   -1    0    0  501    0  0.00000000000E+00  0.00000000000E+00 -0.19691568006E+04  0.19691568006E+04  0.50400001928E-02 0. -1.
    10030    2    1    2    0    0  0.00000000000E+00  0.00000000000E+00 -0.11361037693E+04  0.28022098318E+04  0.25615714253E+04 0.  0.
        4    1    3    3  502    0  0.11035775077E+04  0.47445741186E+03 -0.81995377260E+02  0.12040423606E+04  0.12699999809E+01 0.  1.
       -4    1    3    3    0  502 -0.11035775077E+04 -0.47445741186E+03 -0.10541083920E+04  0.15981674713E+04  0.12699999809E+01 0. -1.
</event>
<event>
 5   0  0.3849687E-05  0.1873633E+04  0.7818609E-02  0.8668094E-01
       -2   -1    0    0    0  501  0.00000000000E+00  0.00000000000E+00  0.29961056236E+03  0.29961056237E+03  0.25500000920E-02 0.  1.
        2   -1    0    0  501    0  0.00000000000E+00  0.00000000000E+00 -0.29292188085E+04  0.29292188085E+04  0.25500000920E-02 0. -1.
    10030    2    1    2    0    0  0.00000000000E+00  0.00000000000E+00 -0.26296082461E+04  0.32288293709E+04  0.18736327223E+04 0.  0.
        1    1    3    3  502    0  0.86715534560E+03  0.62948228942E+02 -0.71361225562E+03  0.11247947921E+04  0.50400001928E-02 0. -1.
       -1    1    3    3    0  502 -0.86715534560E+03 -0.62948228942E+02 -0.19159959905E+04  0.21040345788E+04  0.50400001928E-02 0.  1.
</event>
<event>
 5   0  0.3647623E-05  0.2650482E+04  0.7818609E-02  0.8351253E-01
       -2   -1    0    0    0  501  0.00000000000E+00  0.00000000000E+00  0.84170216783E+03  0.84170216783E+03  0.25500000920E-02 0.  1.
        2   -1    0    0  501    0  0.00000000000E+00  0.00000000000E+00 -0.20865614212E+04  0.20865614213E+04  0.25500000920E-02 0. -1.
    10030    2    1    2    0    0  0.00000000000E+00  0.00000000000E+00 -0.12448592534E+04  0.29282635891E+04  0.26504816706E+04 0.  0.
        3    1    3    3  502    0 -0.11997268607E+03  0.35749574699E+03  0.78117919288E+03  0.86743160889E+03  0.10100000352E+00 0.  1.
       -3    1    3    3    0  502  0.11997268607E+03 -0.35749574699E+03 -0.20260384463E+04  0.20608319802E+04  0.10100000352E+00 0. -1.
</event>
<event>
 5   0  0.3849687E-05  0.2168867E+04  0.7818609E-02  0.8531499E-01
        2   -1    0    0  501    0  0.00000000000E+00  0.00000000000E+00  0.21914722238E+04  0.21914722238E+04  0.25500000920E-02 0.  1.
       -2   -1    0    0    0  501  0.00000000000E+00  0.00000000000E+00 -0.53662389815E+03  0.53662389816E+03  0.25500000920E-02 0. -1.
    10030    2    1    2    0    0  0.00000000000E+00  0.00000000000E+00  0.16548483257E+04  0.27280961220E+04  0.21688673242E+04 0.  0.
        1    1    3    3  502    0 -0.77168599358E+03  0.65098779689E+03  0.32948327932E+03  0.10619998191E+04  0.50400001928E-02 0. -1.
       -1    1    3    3    0  502  0.77168599358E+03 -0.65098779689E+03  0.13253650463E+04  0.16660963029E+04  0.50400001928E-02 0.  1.
</event>
<event>
 5   0  0.3647623E-05  0.2585805E+04  0.7818609E-02  0.8373039E-01
       -2   -1    0    0    0  501  0.00000000000E+00  0.00000000000E+00  0.91736616916E+03  0.91736616917E+03  0.25500000920E-02 0. -1.
        2   -1    0    0  501    0  0.00000000000E+00  0.00000000000E+00 -0.18221702431E+04  0.18221702431E+04  0.25500000920E-02 0.  1.
    10030    2    1    2    0    0  0.00000000000E+00  0.00000000000E+00 -0.90480407395E+03  0.27395364123E+04  0.25858053565E+04 0.  0.
        3    1    3    3  502    0 -0.38379954042E+03 -0.91751489503E+03  0.42282429246E+03  0.10807016528E+04  0.10100000352E+00 0. -1.
       -3    1    3    3    0  502  0.38379954042E+03  0.91751489503E+03 -0.13276283664E+04  0.16588347595E+04  0.10100000352E+00 0.  1.
</event>
<event>
 5   0  0.3499642E-05  0.2518162E+04  0.7818609E-02  0.8396544E-01
       -2   -1    0    0    0  501  0.00000000000E+00  0.00000000000E+00  0.74567215140E+03  0.74567215141E+03  0.25500000920E-02 0.  1.
        2   -1    0    0  501    0  0.00000000000E+00  0.00000000000E+00 -0.21259815897E+04  0.21259815897E+04  0.25500000920E-02 0. -1.
    10030    2    1    2    0    0  0.00000000000E+00  0.00000000000E+00 -0.13803094383E+04  0.28716537411E+04  0.25181622393E+04 0.  0.
        2    1    3    3  502    0  0.66363144598E+02  0.11648911489E+04 -0.15053858560E+03  0.11764511556E+04  0.25500000920E-02 0.  1.
       -2    1    3    3    0  502 -0.66363144598E+02 -0.11648911489E+04 -0.12297708527E+04  0.16952025855E+04  0.25500000920E-02 0. -1.
</event>
<event>
 5   0  0.3849687E-05  0.2520205E+04  0.7818609E-02  0.8395822E-01
       -2   -1    0    0    0  501  0.00000000000E+00  0.00000000000E+00  0.87699579419E+03  0.87699579420E+03  0.25500000920E-02 0. -1.
        2   -1    0    0  501    0  0.00000000000E+00  0.00000000000E+00 -0.18105659903E+04  0.18105659903E+04  0.25500000920E-02 0.  1.
    10030    2    1    2    0    0  0.00000000000E+00  0.00000000000E+00 -0.93357019608E+03  0.26875617845E+04  0.25202053556E+04 0.  0.
        1    1    3    3  502    0  0.24414874245E+03 -0.51698516449E+03  0.73071627945E+03  0.92780846613E+03  0.50400001928E-02 0. -1.
       -1    1    3    3    0  502 -0.24414874245E+03  0.51698516449E+03 -0.16642864755E+04  0.17597533183E+04  0.50400001928E-02 0.  1.
</event>
<event>
 5   0  0.1474554E-05  0.2614693E+04  0.7818609E-02  0.8363227E-01
        1   -1    0    0  501    0  0.00000000000E+00  0.00000000000E+00  0.92673015027E+03  0.92673015029E+03  0.50400001928E-02 0.  1.
       -1   -1    0    0    0  501  0.00000000000E+00  0.00000000000E+00 -0.18442852229E+04  0.18442852230E+04  0.50400001928E-02 0. -1.
    10030    2    1    2    0    0  0.00000000000E+00  0.00000000000E+00 -0.91755507267E+03  0.27710153732E+04  0.26146928859E+04 0.  0.
        5    1    3    3  502    0 -0.78194590016E+03 -0.10459090753E+04 -0.52382671820E+03  0.14070471582E+04  0.46999998093E+01 0.  1.
       -5    1    3    3    0  502  0.78194590016E+03  0.10459090753E+04 -0.39372835447E+03  0.13639682151E+04  0.46999998093E+01 0. -1.
</event>
<event>
 5   0  0.1474554E-05  0.2841823E+04  0.7818609E-02  0.8290400E-01
        1   -1    0    0  501    0  0.00000000000E+00  0.00000000000E+00  0.24113876049E+04  0.24113876049E+04  0.50400001928E-02 0. -1.
       -1   -1    0    0    0  501  0.00000000000E+00  0.00000000000E+00 -0.83727277436E+03  0.83727277437E+03  0.50400001928E-02 0.  1.
    10030    2    1    2    0    0  0.00000000000E+00  0.00000000000E+00  0.15741148306E+04  0.32486603793E+04  0.28418227883E+04 0.  0.
        5    1    3    3  502    0  0.31525275884E+03 -0.73298530028E+02  0.23686773263E+04  0.23906926491E+04  0.46999998093E+01 0. -1.
       -5    1    3    3    0  502 -0.31525275884E+03  0.73298530028E+02 -0.79456249572E+03  0.85796773020E+03  0.46999998093E+01 0.  1.
</event>
<event>
 5   0  0.3499642E-05  0.2626226E+04  0.7818609E-02  0.8359347E-01
        2   -1    0    0  501    0  0.00000000000E+00  0.00000000000E+00  0.25207605340E+04  0.25207605340E+04  0.25500000920E-02 0.  1.
       -2   -1    0    0    0  501  0.00000000000E+00  0.00000000000E+00 -0.68402578591E+03  0.68402578591E+03  0.25500000920E-02 0. -1.
    10030    2    1    2    0    0  0.00000000000E+00  0.00000000000E+00  0.18367347481E+04  0.32047863199E+04  0.26262255847E+04 0.  0.
        2    1    3    3  502    0  0.50674338709E+03 -0.60116110312E+02  0.23948120492E+04  0.24485766392E+04  0.25500000920E-02 0.  1.
       -2    1    3    3    0  502 -0.50674338709E+03  0.60116110312E+02 -0.55807730115E+03  0.75620968067E+03  0.25500000920E-02 0. -1.
</event>
<event>
 5   0  0.1497497E-05  0.2596072E+04  0.7818609E-02  0.8369537E-01
        1   -1    0    0  501    0  0.00000000000E+00  0.00000000000E+00  0.23886063062E+04  0.23886063062E+04  0.50400001928E-02 0.  1.
       -1   -1    0    0    0  501  0.00000000000E+00  0.00000000000E+00 -0.70538924623E+03  0.70538924625E+03  0.50400001928E-02 0. -1.
    10030    2    1    2    0    0  0.00000000000E+00  0.00000000000E+00  0.16832170600E+04  0.30939955524E+04  0.25960718032E+04 0.  0.
        3    1    3    3  502    0 -0.95995281753E+03  0.22085710060E+03  0.18490910168E+04  0.20950954320E+04  0.10100000352E+00 0.  1.
       -3    1    3    3    0  502  0.95995281753E+03 -0.22085710060E+03 -0.16587395684E+03  0.99890012040E+03  0.10100000352E+00 0. -1.
</event>
<event>
 5   0  0.1474554E-05  0.2592457E+04  0.7818609E-02  0.8370768E-01
       -1   -1    0    0    0  501  0.00000000000E+00  0.00000000000E+00  0.14118257640E+04  0.14118257640E+04  0.50400001928E-02 0.  1.
        1   -1    0    0  501    0  0.00000000000E+00  0.00000000000E+00 -0.11900965132E+04  0.11900965133E+04  0.50400001928E-02 0. -1.
    10030    2    1    2    0    0  0.00000000000E+00  0.00000000000E+00  0.22172925071E+03  0.26019222772E+04  0.25924574589E+04 0.  0.
        5    1    3    3  502    0  0.69683072589E+03  0.10187647339E+04  0.50820415718E+03  0.13348214109E+04  0.46999998093E+01 0.  1.
       -5    1    3    3    0  502 -0.69683072589E+03 -0.10187647339E+04 -0.28647490647E+03  0.12671008664E+04  0.46999998093E+01 0. -1.
</event>
<event>
 5   0  0.1217200E-05  0.2560770E+04  0.7818609E-02  0.8381650E-01
       -4   -1    0    0    0  501  0.00000000000E+00  0.00000000000E+00  0.10566550379E+04  0.10566558011E+04  0.12699999809E+01 0. -1.
        4   -1    0    0  501    0  0.00000000000E+00  0.00000000000E+00 -0.15514848206E+04  0.15514853404E+04  0.12699999809E+01 0.  1.
    10030    2    1    2    0    0  0.00000000000E+00  0.00000000000E+00 -0.49482978269E+03  0.26081411414E+04  0.25607701380E+04 0.  0.
        2    1    3    3  502    0  0.33346266238E+03 -0.10297899456E+04 -0.94396769074E+03  0.14362241052E+04  0.25500000920E-02 0.  1.
       -2    1    3    3    0  502 -0.33346266238E+03  0.10297899456E+04  0.44913790805E+03  0.11719170362E+04  0.25500000920E-02 0. -1.
</event>
<event>
 5   0  0.3647623E-05  0.2124230E+04  0.7818609E-02  0.8550644E-01
        2   -1    0    0  501    0  0.00000000000E+00  0.00000000000E+00  0.13420154553E+04  0.13420154553E+04  0.25500000920E-02 0. -1.
       -2   -1    0    0    0  501  0.00000000000E+00  0.00000000000E+00 -0.84059280421E+03  0.84059280422E+03  0.25500000920E-02 0.  1.
    10030    2    1    2    0    0  0.00000000000E+00  0.00000000000E+00  0.50142265104E+03  0.21826082595E+04  0.21242302463E+04 0.  0.
        3    1    3    3  502    0  0.54216312546E+03 -0.41240249956E+03 -0.58658992708E+03  0.89894628816E+03  0.10100000352E+00 0.  1.
       -3    1    3    3    0  502 -0.54216312546E+03  0.41240249956E+03  0.10880125781E+04  0.12836619713E+04  0.10100000352E+00 0. -1.
</event>
<event>
 5   0  0.1474554E-05  0.2571924E+04  0.7818609E-02  0.8377801E-01
       -1   -1    0    0    0  501  0.00000000000E+00  0.00000000000E+00  0.10366213739E+04  0.10366213739E+04  0.50400001928E-02 0.  1.
        1   -1    0    0  501    0  0.00000000000E+00  0.00000000000E+00 -0.15952775752E+04  0.15952775752E+04  0.50400001928E-02 0. -1.
    10030    2    1    2    0    0  0.00000000000E+00  0.00000000000E+00 -0.55865620134E+03  0.26318989491E+04  0.25719244404E+04 0.  0.
        5    1    3    3  502    0  0.94391279555E+03 -0.68907024081E+03  0.26973526670E+03  0.11994033377E+04  0.46999998093E+01 0.  1.
       -5    1    3    3    0  502 -0.94391279555E+03  0.68907024081E+03 -0.82839146805E+03  0.14324956114E+04  0.46999998093E+01 0. -1.
</event>
<event>
 5   0  0.3499642E-05  0.2585872E+04  0.7818609E-02  0.8373016E-01
        2   -1    0    0  501    0  0.00000000000E+00  0.00000000000E+00  0.22523807427E+04  0.22523807427E+04  0.25500000920E-02 0. -1.
       -2   -1    0    0    0  501  0.00000000000E+00  0.00000000000E+00 -0.74218492929E+03  0.74218492929E+03  0.25500000920E-02 0.  1.
    10030    2    1    2    0    0  0.00000000000E+00  0.00000000000E+00  0.15101958134E+04  0.29945656720E+04  0.25858716459E+04 0.  0.
        2    1    3    3  502    0 -0.64317878993E+02  0.10282959780E+04  0.16596768600E+04  0.19534729810E+04  0.25500000920E-02 0. -1.
       -2    1    3    3    0  502  0.64317878993E+02 -0.10282959780E+04 -0.14948104664E+03  0.10410926910E+04  0.25500000920E-02 0.  1.
</event>
<event>
 5   0  0.1451052E-05  0.2575860E+04  0.7818609E-02  0.8376448E-01
        1   -1    0    0  501    0  0.00000000000E+00  0.00000000000E+00  0.10122410359E+04  0.10122410359E+04  0.50400001928E-02 0. -1.
       -1   -1    0    0    0  501  0.00000000000E+00  0.00000000000E+00 -0.16387040904E+04  0.16387040904E+04  0.50400001928E-02 0.  1.
    10030    2    1    2    0    0  0.00000000000E+00  0.00000000000E+00 -0.62646305444E+03  0.26509451263E+04  0.25758598767E+04 0.  0.
        1    1    3    3  502    0  0.11282979712E+04  0.23459508813E+03  0.27857186544E+03  0.11856194378E+04  0.50400001928E-02 0. -1.
       -1    1    3    3    0  502 -0.11282979712E+04 -0.23459508813E+03 -0.90503491988E+03  0.14653256885E+04  0.50400001928E-02 0.  1.
</event>
<event>
 5   0  0.3647623E-05  0.1701415E+04  0.7818609E-02  0.8760558E-01
        2   -1    0    0  501    0  0.00000000000E+00  0.00000000000E+00  0.55600393801E+03  0.55600393802E+03  0.25500000920E-02 0.  1.
       -2   -1    0    0    0  501  0.00000000000E+00  0.00000000000E+00 -0.13016159175E+04  0.13016159175E+04  0.25500000920E-02 0. -1.
    10030    2    1    2    0    0  0.00000000000E+00  0.00000000000E+00 -0.74561197946E+03  0.18576198555E+04  0.17014153824E+04 0.  0.
        3    1    3    3  502    0 -0.25556058253E+03  0.27038920717E+03 -0.12080802241E+04  0.12640725346E+04  0.10100000352E+00 0. -1.
       -3    1    3    3    0  502  0.25556058253E+03 -0.27038920717E+03  0.46246824460E+03  0.59354732092E+03  0.10100000352E+00 0.  1.
</event>
<event>
 5   0  0.1435062E-05  0.2556377E+04  0.7818609E-02  0.8383172E-01
       -1   -1    0    0    0  501  0.00000000000E+00  0.00000000000E+00  0.74480091968E+03  0.74480091970E+03  0.50400001928E-02 0. -1.
        1   -1    0    0  501    0  0.00000000000E+00  0.00000000000E+00 -0.21935605625E+04  0.21935605625E+04  0.50400001928E-02 0.  1.
    10030    2    1    2    0    0  0.00000000000E+00  0.00000000000E+00 -0.14487596428E+04  0.29383614822E+04  0.25563770648E+04 0.  0.
        2    1    3    3  502    0 -0.10615615028E+04  0.36062733704E+03 -0.18815929656E+02  0.11213023408E+04  0.25500000920E-02 0.  1.
       -2    1    3    3    0  502  0.10615615028E+04 -0.36062733704E+03 -0.14299437132E+04  0.18170591414E+04  0.25500000920E-02 0. -1.
</event>
<event>
 5   0  0.1497497E-05  0.2698777E+04  0.7818609E-02  0.8335402E-01
       -1   -1    0    0    0  501  0.00000000000E+00  0.00000000000E+00  0.14408312167E+04  0.14408312167E+04  0.50400001928E-02 0.  1.
        1   -1    0    0  501    0  0.00000000000E+00  0.00000000000E+00 -0.12637489775E+04  0.12637489775E+04  0.50400001928E-02 0. -1.
    10030    2    1    2    0    0  0.00000000000E+00  0.00000000000E+00  0.17708223917E+03  0.27045801942E+04  0.26987767428E+04 0.  0.
        3    1    3    3  502    0  0.16073441985E+03 -0.78367086465E+03 -0.10004756623E+04  0.12809867833E+04  0.10100000352E+00 0. -1.
       -3    1    3    3    0  502 -0.16073441985E+03  0.78367086465E+03  0.11775579015E+04  0.14235934109E+04  0.10100000352E+00 0.  1.
</event>
<event>
 5   0  0.1474554E-05  0.2539242E+04  0.7818609E-02  0.8389137E-01
        1   -1    0    0  501    0  0.00000000000E+00  0.00000000000E+00  0.18032340582E+04  0.18032340582E+04  0.50400001928E-02 0. -1.
       -1   -1    0    0    0  501  0.00000000000E+00  0.00000000000E+00 -0.89391456159E+03  0.89391456161E+03  0.50400001928E-02 0.  1.
    10030    2    1    2    0    0  0.00000000000E+00  0.00000000000E+00  0.90931949662E+03  0.26971486198E+04  0.25392417629E+04 0.  0.
        5    1    3    3  502    0  0.65920353225E+03 -0.29348926656E+03 -0.65492107796E+03  0.97448907376E+03  0.46999998093E+01 0.  1.
       -5    1    3    3    0  502 -0.65920353225E+03  0.29348926656E+03  0.15642405746E+04  0.17226595461E+04  0.46999998093E+01 0. -1.
</event>
<event>
 5   0  0.1435062E-05  0.2504582E+04  0.7818609E-02  0.8401355E-01
       -1   -1    0    0    0  501  0.00000000000E+00  0.00000000000E+00  0.98836788309E+03  0.98836788311E+03  0.50400001928E-02 0. -1.
        1   -1    0    0  501    0  0.00000000000E+00  0.00000000000E+00 -0.15866898545E+04  0.15866898545E+04  0.50400001928E-02 0.  1.
    10030    2    1    2    0    0  0.00000000000E+00  0.00000000000E+00 -0.59832197138E+03  0.25750577376E+04  0.25045824344E+04 0.  0.
        2    1    3    3  502    0 -0.94233091582E+03  0.81964542860E+03 -0.39354337093E+03  0.13094588838E+04  0.25500000920E-02 0.  1.
       -2    1    3    3    0  502  0.94233091582E+03 -0.81964542860E+03 -0.20477860045E+03  0.12655988538E+04  0.25500000920E-02 0. -1.
</event>
<event>
 5   0  0.3441646E-05  0.2584206E+04  0.7818609E-02  0.8373586E-01
        2   -1    0    0  501    0  0.00000000000E+00  0.00000000000E+00  0.22439216547E+04  0.22439216547E+04  0.25500000920E-02 0. -1.
       -2   -1    0    0    0  501  0.00000000000E+00  0.00000000000E+00 -0.74402314204E+03  0.74402314205E+03  0.25500000920E-02 0.  1.
    10030    2    1    2    0    0  0.00000000000E+00  0.00000000000E+00  0.14998985126E+04  0.29879447967E+04  0.25842055955E+04 0.  0.
        4    1    3    3  502    0 -0.66907919447E+03 -0.67068711419E+03 -0.26598444378E+03  0.98399060506E+03  0.12699999809E+01 0. -1.
       -4    1    3    3    0  502  0.66907919447E+03  0.67068711419E+03  0.17658829564E+04  0.20039541916E+04  0.12699999809E+01 0.  1.
</event>
<event>
 5   0  0.1533248E-05  0.2769602E+04  0.7818609E-02  0.8312768E-01
       -1   -1    0    0    0  501  0.00000000000E+00  0.00000000000E+00  0.16514085946E+04  0.16514085947E+04  0.50400001928E-02 0.  1.
        1   -1    0    0  501    0  0.00000000000E+00  0.00000000000E+00 -0.11612348802E+04  0.11612348802E+04  0.50400001928E-02 0. -1.
    10030    2    1    2    0    0  0.00000000000E+00  0.00000000000E+00  0.49017371449E+03  0.28126434748E+04  0.27696016042E+04 0.  0.
        4    1    3    3  502    0  0.52028171897E+03 -0.11177385207E+04  0.88547306310E+03  0.15179251056E+04  0.12699999809E+01 0.  1.
       -4    1    3    3    0  502 -0.52028171897E+03  0.11177385207E+04 -0.39529934861E+03  0.12947183693E+04  0.12699999809E+01 0. -1.
</event>
<event>
 5   0  0.1474554E-05  0.2551926E+04  0.7818609E-02  0.8384717E-01
        1   -1    0    0  501    0  0.00000000000E+00  0.00000000000E+00  0.12882279308E+04  0.12882279308E+04  0.50400001928E-02 0. -1.
       -1   -1    0    0    0  501  0.00000000000E+00  0.00000000000E+00 -0.12638147981E+04  0.12638147981E+04  0.50400001928E-02 0.  1.
    10030    2    1    2    0    0  0.00000000000E+00  0.00000000000E+00  0.24413132736E+02  0.25520427289E+04  0.25519259568E+04 0.  0.
        5    1    3    3  502    0 -0.12883542120E+03  0.89931637733E+02 -0.12540950983E+04  0.12639077778E+04  0.46999998093E+01 0.  1.
       -5    1    3    3    0  502  0.12883542120E+03 -0.89931637733E+02  0.12785082311E+04  0.12881349510E+04  0.46999998093E+01 0. -1.
</event>
<event>
 5   0  0.1435062E-05  0.2618619E+04  0.7818609E-02  0.8361904E-01
        1   -1    0    0  501    0  0.00000000000E+00  0.00000000000E+00  0.16136010518E+04  0.16136010518E+04  0.50400001928E-02 0. -1.
       -1   -1    0    0    0  501  0.00000000000E+00  0.00000000000E+00 -0.10624007258E+04  0.10624007258E+04  0.50400001928E-02 0.  1.
    10030    2    1    2    0    0  0.00000000000E+00  0.00000000000E+00  0.55120032597E+03  0.26760017776E+04  0.26186186653E+04 0.  0.
        2    1    3    3  502    0  0.89232898385E+03 -0.93548845038E+03  0.63935078276E+02  0.12944023140E+04  0.25500000920E-02 0.  1.
       -2    1    3    3    0  502 -0.89232898385E+03  0.93548845038E+03  0.48726524770E+03  0.13815994636E+04  0.25500000920E-02 0. -1.
</event>
<event>
 5   0  0.3849687E-05  0.2522569E+04  0.7818609E-02  0.8394989E-01
        2   -1    0    0  501    0  0.00000000000E+00  0.00000000000E+00  0.13756401153E+04  0.13756401153E+04  0.25500000920E-02 0. -1.
       -2   -1    0    0    0  501  0.00000000000E+00  0.00000000000E+00 -0.11564350565E+04  0.11564350565E+04  0.25500000920E-02 0.  1.
    10030    2    1    2    0    0  0.00000000000E+00  0.00000000000E+00  0.21920505877E+03  0.25320751718E+04  0.25225688926E+04 0.  0.
        1    1    3    3  502    0  0.28260309529E+03 -0.75259846107E+03 -0.86594968336E+03  0.11815827551E+04  0.50400001928E-02 0.  1.
       -1    1    3    3    0  502 -0.28260309529E+03  0.75259846107E+03  0.10851547421E+04  0.13504924167E+04  0.50400001928E-02 0. -1.
</event>
<event>
 5   0  0.3647623E-05  0.2583157E+04  0.7818609E-02  0.8373945E-01
        2   -1    0    0  501    0  0.00000000000E+00  0.00000000000E+00  0.19565022171E+04  0.19565022171E+04  0.25500000920E-02 0.  1.
       -2   -1    0    0    0  501  0.00000000000E+00  0.00000000000E+00 -0.85263128507E+03  0.85263128508E+03  0.25500000920E-02 0. -1.
    10030    2    1    2    0    0  0.00000000000E+00  0.00000000000E+00  0.11038709320E+04  0.28091335021E+04  0.25831569829E+04 0.  0.
        3    1    3    3  502    0  0.40322354201E+03  0.86479228744E+03  0.14985561138E+04  0.17765487220E+04  0.10100000352E+00 0.  1.
       -3    1    3    3    0  502 -0.40322354201E+03 -0.86479228744E+03 -0.39468518180E+03  0.10325847801E+04  0.10100000352E+00 0. -1.
</event>
<event>
 5   0  0.3647623E-05  0.1834921E+04  0.7818609E-02  0.8687946E-01
       -2   -1    0    0    0  501  0.00000000000E+00  0.00000000000E+00  0.78937197610E+03  0.78937197611E+03  0.25500000920E-02 0.  1.
        2   -1    0    0  501    0  0.00000000000E+00  0.00000000000E+00 -0.10663332880E+04  0.10663332880E+04  0.25500000920E-02 0. -1.
    10030    2    1    2    0    0  0.00000000000E+00  0.00000000000E+00 -0.27696131194E+03  0.18557052642E+04  0.18349208318E+04 0.  0.
        3    1    3    3  502    0  0.34119307666E+03  0.85127008734E+03 -0.16446462869E+03  0.93173070222E+03  0.10100000352E+00 0. -1.
       -3    1    3    3    0  502 -0.34119307666E+03 -0.85127008734E+03 -0.11249668325E+03  0.92397456194E+03  0.10100000352E+00 0.  1.
</event>
<event>
 5   0  0.1533248E-05  0.2589463E+04  0.7818609E-02  0.8371789E-01
        1   -1    0    0  501    0  0.00000000000E+00  0.00000000000E+00  0.15891882470E+04  0.15891882470E+04  0.50400001928E-02 0.  1.
       -1   -1    0    0    0  501  0.00000000000E+00  0.00000000000E+00 -0.10548342595E+04  0.10548342595E+04  0.50400001928E-02 0. -1.
    10030    2    1    2    0    0  0.00000000000E+00  0.00000000000E+00  0.53435398751E+03  0.26440225065E+04  0.25894634253E+04 0.  0.
        4    1    3    3  502    0  0.11942145860E+04  0.30492960309E+02 -0.24259175586E+03  0.12189875598E+04  0.12699999809E+01 0. -1.
       -4    1    3    3    0  502 -0.11942145860E+04 -0.30492960309E+02  0.77694574337E+03  0.14250349466E+04  0.12699999809E+01 0.  1.
</event>
<event>
 5   0  0.3849687E-05  0.2555984E+04  0.7818609E-02  0.8383308E-01
       -2   -1    0    0    0  501  0.00000000000E+00  0.00000000000E+00  0.10179569752E+04  0.10179569752E+04  0.25500000920E-02 0. -1.
        2   -1    0    0  501    0  0.00000000000E+00  0.00000000000E+00 -0.16044519111E+04  0.16044519111E+04  0.25500000920E-02 0.  1.
    10030    2    1    2    0    0  0.00000000000E+00  0.00000000000E+00 -0.58649493592E+03  0.26224088863E+04  0.25559835792E+04 0.  0.
        1    1    3    3  502    0 -0.12692789692E+04  0.43636539112E+01 -0.44602971755E+03  0.13453737964E+04  0.50400001928E-02 0. -1.
       -1    1    3    3    0  502  0.12692789692E+04 -0.43636539112E+01 -0.14046521838E+03  0.12770350899E+04  0.50400001928E-02 0.  1.
</event>
<event>
 5   0  0.1435062E-05  0.2578081E+04  0.7818609E-02  0.8375685E-01
        1   -1    0    0  501    0  0.00000000000E+00  0.00000000000E+00  0.89403870267E+03  0.89403870268E+03  0.50400001928E-02 0.  1.
       -1   -1    0    0    0  501  0.00000000000E+00  0.00000000000E+00 -0.18585611467E+04  0.18585611468E+04  0.50400001928E-02 0. -1.
    10030    2    1    2    0    0  0.00000000000E+00  0.00000000000E+00 -0.96452244407E+03  0.27525998494E+04  0.25780811442E+04 0.  0.
        2    1    3    3  502    0  0.52816868370E+03 -0.96818455518E+03 -0.11947271834E+04  0.16259509630E+04  0.25500000920E-02 0. -1.
       -2    1    3    3    0  502 -0.52816868370E+03  0.96818455518E+03  0.23020473930E+03  0.11266488864E+04  0.25500000920E-02 0.  1.
</event>
<event>
 5   0  0.1451052E-05  0.2607830E+04  0.7818609E-02  0.8365547E-01
       -1   -1    0    0    0  501  0.00000000000E+00  0.00000000000E+00  0.11033317519E+04  0.11033317519E+04  0.50400001928E-02 0.  1.
        1   -1    0    0  501    0  0.00000000000E+00  0.00000000000E+00 -0.15409634252E+04  0.15409634252E+04  0.50400001928E-02 0. -1.
    10030    2    1    2    0    0  0.00000000000E+00  0.00000000000E+00 -0.43763167330E+03  0.26442951771E+04  0.26078296536E+04 0.  0.
        1    1    3    3  502    0  0.78636337012E+03  0.84016031114E+03  0.40291141463E+03  0.12192515353E+04  0.50400001928E-02 0.  1.
       -1    1    3    3    0  502 -0.78636337012E+03 -0.84016031114E+03 -0.84054308793E+03  0.14250436418E+04  0.50400001928E-02 0. -1.
</event>
<event>
 5   0  0.1474554E-05  0.2678991E+04  0.7818609E-02  0.8341854E-01
        1   -1    0    0  501    0  0.00000000000E+00  0.00000000000E+00  0.19149360461E+04  0.19149360462E+04  0.50400001928E-02 0. -1.
       -1   -1    0    0    0  501  0.00000000000E+00  0.00000000000E+00 -0.93697559083E+03  0.93697559085E+03  0.50400001928E-02 0.  1.
    10030    2    1    2    0    0  0.00000000000E+00  0.00000000000E+00  0.97796045532E+03  0.28519116370E+04  0.26789911036E+04 0.  0.
        5    1    3    3  502    0  0.35353504321E+02 -0.13002366499E+03  0.19076942460E+04  0.19124527314E+04  0.46999998093E+01 0. -1.
       -5    1    3    3    0  502 -0.35353504321E+02  0.13002366499E+03 -0.92973379068E+03  0.93945890558E+03  0.46999998093E+01 0.  1.
</event>
<event>
 5   0  0.3499642E-05  0.2575917E+04  0.7818609E-02  0.8376428E-01
       -2   -1    0    0    0  501  0.00000000000E+00  0.00000000000E+00  0.11030345011E+04  0.11030345011E+04  0.25500000920E-02 0. -1.
        2   -1    0    0  501    0  0.00000000000E+00  0.00000000000E+00 -0.15038845473E+04  0.15038845473E+04  0.25500000920E-02 0.  1.
    10030    2    1    2    0    0  0.00000000000E+00  0.00000000000E+00 -0.40085004615E+03  0.26069190484E+04  0.25759165680E+04 0.  0.
        2    1    3    3  502    0 -0.35593507082E+03  0.44952829941E+03  0.96674245372E+03  0.11239912982E+04  0.25500000920E-02 0. -1.
       -2    1    3    3    0  502  0.35593507082E+03 -0.44952829941E+03 -0.13675924999E+04  0.14829277502E+04  0.25500000920E-02 0.  1.
</event>
<event>
 5   0  0.3441646E-05  0.2603822E+04  0.7818609E-02  0.8366904E-01
       -2   -1    0    0    0  501  0.00000000000E+00  0.00000000000E+00  0.12706987670E+04  0.12706987670E+04  0.25500000920E-02 0.  1.
        2   -1    0    0  501    0  0.00000000000E+00  0.00000000000E+00 -0.13338894655E+04  0.13338894655E+04  0.25500000920E-02 0. -1.
    10030    2    1    2    0    0  0.00000000000E+00  0.00000000000E+00 -0.63190698559E+02  0.26045882325E+04  0.26038215754E+04 0.  0.
        4    1    3    3  502    0 -0.15321464255E+03  0.86726718061E+03 -0.99070141786E+03  0.13255632771E+04  0.12699999809E+01 0. -1.
       -4    1    3    3    0  502  0.15321464255E+03 -0.86726718061E+03  0.92751071930E+03  0.12790249554E+04  0.12699999809E+01 0.  1.
</event>
<event>
 5   0  0.3508470E-05  0.2488961E+04  0.7818609E-02  0.8406929E-01
       -2   -1    0    0    0  501  0.00000000000E+00  0.00000000000E+00  0.16134110404E+04  0.16134110404E+04  0.25500000920E-02 0.  1.
        2   -1    0    0  501    0  0.00000000000E+00  0.00000000000E+00 -0.95991143761E+03  0.95991143762E+03  0.25500000920E-02 0. -1.
    10030    2    1    2    0    0  0.00000000000E+00  0.00000000000E+00  0.65349960281E+03  0.25733224780E+04  0.24889609971E+04 0.  0.
        5    1    3    3  502    0  0.51105492215E+03 -0.60902853867E+03 -0.66310162122E+03  0.10352867933E+04  0.46999998093E+01 0. -1.
       -5    1    3    3    0  502 -0.51105492215E+03  0.60902853867E+03  0.13166012240E+04  0.15380356847E+04  0.46999998093E+01 0.  1.
</event>
<event>
 5   0  0.1435062E-05  0.2605733E+04  0.7818609E-02  0.8366256E-01
       -1   -1    0    0    0  501  0.00000000000E+00  0.00000000000E+00  0.67518689091E+03  0.67518689093E+03  0.50400001928E-02 0. -1.
        1   -1    0    0  501    0  0.00000000000E+00  0.00000000000E+00 -0.25140616521E+04  0.25140616521E+04  0.50400001928E-02 0.  1.
    10030    2    1    2    0    0  0.00000000000E+00  0.00000000000E+00 -0.18388747612E+04  0.31892485431E+04  0.26057332715E+04 0.  0.
        2    1    3    3  502    0  0.29723687152E+03  0.11496230494E+04 -0.26319974219E+03  0.12162471039E+04  0.25500000920E-02 0. -1.
       -2    1    3    3    0  502 -0.29723687152E+03 -0.11496230494E+04 -0.15756750190E+04  0.19730014392E+04  0.25500000920E-02 0.  1.
</event>
<event>
 5   0  0.3441646E-05  0.2677079E+04  0.7818609E-02  0.8342481E-01
       -2   -1    0    0    0  501  0.00000000000E+00  0.00000000000E+00  0.68332466899E+03  0.68332466899E+03  0.25500000920E-02 0. -1.
        2   -1    0    0  501    0  0.00000000000E+00  0.00000000000E+00 -0.26220158087E+04  0.26220158087E+04  0.25500000920E-02 0.  1.
    10030    2    1    2    0    0  0.00000000000E+00  0.00000000000E+00 -0.19386911397E+04  0.33053404777E+04  0.26770790684E+04 0.  0.
        4    1    3    3  502    0  0.39326593274E+03  0.73412708898E+03  0.32447228581E+03  0.89380342010E+03  0.12699999809E+01 0. -1.
       -4    1    3    3    0  502 -0.39326593274E+03 -0.73412708898E+03 -0.22631634256E+04  0.24115370576E+04  0.12699999809E+01 0.  1.
</event>
<event>
 5   0  0.3849687E-05  0.2586334E+04  0.7818609E-02  0.8372858E-01
       -2   -1    0    0    0  501  0.00000000000E+00  0.00000000000E+00  0.80505594412E+03  0.80505594413E+03  0.25500000920E-02 0.  1.
        2   -1    0    0  501    0  0.00000000000E+00  0.00000000000E+00 -0.20772226694E+04  0.20772226694E+04  0.25500000920E-02 0. -1.
    10030    2    1    2    0    0  0.00000000000E+00  0.00000000000E+00 -0.12721667253E+04  0.28822786136E+04  0.25863336655E+04 0.  0.
        1    1    3    3  502    0 -0.62461459216E+01  0.10320550703E+04 -0.15044094983E+04  0.18243970568E+04  0.50400001928E-02 0. -1.
       -1    1    3    3    0  502  0.62461459216E+01 -0.10320550703E+04  0.23224277301E+03  0.10578815567E+04  0.50400001928E-02 0.  1.
</event>
<event>
 5   0  0.1451052E-05  0.2592198E+04  0.7818609E-02  0.8370856E-01
        1   -1    0    0  501    0  0.00000000000E+00  0.00000000000E+00  0.14945344644E+04  0.14945344645E+04  0.50400001928E-02 0. -1.
       -1   -1    0    0    0  501  0.00000000000E+00  0.00000000000E+00 -0.11240102726E+04  0.11240102727E+04  0.50400001928E-02 0.  1.
    10030    2    1    2    0    0  0.00000000000E+00  0.00000000000E+00  0.37052419181E+03  0.26185447371E+04  0.25921975935E+04 0.  0.
        1    1    3    3  502    0  0.39202732554E+03 -0.12009725348E+04  0.47777677778E+03  0.13506632085E+04  0.50400001928E-02 0.  1.
       -1    1    3    3    0  502 -0.39202732554E+03  0.12009725348E+04 -0.10725258598E+03  0.12678815286E+04  0.50400001928E-02 0. -1.
</event>
<event>
 5   0  0.1474554E-05  0.2555656E+04  0.7818609E-02  0.8383422E-01
        1   -1    0    0  501    0  0.00000000000E+00  0.00000000000E+00  0.23445720669E+04  0.23445720669E+04  0.50400001928E-02 0. -1.
       -1   -1    0    0    0  501  0.00000000000E+00  0.00000000000E+00 -0.69643583263E+03  0.69643583265E+03  0.50400001928E-02 0.  1.
    10030    2    1    2    0    0  0.00000000000E+00  0.00000000000E+00  0.16481362343E+04  0.30410078996E+04  0.25556556886E+04 0.  0.
        5    1    3    3  502    0 -0.83645443893E+03 -0.33165604052E+03 -0.25552476519E+03  0.93539657539E+03  0.46999998093E+01 0.  1.
       -5    1    3    3    0  502  0.83645443893E+03  0.33165604052E+03  0.19036609995E+04  0.21056113242E+04  0.46999998093E+01 0. -1.
</event>
<event>
 5   0  0.3508470E-05  0.2626004E+04  0.7818609E-02  0.8359422E-01
       -2   -1    0    0    0  501  0.00000000000E+00  0.00000000000E+00  0.10798547848E+04  0.10798547848E+04  0.25500000920E-02 0. -1.
        2   -1    0    0  501    0  0.00000000000E+00  0.00000000000E+00 -0.15964866067E+04  0.15964866067E+04  0.25500000920E-02 0.  1.
    10030    2    1    2    0    0  0.00000000000E+00  0.00000000000E+00 -0.51663182192E+03  0.26763413915E+04  0.26260035804E+04 0.  0.
        5    1    3    3  502    0 -0.11092910450E+04  0.45650039618E+03 -0.80243416290E+03  0.14432054289E+04  0.46999998093E+01 0.  1.
       -5    1    3    3    0  502  0.11092910450E+04 -0.45650039618E+03  0.28580234098E+03  0.12331359626E+04  0.46999998093E+01 0. -1.
</event>
<event>
 5   0  0.3508470E-05  0.2430242E+04  0.7818609E-02  0.8428267E-01
        2   -1    0    0  501    0  0.00000000000E+00  0.00000000000E+00  0.21503463876E+04  0.21503463876E+04  0.25500000920E-02 0.  1.
       -2   -1    0    0    0  501  0.00000000000E+00  0.00000000000E+00 -0.68664255821E+03  0.68664255821E+03  0.25500000920E-02 0. -1.
    10030    2    1    2    0    0  0.00000000000E+00  0.00000000000E+00  0.14637038294E+04  0.28369889459E+04  0.24302422469E+04 0.  0.
        5    1    3    3  502    0 -0.22043609326E+02  0.72326724329E+03  0.18713951051E+04  0.20064254672E+04  0.46999998093E+01 0.  1.
       -5    1    3    3    0  502  0.22043609326E+02 -0.72326724329E+03 -0.40769127564E+03  0.83056347870E+03  0.46999998093E+01 0. -1.
</event>
<event>
 5   0  0.3508470E-05  0.2595887E+04  0.7818609E-02  0.8369600E-01
       -2   -1    0    0    0  501  0.00000000000E+00  0.00000000000E+00  0.10823965624E+04  0.10823965624E+04  0.25500000920E-02 0.  1.
        2   -1    0    0  501    0  0.00000000000E+00  0.00000000000E+00 -0.15564135976E+04  0.15564135976E+04  0.25500000920E-02 0. -1.
    10030    2    1    2    0    0  0.00000000000E+00  0.00000000000E+00 -0.47401703523E+03  0.26388101600E+04  0.25958865366E+04 0.  0.
        5    1    3    3  502    0  0.12245200372E+04 -0.39144330464E+02 -0.67264224855E+03  0.13976592162E+04  0.46999998093E+01 0. -1.
       -5    1    3    3    0  502 -0.12245200372E+04  0.39144330464E+02  0.19862521332E+03  0.12411509438E+04  0.46999998093E+01 0.  1.
</event>
<event>
 5   0  0.3441646E-05  0.2555008E+04  0.7818609E-02  0.8383647E-01
        2   -1    0    0  501    0  0.00000000000E+00  0.00000000000E+00  0.16667520797E+04  0.16667520797E+04  0.25500000920E-02 0. -1.
       -2   -1    0    0    0  501  0.00000000000E+00  0.00000000000E+00 -0.97915965123E+03  0.97915965124E+03  0.25500000920E-02 0.  1.
    10030    2    1    2    0    0  0.00000000000E+00  0.00000000000E+00  0.68759242844E+03  0.26459117309E+04  0.25550079335E+04 0.  0.
        4    1    3    3  502    0 -0.98971555635E+03 -0.31369596426E+03 -0.42704776986E+03  0.11226368296E+04  0.12699999809E+01 0.  1.
       -4    1    3    3    0  502  0.98971555635E+03  0.31369596426E+03  0.11146401983E+04  0.15232749013E+04  0.12699999809E+01 0. -1.
</event>
<event>
 5   0  0.3441646E-05  0.2398903E+04  0.7818609E-02  0.8439914E-01
        2   -1    0    0  501    0  0.00000000000E+00  0.00000000000E+00  0.14223255822E+04  0.14223255822E+04  0.25500000920E-02 0.  1.
       -2   -1    0    0    0  501  0.00000000000E+00  0.00000000000E+00 -0.10115014942E+04  0.10115014942E+04  0.25500000920E-02 0. -1.
    10030    2    1    2    0    0  0.00000000000E+00  0.00000000000E+00  0.41082408796E+03  0.24338270764E+04  0.23989034592E+04 0.  0.
        4    1    3    3  502    0  0.52184981554E+03 -0.52289455526E+03 -0.75329811861E+03  0.10550855957E+04  0.12699999809E+01 0. -1.
       -4    1    3    3    0  502 -0.52184981554E+03  0.52289455526E+03  0.11641222066E+04  0.13787414807E+04  0.12699999809E+01 0.  1.
</event>
<event>
 5   0  0.1474554E-05  0.2629809E+04  0.7818609E-02  0.8358146E-01
        1   -1    0    0  501    0  0.00000000000E+00  0.00000000000E+00  0.24060226990E+04  0.24060226990E+04  0.50400001928E-02 0.  1.
       -1   -1    0    0    0  501  0.00000000000E+00  0.00000000000E+00 -0.71860244295E+03  0.71860244297E+03  0.50400001928E-02 0. -1.
    10030    2    1    2    0    0  0.00000000000E+00  0.00000000000E+00  0.16874202561E+04  0.31246251420E+04  0.26298089583E+04 0.  0.
        5    1    3    3  502    0  0.53549201029E+03 -0.10813186382E+04  0.14644580564E+04  0.18975408242E+04  0.46999998093E+01 0.  1.
       -5    1    3    3    0  502 -0.53549201029E+03  0.10813186382E+04  0.22296219964E+03  0.12270843178E+04  0.46999998093E+01 0. -1.
</event>
<event>
 5   0  0.3647623E-05  0.2739806E+04  0.7818609E-02  0.8322204E-01
        2   -1    0    0  501    0  0.00000000000E+00  0.00000000000E+00  0.17495921693E+04  0.17495921694E+04  0.25500000920E-02 0.  1.
       -2   -1    0    0    0  501  0.00000000000E+00  0.00000000000E+00 -0.10726125568E+04  0.10726125568E+04  0.25500000920E-02 0. -1.
    10030    2    1    2    0    0  0.00000000000E+00  0.00000000000E+00  0.67697961251E+03  0.28222047262E+04  0.27398062196E+04 0.  0.
        3    1    3    3  502    0  0.92323514126E+03  0.10114445543E+04  0.30205212762E+03  0.14023618329E+04  0.10100000352E+00 0.  1.
       -3    1    3    3    0  502 -0.92323514126E+03 -0.10114445543E+04  0.37492748489E+03  0.14198428933E+04  0.10100000352E+00 0. -1.
</event>
<event>
 5   0  0.3499642E-05  0.2571830E+04  0.7818609E-02  0.8377833E-01
       -2   -1    0    0    0  501  0.00000000000E+00  0.00000000000E+00  0.10482364667E+04  0.10482364667E+04  0.25500000920E-02 0.  1.
        2   -1    0    0  501    0  0.00000000000E+00  0.00000000000E+00 -0.15774854639E+04  0.15774854639E+04  0.25500000920E-02 0. -1.
    10030    2    1    2    0    0  0.00000000000E+00  0.00000000000E+00 -0.52924899723E+03  0.26257219307E+04  0.25718303125E+04 0.  0.
        2    1    3    3  502    0  0.12460797940E+04  0.23519525147E+03 -0.46737076802E+02  0.12689428725E+04  0.25500000920E-02 0.  1.
       -2    1    3    3    0  502 -0.12460797940E+04 -0.23519525147E+03 -0.48251192043E+03  0.13567790582E+04  0.25500000920E-02 0. -1.
</event>
<event>
 5   0  0.1497497E-05  0.2664764E+04  0.7818609E-02  0.8346529E-01
        1   -1    0    0  501    0  0.00000000000E+00  0.00000000000E+00  0.17528605627E+04  0.17528605627E+04  0.50400001928E-02 0. -1.
       -1   -1    0    0    0  501  0.00000000000E+00  0.00000000000E+00 -0.10127685211E+04  0.10127685211E+04  0.50400001928E-02 0.  1.
    10030    2    1    2    0    0  0.00000000000E+00  0.00000000000E+00  0.74009204162E+03  0.27656290838E+04  0.26647641545E+04 0.  0.
        3    1    3    3  502    0  0.93542533661E+03 -0.88433687718E+03  0.72681595925E+03  0.14782874286E+04  0.10100000352E+00 0. -1.
       -3    1    3    3    0  502 -0.93542533661E+03  0.88433687718E+03  0.13276082375E+02  0.12873416552E+04  0.10100000352E+00 0.  1.
</event>
<event>
 5   0  0.3508470E-05  0.2547398E+04  0.7818609E-02  0.8386292E-01
       -2   -1    0    0    0  501  0.00000000000E+00  0.00000000000E+00  0.80345604450E+03  0.80345604450E+03  0.25500000920E-02 0. -1.
        2   -1    0    0  501    0  0.00000000000E+00  0.00000000000E+00 -0.20191642947E+04  0.20191642947E+04  0.25500000920E-02 0.  1.
    10030    2    1    2    0    0  0.00000000000E+00  0.00000000000E+00 -0.12157082502E+04  0.28226203392E+04  0.25473984827E+04 0.  0.
        5    1    3    3  502    0  0.49965155260E+02  0.58494132632E+03  0.64459169112E+03  0.87187924063E+03  0.46999998093E+01 0. -1.
       -5    1    3    3    0  502 -0.49965155260E+02 -0.58494132632E+03 -0.18602999414E+04  0.19507410986E+04  0.46999998093E+01 0.  1.
</event>
<event>
 5   0  0.3499642E-05  0.2686368E+04  0.7818609E-02  0.8339442E-01
        2   -1    0    0  501    0  0.00000000000E+00  0.00000000000E+00  0.31941529906E+04  0.31941529906E+04  0.25500000920E-02 0.  1.
       -2   -1    0    0    0  501  0.00000000000E+00  0.00000000000E+00 -0.56482681923E+03  0.56482681923E+03  0.25500000920E-02 0. -1.
    10030    2    1    2    0    0  0.00000000000E+00  0.00000000000E+00  0.26293261713E+04  0.37589798098E+04  0.26863680119E+04 0.  0.
        2    1    3    3  502    0 -0.11469224052E+04 -0.28775453487E+03  0.42316760520E+03  0.12559078382E+04  0.25500000920E-02 0. -1.
       -2    1    3    3    0  502  0.11469224052E+04  0.28775453487E+03  0.22061585661E+04  0.25030719716E+04  0.25500000920E-02 0.  1.
</event>
<event>
 5   0  0.1451052E-05  0.2637136E+04  0.7818609E-02  0.8355695E-01
       -1   -1    0    0    0  501  0.00000000000E+00  0.00000000000E+00  0.19002516270E+04  0.19002516270E+04  0.50400001928E-02 0. -1.
        1   -1    0    0  501    0  0.00000000000E+00  0.00000000000E+00 -0.91494270614E+03  0.91494270615E+03  0.50400001928E-02 0.  1.
    10030    2    1    2    0    0  0.00000000000E+00  0.00000000000E+00  0.98530892083E+03  0.28151943331E+04  0.26371358448E+04 0.  0.
        1    1    3    3  502    0  0.80463745610E+03 -0.64992371376E+03  0.13656604490E+04  0.17131464419E+04  0.50400001928E-02 0. -1.
       -1    1    3    3    0  502 -0.80463745610E+03  0.64992371376E+03 -0.38035152819E+03  0.11020478912E+04  0.50400001928E-02 0.  1.
</event>
<event>
 5   0  0.3508470E-05  0.2658273E+04  0.7818609E-02  0.8348672E-01
       -2   -1    0    0    0  501  0.00000000000E+00  0.00000000000E+00  0.74252169040E+03  0.74252169040E+03  0.25500000920E-02 0.  1.
        2   -1    0    0  501    0  0.00000000000E+00  0.00000000000E+00 -0.23791945688E+04  0.23791945688E+04  0.25500000920E-02 0. -1.
    10030    2    1    2    0    0  0.00000000000E+00  0.00000000000E+00 -0.16366728784E+04  0.31217162592E+04  0.26582728024E+04 0.  0.
        5    1    3    3  502    0  0.10430394228E+04  0.53441930710E+03 -0.82102715269E+02  0.11748609191E+04  0.46999998093E+01 0.  1.
       -5    1    3    3    0  502 -0.10430394228E+04 -0.53441930710E+03 -0.15545701632E+04  0.19468553402E+04  0.46999998093E+01 0. -1.
</event>
<event>
 5   0  0.3508470E-05  0.2554749E+04  0.7818609E-02  0.8383737E-01
        2   -1    0    0  501    0  0.00000000000E+00  0.00000000000E+00  0.13820265757E+04  0.13820265757E+04  0.25500000920E-02 0. -1.
       -2   -1    0    0    0  501  0.00000000000E+00  0.00000000000E+00 -0.11806466276E+04  0.11806466277E+04  0.25500000920E-02 0.  1.
    10030    2    1    2    0    0  0.00000000000E+00  0.00000000000E+00  0.20137994803E+03  0.25626732033E+04  0.25547485324E+04 0.  0.
        5    1    3    3  502    0  0.65630938112E+03 -0.63057613400E+03 -0.79835726101E+03  0.12106876850E+04  0.46999998093E+01 0.  1.
       -5    1    3    3    0  502 -0.65630938112E+03  0.63057613400E+03  0.99973720905E+03  0.13519855183E+04  0.46999998093E+01 0. -1.
</event>
<event>
 5   0  0.3647623E-05  0.2588988E+04  0.7818609E-02  0.8371951E-01
        2   -1    0    0  501    0  0.00000000000E+00  0.00000000000E+00  0.14019151014E+04  0.14019151015E+04  0.25500000920E-02 0. -1.
       -2   -1    0    0    0  501  0.00000000000E+00  0.00000000000E+00 -0.11953042345E+04  0.11953042345E+04  0.25500000920E-02 0.  1.
    10030    2    1    2    0    0  0.00000000000E+00  0.00000000000E+00  0.20661086692E+03  0.25972193360E+04  0.25889882636E+04 0.  0.
        3    1    3    3  502    0  0.78174256094E+03 -0.22735606506E+03 -0.90632501405E+03  0.12182927617E+04  0.10100000352E+00 0.  1.
       -3    1    3    3    0  502 -0.78174256094E+03  0.22735606506E+03  0.11129358810E+04  0.13789265743E+04  0.10100000352E+00 0. -1.
</event>
<event>
 5   0  0.1435062E-05  0.2474312E+04  0.7818609E-02  0.8412195E-01
        1   -1    0    0  501    0  0.00000000000E+00  0.00000000000E+00  0.12541542353E+04  0.12541542353E+04  0.50400001928E-02 0. -1.
       -1   -1    0    0    0  501  0.00000000000E+00  0.00000000000E+00 -0.12203879377E+04  0.12203879377E+04  0.50400001928E-02 0.  1.
    10030    2    1    2    0    0  0.00000000000E+00  0.00000000000E+00  0.33766297595E+02  0.24745421730E+04  0.24743117837E+04 0.  0.
        2    1    3    3  502    0  0.65037251864E+03 -0.10158339707E+04  0.29195717650E+03  0.12410246016E+04  0.25500000920E-02 0. -1.
       -2    1    3    3    0  502 -0.65037251864E+03  0.10158339707E+04 -0.25819087891E+03  0.12335175714E+04  0.25500000920E-02 0.  1.
</event>
<event>
 5   0  0.1474554E-05  0.2736540E+04  0.7818609E-02  0.8323245E-01
        1   -1    0    0  501    0  0.00000000000E+00  0.00000000000E+00  0.15728834023E+04  0.15728834023E+04  0.50400001928E-02 0. -1.
       -1   -1    0    0    0  501  0.00000000000E+00  0.00000000000E+00 -0.11902745652E+04  0.11902745652E+04  0.50400001928E-02 0.  1.
    10030    2    1    2    0    0  0.00000000000E+00  0.00000000000E+00  0.38260883710E+03  0.27631579675E+04  0.27365402301E+04 0.  0.
        5    1    3    3  502    0 -0.46074096167E+02 -0.12194194830E+04 -0.43361313087E+03  0.12950479277E+04  0.46999998093E+01 0.  1.
       -5    1    3    3    0  502  0.46074096167E+02  0.12194194830E+04  0.81622196797E+03  0.14681100398E+04  0.46999998093E+01 0. -1.
</event>
<event>
 5   0  0.3499642E-05  0.2623212E+04  0.7818609E-02  0.8360359E-01
        2   -1    0    0  501    0  0.00000000000E+00  0.00000000000E+00  0.23046625345E+04  0.23046625345E+04  0.25500000920E-02 0. -1.
       -2   -1    0    0    0  501  0.00000000000E+00  0.00000000000E+00 -0.74644778569E+03  0.74644778569E+03  0.25500000920E-02 0.  1.
    10030    2    1    2    0    0  0.00000000000E+00  0.00000000000E+00  0.15582147488E+04  0.30511103202E+04  0.26232119591E+04 0.  0.
        2    1    3    3  502    0  0.84949835066E+03  0.64496057980E+03  0.16669639306E+04  0.19789872014E+04  0.25500000920E-02 0. -1.
       -2    1    3    3    0  502 -0.84949835066E+03 -0.64496057980E+03 -0.10874918183E+03  0.10721231188E+04  0.25500000920E-02 0.  1.
</event>
<event>
 5   0  0.3849687E-05  0.2438107E+04  0.7818609E-02  0.8425373E-01
        2   -1    0    0  501    0  0.00000000000E+00  0.00000000000E+00  0.73893448958E+03  0.73893448959E+03  0.25500000920E-02 0. -1.
       -2   -1    0    0    0  501  0.00000000000E+00  0.00000000000E+00 -0.20111270494E+04  0.20111270494E+04  0.25500000920E-02 0.  1.
    10030    2    1    2    0    0  0.00000000000E+00  0.00000000000E+00 -0.12721925598E+04  0.27500615389E+04  0.24381067571E+04 0.  0.
        1    1    3    3  502    0 -0.66873318673E+03  0.95785331392E+03 -0.24308378337E+03  0.11932211747E+04  0.50400001928E-02 0. -1.
       -1    1    3    3    0  502  0.66873318673E+03 -0.95785331392E+03 -0.10291087764E+04  0.15568403642E+04  0.50400001928E-02 0.  1.
</event>
<event>
 5   0  0.1533248E-05  0.2593257E+04  0.7818609E-02  0.8370495E-01
       -1   -1    0    0    0  501  0.00000000000E+00  0.00000000000E+00  0.12515267906E+04  0.12515267906E+04  0.50400001928E-02 0.  1.
        1   -1    0    0  501    0  0.00000000000E+00  0.00000000000E+00 -0.13433556216E+04  0.13433556216E+04  0.50400001928E-02 0. -1.
    10030    2    1    2    0    0  0.00000000000E+00  0.00000000000E+00 -0.91828830975E+02  0.25948824122E+04  0.25932570638E+04 0.  0.
        4    1    3    3  502    0 -0.58753336842E+03  0.11247282340E+04  0.22077632108E+03  0.12880034379E+04  0.12699999809E+01 0.  1.
       -4    1    3    3    0  502  0.58753336842E+03 -0.11247282340E+04 -0.31260515206E+03  0.13068789742E+04  0.12699999809E+01 0. -1.
</event>
<event>
 5   0  0.1497497E-05  0.2592656E+04  0.7818609E-02  0.8370700E-01
        1   -1    0    0  501    0  0.00000000000E+00  0.00000000000E+00  0.89355498942E+03  0.89355498943E+03  0.50400001928E-02 0. -1.
       -1   -1    0    0    0  501  0.00000000000E+00  0.00000000000E+00 -0.18806519074E+04  0.18806519074E+04  0.50400001928E-02 0.  1.
    10030    2    1    2    0    0  0.00000000000E+00  0.00000000000E+00 -0.98709691794E+03  0.27742068968E+04  0.25926557004E+04 0.  0.
        3    1    3    3  502    0 -0.17729446729E+03 -0.88239025776E+03 -0.14918423836E+04  0.17423086991E+04  0.10100000352E+00 0.  1.
       -3    1    3    3    0  502  0.17729446729E+03  0.88239025776E+03  0.50474546568E+03  0.10318981977E+04  0.10100000352E+00 0. -1.
</event>
<event>
 5   0  0.3499642E-05  0.2522028E+04  0.7818609E-02  0.8395180E-01
        2   -1    0    0  501    0  0.00000000000E+00  0.00000000000E+00  0.30614633739E+04  0.30614633739E+04  0.25500000920E-02 0.  1.
       -2   -1    0    0    0  501  0.00000000000E+00  0.00000000000E+00 -0.51941040585E+03  0.51941040586E+03  0.25500000920E-02 0. -1.
    10030    2    1    2    0    0  0.00000000000E+00  0.00000000000E+00  0.25420529681E+04  0.35808737798E+04  0.25220277029E+04 0.  0.
        2    1    3    3  502    0  0.12107324037E+03 -0.10604892133E+04  0.31765988363E+03  0.11136444238E+04  0.25500000920E-02 0. -1.
       -2    1    3    3    0  502 -0.12107324037E+03  0.10604892133E+04  0.22243930844E+04  0.24672293560E+04  0.25500000920E-02 0.  1.
</event>
<event>
 5   0  0.1451052E-05  0.2542793E+04  0.7818609E-02  0.8387897E-01
       -1   -1    0    0    0  501  0.00000000000E+00  0.00000000000E+00  0.12842908075E+04  0.12842908075E+04  0.50400001928E-02 0. -1.
        1   -1    0    0  501    0  0.00000000000E+00  0.00000000000E+00 -0.12586317096E+04  0.12586317097E+04  0.50400001928E-02 0.  1.
    10030    2    1    2    0    0  0.00000000000E+00  0.00000000000E+00  0.25659097848E+02  0.25429225172E+04  0.25427930586E+04 0.  0.
        1    1    3    3  502    0 -0.57454829647E+03 -0.11332505361E+04  0.58511325565E+02  0.12719222058E+04  0.50400001928E-02 0. -1.
       -1    1    3    3    0  502  0.57454829647E+03  0.11332505361E+04 -0.32852227717E+02  0.12710003113E+04  0.50400001928E-02 0.  1.
</event>
<event>
 5   0  0.1451052E-05  0.2575241E+04  0.7818609E-02  0.8376660E-01
       -1   -1    0    0    0  501  0.00000000000E+00  0.00000000000E+00  0.12339855930E+04  0.12339855930E+04  0.50400001928E-02 0.  1.
        1   -1    0    0  501    0  0.00000000000E+00  0.00000000000E+00 -0.13435862376E+04  0.13435862376E+04  0.50400001928E-02 0. -1.
    10030    2    1    2    0    0  0.00000000000E+00  0.00000000000E+00 -0.10960064457E+03  0.25775718306E+04  0.25752406180E+04 0.  0.
        1    1    3    3  502    0 -0.33200641105E+03  0.97073128724E+03  0.72399051373E+03  0.12556710369E+04  0.50400001928E-02 0.  1.
       -1    1    3    3    0  502  0.33200641105E+03 -0.97073128724E+03 -0.83359115831E+03  0.13219007936E+04  0.50400001928E-02 0. -1.
</event>
<event>
 5   0  0.1435062E-05  0.2617634E+04  0.7818609E-02  0.8362236E-01
        1   -1    0    0  501    0  0.00000000000E+00  0.00000000000E+00  0.90864638335E+03  0.90864638336E+03  0.50400001928E-02 0. -1.
       -1   -1    0    0    0  501  0.00000000000E+00  0.00000000000E+00 -0.18852246859E+04  0.18852246860E+04  0.50400001928E-02 0.  1.
    10030    2    1    2    0    0  0.00000000000E+00  0.00000000000E+00 -0.97657830259E+03  0.27938710693E+04  0.26176344991E+04 0.  0.
        2    1    3    3  502    0 -0.65640045922E+03  0.11261688158E+04 -0.36252188831E+03  0.13529744580E+04  0.25500000920E-02 0. -1.
       -2    1    3    3    0  502  0.65640045922E+03 -0.11261688158E+04 -0.61405641428E+03  0.14408966113E+04  0.25500000920E-02 0.  1.
</event>
<event>
 5   0  0.3441646E-05  0.2625003E+04  0.7818609E-02  0.8359757E-01
       -2   -1    0    0    0  501  0.00000000000E+00  0.00000000000E+00  0.81990106712E+03  0.81990106712E+03  0.25500000920E-02 0.  1.
        2   -1    0    0  501    0  0.00000000000E+00  0.00000000000E+00 -0.21010588363E+04  0.21010588363E+04  0.25500000920E-02 0. -1.
    10030    2    1    2    0    0  0.00000000000E+00  0.00000000000E+00 -0.12811577692E+04  0.29209599035E+04  0.26250031482E+04 0.  0.
        4    1    3    3  502    0 -0.89546747406E+03  0.61727290949E+03  0.17694511593E+03  0.11019069965E+04  0.12699999809E+01 0.  1.
       -4    1    3    3    0  502  0.89546747406E+03 -0.61727290949E+03 -0.14581028852E+04  0.18190529070E+04  0.12699999809E+01 0. -1.
</event>
<event>
 5   0  0.1217200E-05  0.2609149E+04  0.7818609E-02  0.8365100E-01
        4   -1    0    0  501    0  0.00000000000E+00  0.00000000000E+00  0.97757383183E+03  0.97757465678E+03  0.12699999809E+01 0. -1.
       -4   -1    0    0    0  501  0.00000000000E+00  0.00000000000E+00 -0.17409561332E+04  0.17409565964E+04  0.12699999809E+01 0.  1.
    10030    2    1    2    0    0  0.00000000000E+00  0.00000000000E+00 -0.76338230137E+03  0.27185312532E+04  0.26091492170E+04 0.  0.
        4    1    3    3  502    0  0.32214716035E+03 -0.12448667844E+04 -0.15237067924E+03  0.12948708586E+04  0.12699999809E+01 0.  1.
       -4    1    3    3    0  502 -0.32214716035E+03  0.12448667844E+04 -0.61101162213E+03  0.14236603946E+04  0.12699999809E+01 0. -1.
</event>
<event>
 5   0  0.3441646E-05  0.2566906E+04  0.7818609E-02  0.8379530E-01
       -2   -1    0    0    0  501  0.00000000000E+00  0.00000000000E+00  0.15223045238E+04  0.15223045238E+04  0.25500000920E-02 0. -1.
        2   -1    0    0  501    0  0.00000000000E+00  0.00000000000E+00 -0.10820775766E+04  0.10820775766E+04  0.25500000920E-02 0.  1.
    10030    2    1    2    0    0  0.00000000000E+00  0.00000000000E+00  0.44022694716E+03  0.26043821004E+04  0.25669059897E+04 0.  0.
        4    1    3    3  502    0 -0.39820015861E+03  0.89798788204E+03  0.10581902693E+04  0.14438538228E+04  0.12699999809E+01 0. -1.
       -4    1    3    3    0  502  0.39820015861E+03 -0.89798788204E+03 -0.61796332217E+03  0.11605282776E+04  0.12699999809E+01 0.  1.
</event>
<event>
 5   0  0.3849687E-05  0.2644088E+04  0.7818609E-02  0.8353378E-01
       -2   -1    0    0    0  501  0.00000000000E+00  0.00000000000E+00  0.13015340560E+04  0.13015340560E+04  0.25500000920E-02 0. -1.
        2   -1    0    0  501    0  0.00000000000E+00  0.00000000000E+00 -0.13428774788E+04  0.13428774788E+04  0.25500000920E-02 0.  1.
    10030    2    1    2    0    0  0.00000000000E+00  0.00000000000E+00 -0.41343422782E+02  0.26444115348E+04  0.26440883280E+04 0.  0.
        1    1    3    3  502    0  0.29366184426E+03 -0.53150933946E+03 -0.11951496726E+04  0.13405678635E+04  0.50400001928E-02 0.  1.
       -1    1    3    3    0  502 -0.29366184426E+03  0.53150933946E+03  0.11538062499E+04  0.13038436712E+04  0.50400001928E-02 0. -1.
</event>
<event>
 5   0  0.3508470E-05  0.2572214E+04  0.7818609E-02  0.8377701E-01
       -2   -1    0    0    0  501  0.00000000000E+00  0.00000000000E+00  0.13230601718E+04  0.13230601718E+04  0.25500000920E-02 0.  1.
        2   -1    0    0  501    0  0.00000000000E+00  0.00000000000E+00 -0.12501863913E+04  0.12501863913E+04  0.25500000920E-02 0. -1.
    10030    2    1    2    0    0  0.00000000000E+00  0.00000000000E+00  0.72873780567E+02  0.25732465631E+04  0.25722144713E+04 0.  0.
        5    1    3    3  502    0  0.77777659895E+02 -0.72113856160E+02  0.13186687564E+04  0.13229358079E+04  0.46999998093E+01 0.  1.
       -5    1    3    3    0  502 -0.77777659895E+02  0.72113856160E+02 -0.12457949759E+04  0.12503107552E+04  0.46999998093E+01 0. -1.
</event>
<event>
 5   0  0.3647623E-05  0.2748221E+04  0.7818609E-02  0.8319526E-01
        2   -1    0    0  501    0  0.00000000000E+00  0.00000000000E+00  0.18792342667E+04  0.18792342667E+04  0.25500000920E-02 0.  1.
       -2   -1    0    0    0  501  0.00000000000E+00  0.00000000000E+00 -0.10047601660E+04  0.10047601660E+04  0.25500000920E-02 0. -1.
    10030    2    1    2    0    0  0.00000000000E+00  0.00000000000E+00  0.87447410072E+03  0.28839944327E+04  0.27482210491E+04 0.  0.
        3    1    3    3  502    0  0.12931728592E+04 -0.36573014711E+02  0.92331180144E+03  0.15893830004E+04  0.10100000352E+00 0.  1.
       -3    1    3    3    0  502 -0.12931728592E+04  0.36573014711E+02 -0.48837700727E+02  0.12946114322E+04  0.10100000352E+00 0. -1.
</event>
<event>
 5   0  0.3441646E-05  0.2540986E+04  0.7818609E-02  0.8388528E-01
       -2   -1    0    0    0  501  0.00000000000E+00  0.00000000000E+00  0.95908687002E+03  0.95908687003E+03  0.25500000920E-02 0.  1.
        2   -1    0    0  501    0  0.00000000000E+00  0.00000000000E+00 -0.16830094072E+04  0.16830094072E+04  0.25500000920E-02 0. -1.
    10030    2    1    2    0    0  0.00000000000E+00  0.00000000000E+00 -0.72392253716E+03  0.26420962772E+04  0.25409858123E+04 0.  0.
        4    1    3    3  502    0  0.51659174291E+03 -0.11556699746E+04 -0.47448237127E+03  0.13518784164E+04  0.12699999809E+01 0.  1.
       -4    1    3    3    0  502 -0.51659174291E+03  0.11556699746E+04 -0.24944016589E+03  0.12902178608E+04  0.12699999809E+01 0. -1.
</event>
<event>
 5   0  0.1497497E-05  0.2620716E+04  0.7818609E-02  0.8361198E-01
       -1   -1    0    0    0  501  0.00000000000E+00  0.00000000000E+00  0.96807479761E+03  0.96807479763E+03  0.50400001928E-02 0. -1.
        1   -1    0    0  501    0  0.00000000000E+00  0.00000000000E+00 -0.17736624470E+04  0.17736624470E+04  0.50400001928E-02 0.  1.
    10030    2    1    2    0    0  0.00000000000E+00  0.00000000000E+00 -0.80558764937E+03  0.27417372446E+04  0.26207158674E+04 0.  0.
        3    1    3    3  502    0 -0.25079239078E+03 -0.11700105705E+04  0.15592473641E+03  0.12067038129E+04  0.10100000352E+00 0. -1.
       -3    1    3    3    0  502  0.25079239078E+03  0.11700105705E+04 -0.96151238579E+03  0.15350334318E+04  0.10100000352E+00 0.  1.
</event>
<event>
 5   0  0.1435062E-05  0.2601456E+04  0.7818609E-02  0.8367707E-01
       -1   -1    0    0    0  501  0.00000000000E+00  0.00000000000E+00  0.15149054842E+04  0.15149054842E+04  0.50400001928E-02 0.  1.
        1   -1    0    0  501    0  0.00000000000E+00  0.00000000000E+00 -0.11168312983E+04  0.11168312983E+04  0.50400001928E-02 0. -1.
    10030    2    1    2    0    0  0.00000000000E+00  0.00000000000E+00  0.39807418583E+03  0.26317367825E+04  0.26014564065E+04 0.  0.
        2    1    3    3  502    0 -0.29459295457E+03  0.73012555724E+03  0.12464754167E+04  0.14743029888E+04  0.25500000920E-02 0.  1.
       -2    1    3    3    0  502  0.29459295457E+03 -0.73012555724E+03 -0.84840123091E+03  0.11574337937E+04  0.25500000920E-02 0. -1.
</event>
<event>
 5   0  0.1474554E-05  0.2953995E+04  0.7818609E-02  0.8256991E-01
        1   -1    0    0  501    0  0.00000000000E+00  0.00000000000E+00  0.14526280484E+04  0.14526280484E+04  0.50400001928E-02 0. -1.
       -1   -1    0    0    0  501  0.00000000000E+00  0.00000000000E+00 -0.15017754975E+04  0.15017754975E+04  0.50400001928E-02 0.  1.
    10030    2    1    2    0    0  0.00000000000E+00  0.00000000000E+00 -0.49147449128E+02  0.29544035459E+04  0.29539947258E+04 0.  0.
        5    1    3    3  502    0  0.76874383126E+03 -0.81482521314E+03 -0.98730338774E+03  0.14932170892E+04  0.46999998093E+01 0.  1.
       -5    1    3    3    0  502 -0.76874383126E+03  0.81482521314E+03  0.93815593861E+03  0.14611864567E+04  0.46999998093E+01 0. -1.
</event>
<event>
 5   0  0.3441646E-05  0.2585039E+04  0.7818609E-02  0.8373301E-01
       -2   -1    0    0    0  501  0.00000000000E+00  0.00000000000E+00  0.52009843857E+03  0.52009843858E+03  0.25500000920E-02 0. -1.
        2   -1    0    0  501    0  0.00000000000E+00  0.00000000000E+00 -0.32120966504E+04  0.32120966504E+04  0.25500000920E-02 0.  1.
    10030    2    1    2    0    0  0.00000000000E+00  0.00000000000E+00 -0.26919982118E+04  0.37321950889E+04  0.25850388410E+04 0.  0.
        4    1    3    3  502    0  0.20653270616E+03 -0.94249319064E+03 -0.25876858894E+04  0.27617148745E+04  0.12699999809E+01 0.  1.
       -4    1    3    3    0  502 -0.20653270616E+03  0.94249319064E+03 -0.10431232242E+03  0.97048021444E+03  0.12699999809E+01 0. -1.
</event>
<event>
 5   0  0.1451052E-05  0.1644437E+04  0.7818609E-02  0.8793704E-01
        1   -1    0    0  501    0  0.00000000000E+00  0.00000000000E+00  0.25162147123E+04  0.25162147123E+04  0.50400001928E-02 0. -1.
       -1   -1    0    0    0  501  0.00000000000E+00  0.00000000000E+00 -0.26867467862E+03  0.26867467866E+03  0.50400001928E-02 0.  1.
    10030    2    1    2    0    0  0.00000000000E+00  0.00000000000E+00  0.22475400337E+04  0.27848893910E+04  0.16444368997E+04 0.  0.
        1    1    3    3  502    0  0.35779091070E+03  0.53444723362E+03  0.19912680788E+04  0.20925574647E+04  0.50400001928E-02 0. -1.
       -1    1    3    3    0  502 -0.35779091070E+03 -0.53444723362E+03  0.25627195491E+03  0.69233192632E+03  0.50400001928E-02 0.  1.
</event>
<event>
 5   0  0.1474554E-05  0.2569113E+04  0.7818609E-02  0.8378769E-01
        1   -1    0    0  501    0  0.00000000000E+00  0.00000000000E+00  0.80670368875E+03  0.80670368876E+03  0.50400001928E-02 0. -1.
       -1   -1    0    0    0  501  0.00000000000E+00  0.00000000000E+00 -0.20454666050E+04  0.20454666050E+04  0.50400001928E-02 0.  1.
    10030    2    1    2    0    0  0.00000000000E+00  0.00000000000E+00 -0.12387629163E+04  0.28521702938E+04  0.25691130419E+04 0.  0.
        5    1    3    3  502    0 -0.22670773867E+02 -0.63573942954E+03 -0.18583036016E+04  0.19641774238E+04  0.46999998093E+01 0.  1.
       -5    1    3    3    0  502  0.22670773867E+02  0.63573942954E+03  0.61954068540E+03  0.88799286997E+03  0.46999998093E+01 0. -1.
</event>
<event>
 5   0  0.1451052E-05  0.1750171E+04  0.7818609E-02  0.8733256E-01
       -1   -1    0    0    0  501  0.00000000000E+00  0.00000000000E+00  0.72079927491E+03  0.72079927492E+03  0.50400001928E-02 0. -1.
        1   -1    0    0  501    0  0.00000000000E+00  0.00000000000E+00 -0.10623964445E+04  0.10623964445E+04  0.50400001928E-02 0.  1.
    10030    2    1    2    0    0  0.00000000000E+00  0.00000000000E+00 -0.34159716958E+03  0.17831957194E+04  0.17501709481E+04 0.  0.
        1    1    3    3  502    0  0.19734301081E+03 -0.70281592448E+03 -0.66248106221E+03  0.98578681541E+03  0.50400001928E-02 0.  1.
       -1    1    3    3    0  502 -0.19734301081E+03  0.70281592448E+03  0.32088389263E+03  0.79740890401E+03  0.50400001928E-02 0. -1.
</event>
<event>
 5   0  0.1435062E-05  0.2654467E+04  0.7818609E-02  0.8349932E-01
        1   -1    0    0  501    0  0.00000000000E+00  0.00000000000E+00  0.13211056846E+04  0.13211056846E+04  0.50400001928E-02 0. -1.
       -1   -1    0    0    0  501  0.00000000000E+00  0.00000000000E+00 -0.13333893672E+04  0.13333893672E+04  0.50400001928E-02 0.  1.
    10030    2    1    2    0    0  0.00000000000E+00  0.00000000000E+00 -0.12283682563E+02  0.26544950518E+04  0.26544666303E+04 0.  0.
        2    1    3    3  502    0 -0.79606121337E+03 -0.68779063024E+03 -0.81533457968E+03  0.13309920673E+04  0.25500000920E-02 0. -1.
       -2    1    3    3    0  502  0.79606121337E+03  0.68779063024E+03  0.80305089712E+03  0.13235029845E+04  0.25500000920E-02 0.  1.
</event>
<event>
 5   0  0.3508470E-05  0.2524602E+04  0.7818609E-02  0.8394273E-01
        2   -1    0    0  501    0  0.00000000000E+00  0.00000000000E+00  0.18653449391E+04  0.18653449391E+04  0.25500000920E-02 0. -1.
       -2   -1    0    0    0  501  0.00000000000E+00  0.00000000000E+00 -0.85421414014E+03  0.85421414014E+03  0.25500000920E-02 0.  1.
    10030    2    1    2    0    0  0.00000000000E+00  0.00000000000E+00  0.10111307989E+04  0.27195590792E+04  0.25246021653E+04 0.  0.
        5    1    3    3  502    0 -0.11297538025E+04 -0.70945869793E+02 -0.96143310721E+02  0.11360645214E+04  0.46999998093E+01 0.  1.
       -5    1    3    3    0  502  0.11297538025E+04  0.70945869793E+02  0.11072741096E+04  0.15834945578E+04  0.46999998093E+01 0. -1.
</event>
<event>
 5   0  0.3441646E-05  0.2578277E+04  0.7818609E-02  0.8375618E-01
        2   -1    0    0  501    0  0.00000000000E+00  0.00000000000E+00  0.80174973193E+03  0.80174973194E+03  0.25500000920E-02 0.  1.
       -2   -1    0    0    0  501  0.00000000000E+00  0.00000000000E+00 -0.20728133982E+04  0.20728133982E+04  0.25500000920E-02 0. -1.
    10030    2    1    2    0    0  0.00000000000E+00  0.00000000000E+00 -0.12710636663E+04  0.28745631302E+04  0.25782766232E+04 0.  0.
        4    1    3    3  502    0  0.12480040235E+04 -0.31499068752E+03 -0.71548617602E+03  0.14726354800E+04  0.12699999809E+01 0.  1.
       -4    1    3    3    0  502 -0.12480040235E+04  0.31499068752E+03 -0.55557749028E+03  0.14019276502E+04  0.12699999809E+01 0. -1.
</event>
<event>
 5   0  0.1497497E-05  0.2598507E+04  0.7818609E-02  0.8368708E-01
       -1   -1    0    0    0  501  0.00000000000E+00  0.00000000000E+00  0.80318210058E+03  0.80318210059E+03  0.50400001928E-02 0. -1.
        1   -1    0    0  501    0  0.00000000000E+00  0.00000000000E+00 -0.21017154801E+04  0.21017154801E+04  0.50400001928E-02 0.  1.
    10030    2    1    2    0    0  0.00000000000E+00  0.00000000000E+00 -0.12985333795E+04  0.29048975807E+04  0.25985074594E+04 0.  0.
        3    1    3    3  502    0  0.36138256884E+03 -0.11725113583E+04 -0.17145985759E+03  0.12388618726E+04  0.10100000352E+00 0. -1.
       -3    1    3    3    0  502 -0.36138256884E+03  0.11725113583E+04 -0.11270735219E+04  0.16660357080E+04  0.10100000352E+00 0.  1.
</event>
<event>
 5   0  0.1435062E-05  0.2593056E+04  0.7818609E-02  0.8370564E-01
        1   -1    0    0  501    0  0.00000000000E+00  0.00000000000E+00  0.34845888059E+04  0.34845888059E+04  0.50400001928E-02 0.  1.
       -1   -1    0    0    0  501  0.00000000000E+00  0.00000000000E+00 -0.48240568954E+03  0.48240568957E+03  0.50400001928E-02 0. -1.
    10030    2    1    2    0    0  0.00000000000E+00  0.00000000000E+00  0.30021831164E+04  0.39669944955E+04  0.25930564712E+04 0.  0.
        2    1    3    3  502    0  0.98966822415E+03  0.71958926724E+03  0.21568499636E+04  0.24797688749E+04  0.25500000920E-02 0.  1.
       -2    1    3    3    0  502 -0.98966822415E+03 -0.71958926724E+03  0.84533315281E+03  0.14872256206E+04  0.25500000920E-02 0. -1.
</event>
<event>
 5   0  0.3441646E-05  0.2626999E+04  0.7818609E-02  0.8359088E-01
       -2   -1    0    0    0  501  0.00000000000E+00  0.00000000000E+00  0.16925508248E+04  0.16925508248E+04  0.25500000920E-02 0.  1.
        2   -1    0    0  501    0  0.00000000000E+00  0.00000000000E+00 -0.10193376825E+04  0.10193376825E+04  0.25500000920E-02 0. -1.
    10030    2    1    2    0    0  0.00000000000E+00  0.00000000000E+00  0.67321314225E+03  0.27118885073E+04  0.26269989229E+04 0.  0.
        4    1    3    3  502    0  0.56046544390E+03  0.41933812586E+03  0.14839686309E+04  0.16407713088E+04  0.12699999809E+01 0.  1.
       -4    1    3    3    0  502 -0.56046544390E+03 -0.41933812586E+03 -0.81075548862E+03  0.10711171985E+04  0.12699999809E+01 0. -1.
</event>
<event>
 5   0  0.1451052E-05  0.2631525E+04  0.7818609E-02  0.8357571E-01
        1   -1    0    0  501    0  0.00000000000E+00  0.00000000000E+00  0.15494545356E+04  0.15494545357E+04  0.50400001928E-02 0.  1.
       -1   -1    0    0    0  501  0.00000000000E+00  0.00000000000E+00 -0.11173165695E+04  0.11173165695E+04  0.50400001928E-02 0. -1.
    10030    2    1    2    0    0  0.00000000000E+00  0.00000000000E+00  0.43213796616E+03  0.26667711052E+04  0.26315252052E+04 0.  0.
        1    1    3    3  502    0 -0.87651549567E+03  0.78690624008E+03  0.81020675983E+03  0.14296628409E+04  0.50400001928E-02 0.  1.
       -1    1    3    3    0  502  0.87651549567E+03 -0.78690624008E+03 -0.37806879367E+03  0.12371082643E+04  0.50400001928E-02 0. -1.
</event>
<event>
 5   0  0.3441646E-05  0.2625799E+04  0.7818609E-02  0.8359490E-01
       -2   -1    0    0    0  501  0.00000000000E+00  0.00000000000E+00  0.72782720196E+03  0.72782720197E+03  0.25500000920E-02 0.  1.
        2   -1    0    0  501    0  0.00000000000E+00  0.00000000000E+00 -0.23682884561E+04  0.23682884561E+04  0.25500000920E-02 0. -1.
    10030    2    1    2    0    0  0.00000000000E+00  0.00000000000E+00 -0.16404612542E+04  0.30961156581E+04  0.26257987436E+04 0.  0.
        4    1    3    3  502    0  0.33763245634E+03 -0.76969345299E+03  0.36902681419E+03  0.91793577642E+03  0.12699999809E+01 0.  1.
       -4    1    3    3    0  502 -0.33763245634E+03  0.76969345299E+03 -0.20094880684E+04  0.21781798817E+04  0.12699999809E+01 0. -1.
</event>
<event>
 5   0  0.1451052E-05  0.2622393E+04  0.7818609E-02  0.8360634E-01
       -1   -1    0    0    0  501  0.00000000000E+00  0.00000000000E+00  0.10320908509E+04  0.10320908509E+04  0.50400001928E-02 0.  1.
        1   -1    0    0  501    0  0.00000000000E+00  0.00000000000E+00 -0.16657800462E+04  0.16657800462E+04  0.50400001928E-02 0. -1.
    10030    2    1    2    0    0  0.00000000000E+00  0.00000000000E+00 -0.63368919534E+03  0.26978708971E+04  0.26223930638E+04 0.  0.
        1    1    3    3  502    0 -0.48643146120E+03 -0.98072880204E+03 -0.10592744784E+04  0.15233210332E+04  0.50400001928E-02 0. -1.
       -1    1    3    3    0  502  0.48643146120E+03  0.98072880204E+03  0.42558528304E+03  0.11745498639E+04  0.50400001928E-02 0.  1.
</event>
<event>
 5   0  0.1451052E-05  0.2695898E+04  0.7818609E-02  0.8336337E-01
       -1   -1    0    0    0  501  0.00000000000E+00  0.00000000000E+00  0.20085780037E+04  0.20085780038E+04  0.50400001928E-02 0.  1.
        1   -1    0    0  501    0  0.00000000000E+00  0.00000000000E+00 -0.90460314741E+03  0.90460314742E+03  0.50400001928E-02 0. -1.
    10030    2    1    2    0    0  0.00000000000E+00  0.00000000000E+00  0.11039748563E+04  0.29131811512E+04  0.26958976123E+04 0.  0.
        1    1    3    3  502    0  0.73300519372E+03  0.23835670472E+03 -0.64296787013E+03  0.10037520684E+04  0.50400001928E-02 0. -1.
       -1    1    3    3    0  502 -0.73300519372E+03 -0.23835670472E+03  0.17469427265E+04  0.19094290828E+04  0.50400001928E-02 0.  1.
</event>
<event>
 5   0  0.3647623E-05  0.2557958E+04  0.7818609E-02  0.8382624E-01
        2   -1    0    0  501    0  0.00000000000E+00  0.00000000000E+00  0.24394732245E+04  0.24394732245E+04  0.25500000920E-02 0. -1.
       -2   -1    0    0    0  501  0.00000000000E+00  0.00000000000E+00 -0.67054931935E+03  0.67054931936E+03  0.25500000920E-02 0.  1.
    10030    2    1    2    0    0  0.00000000000E+00  0.00000000000E+00  0.17689239051E+04  0.31100225438E+04  0.25579578654E+04 0.  0.
        3    1    3    3  502    0  0.38281729479E+03  0.59928287162E+03  0.21769549983E+04  0.22901576619E+04  0.10100000352E+00 0. -1.
       -3    1    3    3    0  502 -0.38281729479E+03 -0.59928287162E+03 -0.40803109321E+03  0.81986488194E+03  0.10100000352E+00 0.  1.
</event>
<event>
 5   0  0.1474554E-05  0.2587688E+04  0.7818609E-02  0.8372395E-01
       -1   -1    0    0    0  501  0.00000000000E+00  0.00000000000E+00  0.95484879872E+03  0.95484879873E+03  0.50400001928E-02 0. -1.
        1   -1    0    0  501    0  0.00000000000E+00  0.00000000000E+00 -0.17531906190E+04  0.17531906190E+04  0.50400001928E-02 0.  1.
    10030    2    1    2    0    0  0.00000000000E+00  0.00000000000E+00 -0.79834182025E+03  0.27080394177E+04  0.25876877373E+04 0.  0.
        5    1    3    3  502    0 -0.71903346426E+03  0.20502914118E+03  0.70585763386E+03  0.10282524791E+04  0.46999998093E+01 0. -1.
       -5    1    3    3    0  502  0.71903346426E+03 -0.20502914118E+03 -0.15041994541E+04  0.16797869386E+04  0.46999998093E+01 0.  1.
</event>
<event>
 5   0  0.3647623E-05  0.2590636E+04  0.7818609E-02  0.8371389E-01
        2   -1    0    0  501    0  0.00000000000E+00  0.00000000000E+00  0.15662636230E+04  0.15662636230E+04  0.25500000920E-02 0.  1.
       -2   -1    0    0    0  501  0.00000000000E+00  0.00000000000E+00 -0.10712429740E+04  0.10712429740E+04  0.25500000920E-02 0. -1.
    10030    2    1    2    0    0  0.00000000000E+00  0.00000000000E+00  0.49502064905E+03  0.26375065970E+04  0.25906361393E+04 0.  0.
        3    1    3    3  502    0 -0.11605245409E+04 -0.45188401791E+03 -0.11506850140E+03  0.12507026609E+04  0.10100000352E+00 0.  1.
       -3    1    3    3    0  502  0.11605245409E+04  0.45188401791E+03  0.61008915045E+03  0.13868039362E+04  0.10100000352E+00 0. -1.
</event>
<event>
 5   0  0.3441646E-05  0.2589976E+04  0.7818609E-02  0.8371614E-01
       -2   -1    0    0    0  501  0.00000000000E+00  0.00000000000E+00  0.11083980883E+04  0.11083980883E+04  0.25500000920E-02 0. -1.
        2   -1    0    0  501    0  0.00000000000E+00  0.00000000000E+00 -0.15129890845E+04  0.15129890845E+04  0.25500000920E-02 0.  1.
    10030    2    1    2    0    0  0.00000000000E+00  0.00000000000E+00 -0.40459099619E+03  0.26213871728E+04  0.25899762229E+04 0.  0.
        4    1    3    3  502    0  0.12617888886E+04 -0.11842195071E+03  0.67123817565E+02  0.12691107823E+04  0.12699999809E+01 0. -1.
       -4    1    3    3    0  502 -0.12617888886E+04  0.11842195071E+03 -0.47171481376E+03  0.13522763905E+04  0.12699999809E+01 0.  1.
</event>
<event>
 5   0  0.3647623E-05  0.2350813E+04  0.7818609E-02  0.8458151E-01
       -2   -1    0    0    0  501  0.00000000000E+00  0.00000000000E+00  0.10622359464E+04  0.10622359464E+04  0.25500000920E-02 0.  1.
        2   -1    0    0  501    0  0.00000000000E+00  0.00000000000E+00 -0.13006340594E+04  0.13006340594E+04  0.25500000920E-02 0. -1.
    10030    2    1    2    0    0  0.00000000000E+00  0.00000000000E+00 -0.23839811302E+03  0.23628700058E+04  0.23508128390E+04 0.  0.
        3    1    3    3  502    0 -0.86725664224E+03 -0.40614299927E+03 -0.80423260311E+03  0.12505504026E+04  0.10100000352E+00 0.  1.
       -3    1    3    3    0  502  0.86725664224E+03  0.40614299927E+03  0.56583449009E+03  0.11123196032E+04  0.10100000352E+00 0. -1.
</event>
<event>
 5   0  0.3849687E-05  0.2472148E+04  0.7818609E-02  0.8412976E-01
       -2   -1    0    0    0  501  0.00000000000E+00  0.00000000000E+00  0.93866996063E+03  0.93866996063E+03  0.25500000920E-02 0. -1.
        2   -1    0    0  501    0  0.00000000000E+00  0.00000000000E+00 -0.16277060334E+04  0.16277060334E+04  0.25500000920E-02 0.  1.
    10030    2    1    2    0    0  0.00000000000E+00  0.00000000000E+00 -0.68903607281E+03  0.25663759941E+04  0.24721478583E+04 0.  0.
        1    1    3    3  502    0  0.86510153541E+03 -0.86066402832E+03 -0.14020289668E+03  0.12283322386E+04  0.50400001928E-02 0. -1.
       -1    1    3    3    0  502 -0.86510153541E+03  0.86066402832E+03 -0.54883317613E+03  0.13380437554E+04  0.50400001928E-02 0.  1.
</event>
<event>
 5   0  0.1435062E-05  0.2600307E+04  0.7818609E-02  0.8368097E-01
        1   -1    0    0  501    0  0.00000000000E+00  0.00000000000E+00  0.79185882688E+03  0.79185882689E+03  0.50400001928E-02 0. -1.
       -1   -1    0    0    0  501  0.00000000000E+00  0.00000000000E+00 -0.21347220599E+04  0.21347220599E+04  0.50400001928E-02 0.  1.
    10030    2    1    2    0    0  0.00000000000E+00  0.00000000000E+00 -0.13428632330E+04  0.29265808868E+04  0.26003065251E+04 0.  0.
        2    1    3    3  502    0  0.10082953843E+04 -0.40175396861E+03 -0.14770178065E+04  0.18329341052E+04  0.25500000920E-02 0.  1.
       -2    1    3    3    0  502 -0.10082953843E+04  0.40175396861E+03  0.13415457346E+03  0.10936467816E+04  0.25500000920E-02 0. -1.
</event>
<event>
 5   0  0.1533248E-05  0.2553920E+04  0.7818609E-02  0.8384024E-01
        1   -1    0    0  501    0  0.00000000000E+00  0.00000000000E+00  0.10852545866E+04  0.10852545866E+04  0.50400001928E-02 0. -1.
       -1   -1    0    0    0  501  0.00000000000E+00  0.00000000000E+00 -0.15025294923E+04  0.15025294923E+04  0.50400001928E-02 0.  1.
    10030    2    1    2    0    0  0.00000000000E+00  0.00000000000E+00 -0.41727490577E+03  0.25877840789E+04  0.25539201421E+04 0.  0.
        4    1    3    3  502    0  0.10098025524E+04  0.95275816395E+02  0.57743699153E+03  0.11671391382E+04  0.12699999809E+01 0. -1.
       -4    1    3    3    0  502 -0.10098025524E+04 -0.95275816395E+02 -0.99471189730E+03  0.14206449407E+04  0.12699999809E+01 0.  1.
</event>
<event>
 5   0  0.3508470E-05  0.2635813E+04  0.7818609E-02  0.8356137E-01
       -2   -1    0    0    0  501  0.00000000000E+00  0.00000000000E+00  0.15730564618E+04  0.15730564618E+04  0.25500000920E-02 0.  1.
        2   -1    0    0  501    0  0.00000000000E+00  0.00000000000E+00 -0.11041416817E+04  0.11041416817E+04  0.25500000920E-02 0. -1.
    10030    2    1    2    0    0  0.00000000000E+00  0.00000000000E+00  0.46891478010E+03  0.26771981434E+04  0.26358127453E+04 0.  0.
        5    1    3    3  502    0 -0.61173798232E+03 -0.27789088555E+03  0.13860172830E+04  0.15402963033E+04  0.46999998093E+01 0.  1.
       -5    1    3    3    0  502  0.61173798232E+03  0.27789088555E+03 -0.91710250288E+03  0.11369018401E+04  0.46999998093E+01 0. -1.
</event>
<event>
 5   0  0.1451052E-05  0.2588360E+04  0.7818609E-02  0.8372166E-01
        1   -1    0    0  501    0  0.00000000000E+00  0.00000000000E+00  0.16280681263E+04  0.16280681263E+04  0.50400001928E-02 0.  1.
       -1   -1    0    0    0  501  0.00000000000E+00  0.00000000000E+00 -0.10287663015E+04  0.10287663015E+04  0.50400001928E-02 0. -1.
    10030    2    1    2    0    0  0.00000000000E+00  0.00000000000E+00  0.59930182487E+03  0.26568344278E+04  0.25883598088E+04 0.  0.
        1    1    3    3  502    0  0.72124499646E+02 -0.43193618329E+03 -0.95040538373E+03  0.10464421644E+04  0.50400001928E-02 0. -1.
       -1    1    3    3    0  502 -0.72124499646E+02  0.43193618329E+03  0.15497072086E+04  0.16103922635E+04  0.50400001928E-02 0.  1.
</event>
<event>
 5   0  0.1533248E-05  0.2627984E+04  0.7818609E-02  0.8358757E-01
       -1   -1    0    0    0  501  0.00000000000E+00  0.00000000000E+00  0.10414292668E+04  0.10414292668E+04  0.50400001928E-02 0.  1.
        1   -1    0    0  501    0  0.00000000000E+00  0.00000000000E+00 -0.16578895919E+04  0.16578895920E+04  0.50400001928E-02 0. -1.
    10030    2    1    2    0    0  0.00000000000E+00  0.00000000000E+00 -0.61646032512E+03  0.26993188588E+04  0.26279838221E+04 0.  0.
        4    1    3    3  502    0 -0.11948072970E+04  0.31552080345E+03 -0.76695712241E+03  0.14544217734E+04  0.12699999809E+01 0. -1.
       -4    1    3    3    0  502  0.11948072970E+04 -0.31552080345E+03  0.15049679729E+03  0.12448970854E+04  0.12699999809E+01 0.  1.
</event>
<event>
 5   0  0.1474554E-05  0.1699569E+04  0.7818609E-02  0.8761610E-01
       -1   -1    0    0    0  501  0.00000000000E+00  0.00000000000E+00  0.12288428584E+04  0.12288428584E+04  0.50400001928E-02 0. -1.
        1   -1    0    0  501    0  0.00000000000E+00  0.00000000000E+00 -0.58765372417E+03  0.58765372419E+03  0.50400001928E-02 0.  1.
    10030    2    1    2    0    0  0.00000000000E+00  0.00000000000E+00  0.64118913422E+03  0.18164965826E+04  0.16995694539E+04 0.  0.
        5    1    3    3  502    0  0.16576854293E+03  0.18699001975E+03  0.11886715022E+04  0.12146631251E+04  0.46999998093E+01 0. -1.
       -5    1    3    3    0  502 -0.16576854293E+03 -0.18699001975E+03 -0.54748236798E+03  0.60183345750E+03  0.46999998093E+01 0.  1.
</event>
<event>
 5   0  0.3441646E-05  0.2580883E+04  0.7818609E-02  0.8374724E-01
       -2   -1    0    0    0  501  0.00000000000E+00  0.00000000000E+00  0.10871011462E+04  0.10871011462E+04  0.25500000920E-02 0. -1.
        2   -1    0    0  501    0  0.00000000000E+00  0.00000000000E+00 -0.15318160927E+04  0.15318160927E+04  0.25500000920E-02 0.  1.
    10030    2    1    2    0    0  0.00000000000E+00  0.00000000000E+00 -0.44471494650E+03  0.26189172389E+04  0.25808828181E+04 0.  0.
        4    1    3    3  502    0  0.77022774939E+03 -0.10325928321E+04 -0.29922789857E+03  0.13225118869E+04  0.12699999809E+01 0.  1.
       -4    1    3    3    0  502 -0.77022774939E+03  0.10325928321E+04 -0.14548704793E+03  0.12964053520E+04  0.12699999809E+01 0. -1.
</event>
<event>
 5   0  0.1451052E-05  0.1931307E+04  0.7818609E-02  0.8639428E-01
       -1   -1    0    0    0  501  0.00000000000E+00  0.00000000000E+00  0.45893609713E+03  0.45893609716E+03  0.50400001928E-02 0.  1.
        1   -1    0    0  501    0  0.00000000000E+00  0.00000000000E+00 -0.20318452191E+04  0.20318452191E+04  0.50400001928E-02 0. -1.
    10030    2    1    2    0    0  0.00000000000E+00  0.00000000000E+00 -0.15729091220E+04  0.24907813163E+04  0.19313074482E+04 0.  0.
        1    1    3    3  502    0  0.63365059229E+03 -0.70788925601E+03 -0.56357058662E+03  0.11046411535E+04  0.50400001928E-02 0.  1.
       -1    1    3    3    0  502 -0.63365059229E+03  0.70788925601E+03 -0.10093385354E+04  0.13861401628E+04  0.50400001928E-02 0. -1.
</event>
<event>
 5   0  0.3499642E-05  0.2603538E+04  0.7818609E-02  0.8367000E-01
        2   -1    0    0  501    0  0.00000000000E+00  0.00000000000E+00  0.14124909554E+04  0.14124909554E+04  0.25500000920E-02 0.  1.
       -2   -1    0    0    0  501  0.00000000000E+00  0.00000000000E+00 -0.11997266155E+04  0.11997266155E+04  0.25500000920E-02 0. -1.
    10030    2    1    2    0    0  0.00000000000E+00  0.00000000000E+00  0.21276433993E+03  0.26122175709E+04  0.26035383564E+04 0.  0.
        2    1    3    3  502    0  0.11170606149E+03  0.11538295975E+04 -0.48787769801E+03  0.12577064969E+04  0.25500000920E-02 0. -1.
       -2    1    3    3    0  502 -0.11170606149E+03 -0.11538295975E+04  0.70064203794E+03  0.13545110740E+04  0.25500000920E-02 0.  1.
</event>
<event>
 5   0  0.3508470E-05  0.2629825E+04  0.7818609E-02  0.8358140E-01
       -2   -1    0    0    0  501  0.00000000000E+00  0.00000000000E+00  0.14301288719E+04  0.14301288719E+04  0.25500000920E-02 0.  1.
        2   -1    0    0  501    0  0.00000000000E+00  0.00000000000E+00 -0.12089784139E+04  0.12089784139E+04  0.25500000920E-02 0. -1.
    10030    2    1    2    0    0  0.00000000000E+00  0.00000000000E+00  0.22115045792E+03  0.26391072858E+04  0.26298250400E+04 0.  0.
        5    1    3    3  502    0  0.80244266066E+03 -0.86783997460E+03  0.68872709047E+03  0.13680012940E+04  0.46999998093E+01 0.  1.
       -5    1    3    3    0  502 -0.80244266066E+03  0.86783997460E+03 -0.46757663255E+03  0.12711059918E+04  0.46999998093E+01 0. -1.
</event>
<event>
 5   0  0.1497497E-05  0.2612464E+04  0.7818609E-02  0.8363980E-01
        1   -1    0    0  501    0  0.00000000000E+00  0.00000000000E+00  0.14303235554E+04  0.14303235554E+04  0.50400001928E-02 0. -1.
       -1   -1    0    0    0  501  0.00000000000E+00  0.00000000000E+00 -0.11929063639E+04  0.11929063639E+04  0.50400001928E-02 0.  1.
    10030    2    1    2    0    0  0.00000000000E+00  0.00000000000E+00  0.23741719142E+03  0.26232299193E+04  0.26124640259E+04 0.  0.
        3    1    3    3  502    0 -0.82756951885E+03 -0.99834846770E+03 -0.39009021434E+02  0.12973406204E+04  0.10100000352E+00 0. -1.
       -3    1    3    3    0  502  0.82756951885E+03  0.99834846770E+03  0.27642621286E+03  0.13258892989E+04  0.10100000352E+00 0.  1.
</event>
<event>
 5   0  0.1474554E-05  0.2501277E+04  0.7818609E-02  0.8402531E-01
       -1   -1    0    0    0  501  0.00000000000E+00  0.00000000000E+00  0.50302979095E+03  0.50302979097E+03  0.50400001928E-02 0.  1.
        1   -1    0    0  501    0  0.00000000000E+00  0.00000000000E+00 -0.31093515559E+04  0.31093515559E+04  0.50400001928E-02 0. -1.
    10030    2    1    2    0    0  0.00000000000E+00  0.00000000000E+00 -0.26063217649E+04  0.36123813468E+04  0.25012768445E+04 0.  0.
        5    1    3    3  502    0 -0.71686343895E+03 -0.38350185716E+03  0.69304992553E+02  0.81596086704E+03  0.46999998093E+01 0.  1.
       -5    1    3    3    0  502  0.71686343895E+03  0.38350185716E+03 -0.26756267575E+04  0.27964204798E+04  0.46999998093E+01 0. -1.
</event>
<event>
 5   0  0.3499642E-05  0.2552643E+04  0.7818609E-02  0.8384468E-01
        2   -1    0    0  501    0  0.00000000000E+00  0.00000000000E+00  0.20735200359E+04  0.20735200359E+04  0.25500000920E-02 0.  1.
       -2   -1    0    0    0  501  0.00000000000E+00  0.00000000000E+00 -0.78561869000E+03  0.78561869000E+03  0.25500000920E-02 0. -1.
    10030    2    1    2    0    0  0.00000000000E+00  0.00000000000E+00  0.12879013459E+04  0.28591387259E+04  0.25526426262E+04 0.  0.
        2    1    3    3  502    0  0.17860227428E+03  0.76945338576E+03  0.17668391541E+04  0.19353753853E+04  0.25500000920E-02 0.  1.
       -2    1    3    3    0  502 -0.17860227428E+03 -0.76945338576E+03 -0.47893780829E+03  0.92376334060E+03  0.25500000920E-02 0. -1.
</event>
<event>
 5   0  0.1533248E-05  0.2604486E+04  0.7818609E-02  0.8366679E-01
       -1   -1    0    0    0  501  0.00000000000E+00  0.00000000000E+00  0.15803221032E+04  0.15803221032E+04  0.50400001928E-02 0.  1.
        1   -1    0    0  501    0  0.00000000000E+00  0.00000000000E+00 -0.10730958444E+04  0.10730958444E+04  0.50400001928E-02 0. -1.
    10030    2    1    2    0    0  0.00000000000E+00  0.00000000000E+00  0.50722625885E+03  0.26534179476E+04  0.26044861925E+04 0.  0.
        4    1    3    3  502    0 -0.10221135665E+04 -0.80562363016E+03  0.30018734889E+03  0.13356120820E+04  0.12699999809E+01 0.  1.
       -4    1    3    3    0  502  0.10221135665E+04  0.80562363016E+03  0.20703890996E+03  0.13178058656E+04  0.12699999809E+01 0. -1.
</event>
<event>
 5   0  0.3647623E-05  0.2553688E+04  0.7818609E-02  0.8384105E-01
       -2   -1    0    0    0  501  0.00000000000E+00  0.00000000000E+00  0.14318923500E+04  0.14318923500E+04  0.25500000920E-02 0. -1.
        2   -1    0    0  501    0  0.00000000000E+00  0.00000000000E+00 -0.11385845351E+04  0.11385845351E+04  0.25500000920E-02 0.  1.
    10030    2    1    2    0    0  0.00000000000E+00  0.00000000000E+00  0.29330781496E+03  0.25704768851E+04  0.25536879102E+04 0.  0.
        3    1    3    3  502    0  0.63559506464E+03  0.76119590134E+03  0.95626153556E+03  0.13776198391E+04  0.10100000352E+00 0. -1.
       -3    1    3    3    0  502 -0.63559506464E+03 -0.76119590134E+03 -0.66295372060E+03  0.11928570460E+04  0.10100000352E+00 0.  1.
</event>
<event>
 5   0  0.3508470E-05  0.2713187E+04  0.7818609E-02  0.8330739E-01
        2   -1    0    0  501    0  0.00000000000E+00  0.00000000000E+00  0.98497560870E+03  0.98497560871E+03  0.25500000920E-02 0. -1.
       -2   -1    0    0    0  501  0.00000000000E+00  0.00000000000E+00 -0.18684180262E+04  0.18684180262E+04  0.25500000920E-02 0.  1.
    10030    2    1    2    0    0  0.00000000000E+00  0.00000000000E+00 -0.88344241746E+03  0.28533936349E+04  0.27131871905E+04 0.  0.
        5    1    3    3  502    0  0.11374287840E+04 -0.26104546430E+03  0.28571255670E+03  0.12014752299E+04  0.46999998093E+01 0. -1.
       -5    1    3    3    0  502 -0.11374287840E+04  0.26104546430E+03 -0.11691549742E+04  0.16519184050E+04  0.46999998093E+01 0.  1.
</event>
<event>
 5   0  0.3441646E-05  0.2430074E+04  0.7818609E-02  0.8428330E-01
        2   -1    0    0  501    0  0.00000000000E+00  0.00000000000E+00  0.15017659469E+04  0.15017659469E+04  0.25500000920E-02 0. -1.
       -2   -1    0    0    0  501  0.00000000000E+00  0.00000000000E+00 -0.98305222338E+03  0.98305222339E+03  0.25500000920E-02 0.  1.
    10030    2    1    2    0    0  0.00000000000E+00  0.00000000000E+00  0.51871372354E+03  0.24848181703E+04  0.24300735406E+04 0.  0.
        4    1    3    3  502    0  0.82672087952E+03  0.81664703577E+03  0.62222169425E+03  0.13181582771E+04  0.12699999809E+01 0. -1.
       -4    1    3    3    0  502 -0.82672087952E+03 -0.81664703577E+03 -0.10350797071E+03  0.11666598933E+04  0.12699999809E+01 0.  1.
</event>
<event>
 5   0  0.1451052E-05  0.1753029E+04  0.7818609E-02  0.8731685E-01
       -1   -1    0    0    0  501  0.00000000000E+00  0.00000000000E+00  0.73627437788E+03  0.73627437790E+03  0.50400001928E-02 0.  1.
        1   -1    0    0  501    0  0.00000000000E+00  0.00000000000E+00 -0.10434667581E+04  0.10434667581E+04  0.50400001928E-02 0. -1.
    10030    2    1    2    0    0  0.00000000000E+00  0.00000000000E+00 -0.30719238019E+03  0.17797411360E+04  0.17530291933E+04 0.  0.
        1    1    3    3  502    0 -0.11297464473E+03 -0.86381431216E+03 -0.55483039405E+02  0.87293573872E+03  0.50400001928E-02 0. -1.
       -1    1    3    3    0  502  0.11297464473E+03  0.86381431216E+03 -0.25170934078E+03  0.90680539726E+03  0.50400001928E-02 0.  1.
</event>
<event>
 5   0  0.3849687E-05  0.2567736E+04  0.7818609E-02  0.8379244E-01
        2   -1    0    0  501    0  0.00000000000E+00  0.00000000000E+00  0.15324114179E+04  0.15324114179E+04  0.25500000920E-02 0. -1.
       -2   -1    0    0    0  501  0.00000000000E+00  0.00000000000E+00 -0.10756358993E+04  0.10756358993E+04  0.25500000920E-02 0.  1.
    10030    2    1    2    0    0  0.00000000000E+00  0.00000000000E+00  0.45677551857E+03  0.26080473172E+04  0.25677357603E+04 0.  0.
        1    1    3    3  502    0  0.63406438303E+03 -0.98163498339E+03  0.76840349927E+03  0.13986024525E+04  0.50400001928E-02 0. -1.
       -1    1    3    3    0  502 -0.63406438303E+03  0.98163498339E+03 -0.31162798071E+03  0.12094448647E+04  0.50400001928E-02 0.  1.
</event>
<event>
 5   0  0.1451052E-05  0.2580356E+04  0.7818609E-02  0.8374904E-01
       -1   -1    0    0    0  501  0.00000000000E+00  0.00000000000E+00  0.66535561768E+03  0.66535561770E+03  0.50400001928E-02 0.  1.
        1   -1    0    0  501    0  0.00000000000E+00  0.00000000000E+00 -0.25017596102E+04  0.25017596102E+04  0.50400001928E-02 0. -1.
    10030    2    1    2    0    0  0.00000000000E+00  0.00000000000E+00 -0.18364039925E+04  0.31671152279E+04  0.25803564178E+04 0.  0.
        1    1    3    3  502    0  0.25716455303E+03  0.12570881073E+04 -0.75281910046E+03  0.14876628364E+04  0.50400001928E-02 0.  1.
       -1    1    3    3    0  502 -0.25716455303E+03 -0.12570881073E+04 -0.10835848921E+04  0.16794523915E+04  0.50400001928E-02 0. -1.
</event>
<event>
 5   0  0.3441646E-05  0.2615146E+04  0.7818609E-02  0.8363075E-01
        2   -1    0    0  501    0  0.00000000000E+00  0.00000000000E+00  0.15931070964E+04  0.15931070964E+04  0.25500000920E-02 0. -1.
       -2   -1    0    0    0  501  0.00000000000E+00  0.00000000000E+00 -0.10732151514E+04  0.10732151514E+04  0.25500000920E-02 0.  1.
    10030    2    1    2    0    0  0.00000000000E+00  0.00000000000E+00  0.51989194497E+03  0.26663222478E+04  0.26151456355E+04 0.  0.
        4    1    3    3  502    0 -0.30588193974E+03 -0.11873123542E+04  0.72322852419E+03  0.14234941161E+04  0.12699999809E+01 0. -1.
       -4    1    3    3    0  502  0.30588193974E+03  0.11873123542E+04 -0.20333657923E+03  0.12428281317E+04  0.12699999809E+01 0.  1.
</event>
<event>
 5   0  0.1451052E-05  0.2622757E+04  0.7818609E-02  0.8360512E-01
        1   -1    0    0  501    0  0.00000000000E+00  0.00000000000E+00  0.15902774145E+04  0.15902774145E+04  0.50400001928E-02 0.  1.
       -1   -1    0    0    0  501  0.00000000000E+00  0.00000000000E+00 -0.10813918643E+04  0.10813918643E+04  0.50400001928E-02 0. -1.
    10030    2    1    2    0    0  0.00000000000E+00  0.00000000000E+00  0.50888555018E+03  0.26716692789E+04  0.26227566095E+04 0.  0.
        1    1    3    3  502    0  0.26053455245E+03  0.51266552689E+03  0.14549843791E+04  0.15645075068E+04  0.50400001928E-02 0.  1.
       -1    1    3    3    0  502 -0.26053455245E+03 -0.51266552689E+03 -0.94609882888E+03  0.11071617721E+04  0.50400001928E-02 0. -1.
</event>
<event>
 5   0  0.3508470E-05  0.2078090E+04  0.7818609E-02  0.8570957E-01
       -2   -1    0    0    0  501  0.00000000000E+00  0.00000000000E+00  0.62442777796E+03  0.62442777796E+03  0.25500000920E-02 0.  1.
        2   -1    0    0  501    0  0.00000000000E+00  0.00000000000E+00 -0.17289662113E+04  0.17289662113E+04  0.25500000920E-02 0. -1.
    10030    2    1    2    0    0  0.00000000000E+00  0.00000000000E+00 -0.11045384333E+04  0.23533939892E+04  0.20780900168E+04 0.  0.
        5    1    3    3  502    0  0.80483318261E+02  0.15147873176E+03  0.60827019934E+03  0.63201115187E+03  0.46999998093E+01 0.  1.
       -5    1    3    3    0  502 -0.80483318261E+02 -0.15147873176E+03 -0.17128086326E+04  0.17213828374E+04  0.46999998093E+01 0. -1.
</event>
<event>
 5   0  0.3508470E-05  0.2599617E+04  0.7818609E-02  0.8368331E-01
       -2   -1    0    0    0  501  0.00000000000E+00  0.00000000000E+00  0.68347923670E+03  0.68347923670E+03  0.25500000920E-02 0. -1.
        2   -1    0    0  501    0  0.00000000000E+00  0.00000000000E+00 -0.24719146424E+04  0.24719146424E+04  0.25500000920E-02 0.  1.
    10030    2    1    2    0    0  0.00000000000E+00  0.00000000000E+00 -0.17884354057E+04  0.31553938791E+04  0.25996171510E+04 0.  0.
        5    1    3    3  502    0  0.34860056010E+03  0.32716078799E+03 -0.23613117473E+04  0.24092263882E+04  0.46999998093E+01 0.  1.
       -5    1    3    3    0  502 -0.34860056010E+03 -0.32716078799E+03  0.57287634160E+03  0.74616749089E+03  0.46999998093E+01 0. -1.
</event>
<event>
 5   0  0.3499642E-05  0.2534242E+04  0.7818609E-02  0.8390887E-01
       -2   -1    0    0    0  501  0.00000000000E+00  0.00000000000E+00  0.12394231677E+04  0.12394231677E+04  0.25500000920E-02 0. -1.
        2   -1    0    0  501    0  0.00000000000E+00  0.00000000000E+00 -0.12954375854E+04  0.12954375854E+04  0.25500000920E-02 0.  1.
    10030    2    1    2    0    0  0.00000000000E+00  0.00000000000E+00 -0.56014417755E+02  0.25348607531E+04  0.25342417845E+04 0.  0.
        2    1    3    3  502    0 -0.33013973837E+03  0.11758748732E+04  0.30959765913E+03  0.12599701087E+04  0.25500000920E-02 0.  1.
       -2    1    3    3    0  502  0.33013973837E+03 -0.11758748732E+04 -0.36561207688E+03  0.12748906444E+04  0.25500000920E-02 0. -1.
</event>
<event>
 5   0  0.3499642E-05  0.2725685E+04  0.7818609E-02  0.8326719E-01
        2   -1    0    0  501    0  0.00000000000E+00  0.00000000000E+00  0.17451421704E+04  0.17451421704E+04  0.25500000920E-02 0. -1.
       -2   -1    0    0    0  501  0.00000000000E+00  0.00000000000E+00 -0.10642911379E+04  0.10642911379E+04  0.25500000920E-02 0.  1.
    10030    2    1    2    0    0  0.00000000000E+00  0.00000000000E+00  0.68085103245E+03  0.28094333083E+04  0.27256847553E+04 0.  0.
        2    1    3    3  502    0 -0.43940329823E+03 -0.12072682102E+04 -0.12826298603E+03  0.12911325197E+04  0.25500000920E-02 0.  1.
       -2    1    3    3    0  502  0.43940329823E+03  0.12072682102E+04  0.80911401848E+03  0.15183007886E+04  0.25500000920E-02 0. -1.
</event>
<event>
 5   0  0.3849687E-05  0.2624417E+04  0.7818609E-02  0.8359954E-01
       -2   -1    0    0    0  501  0.00000000000E+00  0.00000000000E+00  0.11600979789E+04  0.11600979789E+04  0.25500000920E-02 0. -1.
        2   -1    0    0  501    0  0.00000000000E+00  0.00000000000E+00 -0.14842640204E+04  0.14842640204E+04  0.25500000920E-02 0.  1.
    10030    2    1    2    0    0  0.00000000000E+00  0.00000000000E+00 -0.32416604153E+03  0.26443619993E+04  0.26244174136E+04 0.  0.
        1    1    3    3  502    0  0.22010832682E+03 -0.18417638288E+03  0.11280864573E+04  0.11640221951E+04  0.50400001928E-02 0. -1.
       -1    1    3    3    0  502 -0.22010832682E+03  0.18417638288E+03 -0.14522524988E+04  0.14803398042E+04  0.50400001928E-02 0.  1.
</event>
<event>
 5   0  0.1474554E-05  0.2549751E+04  0.7818609E-02  0.8385473E-01
       -1   -1    0    0    0  501  0.00000000000E+00  0.00000000000E+00  0.12343180498E+04  0.12343180498E+04  0.50400001928E-02 0. -1.
        1   -1    0    0  501    0  0.00000000000E+00  0.00000000000E+00 -0.13167651698E+04  0.13167651698E+04  0.50400001928E-02 0.  1.
    10030    2    1    2    0    0  0.00000000000E+00  0.00000000000E+00 -0.82447120009E+02  0.25510832195E+04  0.25497505889E+04 0.  0.
        5    1    3    3  502    0 -0.94673681338E+03  0.83628706942E+03 -0.21335495546E+03  0.12811046340E+04  0.46999998093E+01 0. -1.
       -5    1    3    3    0  502  0.94673681338E+03 -0.83628706942E+03  0.13090783545E+03  0.12699785855E+04  0.46999998093E+01 0.  1.
</event>
<event>
 5   0  0.1497497E-05  0.2557719E+04  0.7818609E-02  0.8382707E-01
       -1   -1    0    0    0  501  0.00000000000E+00  0.00000000000E+00  0.11411023819E+04  0.11411023819E+04  0.50400001928E-02 0.  1.
        1   -1    0    0  501    0  0.00000000000E+00  0.00000000000E+00 -0.14332465741E+04  0.14332465741E+04  0.50400001928E-02 0. -1.
    10030    2    1    2    0    0  0.00000000000E+00  0.00000000000E+00 -0.29214419223E+03  0.25743489560E+04  0.25577185768E+04 0.  0.
        3    1    3    3  502    0  0.11441507548E+04  0.48817312783E+03  0.15265241274E+03  0.12532744000E+04  0.10100000352E+00 0.  1.
       -3    1    3    3    0  502 -0.11441507548E+04 -0.48817312783E+03 -0.44479660498E+03  0.13210745560E+04  0.10100000352E+00 0. -1.
</event>
<event>
 5   0  0.3647623E-05  0.2627514E+04  0.7818609E-02  0.8358915E-01
        2   -1    0    0  501    0  0.00000000000E+00  0.00000000000E+00  0.20739196319E+04  0.20739196319E+04  0.25500000920E-02 0. -1.
       -2   -1    0    0    0  501  0.00000000000E+00  0.00000000000E+00 -0.83221991669E+03  0.83221991669E+03  0.25500000920E-02 0.  1.
    10030    2    1    2    0    0  0.00000000000E+00  0.00000000000E+00  0.12416997152E+04  0.29061395486E+04  0.26275138236E+04 0.  0.
        3    1    3    3  502    0 -0.12827632097E+04  0.24648082723E+03  0.46551907402E+03  0.13867019394E+04  0.10100000352E+00 0.  1.
       -3    1    3    3    0  502  0.12827632097E+04 -0.24648082723E+03  0.77618064119E+03  0.15194376092E+04  0.10100000352E+00 0. -1.
</event>
<event>
 5   0  0.1451052E-05  0.2575375E+04  0.7818609E-02  0.8376614E-01
        1   -1    0    0  501    0  0.00000000000E+00  0.00000000000E+00  0.12180447925E+04  0.12180447925E+04  0.50400001928E-02 0. -1.
       -1   -1    0    0    0  501  0.00000000000E+00  0.00000000000E+00 -0.13613124172E+04  0.13613124172E+04  0.50400001928E-02 0.  1.
    10030    2    1    2    0    0  0.00000000000E+00  0.00000000000E+00 -0.14326762473E+03  0.25793572097E+04  0.25753753130E+04 0.  0.
        1    1    3    3  502    0 -0.11511317772E+03 -0.11493939578E+04  0.49826441262E+03  0.12580242203E+04  0.50400001928E-02 0. -1.
       -1    1    3    3    0  502  0.11511317772E+03  0.11493939578E+04 -0.64153203735E+03  0.13213329894E+04  0.50400001928E-02 0.  1.
</event>
<event>
 5   0  0.3499642E-05  0.2498431E+04  0.7818609E-02  0.8403545E-01
       -2   -1    0    0    0  501  0.00000000000E+00  0.00000000000E+00  0.79751880758E+03  0.79751880758E+03  0.25500000920E-02 0. -1.
        2   -1    0    0  501    0  0.00000000000E+00  0.00000000000E+00 -0.19567428632E+04  0.19567428632E+04  0.25500000920E-02 0.  1.
    10030    2    1    2    0    0  0.00000000000E+00  0.00000000000E+00 -0.11592240556E+04  0.27542616708E+04  0.24984308956E+04 0.  0.
        2    1    3    3  502    0  0.50729293995E+03 -0.11392570427E+04 -0.49945863283E+03  0.13433955718E+04  0.25500000920E-02 0. -1.
       -2    1    3    3    0  502 -0.50729293995E+03  0.11392570427E+04 -0.65976542281E+03  0.14108660990E+04  0.25500000920E-02 0.  1.
</event>
<event>
 5   0  0.1533248E-05  0.2595854E+04  0.7818609E-02  0.8369611E-01
        1   -1    0    0  501    0  0.00000000000E+00  0.00000000000E+00  0.14811647156E+04  0.14811647156E+04  0.50400001928E-02 0.  1.
       -1   -1    0    0    0  501  0.00000000000E+00  0.00000000000E+00 -0.11373581738E+04  0.11373581738E+04  0.50400001928E-02 0. -1.
    10030    2    1    2    0    0  0.00000000000E+00  0.00000000000E+00  0.34380654179E+03  0.26185228895E+04  0.25958542302E+04 0.  0.
        4    1    3    3  502    0  0.65645275517E+03 -0.11309137911E+03  0.12955849342E+04  0.14567984811E+04  0.12699999809E+01 0.  1.
       -4    1    3    3    0  502 -0.65645275517E+03  0.11309137911E+03 -0.95177839243E+03  0.11617244084E+04  0.12699999809E+01 0. -1.
</event>
<event>
 5   0  0.1451052E-05  0.1661160E+04  0.7818609E-02  0.8783832E-01
       -1   -1    0    0    0  501  0.00000000000E+00  0.00000000000E+00  0.42079048671E+03  0.42079048674E+03  0.50400001928E-02 0. -1.
        1   -1    0    0  501    0  0.00000000000E+00  0.00000000000E+00 -0.16394457762E+04  0.16394457762E+04  0.50400001928E-02 0.  1.
    10030    2    1    2    0    0  0.00000000000E+00  0.00000000000E+00 -0.12186552895E+04  0.20602362629E+04  0.16611600599E+04 0.  0.
        1    1    3    3  502    0 -0.68833341159E+02 -0.44188220801E+03 -0.14773759076E+04  0.15435794398E+04  0.50400001928E-02 0.  1.
       -1    1    3    3    0  502  0.68833341159E+02  0.44188220801E+03  0.25872061813E+03  0.51665682312E+03  0.50400001928E-02 0. -1.
</event>
<event>
 5   0  0.1435062E-05  0.2725797E+04  0.7818609E-02  0.8326683E-01
        1   -1    0    0  501    0  0.00000000000E+00  0.00000000000E+00  0.21870950177E+04  0.21870950177E+04  0.50400001928E-02 0. -1.
       -1   -1    0    0    0  501  0.00000000000E+00  0.00000000000E+00 -0.84929685067E+03  0.84929685068E+03  0.50400001928E-02 0.  1.
    10030    2    1    2    0    0  0.00000000000E+00  0.00000000000E+00  0.13377981670E+04  0.30363918683E+04  0.27257974324E+04 0.  0.
        2    1    3    3  502    0 -0.13547037836E+04  0.13755863160E+03  0.73335598723E+03  0.15465948798E+04  0.25500000920E-02 0.  1.
       -2    1    3    3    0  502  0.13547037836E+04 -0.13755863160E+03  0.60444217976E+03  0.14897969885E+04  0.25500000920E-02 0. -1.
</event>
<event>
 5   0  0.1474554E-05  0.2564843E+04  0.7818609E-02  0.8380242E-01
       -1   -1    0    0    0  501  0.00000000000E+00  0.00000000000E+00  0.64305710447E+03  0.64305710449E+03  0.50400001928E-02 0. -1.
        1   -1    0    0  501    0  0.00000000000E+00  0.00000000000E+00 -0.25574778059E+04  0.25574778059E+04  0.50400001928E-02 0.  1.
    10030    2    1    2    0    0  0.00000000000E+00  0.00000000000E+00 -0.19144207014E+04  0.32005349103E+04  0.25648425079E+04 0.  0.
        5    1    3    3  502    0  0.17587882643E+03 -0.15736471546E+03  0.61571503390E+03  0.65941194122E+03  0.46999998093E+01 0. -1.
       -5    1    3    3    0  502 -0.17587882643E+03  0.15736471546E+03 -0.25301357353E+04  0.25411229691E+04  0.46999998093E+01 0.  1.
</event>
<event>
 5   0  0.3441646E-05  0.2596041E+04  0.7818609E-02  0.8369547E-01
       -2   -1    0    0    0  501  0.00000000000E+00  0.00000000000E+00  0.17997355576E+04  0.17997355576E+04  0.25500000920E-02 0. -1.
        2   -1    0    0  501    0  0.00000000000E+00  0.00000000000E+00 -0.93616922633E+03  0.93616922633E+03  0.25500000920E-02 0.  1.
    10030    2    1    2    0    0  0.00000000000E+00  0.00000000000E+00  0.86356633128E+03  0.27359047839E+04  0.25960408661E+04 0.  0.
        4    1    3    3  502    0  0.97268493146E+03 -0.16567019106E+03 -0.45703653820E+03  0.10874036041E+04  0.12699999809E+01 0.  1.
       -4    1    3    3    0  502 -0.97268493146E+03  0.16567019106E+03  0.13206028695E+04  0.16485011798E+04  0.12699999809E+01 0. -1.
</event>
<event>
 5   0  0.3441646E-05  0.2607786E+04  0.7818609E-02  0.8365561E-01
        2   -1    0    0  501    0  0.00000000000E+00  0.00000000000E+00  0.16796070033E+04  0.16796070033E+04  0.25500000920E-02 0. -1.
       -2   -1    0    0    0  501  0.00000000000E+00  0.00000000000E+00 -0.10122229621E+04  0.10122229621E+04  0.25500000920E-02 0.  1.
    10030    2    1    2    0    0  0.00000000000E+00  0.00000000000E+00  0.66738404123E+03  0.26918299654E+04  0.26077858624E+04 0.  0.
        4    1    3    3  502    0  0.32498083235E+03  0.29934963539E+02  0.16367656950E+04  0.16689853794E+04  0.12699999809E+01 0. -1.
       -4    1    3    3    0  502 -0.32498083235E+03 -0.29934963539E+02 -0.96938165379E+03  0.10228445860E+04  0.12699999809E+01 0.  1.
</event>
<event>
 5   0  0.1435062E-05  0.2505148E+04  0.7818609E-02  0.8401154E-01
        1   -1    0    0  501    0  0.00000000000E+00  0.00000000000E+00  0.11905323718E+04  0.11905323718E+04  0.50400001928E-02 0.  1.
       -1   -1    0    0    0  501  0.00000000000E+00  0.00000000000E+00 -0.13178487700E+04  0.13178487701E+04  0.50400001928E-02 0. -1.
    10030    2    1    2    0    0  0.00000000000E+00  0.00000000000E+00 -0.12731639830E+03  0.25083811418E+04  0.25051479971E+04 0.  0.
        2    1    3    3  502    0 -0.12246067226E+03 -0.41057348643E+03  0.11148801560E+04  0.11943722059E+04  0.25500000920E-02 0.  1.
       -2    1    3    3    0  502  0.12246067226E+03  0.41057348643E+03 -0.12421965543E+04  0.13140089359E+04  0.25500000920E-02 0. -1.
</event>
<event>
 5   0  0.3441646E-05  0.2600386E+04  0.7818609E-02  0.8368070E-01
       -2   -1    0    0    0  501  0.00000000000E+00  0.00000000000E+00  0.10164140025E+04  0.10164140025E+04  0.25500000920E-02 0. -1.
        2   -1    0    0  501    0  0.00000000000E+00  0.00000000000E+00 -0.16632024668E+04  0.16632024668E+04  0.25500000920E-02 0.  1.
    10030    2    1    2    0    0  0.00000000000E+00  0.00000000000E+00 -0.64678846422E+03  0.26796164693E+04  0.26003863377E+04 0.  0.
        4    1    3    3  502    0  0.11654725366E+04  0.51255953692E+03 -0.59497139405E+03  0.14053597707E+04  0.12699999809E+01 0. -1.
       -4    1    3    3    0  502 -0.11654725366E+04 -0.51255953692E+03 -0.51817070172E+02  0.12742566986E+04  0.12699999809E+01 0.  1.
</event>
<event>
 5   0  0.3849687E-05  0.2617229E+04  0.7818609E-02  0.8362372E-01
        2   -1    0    0  501    0  0.00000000000E+00  0.00000000000E+00  0.22644301592E+04  0.22644301592E+04  0.25500000920E-02 0.  1.
       -2   -1    0    0    0  501  0.00000000000E+00  0.00000000000E+00 -0.75624831423E+03  0.75624831423E+03  0.25500000920E-02 0. -1.
    10030    2    1    2    0    0  0.00000000000E+00  0.00000000000E+00  0.15081818450E+04  0.30206784734E+04  0.26172286798E+04 0.  0.
        1    1    3    3  502    0 -0.35040165575E+01  0.10334176983E+04 -0.17247574760E+03  0.10477176627E+04  0.50400001928E-02 0. -1.
       -1    1    3    3    0  502  0.35040165575E+01 -0.10334176983E+04  0.16806575926E+04  0.19729608107E+04  0.50400001928E-02 0.  1.
</event>
<event>
 5   0  0.3441646E-05  0.2520703E+04  0.7818609E-02  0.8395647E-01
       -2   -1    0    0    0  501  0.00000000000E+00  0.00000000000E+00  0.85665446124E+03  0.85665446124E+03  0.25500000920E-02 0. -1.
        2   -1    0    0  501    0  0.00000000000E+00  0.00000000000E+00 -0.18542902852E+04  0.18542902852E+04  0.25500000920E-02 0.  1.
    10030    2    1    2    0    0  0.00000000000E+00  0.00000000000E+00 -0.99763582400E+03  0.27109447465E+04  0.25207031125E+04 0.  0.
        4    1    3    3  502    0  0.10272281731E+03 -0.22896365389E+03 -0.18271486652E+04  0.18443020874E+04  0.12699999809E+01 0.  1.
       -4    1    3    3    0  502 -0.10272281731E+03  0.22896365389E+03  0.82951284117E+03  0.86664265910E+03  0.12699999809E+01 0. -1.
</event>
<event>
 5   0  0.1474554E-05  0.2626941E+04  0.7818609E-02  0.8359107E-01
       -1   -1    0    0    0  501  0.00000000000E+00  0.00000000000E+00  0.15550996102E+04  0.15550996102E+04  0.50400001928E-02 0. -1.
        1   -1    0    0  501    0  0.00000000000E+00  0.00000000000E+00 -0.11093856098E+04  0.11093856098E+04  0.50400001928E-02 0.  1.
    10030    2    1    2    0    0  0.00000000000E+00  0.00000000000E+00  0.44571400036E+03  0.26644852200E+04  0.26269412855E+04 0.  0.
        5    1    3    3  502    0  0.18625795172E+03  0.46640177922E+03 -0.10081442227E+04  0.11263212277E+04  0.46999998093E+01 0.  1.
       -5    1    3    3    0  502 -0.18625795172E+03 -0.46640177922E+03  0.14538582231E+04  0.15381639922E+04  0.46999998093E+01 0. -1.
</event>
<event>
 5   0  0.3508470E-05  0.2640943E+04  0.7818609E-02  0.8354425E-01
        2   -1    0    0  501    0  0.00000000000E+00  0.00000000000E+00  0.20543855889E+04  0.20543855889E+04  0.25500000920E-02 0.  1.
       -2   -1    0    0    0  501  0.00000000000E+00  0.00000000000E+00 -0.84874268664E+03  0.84874268664E+03  0.25500000920E-02 0. -1.
    10030    2    1    2    0    0  0.00000000000E+00  0.00000000000E+00  0.12056429023E+04  0.29031282756E+04  0.26409428196E+04 0.  0.
        5    1    3    3  502    0  0.95721539814E+03  0.75922858172E+03  0.52157846422E+02  0.12228785257E+04  0.46999998093E+01 0. -1.
       -5    1    3    3    0  502 -0.95721539814E+03 -0.75922858172E+03  0.11534850559E+04  0.16802497498E+04  0.46999998093E+01 0.  1.
</event>
<event>
 5   0  0.1474554E-05  0.2723773E+04  0.7818609E-02  0.8327333E-01
       -1   -1    0    0    0  501  0.00000000000E+00  0.00000000000E+00  0.10650508850E+04  0.10650508850E+04  0.50400001928E-02 0. -1.
        1   -1    0    0  501    0  0.00000000000E+00  0.00000000000E+00 -0.17414516479E+04  0.17414516479E+04  0.50400001928E-02 0.  1.
    10030    2    1    2    0    0  0.00000000000E+00  0.00000000000E+00 -0.67640076292E+03  0.28065025329E+04  0.27237728384E+04 0.  0.
        5    1    3    3  502    0  0.10365584878E+04  0.87255780258E+03 -0.47986043924E+03  0.14373930390E+04  0.46999998093E+01 0.  1.
       -5    1    3    3    0  502 -0.10365584878E+04 -0.87255780258E+03 -0.19654032368E+03  0.13691094939E+04  0.46999998093E+01 0. -1.
</event>
<event>
 5   0  0.1497497E-05  0.2610116E+04  0.7818609E-02  0.8364773E-01
        1   -1    0    0  501    0  0.00000000000E+00  0.00000000000E+00  0.18230556487E+04  0.18230556487E+04  0.50400001928E-02 0. -1.
       -1   -1    0    0    0  501  0.00000000000E+00  0.00000000000E+00 -0.93424236856E+03  0.93424236858E+03  0.50400001928E-02 0.  1.
    10030    2    1    2    0    0  0.00000000000E+00  0.00000000000E+00  0.88881328015E+03  0.27572980173E+04  0.26101155739E+04 0.  0.
        3    1    3    3  502    0  0.12074858519E+04 -0.43018887789E+03  0.18544845680E+03  0.12951740013E+04  0.10100000352E+00 0. -1.
       -3    1    3    3    0  502 -0.12074858519E+04  0.43018887789E+03  0.70336482335E+03  0.14621240160E+04  0.10100000352E+00 0.  1.
</event>
<event>
 5   0  0.3647623E-05  0.2374216E+04  0.7818609E-02  0.8449220E-01
       -2   -1    0    0    0  501  0.00000000000E+00  0.00000000000E+00  0.10612804870E+04  0.10612804870E+04  0.25500000920E-02 0.  1.
        2   -1    0    0  501    0  0.00000000000E+00  0.00000000000E+00 -0.13278543717E+04  0.13278543717E+04  0.25500000920E-02 0. -1.
    10030    2    1    2    0    0  0.00000000000E+00  0.00000000000E+00 -0.26657388468E+03  0.23891348587E+04  0.23742164470E+04 0.  0.
        3    1    3    3  502    0 -0.10834748375E+04  0.24942260409E+03  0.28537605744E+03  0.11478540252E+04  0.10100000352E+00 0.  1.
       -3    1    3    3    0  502  0.10834748375E+04 -0.24942260409E+03 -0.55194994211E+03  0.12412808335E+04  0.10100000352E+00 0. -1.
</event>
<event>
 5   0  0.1451052E-05  0.2604791E+04  0.7818609E-02  0.8366575E-01
        1   -1    0    0  501    0  0.00000000000E+00  0.00000000000E+00  0.18025876468E+04  0.18025876468E+04  0.50400001928E-02 0. -1.
       -1   -1    0    0    0  501  0.00000000000E+00  0.00000000000E+00 -0.94099982176E+03  0.94099982177E+03  0.50400001928E-02 0.  1.
    10030    2    1    2    0    0  0.00000000000E+00  0.00000000000E+00  0.86158782505E+03  0.27435874686E+04  0.26047914729E+04 0.  0.
        1    1    3    3  502    0  0.95270499520E+03 -0.10769317524E+03  0.13592333315E+04  0.16633580124E+04  0.50400001928E-02 0. -1.
       -1    1    3    3    0  502 -0.95270499520E+03  0.10769317524E+03 -0.49764550648E+03  0.10802294562E+04  0.50400001928E-02 0.  1.
</event>
<event>
 5   0  0.1533248E-05  0.2650897E+04  0.7818609E-02  0.8351115E-01
       -1   -1    0    0    0  501  0.00000000000E+00  0.00000000000E+00  0.19333390731E+04  0.19333390731E+04  0.50400001928E-02 0. -1.
        1   -1    0    0  501    0  0.00000000000E+00  0.00000000000E+00 -0.90869435882E+03  0.90869435884E+03  0.50400001928E-02 0.  1.
    10030    2    1    2    0    0  0.00000000000E+00  0.00000000000E+00  0.10246447143E+04  0.28420334320E+04  0.26508974401E+04 0.  0.
        4    1    3    3  502    0 -0.59347315453E+02  0.31720851699E+03 -0.86593158393E+03  0.92411171838E+03  0.12699999809E+01 0.  1.
       -4    1    3    3    0  502  0.59347315453E+02 -0.31720851699E+03  0.18905762982E+04  0.19179217136E+04  0.12699999809E+01 0. -1.
</event>
<event>
 5   0  0.1474554E-05  0.2575933E+04  0.7818609E-02  0.8376423E-01
       -1   -1    0    0    0  501  0.00000000000E+00  0.00000000000E+00  0.74521700950E+03  0.74521700952E+03  0.50400001928E-02 0. -1.
        1   -1    0    0  501    0  0.00000000000E+00  0.00000000000E+00 -0.22260054094E+04  0.22260054095E+04  0.50400001928E-02 0.  1.
    10030    2    1    2    0    0  0.00000000000E+00  0.00000000000E+00 -0.14807883999E+04  0.29712224190E+04  0.25759325258E+04 0.  0.
        5    1    3    3  502    0  0.59258401323E+03  0.11112324949E+04 -0.42908624270E+03  0.13304625377E+04  0.46999998093E+01 0. -1.
       -5    1    3    3    0  502 -0.59258401323E+03 -0.11112324949E+04 -0.10517021572E+04  0.16407598813E+04  0.46999998093E+01 0.  1.
</event>
<event>
 5   0  0.1451052E-05  0.2684086E+04  0.7818609E-02  0.8340187E-01
       -1   -1    0    0    0  501  0.00000000000E+00  0.00000000000E+00  0.14151931089E+04  0.14151931089E+04  0.50400001928E-02 0.  1.
        1   -1    0    0  501    0  0.00000000000E+00  0.00000000000E+00 -0.12726744169E+04  0.12726744169E+04  0.50400001928E-02 0. -1.
    10030    2    1    2    0    0  0.00000000000E+00  0.00000000000E+00  0.14251869199E+03  0.26878675257E+04  0.26840864849E+04 0.  0.
        1    1    3    3  502    0 -0.78798450153E+03 -0.71747223308E+03  0.88812535130E+03  0.13872464163E+04  0.50400001928E-02 0.  1.
       -1    1    3    3    0  502  0.78798450153E+03  0.71747223308E+03 -0.74560665931E+03  0.13006211094E+04  0.50400001928E-02 0. -1.
</event>
<event>
 5   0  0.1451052E-05  0.2598031E+04  0.7818609E-02  0.8368870E-01
        1   -1    0    0  501    0  0.00000000000E+00  0.00000000000E+00  0.11146017210E+04  0.11146017210E+04  0.50400001928E-02 0. -1.
       -1   -1    0    0    0  501  0.00000000000E+00  0.00000000000E+00 -0.15139414884E+04  0.15139414884E+04  0.50400001928E-02 0.  1.
    10030    2    1    2    0    0  0.00000000000E+00  0.00000000000E+00 -0.39933976738E+03  0.26285432094E+04  0.25980313997E+04 0.  0.
        1    1    3    3  502    0 -0.11181026215E+04 -0.45682499589E+03 -0.68340555669E+03  0.13877628414E+04  0.50400001928E-02 0.  1.
       -1    1    3    3    0  502  0.11181026215E+04  0.45682499589E+03  0.28406578930E+03  0.12407803680E+04  0.50400001928E-02 0. -1.
</event>
<event>
 5   0  0.3441646E-05  0.2605030E+04  0.7818609E-02  0.8366495E-01
        2   -1    0    0  501    0  0.00000000000E+00  0.00000000000E+00  0.14905224017E+04  0.14905224017E+04  0.25500000920E-02 0.  1.
       -2   -1    0    0    0  501  0.00000000000E+00  0.00000000000E+00 -0.11382219065E+04  0.11382219065E+04  0.25500000920E-02 0. -1.
    10030    2    1    2    0    0  0.00000000000E+00  0.00000000000E+00  0.35230049519E+03  0.26287443082E+04  0.26050299421E+04 0.  0.
        4    1    3    3  502    0 -0.67554114569E+03 -0.13068380885E+03 -0.93986030881E+03  0.11648060398E+04  0.12699999809E+01 0. -1.
       -4    1    3    3    0  502  0.67554114569E+03  0.13068380885E+03  0.12921608040E+04  0.14639382684E+04  0.12699999809E+01 0.  1.
</event>
<event>
 5   0  0.1533248E-05  0.2757969E+04  0.7818609E-02  0.8316437E-01
        1   -1    0    0  501    0  0.00000000000E+00  0.00000000000E+00  0.16741178740E+04  0.16741178740E+04  0.50400001928E-02 0. -1.
       -1   -1    0    0    0  501  0.00000000000E+00  0.00000000000E+00 -0.11358810528E+04  0.11358810528E+04  0.50400001928E-02 0.  1.
    10030    2    1    2    0    0  0.00000000000E+00  0.00000000000E+00  0.53823682126E+03  0.28099989268E+04  0.27579693786E+04 0.  0.
        4    1    3    3  502    0 -0.45552514626E+03 -0.41031523107E+03  0.15276274154E+04  0.16460585897E+04  0.12699999809E+01 0. -1.
       -4    1    3    3    0  502  0.45552514626E+03  0.41031523107E+03 -0.98939059412E+03  0.11639403371E+04  0.12699999809E+01 0.  1.
</event>
<event>
 5   0  0.1451052E-05  0.2608863E+04  0.7818609E-02  0.8365197E-01
        1   -1    0    0  501    0  0.00000000000E+00  0.00000000000E+00  0.15617837369E+04  0.15617837369E+04  0.50400001928E-02 0.  1.
       -1   -1    0    0    0  501  0.00000000000E+00  0.00000000000E+00 -0.10894856417E+04  0.10894856417E+04  0.50400001928E-02 0. -1.
    10030    2    1    2    0    0  0.00000000000E+00  0.00000000000E+00  0.47229809514E+03  0.26512693786E+04  0.26088625543E+04 0.  0.
        1    1    3    3  502    0  0.31794210017E+03 -0.11221285338E+04 -0.35753984368E+03  0.12198747335E+04  0.50400001928E-02 0. -1.
       -1    1    3    3    0  502 -0.31794210017E+03  0.11221285338E+04  0.82983793882E+03  0.14313946452E+04  0.50400001928E-02 0.  1.
</event>
<event>
 5   0  0.1497497E-05  0.2573947E+04  0.7818609E-02  0.8377105E-01
       -1   -1    0    0    0  501  0.00000000000E+00  0.00000000000E+00  0.13043793133E+04  0.13043793133E+04  0.50400001928E-02 0. -1.
        1   -1    0    0  501    0  0.00000000000E+00  0.00000000000E+00 -0.12698000909E+04  0.12698000909E+04  0.50400001928E-02 0.  1.
    10030    2    1    2    0    0  0.00000000000E+00  0.00000000000E+00  0.34579222385E+02  0.25741794042E+04  0.25739471405E+04 0.  0.
        3    1    3    3  502    0  0.93281189892E+03 -0.88639916024E+03 -0.41471156240E+01  0.12868017403E+04  0.10100000352E+00 0. -1.
       -3    1    3    3    0  502 -0.93281189892E+03  0.88639916024E+03  0.38726338009E+02  0.12873776639E+04  0.10100000352E+00 0.  1.
</event>
<event>
 5   0  0.1497497E-05  0.2580304E+04  0.7818609E-02  0.8374922E-01
        1   -1    0    0  501    0  0.00000000000E+00  0.00000000000E+00  0.21019284442E+04  0.21019284442E+04  0.50400001928E-02 0.  1.
       -1   -1    0    0    0  501  0.00000000000E+00  0.00000000000E+00 -0.79188811921E+03  0.79188811922E+03  0.50400001928E-02 0. -1.
    10030    2    1    2    0    0  0.00000000000E+00  0.00000000000E+00  0.13100403250E+04  0.28938165635E+04  0.25803039840E+04 0.  0.
        3    1    3    3  502    0  0.76295193347E+03  0.70716870369E+03  0.15108291599E+04  0.18343358441E+04  0.10100000352E+00 0.  1.
       -3    1    3    3    0  502 -0.76295193347E+03 -0.70716870369E+03 -0.20078883490E+03  0.10594807194E+04  0.10100000352E+00 0. -1.
</event>
<event>
 5   0  0.3441646E-05  0.2573889E+04  0.7818609E-02  0.8377125E-01
       -2   -1    0    0    0  501  0.00000000000E+00  0.00000000000E+00  0.81992120490E+03  0.81992120490E+03  0.25500000920E-02 0.  1.
        2   -1    0    0  501    0  0.00000000000E+00  0.00000000000E+00 -0.20199827035E+04  0.20199827035E+04  0.25500000920E-02 0. -1.
    10030    2    1    2    0    0  0.00000000000E+00  0.00000000000E+00 -0.12000614986E+04  0.28399039084E+04  0.25738893932E+04 0.  0.
        4    1    3    3  502    0 -0.34022180772E+03  0.40379691295E+03  0.69490227452E+03  0.87275059976E+03  0.12699999809E+01 0.  1.
       -4    1    3    3    0  502  0.34022180772E+03 -0.40379691295E+03 -0.18949637731E+04  0.19671533087E+04  0.12699999809E+01 0. -1.
</event>
<event>
 5   0  0.1435062E-05  0.2587972E+04  0.7818609E-02  0.8372298E-01
       -1   -1    0    0    0  501  0.00000000000E+00  0.00000000000E+00  0.71581906833E+03  0.71581906835E+03  0.50400001928E-02 0. -1.
        1   -1    0    0  501    0  0.00000000000E+00  0.00000000000E+00 -0.23391384759E+04  0.23391384759E+04  0.50400001928E-02 0.  1.
    10030    2    1    2    0    0  0.00000000000E+00  0.00000000000E+00 -0.16233194076E+04  0.30549575443E+04  0.25879721209E+04 0.  0.
        2    1    3    3  502    0 -0.76020035773E+03  0.28186688510E+03 -0.20021228875E+04  0.21600577727E+04  0.25500000920E-02 0.  1.
       -2    1    3    3    0  502  0.76020035773E+03 -0.28186688510E+03  0.37880347988E+03  0.89489977159E+03  0.25500000920E-02 0. -1.
</event>
<event>
 5   0  0.1533248E-05  0.2601300E+04  0.7818609E-02  0.8367760E-01
       -1   -1    0    0    0  501  0.00000000000E+00  0.00000000000E+00  0.84750366127E+03  0.84750366129E+03  0.50400001928E-02 0.  1.
        1   -1    0    0  501    0  0.00000000000E+00  0.00000000000E+00 -0.19960858704E+04  0.19960858704E+04  0.50400001928E-02 0. -1.
    10030    2    1    2    0    0  0.00000000000E+00  0.00000000000E+00 -0.11485822092E+04  0.28435895317E+04  0.26012997393E+04 0.  0.
        4    1    3    3  502    0 -0.28878416871E+03  0.15493663695E+03 -0.19502118317E+04  0.19775564364E+04  0.12699999809E+01 0. -1.
       -4    1    3    3    0  502  0.28878416871E+03 -0.15493663695E+03  0.80162962256E+03  0.86603309535E+03  0.12699999809E+01 0.  1.
</event>
<event>
 5   0  0.3441646E-05  0.2567696E+04  0.7818609E-02  0.8379258E-01
        2   -1    0    0  501    0  0.00000000000E+00  0.00000000000E+00  0.14581369807E+04  0.14581369808E+04  0.25500000920E-02 0. -1.
       -2   -1    0    0    0  501  0.00000000000E+00  0.00000000000E+00 -0.11303914987E+04  0.11303914987E+04  0.25500000920E-02 0.  1.
    10030    2    1    2    0    0  0.00000000000E+00  0.00000000000E+00  0.32774548201E+03  0.25885284795E+04  0.25676959688E+04 0.  0.
        4    1    3    3  502    0  0.11660388543E+04  0.45014360617E+03  0.45948924182E+03  0.13316936029E+04  0.12699999809E+01 0. -1.
       -4    1    3    3    0  502 -0.11660388543E+04 -0.45014360617E+03 -0.13174375981E+03  0.12568348766E+04  0.12699999809E+01 0.  1.
</event>
<event>
 5   0  0.3508470E-05  0.2652736E+04  0.7818609E-02  0.8350505E-01
        2   -1    0    0  501    0  0.00000000000E+00  0.00000000000E+00  0.22481757087E+04  0.22481757087E+04  0.25500000920E-02 0. -1.
       -2   -1    0    0    0  501  0.00000000000E+00  0.00000000000E+00 -0.78252445762E+03  0.78252445763E+03  0.25500000920E-02 0.  1.
    10030    2    1    2    0    0  0.00000000000E+00  0.00000000000E+00  0.14656512510E+04  0.30307001663E+04  0.26527363058E+04 0.  0.
        5    1    3    3  502    0  0.47638153167E+03  0.11972906793E+04  0.37374108570E+03  0.13416962487E+04  0.46999998093E+01 0. -1.
       -5    1    3    3    0  502 -0.47638153167E+03 -0.11972906793E+04  0.10919101653E+04  0.16890039176E+04  0.46999998093E+01 0.  1.
</event>
<event>
 5   0  0.1533248E-05  0.2525313E+04  0.7818609E-02  0.8394023E-01
       -1   -1    0    0    0  501  0.00000000000E+00  0.00000000000E+00  0.97934948817E+03  0.97934948819E+03  0.50400001928E-02 0.  1.
        1   -1    0    0  501    0  0.00000000000E+00  0.00000000000E+00 -0.16279186092E+04  0.16279186092E+04  0.50400001928E-02 0. -1.
    10030    2    1    2    0    0  0.00000000000E+00  0.00000000000E+00 -0.64856912099E+03  0.26072680974E+04  0.25253128572E+04 0.  0.
        4    1    3    3  502    0 -0.53116317275E+03 -0.63959050308E+03  0.65686644434E+03  0.10595685284E+04  0.12699999809E+01 0.  1.
       -4    1    3    3    0  502  0.53116317275E+03  0.63959050308E+03 -0.13054355653E+04  0.15476995690E+04  0.12699999809E+01 0. -1.
</event>
<event>
 5   0  0.3441646E-05  0.2660789E+04  0.7818609E-02  0.8347841E-01
        2   -1    0    0  501    0  0.00000000000E+00  0.00000000000E+00  0.17505288952E+04  0.17505288952E+04  0.25500000920E-02 0. -1.
       -2   -1    0    0    0  501  0.00000000000E+00  0.00000000000E+00 -0.10110941047E+04  0.10110941047E+04  0.25500000920E-02 0.  1.
    10030    2    1    2    0    0  0.00000000000E+00  0.00000000000E+00  0.73943479051E+03  0.27616229999E+04  0.26607889402E+04 0.  0.
        4    1    3    3  502    0 -0.99195267690E+03  0.80715488705E+03  0.75032786337E+03  0.14827213630E+04  0.12699999809E+01 0. -1.
       -4    1    3    3    0  502  0.99195267690E+03 -0.80715488705E+03 -0.10893072864E+02  0.12789016369E+04  0.12699999809E+01 0.  1.
</event>
<event>
 5   0  0.3647623E-05  0.1846404E+04  0.7818609E-02  0.8682004E-01
        2   -1    0    0  501    0  0.00000000000E+00  0.00000000000E+00  0.98907331107E+03  0.98907331108E+03  0.25500000920E-02 0.  1.
       -2   -1    0    0    0  501  0.00000000000E+00  0.00000000000E+00 -0.86171793195E+03  0.86171793195E+03  0.25500000920E-02 0. -1.
    10030    2    1    2    0    0  0.00000000000E+00  0.00000000000E+00  0.12735537913E+03  0.18507912430E+04  0.18464042983E+04 0.  0.
        3    1    3    3  502    0 -0.79964720990E+03  0.45351500972E+03 -0.21321624721E+02  0.91954670693E+03  0.10100000352E+00 0.  1.
       -3    1    3    3    0  502  0.79964720990E+03 -0.45351500972E+03  0.14867700385E+03  0.93124453610E+03  0.10100000352E+00 0. -1.
</event>
<event>
 5   0  0.1474554E-05  0.2568341E+04  0.7818609E-02  0.8379035E-01
        1   -1    0    0  501    0  0.00000000000E+00  0.00000000000E+00  0.24449950370E+04  0.24449950370E+04  0.50400001928E-02 0. -1.
       -1   -1    0    0    0  501  0.00000000000E+00  0.00000000000E+00 -0.67447721490E+03  0.67447721492E+03  0.50400001928E-02 0.  1.
    10030    2    1    2    0    0  0.00000000000E+00  0.00000000000E+00  0.17705178221E+04  0.31194722519E+04  0.25683406651E+04 0.  0.
        5    1    3    3  502    0  0.12300891029E+04  0.12404588722E+02  0.43767380064E+03  0.13057003946E+04  0.46999998093E+01 0.  1.
       -5    1    3    3    0  502 -0.12300891029E+04 -0.12404588722E+02  0.13328440214E+04  0.18137718573E+04  0.46999998093E+01 0. -1.
</event>
<event>
 5   0  0.3499642E-05  0.2616632E+04  0.7818609E-02  0.8362574E-01
        2   -1    0    0  501    0  0.00000000000E+00  0.00000000000E+00  0.16149928510E+04  0.16149928510E+04  0.25500000920E-02 0.  1.
       -2   -1    0    0    0  501  0.00000000000E+00  0.00000000000E+00 -0.10598749478E+04  0.10598749478E+04  0.25500000920E-02 0. -1.
    10030    2    1    2    0    0  0.00000000000E+00  0.00000000000E+00  0.55511790316E+03  0.26748677988E+04  0.26166317767E+04 0.  0.
        2    1    3    3  502    0 -0.90092829914E+03 -0.84882084049E+03  0.71068904776E+03  0.14273218075E+04  0.25500000920E-02 0. -1.
       -2    1    3    3    0  502  0.90092829914E+03  0.84882084049E+03 -0.15557114460E+03  0.12475459913E+04  0.25500000920E-02 0.  1.
</event>
<event>
 5   0  0.1217200E-05  0.2239209E+04  0.7818609E-02  0.8502284E-01
        3   -1    0    0  501    0  0.00000000000E+00  0.00000000000E+00  0.10141878361E+04  0.10141878411E+04  0.10100000352E+00 0. -1.
       -3   -1    0    0    0  501  0.00000000000E+00  0.00000000000E+00 -0.12359779683E+04  0.12359779725E+04  0.10100000352E+00 0.  1.
    10030    2    1    2    0    0  0.00000000000E+00  0.00000000000E+00 -0.22179013224E+03  0.22501658136E+04  0.22392086383E+04 0.  0.
        4    1    3    3  502    0  0.95700154866E+03  0.37800965670E+03  0.33259084468E+03  0.10813702176E+04  0.12699999809E+01 0.  1.
       -4    1    3    3    0  502 -0.95700154866E+03 -0.37800965670E+03 -0.55438097692E+03  0.11687955960E+04  0.12699999809E+01 0. -1.
</event>
<event>
 5   0  0.3499642E-05  0.2621821E+04  0.7818609E-02  0.8360827E-01
       -2   -1    0    0    0  501  0.00000000000E+00  0.00000000000E+00  0.93834531493E+03  0.93834531493E+03  0.25500000920E-02 0. -1.
        2   -1    0    0  501    0  0.00000000000E+00  0.00000000000E+00 -0.18314004422E+04  0.18314004422E+04  0.25500000920E-02 0.  1.
    10030    2    1    2    0    0  0.00000000000E+00  0.00000000000E+00 -0.89305512727E+03  0.27697457571E+04  0.26218207602E+04 0.  0.
        2    1    3    3  502    0  0.37073525598E+03  0.73182563688E+03  0.63364524868E+03  0.10365904177E+04  0.25500000920E-02 0. -1.
       -2    1    3    3    0  502 -0.37073525598E+03 -0.73182563688E+03 -0.15267003760E+04  0.17331553395E+04  0.25500000920E-02 0.  1.
</event>
<event>
 5   0  0.1497497E-05  0.2600589E+04  0.7818609E-02  0.8368001E-01
        1   -1    0    0  501    0  0.00000000000E+00  0.00000000000E+00  0.15864285412E+04  0.15864285412E+04  0.50400001928E-02 0. -1.
       -1   -1    0    0    0  501  0.00000000000E+00  0.00000000000E+00 -0.10657684265E+04  0.10657684265E+04  0.50400001928E-02 0.  1.
    10030    2    1    2    0    0  0.00000000000E+00  0.00000000000E+00  0.52066011471E+03  0.26521969678E+04  0.26005887412E+04 0.  0.
        3    1    3    3  502    0  0.95301854782E+02  0.97942994981E+03  0.11271381470E+04  0.14962639749E+04  0.10100000352E+00 0. -1.
       -3    1    3    3    0  502 -0.95301854782E+02 -0.97942994981E+03 -0.60647803228E+03  0.11559329928E+04  0.10100000352E+00 0.  1.
</event>
<event>
 5   0  0.3647623E-05  0.2614844E+04  0.7818609E-02  0.8363177E-01
        2   -1    0    0  501    0  0.00000000000E+00  0.00000000000E+00  0.86303838248E+03  0.86303838248E+03  0.25500000920E-02 0.  1.
       -2   -1    0    0    0  501  0.00000000000E+00  0.00000000000E+00 -0.19806208036E+04  0.19806208036E+04  0.25500000920E-02 0. -1.
    10030    2    1    2    0    0  0.00000000000E+00  0.00000000000E+00 -0.11175824211E+04  0.28436591861E+04  0.26148436088E+04 0.  0.
        3    1    3    3  502    0 -0.31857264009E+03  0.10037298104E+03  0.81585668424E+03  0.88158119408E+03  0.10100000352E+00 0.  1.
       -3    1    3    3    0  502  0.31857264009E+03 -0.10037298104E+03 -0.19334391054E+04  0.19620779920E+04  0.10100000352E+00 0. -1.
</event>
<event>
 5   0  0.1533248E-05  0.2623847E+04  0.7818609E-02  0.8360146E-01
       -1   -1    0    0    0  501  0.00000000000E+00  0.00000000000E+00  0.15396340532E+04  0.15396340533E+04  0.50400001928E-02 0. -1.
        1   -1    0    0  501    0  0.00000000000E+00  0.00000000000E+00 -0.11178915471E+04  0.11178915471E+04  0.50400001928E-02 0.  1.
    10030    2    1    2    0    0  0.00000000000E+00  0.00000000000E+00  0.42174250617E+03  0.26575256003E+04  0.26238474755E+04 0.  0.
        4    1    3    3  502    0 -0.95094354802E+03  0.57828222429E+03 -0.49262172757E+03  0.12171202660E+04  0.12699999809E+01 0.  1.
       -4    1    3    3    0  502  0.95094354802E+03 -0.57828222429E+03  0.91436423374E+03  0.14404053344E+04  0.12699999809E+01 0. -1.
</event>
<event>
 5   0  0.1451052E-05  0.2602730E+04  0.7818609E-02  0.8367274E-01
        1   -1    0    0  501    0  0.00000000000E+00  0.00000000000E+00  0.12232313711E+04  0.12232313711E+04  0.50400001928E-02 0. -1.
       -1   -1    0    0    0  501  0.00000000000E+00  0.00000000000E+00 -0.13844894810E+04  0.13844894810E+04  0.50400001928E-02 0.  1.
    10030    2    1    2    0    0  0.00000000000E+00  0.00000000000E+00 -0.16125810993E+03  0.26077208521E+04  0.26027300791E+04 0.  0.
        1    1    3    3  502    0 -0.73151274806E+03  0.31535818559E+03  0.95041625391E+03  0.12401019077E+04  0.50400001928E-02 0. -1.
       -1    1    3    3    0  502  0.73151274806E+03 -0.31535818559E+03 -0.11116743638E+04  0.13676189444E+04  0.50400001928E-02 0.  1.
</event>
<event>
 5   0  0.3499642E-05  0.2409738E+04  0.7818609E-02  0.8435867E-01
       -2   -1    0    0    0  501  0.00000000000E+00  0.00000000000E+00  0.91132310802E+03  0.91132310802E+03  0.25500000920E-02 0.  1.
        2   -1    0    0  501    0  0.00000000000E+00  0.00000000000E+00 -0.15929692960E+04  0.15929692960E+04  0.25500000920E-02 0. -1.
    10030    2    1    2    0    0  0.00000000000E+00  0.00000000000E+00 -0.68164618794E+03  0.25042924040E+04  0.24097383508E+04 0.  0.
        2    1    3    3  502    0 -0.59430763895E+03  0.66000837769E+03  0.50530907504E+03  0.10218365279E+04  0.25500000920E-02 0.  1.
       -2    1    3    3    0  502  0.59430763895E+03 -0.66000837769E+03 -0.11869552630E+04  0.14824558761E+04  0.25500000920E-02 0. -1.
</event>
<event>
 5   0  0.1497497E-05  0.2606053E+04  0.7818609E-02  0.8366148E-01
       -1   -1    0    0    0  501  0.00000000000E+00  0.00000000000E+00  0.11093138430E+04  0.11093138431E+04  0.50400001928E-02 0. -1.
        1   -1    0    0  501    0  0.00000000000E+00  0.00000000000E+00 -0.15305665822E+04  0.15305665822E+04  0.50400001928E-02 0.  1.
    10030    2    1    2    0    0  0.00000000000E+00  0.00000000000E+00 -0.42125273918E+03  0.26398804253E+04  0.26060534894E+04 0.  0.
        3    1    3    3  502    0  0.64379652864E+03  0.71298383066E+03 -0.11024279731E+04  0.14622473659E+04  0.10100000352E+00 0.  1.
       -3    1    3    3    0  502 -0.64379652864E+03 -0.71298383066E+03  0.68117523391E+03  0.11776330594E+04  0.10100000352E+00 0. -1.
</event>
<event>
 5   0  0.3441646E-05  0.2264128E+04  0.7818609E-02  0.8492201E-01
        2   -1    0    0  501    0  0.00000000000E+00  0.00000000000E+00  0.14859070248E+04  0.14859070248E+04  0.25500000920E-02 0.  1.
       -2   -1    0    0    0  501  0.00000000000E+00  0.00000000000E+00 -0.86248258122E+03  0.86248258122E+03  0.25500000920E-02 0. -1.
    10030    2    1    2    0    0  0.00000000000E+00  0.00000000000E+00  0.62342444356E+03  0.23483896060E+04  0.22641280230E+04 0.  0.
        4    1    3    3  502    0  0.83863515611E+02  0.13101279161E+03 -0.85134396166E+03  0.86543953849E+03  0.12699999809E+01 0. -1.
       -4    1    3    3    0  502 -0.83863515611E+02 -0.13101279161E+03  0.14747684052E+04  0.14829500675E+04  0.12699999809E+01 0.  1.
</event>
<event>
 5   0  0.3647623E-05  0.2549259E+04  0.7818609E-02  0.8385644E-01
        2   -1    0    0  501    0  0.00000000000E+00  0.00000000000E+00  0.91671667893E+03  0.91671667893E+03  0.25500000920E-02 0.  1.
       -2   -1    0    0    0  501  0.00000000000E+00  0.00000000000E+00 -0.17722825375E+04  0.17722825375E+04  0.25500000920E-02 0. -1.
    10030    2    1    2    0    0  0.00000000000E+00  0.00000000000E+00 -0.85556585856E+03  0.26889992164E+04  0.25492594704E+04 0.  0.
        3    1    3    3  502    0 -0.12041601121E+03 -0.76472368071E+03  0.64033391730E+03  0.10046540994E+04  0.10100000352E+00 0.  1.
       -3    1    3    3    0  502  0.12041601121E+03  0.76472368071E+03 -0.14958997759E+04  0.16843451170E+04  0.10100000352E+00 0. -1.
</event>
<event>
 5   0  0.3508470E-05  0.2614485E+04  0.7818609E-02  0.8363298E-01
        2   -1    0    0  501    0  0.00000000000E+00  0.00000000000E+00  0.11811962643E+04  0.11811962643E+04  0.25500000920E-02 0.  1.
       -2   -1    0    0    0  501  0.00000000000E+00  0.00000000000E+00 -0.14467388674E+04  0.14467388674E+04  0.25500000920E-02 0. -1.
    10030    2    1    2    0    0  0.00000000000E+00  0.00000000000E+00 -0.26554260304E+03  0.26279351317E+04  0.26144846878E+04 0.  0.
        5    1    3    3  502    0  0.10931198328E+04 -0.40653553316E+03 -0.72629904951E+03  0.13739412316E+04  0.46999998093E+01 0. -1.
       -5    1    3    3    0  502 -0.10931198328E+04  0.40653553316E+03  0.46075644647E+03  0.12539939001E+04  0.46999998093E+01 0.  1.
</event>
<event>
 5   0  0.1533248E-05  0.2589438E+04  0.7818609E-02  0.8371798E-01
        1   -1    0    0  501    0  0.00000000000E+00  0.00000000000E+00  0.11012720890E+04  0.11012720890E+04  0.50400001928E-02 0.  1.
       -1   -1    0    0    0  501  0.00000000000E+00  0.00000000000E+00 -0.15221469058E+04  0.15221469058E+04  0.50400001928E-02 0. -1.
    10030    2    1    2    0    0  0.00000000000E+00  0.00000000000E+00 -0.42087481680E+03  0.26234189949E+04  0.25894384741E+04 0.  0.
        4    1    3    3  502    0  0.33627930262E+03  0.72177250827E+03 -0.12447444125E+04  0.14776432548E+04  0.12699999809E+01 0. -1.
       -4    1    3    3    0  502 -0.33627930262E+03 -0.72177250827E+03  0.82386959566E+03  0.11457757401E+04  0.12699999809E+01 0.  1.
</event>
<event>
 5   0  0.1497497E-05  0.2182138E+04  0.7818609E-02  0.8525900E-01
       -1   -1    0    0    0  501  0.00000000000E+00  0.00000000000E+00  0.92196681252E+03  0.92196681253E+03  0.50400001928E-02 0. -1.
        1   -1    0    0  501    0  0.00000000000E+00  0.00000000000E+00 -0.12911870091E+04  0.12911870091E+04  0.50400001928E-02 0.  1.
    10030    2    1    2    0    0  0.00000000000E+00  0.00000000000E+00 -0.36922019659E+03  0.22131538217E+04  0.21821380077E+04 0.  0.
        3    1    3    3  502    0 -0.96467011630E+02 -0.34791258714E+03  0.85962724586E+03  0.93236691524E+03  0.10100000352E+00 0. -1.
       -3    1    3    3    0  502  0.96467011630E+02  0.34791258714E+03 -0.12288474425E+04  0.12807869064E+04  0.10100000352E+00 0.  1.
</event>
<event>
 5   0  0.1474554E-05  0.2649415E+04  0.7818609E-02  0.8351607E-01
        1   -1    0    0  501    0  0.00000000000E+00  0.00000000000E+00  0.29736264195E+04  0.29736264195E+04  0.50400001928E-02 0.  1.
       -1   -1    0    0    0  501  0.00000000000E+00  0.00000000000E+00 -0.59013821918E+03  0.59013821920E+03  0.50400001928E-02 0. -1.
    10030    2    1    2    0    0  0.00000000000E+00  0.00000000000E+00  0.23834882004E+04  0.35637646388E+04  0.26494154825E+04 0.  0.
        5    1    3    3  502    0  0.10523145869E+04  0.50365561022E+03  0.34764538042E+03  0.12173390505E+04  0.46999998093E+01 0. -1.
       -5    1    3    3    0  502 -0.10523145869E+04 -0.50365561022E+03  0.20358428199E+04  0.23464255882E+04  0.46999998093E+01 0.  1.
</event>
<event>
 5   0  0.3441646E-05  0.2518433E+04  0.7818609E-02  0.8396448E-01
        2   -1    0    0  501    0  0.00000000000E+00  0.00000000000E+00  0.13375116517E+04  0.13375116517E+04  0.25500000920E-02 0.  1.
       -2   -1    0    0    0  501  0.00000000000E+00  0.00000000000E+00 -0.11855043277E+04  0.11855043277E+04  0.25500000920E-02 0. -1.
    10030    2    1    2    0    0  0.00000000000E+00  0.00000000000E+00  0.15200732403E+03  0.25230159793E+04  0.25184327280E+04 0.  0.
        4    1    3    3  502    0 -0.58220406269E+03 -0.57958593339E+03 -0.88006156568E+03  0.12039067228E+04  0.12699999809E+01 0. -1.
       -4    1    3    3    0  502  0.58220406269E+03  0.57958593339E+03  0.10320688897E+04  0.13191092566E+04  0.12699999809E+01 0.  1.
</event>
<event>
 5   0  0.3441646E-05  0.2804434E+04  0.7818609E-02  0.8301893E-01
        2   -1    0    0  501    0  0.00000000000E+00  0.00000000000E+00  0.26737369307E+04  0.26737369307E+04  0.25500000920E-02 0. -1.
       -2   -1    0    0    0  501  0.00000000000E+00  0.00000000000E+00 -0.73537996890E+03  0.73537996890E+03  0.25500000920E-02 0.  1.
    10030    2    1    2    0    0  0.00000000000E+00  0.00000000000E+00  0.19383569618E+04  0.34091168996E+04  0.28044340470E+04 0.  0.
        4    1    3    3  502    0  0.16614706440E+03 -0.13321579479E+04  0.47694928536E+03  0.14246865897E+04  0.12699999809E+01 0.  1.
       -4    1    3    3    0  502 -0.16614706440E+03  0.13321579479E+04  0.14614076765E+04  0.19844303099E+04  0.12699999809E+01 0. -1.
</event>
<event>
 5   0  0.3508470E-05  0.2562295E+04  0.7818609E-02  0.8381123E-01
        2   -1    0    0  501    0  0.00000000000E+00  0.00000000000E+00  0.13176212602E+04  0.13176212602E+04  0.25500000920E-02 0. -1.
       -2   -1    0    0    0  501  0.00000000000E+00  0.00000000000E+00 -0.12456837175E+04  0.12456837175E+04  0.25500000920E-02 0.  1.
    10030    2    1    2    0    0  0.00000000000E+00  0.00000000000E+00  0.71937542706E+02  0.25633049777E+04  0.25622953379E+04 0.  0.
        5    1    3    3  502    0 -0.10123701508E+04 -0.47420676266E+02 -0.74803335108E+03  0.12596499622E+04  0.46999998093E+01 0.  1.
       -5    1    3    3    0  502  0.10123701508E+04  0.47420676266E+02  0.81997089378E+03  0.13036550155E+04  0.46999998093E+01 0. -1.
</event>
<event>
 5   0  0.3441646E-05  0.2577292E+04  0.7818609E-02  0.8375956E-01
        2   -1    0    0  501    0  0.00000000000E+00  0.00000000000E+00  0.17181990960E+04  0.17181990960E+04  0.25500000920E-02 0.  1.
       -2   -1    0    0    0  501  0.00000000000E+00  0.00000000000E+00 -0.96648191969E+03  0.96648191969E+03  0.25500000920E-02 0. -1.
    10030    2    1    2    0    0  0.00000000000E+00  0.00000000000E+00  0.75171717629E+03  0.26846810157E+04  0.25772918816E+04 0.  0.
        4    1    3    3  502    0 -0.80381890659E+03 -0.93033614424E+03 -0.26171836369E+02  0.12297710168E+04  0.12699999809E+01 0.  1.
       -4    1    3    3    0  502  0.80381890659E+03  0.93033614424E+03  0.77788901266E+03  0.14549099989E+04  0.12699999809E+01 0. -1.
</event>
<event>
 5   0  0.3499642E-05  0.2601650E+04  0.7818609E-02  0.8367641E-01
        2   -1    0    0  501    0  0.00000000000E+00  0.00000000000E+00  0.20905849395E+04  0.20905849395E+04  0.25500000920E-02 0.  1.
       -2   -1    0    0    0  501  0.00000000000E+00  0.00000000000E+00 -0.80941285078E+03  0.80941285078E+03  0.25500000920E-02 0. -1.
    10030    2    1    2    0    0  0.00000000000E+00  0.00000000000E+00  0.12811720887E+04  0.28999977902E+04  0.26016504882E+04 0.  0.
        2    1    3    3  502    0  0.69279042745E+03 -0.10853784662E+04  0.43462319210E+03  0.13590078404E+04  0.25500000920E-02 0. -1.
       -2    1    3    3    0  502 -0.69279042745E+03  0.10853784662E+04  0.84654889658E+03  0.15409899498E+04  0.25500000920E-02 0.  1.
</event>
<event>
 5   0  0.3508470E-05  0.2603067E+04  0.7818609E-02  0.8367160E-01
       -2   -1    0    0    0  501  0.00000000000E+00  0.00000000000E+00  0.12305745876E+04  0.12305745876E+04  0.25500000920E-02 0.  1.
        2   -1    0    0  501    0  0.00000000000E+00  0.00000000000E+00 -0.13765844331E+04  0.13765844331E+04  0.25500000920E-02 0. -1.
    10030    2    1    2    0    0  0.00000000000E+00  0.00000000000E+00 -0.14600984549E+03  0.26071590207E+04  0.26030672839E+04 0.  0.
        5    1    3    3  502    0 -0.24172321092E+03 -0.12741546759E+04 -0.18302969037E+03  0.13097412746E+04  0.46999998093E+01 0. -1.
       -5    1    3    3    0  502  0.24172321092E+03  0.12741546759E+04  0.37019844880E+02  0.12974177461E+04  0.46999998093E+01 0.  1.
</event>
<event>
 5   0  0.3508470E-05  0.2590727E+04  0.7818609E-02  0.8371358E-01
        2   -1    0    0  501    0  0.00000000000E+00  0.00000000000E+00  0.12290456846E+04  0.12290456846E+04  0.25500000920E-02 0.  1.
       -2   -1    0    0    0  501  0.00000000000E+00  0.00000000000E+00 -0.13652596816E+04  0.13652596816E+04  0.25500000920E-02 0. -1.
    10030    2    1    2    0    0  0.00000000000E+00  0.00000000000E+00 -0.13621399699E+03  0.25943053661E+04  0.25907269404E+04 0.  0.
        5    1    3    3  502    0 -0.46163191572E+03 -0.22151911230E+03  0.11233976950E+04  0.12345927320E+04  0.46999998093E+01 0.  1.
       -5    1    3    3    0  502  0.46163191572E+03  0.22151911230E+03 -0.12596116920E+04  0.13597126341E+04  0.46999998093E+01 0. -1.
</event>
<event>
 5   0  0.1435062E-05  0.2545438E+04  0.7818609E-02  0.8386975E-01
        1   -1    0    0  501    0  0.00000000000E+00  0.00000000000E+00  0.11714026608E+04  0.11714026608E+04  0.50400001928E-02 0.  1.
       -1   -1    0    0    0  501  0.00000000000E+00  0.00000000000E+00 -0.13827978257E+04  0.13827978257E+04  0.50400001928E-02 0. -1.
    10030    2    1    2    0    0  0.00000000000E+00  0.00000000000E+00 -0.21139516490E+03  0.25542004865E+04  0.25454375281E+04 0.  0.
        2    1    3    3  502    0  0.51198482527E+03 -0.11646048296E+04 -0.68418885446E+02  0.12740149192E+04  0.25500000920E-02 0. -1.
       -2    1    3    3    0  502 -0.51198482527E+03  0.11646048296E+04 -0.14297627945E+03  0.12801855673E+04  0.25500000920E-02 0.  1.
</event>
<event>
 5   0  0.1435062E-05  0.2525338E+04  0.7818609E-02  0.8394014E-01
       -1   -1    0    0    0  501  0.00000000000E+00  0.00000000000E+00  0.12389858743E+04  0.12389858743E+04  0.50400001928E-02 0. -1.
        1   -1    0    0  501    0  0.00000000000E+00  0.00000000000E+00 -0.12868048326E+04  0.12868048326E+04  0.50400001928E-02 0.  1.
    10030    2    1    2    0    0  0.00000000000E+00  0.00000000000E+00 -0.47818958277E+02  0.25257907069E+04  0.25253380056E+04 0.  0.
        2    1    3    3  502    0  0.69657746903E+02  0.65855298929E+03 -0.10991783703E+04  0.12832526373E+04  0.25500000920E-02 0.  1.
       -2    1    3    3    0  502 -0.69657746903E+02 -0.65855298929E+03  0.10513594120E+04  0.12425380697E+04  0.25500000920E-02 0. -1.
</event>
<event>
 5   0  0.1435062E-05  0.2615562E+04  0.7818609E-02  0.8362934E-01
        1   -1    0    0  501    0  0.00000000000E+00  0.00000000000E+00  0.18205402318E+04  0.18205402318E+04  0.50400001928E-02 0. -1.
       -1   -1    0    0    0  501  0.00000000000E+00  0.00000000000E+00 -0.93944173522E+03  0.93944173523E+03  0.50400001928E-02 0.  1.
    10030    2    1    2    0    0  0.00000000000E+00  0.00000000000E+00  0.88109849657E+03  0.27599819670E+04  0.26155622527E+04 0.  0.
        2    1    3    3  502    0 -0.51946174401E+03 -0.99839929074E+03 -0.26229863585E+03  0.11556133530E+04  0.25500000920E-02 0.  1.
       -2    1    3    3    0  502  0.51946174401E+03  0.99839929074E+03  0.11433971324E+04  0.16043686140E+04  0.25500000920E-02 0. -1.
</event>
<event>
 5   0  0.1474554E-05  0.2575065E+04  0.7818609E-02  0.8376721E-01
        1   -1    0    0  501    0  0.00000000000E+00  0.00000000000E+00  0.16446604634E+04  0.16446604634E+04  0.50400001928E-02 0. -1.
       -1   -1    0    0    0  501  0.00000000000E+00  0.00000000000E+00 -0.10079524087E+04  0.10079524087E+04  0.50400001928E-02 0.  1.
    10030    2    1    2    0    0  0.00000000000E+00  0.00000000000E+00  0.63670805471E+03  0.26526128721E+04  0.25750646404E+04 0.  0.
        5    1    3    3  502    0 -0.10648822304E+04  0.51408318952E+03  0.84306767833E+03  0.14522537281E+04  0.46999998093E+01 0. -1.
       -5    1    3    3    0  502  0.10648822304E+04 -0.51408318952E+03 -0.20635962363E+03  0.12003591440E+04  0.46999998093E+01 0.  1.
</event>
<event>
 5   0  0.3647623E-05  0.2575782E+04  0.7818609E-02  0.8376474E-01
       -2   -1    0    0    0  501  0.00000000000E+00  0.00000000000E+00  0.92721536780E+03  0.92721536780E+03  0.25500000920E-02 0. -1.
        2   -1    0    0  501    0  0.00000000000E+00  0.00000000000E+00 -0.17888645634E+04  0.17888645634E+04  0.25500000920E-02 0.  1.
    10030    2    1    2    0    0  0.00000000000E+00  0.00000000000E+00 -0.86164919560E+03  0.27160799312E+04  0.25757816011E+04 0.  0.
        3    1    3    3  502    0  0.11703057247E+04  0.48574841968E+03 -0.67380046100E+03  0.14351216283E+04  0.10100000352E+00 0.  1.
       -3    1    3    3    0  502 -0.11703057247E+04 -0.48574841968E+03 -0.18784873460E+03  0.12809583029E+04  0.10100000352E+00 0. -1.
</event>
<event>
 5   0  0.1497497E-05  0.2632922E+04  0.7818609E-02  0.8357103E-01
       -1   -1    0    0    0  501  0.00000000000E+00  0.00000000000E+00  0.15134727281E+04  0.15134727281E+04  0.50400001928E-02 0. -1.
        1   -1    0    0  501    0  0.00000000000E+00  0.00000000000E+00 -0.11450950247E+04  0.11450950247E+04  0.50400001928E-02 0.  1.
    10030    2    1    2    0    0  0.00000000000E+00  0.00000000000E+00  0.36837770336E+03  0.26585677528E+04  0.26329223999E+04 0.  0.
        3    1    3    3  502    0  0.92142666523E+03 -0.37281949280E+03  0.10557582572E+04  0.14500506823E+04  0.10100000352E+00 0. -1.
       -3    1    3    3    0  502 -0.92142666523E+03  0.37281949280E+03 -0.68738055380E+03  0.12085170704E+04  0.10100000352E+00 0.  1.
</event>
<event>
 5   0  0.1435062E-05  0.2411014E+04  0.7818609E-02  0.8435392E-01
        1   -1    0    0  501    0  0.00000000000E+00  0.00000000000E+00  0.12859910426E+04  0.12859910426E+04  0.50400001928E-02 0. -1.
       -1   -1    0    0    0  501  0.00000000000E+00  0.00000000000E+00 -0.11300599327E+04  0.11300599327E+04  0.50400001928E-02 0.  1.
    10030    2    1    2    0    0  0.00000000000E+00  0.00000000000E+00  0.15593110991E+03  0.24160509753E+04  0.24110138540E+04 0.  0.
        2    1    3    3  502    0 -0.35669609000E+03 -0.46390167658E+03  0.11341172348E+04  0.12761891586E+04  0.25500000920E-02 0. -1.
       -2    1    3    3    0  502  0.35669609000E+03  0.46390167658E+03 -0.97818612491E+03  0.11398618167E+04  0.25500000920E-02 0.  1.
</event>
<event>
 5   0  0.1474554E-05  0.2630323E+04  0.7818609E-02  0.8357974E-01
        1   -1    0    0  501    0  0.00000000000E+00  0.00000000000E+00  0.25227978218E+04  0.25227978218E+04  0.50400001928E-02 0.  1.
       -1   -1    0    0    0  501  0.00000000000E+00  0.00000000000E+00 -0.68560781865E+03  0.68560781867E+03  0.50400001928E-02 0. -1.
    10030    2    1    2    0    0  0.00000000000E+00  0.00000000000E+00  0.18371900032E+04  0.32084056405E+04  0.26303231068E+04 0.  0.
        5    1    3    3  502    0  0.79642348500E+03  0.74417768303E+03  0.18162185770E+04  0.21181980079E+04  0.46999998093E+01 0. -1.
       -5    1    3    3    0  502 -0.79642348500E+03 -0.74417768303E+03  0.20971426173E+02  0.10902076326E+04  0.46999998093E+01 0.  1.
</event>
<event>
 5   0  0.3499642E-05  0.2693119E+04  0.7818609E-02  0.8337241E-01
        2   -1    0    0  501    0  0.00000000000E+00  0.00000000000E+00  0.92012978021E+03  0.92012978021E+03  0.25500000920E-02 0. -1.
       -2   -1    0    0    0  501  0.00000000000E+00  0.00000000000E+00 -0.19706159263E+04  0.19706159263E+04  0.25500000920E-02 0.  1.
    10030    2    1    2    0    0  0.00000000000E+00  0.00000000000E+00 -0.10504861461E+04  0.28907457065E+04  0.26931189347E+04 0.  0.
        2    1    3    3  502    0 -0.92963001205E+03  0.61688749204E+03 -0.13345335153E+04  0.17394659642E+04  0.25500000920E-02 0.  1.
       -2    1    3    3    0  502  0.92963001205E+03 -0.61688749204E+03  0.28404736920E+03  0.11512797423E+04  0.25500000920E-02 0. -1.
</event>
<event>
 5   0  0.3441646E-05  0.2611564E+04  0.7818609E-02  0.8364284E-01
       -2   -1    0    0    0  501  0.00000000000E+00  0.00000000000E+00  0.84877184763E+03  0.84877184764E+03  0.25500000920E-02 0. -1.
        2   -1    0    0  501    0  0.00000000000E+00  0.00000000000E+00 -0.20088630609E+04  0.20088630609E+04  0.25500000920E-02 0.  1.
    10030    2    1    2    0    0  0.00000000000E+00  0.00000000000E+00 -0.11600912133E+04  0.28576349086E+04  0.26115638318E+04 0.  0.
        4    1    3    3  502    0  0.37945168550E+03  0.10652668992E+04 -0.12944719713E+04  0.17188474178E+04  0.12699999809E+01 0.  1.
       -4    1    3    3    0  502 -0.37945168550E+03 -0.10652668992E+04  0.13438075798E+03  0.11387874908E+04  0.12699999809E+01 0. -1.
</event>
<event>
 5   0  0.1497497E-05  0.2588958E+04  0.7818609E-02  0.8371961E-01
        1   -1    0    0  501    0  0.00000000000E+00  0.00000000000E+00  0.16530021226E+04  0.16530021226E+04  0.50400001928E-02 0. -1.
       -1   -1    0    0    0  501  0.00000000000E+00  0.00000000000E+00 -0.10137170531E+04  0.10137170531E+04  0.50400001928E-02 0.  1.
    10030    2    1    2    0    0  0.00000000000E+00  0.00000000000E+00  0.63928506949E+03  0.26667191758E+04  0.25889584319E+04 0.  0.
        3    1    3    3  502    0  0.11093328367E+04 -0.51991236270E+03 -0.11094216172E+03  0.12301367326E+04  0.10100000352E+00 0. -1.
       -3    1    3    3    0  502 -0.11093328367E+04  0.51991236270E+03  0.75022723121E+03  0.14365824432E+04  0.10100000352E+00 0.  1.
</event>
<event>
 5   0  0.3499642E-05  0.2574495E+04  0.7818609E-02  0.8376917E-01
        2   -1    0    0  501    0  0.00000000000E+00  0.00000000000E+00  0.12330537608E+04  0.12330537608E+04  0.25500000920E-02 0.  1.
       -2   -1    0    0    0  501  0.00000000000E+00  0.00000000000E+00 -0.13438230996E+04  0.13438230996E+04  0.25500000920E-02 0. -1.
    10030    2    1    2    0    0  0.00000000000E+00  0.00000000000E+00 -0.11076933882E+03  0.25768768604E+04  0.25744950004E+04 0.  0.
        2    1    3    3  502    0  0.82322757076E+02 -0.12172479146E+04 -0.46629658349E+03  0.13061018435E+04  0.25500000920E-02 0. -1.
       -2    1    3    3    0  502 -0.82322757076E+02  0.12172479146E+04  0.35552724466E+03  0.12707750169E+04  0.25500000920E-02 0.  1.
</event>
<event>
 5   0  0.1474554E-05  0.2591298E+04  0.7818609E-02  0.8371163E-01
       -1   -1    0    0    0  501  0.00000000000E+00  0.00000000000E+00  0.14319328249E+04  0.14319328249E+04  0.50400001928E-02 0.  1.
        1   -1    0    0  501    0  0.00000000000E+00  0.00000000000E+00 -0.11723361452E+04  0.11723361452E+04  0.50400001928E-02 0. -1.
    10030    2    1    2    0    0  0.00000000000E+00  0.00000000000E+00  0.25959667969E+03  0.26042689701E+04  0.25912982137E+04 0.  0.
        5    1    3    3  502    0 -0.17891508150E+03  0.57388505520E+03  0.12832933175E+04  0.14171162591E+04  0.46999998093E+01 0.  1.
       -5    1    3    3    0  502  0.17891508150E+03 -0.57388505520E+03 -0.10236966378E+04  0.11871527110E+04  0.46999998093E+01 0. -1.
</event>
<event>
 5   0  0.1533248E-05  0.2518316E+04  0.7818609E-02  0.8396489E-01
       -1   -1    0    0    0  501  0.00000000000E+00  0.00000000000E+00  0.16646193196E+04  0.16646193196E+04  0.50400001928E-02 0.  1.
        1   -1    0    0  501    0  0.00000000000E+00  0.00000000000E+00 -0.95245769617E+03  0.95245769618E+03  0.50400001928E-02 0. -1.
    10030    2    1    2    0    0  0.00000000000E+00  0.00000000000E+00  0.71216162347E+03  0.26170770158E+04  0.25183164870E+04 0.  0.
        4    1    3    3  502    0  0.80132602323E+03 -0.84457852271E+03  0.85451678354E+03  0.14441734047E+04  0.12699999809E+01 0.  1.
       -4    1    3    3    0  502 -0.80132602323E+03  0.84457852271E+03 -0.14235516007E+03  0.11729036111E+04  0.12699999809E+01 0. -1.
</event>
<event>
 5   0  0.1435062E-05  0.2091870E+04  0.7818609E-02  0.8564833E-01
       -1   -1    0    0    0  501  0.00000000000E+00  0.00000000000E+00  0.84957737790E+03  0.84957737791E+03  0.50400001928E-02 0.  1.
        1   -1    0    0  501    0  0.00000000000E+00  0.00000000000E+00 -0.12876754120E+04  0.12876754120E+04  0.50400001928E-02 0. -1.
    10030    2    1    2    0    0  0.00000000000E+00  0.00000000000E+00 -0.43809803414E+03  0.21372527900E+04  0.20918698814E+04 0.  0.
        2    1    3    3  502    0 -0.23036856788E+03 -0.95986838753E+03 -0.57232934019E+03  0.11410424497E+04  0.25500000920E-02 0. -1.
       -2    1    3    3    0  502  0.23036856788E+03  0.95986838753E+03  0.13423130605E+03  0.99621034023E+03  0.25500000920E-02 0.  1.
</event>
<event>
 5   0  0.1474554E-05  0.2526296E+04  0.7818609E-02  0.8393677E-01
        1   -1    0    0  501    0  0.00000000000E+00  0.00000000000E+00  0.17826773651E+04  0.17826773651E+04  0.50400001928E-02 0. -1.
       -1   -1    0    0    0  501  0.00000000000E+00  0.00000000000E+00 -0.89502592754E+03  0.89502592756E+03  0.50400001928E-02 0.  1.
    10030    2    1    2    0    0  0.00000000000E+00  0.00000000000E+00  0.88765143751E+03  0.26777032926E+04  0.25262956772E+04 0.  0.
        5    1    3    3  502    0  0.32606806250E+03  0.12200732783E+04  0.41740837019E+03  0.13300943663E+04  0.46999998093E+01 0.  1.
       -5    1    3    3    0  502 -0.32606806250E+03 -0.12200732783E+04  0.47024306732E+03  0.13476089263E+04  0.46999998093E+01 0. -1.
</event>
<event>
 5   0  0.1451052E-05  0.2625083E+04  0.7818609E-02  0.8359731E-01
        1   -1    0    0  501    0  0.00000000000E+00  0.00000000000E+00  0.96812759443E+03  0.96812759444E+03  0.50400001928E-02 0.  1.
       -1   -1    0    0    0  501  0.00000000000E+00  0.00000000000E+00 -0.17794813528E+04  0.17794813528E+04  0.50400001928E-02 0. -1.
    10030    2    1    2    0    0  0.00000000000E+00  0.00000000000E+00 -0.81135375838E+03  0.27476089473E+04  0.26250828569E+04 0.  0.
        1    1    3    3  502    0 -0.74101737735E+03  0.48171338380E+03  0.60998123879E+03  0.10738862367E+04  0.50400001928E-02 0.  1.
       -1    1    3    3    0  502  0.74101737735E+03 -0.48171338380E+03 -0.14213349972E+04  0.16737227106E+04  0.50400001928E-02 0. -1.
</event>
<event>
 5   0  0.3647623E-05  0.2495885E+04  0.7818609E-02  0.8404453E-01
       -2   -1    0    0    0  501  0.00000000000E+00  0.00000000000E+00  0.16834266679E+04  0.16834266679E+04  0.25500000920E-02 0. -1.
        2   -1    0    0  501    0  0.00000000000E+00  0.00000000000E+00 -0.92511301283E+03  0.92511301283E+03  0.25500000920E-02 0.  1.
    10030    2    1    2    0    0  0.00000000000E+00  0.00000000000E+00  0.75831365509E+03  0.26085396808E+04  0.24958845459E+04 0.  0.
        3    1    3    3  502    0  0.58427310297E+03 -0.76502811090E+01 -0.77330509552E+03  0.96924422444E+03  0.10100000352E+00 0.  1.
       -3    1    3    3    0  502 -0.58427310297E+03  0.76502811090E+01  0.15316187506E+04  0.16392954563E+04  0.10100000352E+00 0. -1.
</event>
<event>
 5   0  0.3647623E-05  0.2596430E+04  0.7818609E-02  0.8369415E-01
       -2   -1    0    0    0  501  0.00000000000E+00  0.00000000000E+00  0.91279689142E+03  0.91279689142E+03  0.25500000920E-02 0. -1.
        2   -1    0    0  501    0  0.00000000000E+00  0.00000000000E+00 -0.18463712488E+04  0.18463712488E+04  0.25500000920E-02 0.  1.
    10030    2    1    2    0    0  0.00000000000E+00  0.00000000000E+00 -0.93357435734E+03  0.27591681402E+04  0.25964298075E+04 0.  0.
        3    1    3    3  502    0 -0.38817448888E+03  0.18190579227E+03  0.83541274443E+03  0.93898009289E+03  0.10100000352E+00 0. -1.
       -3    1    3    3    0  502  0.38817448888E+03 -0.18190579227E+03 -0.17689871018E+04  0.18201880473E+04  0.10100000352E+00 0.  1.
</event>
<event>
 5   0  0.1474554E-05  0.2612253E+04  0.7818609E-02  0.8364051E-01
       -1   -1    0    0    0  501  0.00000000000E+00  0.00000000000E+00  0.11889807324E+04  0.11889807324E+04  0.50400001928E-02 0. -1.
        1   -1    0    0  501    0  0.00000000000E+00  0.00000000000E+00 -0.14348144251E+04  0.14348144251E+04  0.50400001928E-02 0.  1.
    10030    2    1    2    0    0  0.00000000000E+00  0.00000000000E+00 -0.24583369275E+03  0.26237951575E+04  0.26122532083E+04 0.  0.
        5    1    3    3  502    0  0.70377711545E+03  0.24629134349E+03  0.95419389760E+03  0.12109788348E+04  0.46999998093E+01 0. -1.
       -5    1    3    3    0  502 -0.70377711545E+03 -0.24629134349E+03 -0.12000275904E+04  0.14128163227E+04  0.46999998093E+01 0.  1.
</event>
<event>
 5   0  0.1497497E-05  0.2622518E+04  0.7818609E-02  0.8360592E-01
        1   -1    0    0  501    0  0.00000000000E+00  0.00000000000E+00  0.13347726939E+04  0.13347726939E+04  0.50400001928E-02 0.  1.
       -1   -1    0    0    0  501  0.00000000000E+00  0.00000000000E+00 -0.12881593372E+04  0.12881593372E+04  0.50400001928E-02 0. -1.
    10030    2    1    2    0    0  0.00000000000E+00  0.00000000000E+00  0.46613356648E+02  0.26229320311E+04  0.26225178045E+04 0.  0.
        3    1    3    3  502    0  0.10495446936E+03 -0.12881669838E+04  0.24472430015E+03  0.13154009321E+04  0.10100000352E+00 0.  1.
       -3    1    3    3    0  502 -0.10495446936E+03  0.12881669838E+04 -0.19811094350E+03  0.13075310990E+04  0.10100000352E+00 0. -1.
</event>
<event>
 5   0  0.1497497E-05  0.2205797E+04  0.7818609E-02  0.8516019E-01
       -1   -1    0    0    0  501  0.00000000000E+00  0.00000000000E+00  0.81398675711E+03  0.81398675712E+03  0.50400001928E-02 0.  1.
        1   -1    0    0  501    0  0.00000000000E+00  0.00000000000E+00 -0.14943555264E+04  0.14943555264E+04  0.50400001928E-02 0. -1.
    10030    2    1    2    0    0  0.00000000000E+00  0.00000000000E+00 -0.68036876927E+03  0.23083422835E+04  0.22057974603E+04 0.  0.
        3    1    3    3  502    0 -0.27892948371E+03  0.94380859398E+03  0.18076239456E+03  0.10006254906E+04  0.10100000352E+00 0.  1.
       -3    1    3    3    0  502  0.27892948371E+03 -0.94380859398E+03 -0.86113116383E+03  0.13077167929E+04  0.10100000352E+00 0. -1.
</event>
<event>
 5   0  0.3499642E-05  0.2508182E+04  0.7818609E-02  0.8400077E-01
       -2   -1    0    0    0  501  0.00000000000E+00  0.00000000000E+00  0.13641789873E+04  0.13641789873E+04  0.25500000920E-02 0.  1.
        2   -1    0    0  501    0  0.00000000000E+00  0.00000000000E+00 -0.11528866544E+04  0.11528866544E+04  0.25500000920E-02 0. -1.
    10030    2    1    2    0    0  0.00000000000E+00  0.00000000000E+00  0.21129233290E+03  0.25170656417E+04  0.25081816112E+04 0.  0.
        2    1    3    3  502    0  0.90793476196E+03 -0.52846670256E+03 -0.58170405001E+03  0.12008339558E+04  0.25500000920E-02 0. -1.
       -2    1    3    3    0  502 -0.90793476196E+03  0.52846670256E+03  0.79299638291E+03  0.13162316859E+04  0.25500000920E-02 0.  1.
</event>
<event>
 5   0  0.3499642E-05  0.2601729E+04  0.7818609E-02  0.8367614E-01
       -2   -1    0    0    0  501  0.00000000000E+00  0.00000000000E+00  0.13149770039E+04  0.13149770040E+04  0.25500000920E-02 0. -1.
        2   -1    0    0  501    0  0.00000000000E+00  0.00000000000E+00 -0.12869033491E+04  0.12869033491E+04  0.25500000920E-02 0.  1.
    10030    2    1    2    0    0  0.00000000000E+00  0.00000000000E+00  0.28073654886E+02  0.26018803530E+04  0.26017288947E+04 0.  0.
        2    1    3    3  502    0  0.11193506339E+04  0.17711941985E+03  0.65276891227E+03  0.13078319400E+04  0.25500000920E-02 0. -1.
       -2    1    3    3    0  502 -0.11193506339E+04 -0.17711941985E+03 -0.62469525738E+03  0.12940484130E+04  0.25500000920E-02 0.  1.
</event>
<event>
 5   0  0.1533248E-05  0.2548831E+04  0.7818609E-02  0.8385793E-01
       -1   -1    0    0    0  501  0.00000000000E+00  0.00000000000E+00  0.19988602758E+04  0.19988602758E+04  0.50400001928E-02 0.  1.
        1   -1    0    0  501    0  0.00000000000E+00  0.00000000000E+00 -0.81253074942E+03  0.81253074944E+03  0.50400001928E-02 0. -1.
    10030    2    1    2    0    0  0.00000000000E+00  0.00000000000E+00  0.11863295264E+04  0.28113910252E+04  0.25488314483E+04 0.  0.
        4    1    3    3  502    0 -0.54657327185E+03 -0.11497805460E+04  0.52888482298E+03  0.13785711495E+04  0.12699999809E+01 0. -1.
       -4    1    3    3    0  502  0.54657327185E+03  0.11497805460E+04  0.65744470340E+03  0.14328198757E+04  0.12699999809E+01 0.  1.
</event>
<event>
 5   0  0.3849687E-05  0.2595288E+04  0.7818609E-02  0.8369803E-01
       -2   -1    0    0    0  501  0.00000000000E+00  0.00000000000E+00  0.14598720680E+04  0.14598720680E+04  0.25500000920E-02 0.  1.
        2   -1    0    0  501    0  0.00000000000E+00  0.00000000000E+00 -0.11534436054E+04  0.11534436054E+04  0.25500000920E-02 0. -1.
    10030    2    1    2    0    0  0.00000000000E+00  0.00000000000E+00  0.30642846266E+03  0.26133156734E+04  0.25952881162E+04 0.  0.
        1    1    3    3  502    0 -0.33653612454E+02 -0.88428906966E+03 -0.80247293377E+03  0.11945972266E+04  0.50400001928E-02 0. -1.
       -1    1    3    3    0  502  0.33653612454E+02  0.88428906966E+03  0.11089013964E+04  0.14187184468E+04  0.50400001928E-02 0.  1.
</event>
<event>
 5   0  0.3508470E-05  0.2650067E+04  0.7818609E-02  0.8351391E-01
       -2   -1    0    0    0  501  0.00000000000E+00  0.00000000000E+00  0.12872173737E+04  0.12872173737E+04  0.25500000920E-02 0. -1.
        2   -1    0    0  501    0  0.00000000000E+00  0.00000000000E+00 -0.13639608515E+04  0.13639608515E+04  0.25500000920E-02 0.  1.
    10030    2    1    2    0    0  0.00000000000E+00  0.00000000000E+00 -0.76743477782E+02  0.26511782253E+04  0.26500672484E+04 0.  0.
        5    1    3    3  502    0 -0.31314542506E+03  0.84643500871E+03 -0.10089226306E+04  0.13536835840E+04  0.46999998093E+01 0.  1.
       -5    1    3    3    0  502  0.31314542506E+03 -0.84643500871E+03  0.93217915278E+03  0.12974946413E+04  0.46999998093E+01 0. -1.
</event>
<event>
 5   0  0.3508470E-05  0.2439450E+04  0.7818609E-02  0.8424880E-01
       -2   -1    0    0    0  501  0.00000000000E+00  0.00000000000E+00  0.62362261620E+03  0.62362261621E+03  0.25500000920E-02 0. -1.
        2   -1    0    0  501    0  0.00000000000E+00  0.00000000000E+00 -0.23856233102E+04  0.23856233102E+04  0.25500000920E-02 0.  1.
    10030    2    1    2    0    0  0.00000000000E+00  0.00000000000E+00 -0.17620006940E+04  0.30092459264E+04  0.24394496510E+04 0.  0.
        5    1    3    3  502    0  0.64957090242E+03 -0.52596193738E+03  0.21482064567E+03  0.86298801651E+03  0.46999998093E+01 0. -1.
       -5    1    3    3    0  502 -0.64957090242E+03  0.52596193738E+03 -0.19768213397E+04  0.21462579099E+04  0.46999998093E+01 0.  1.
</event>
<event>
 5   0  0.3499642E-05  0.2584620E+04  0.7818609E-02  0.8373444E-01
       -2   -1    0    0    0  501  0.00000000000E+00  0.00000000000E+00  0.14089673821E+04  0.14089673821E+04  0.25500000920E-02 0. -1.
        2   -1    0    0  501    0  0.00000000000E+00  0.00000000000E+00 -0.11853114102E+04  0.11853114102E+04  0.25500000920E-02 0.  1.
    10030    2    1    2    0    0  0.00000000000E+00  0.00000000000E+00  0.22365597186E+03  0.25942787923E+04  0.25846199834E+04 0.  0.
        2    1    3    3  502    0  0.18546697640E+03  0.22034456080E+03 -0.11526876360E+04  0.11881239460E+04  0.25500000920E-02 0.  1.
       -2    1    3    3    0  502 -0.18546697640E+03 -0.22034456080E+03  0.13763436079E+04  0.14061548463E+04  0.25500000920E-02 0. -1.
</event>
<event>
 5   0  0.1474554E-05  0.2849802E+04  0.7818609E-02  0.8287971E-01
       -1   -1    0    0    0  501  0.00000000000E+00  0.00000000000E+00  0.10554838080E+04  0.10554838080E+04  0.50400001928E-02 0. -1.
        1   -1    0    0  501    0  0.00000000000E+00  0.00000000000E+00 -0.19236136358E+04  0.19236136358E+04  0.50400001928E-02 0.  1.
    10030    2    1    2    0    0  0.00000000000E+00  0.00000000000E+00 -0.86812982775E+03  0.29790974438E+04  0.28498021303E+04 0.  0.
        5    1    3    3  502    0 -0.21845388450E+03 -0.39301106236E+03  0.97936691057E+03  0.10776648042E+04  0.46999998093E+01 0. -1.
       -5    1    3    3    0  502  0.21845388450E+03  0.39301106236E+03 -0.18474967383E+04  0.19014326396E+04  0.46999998093E+01 0.  1.
</event>
<event>
 5   0  0.3647623E-05  0.2640773E+04  0.7818609E-02  0.8354482E-01
        2   -1    0    0  501    0  0.00000000000E+00  0.00000000000E+00  0.10546586248E+04  0.10546586248E+04  0.25500000920E-02 0.  1.
       -2   -1    0    0    0  501  0.00000000000E+00  0.00000000000E+00 -0.16530665324E+04  0.16530665324E+04  0.25500000920E-02 0. -1.
    10030    2    1    2    0    0  0.00000000000E+00  0.00000000000E+00 -0.59840790761E+03  0.27077251572E+04  0.26407732775E+04 0.  0.
        3    1    3    3  502    0 -0.89497144460E+03 -0.77007362728E+03  0.30691209973E+03  0.12199107858E+04  0.10100000352E+00 0.  1.
       -3    1    3    3    0  502  0.89497144460E+03  0.77007362728E+03 -0.90532000733E+03  0.14878143715E+04  0.10100000352E+00 0. -1.
</event>
<event>
 5   0  0.1497497E-05  0.2508357E+04  0.7818609E-02  0.8400014E-01
       -1   -1    0    0    0  501  0.00000000000E+00  0.00000000000E+00  0.78458126530E+03  0.78458126532E+03  0.50400001928E-02 0. -1.
        1   -1    0    0  501    0  0.00000000000E+00  0.00000000000E+00 -0.20048447620E+04  0.20048447620E+04  0.50400001928E-02 0.  1.
    10030    2    1    2    0    0  0.00000000000E+00  0.00000000000E+00 -0.12202634967E+04  0.27894260273E+04  0.25083569444E+04 0.  0.
        3    1    3    3  502    0 -0.17624993107E+03  0.11248766144E+03 -0.19853264949E+04  0.19963062925E+04  0.10100000352E+00 0.  1.
       -3    1    3    3    0  502  0.17624993107E+03 -0.11248766144E+03  0.76506299823E+03  0.79311973474E+03  0.10100000352E+00 0. -1.
</event>
<event>
 5   0  0.3441646E-05  0.2547138E+04  0.7818609E-02  0.8386382E-01
        2   -1    0    0  501    0  0.00000000000E+00  0.00000000000E+00  0.10002226406E+04  0.10002226406E+04  0.25500000920E-02 0.  1.
       -2   -1    0    0    0  501  0.00000000000E+00  0.00000000000E+00 -0.16216163750E+04  0.16216163750E+04  0.25500000920E-02 0. -1.
    10030    2    1    2    0    0  0.00000000000E+00  0.00000000000E+00 -0.62139373444E+03  0.26218390156E+04  0.25471375406E+04 0.  0.
        4    1    3    3  502    0  0.12145852383E+04 -0.34979097891E+03 -0.14989503883E+03  0.12728083774E+04  0.12699999809E+01 0.  1.
       -4    1    3    3    0  502 -0.12145852383E+04  0.34979097891E+03 -0.47149869561E+03  0.13490306382E+04  0.12699999809E+01 0. -1.
</event>
<event>
 5   0  0.1435062E-05  0.2542224E+04  0.7818609E-02  0.8388096E-01
        1   -1    0    0  501    0  0.00000000000E+00  0.00000000000E+00  0.94465762723E+03  0.94465762724E+03  0.50400001928E-02 0. -1.
       -1   -1    0    0    0  501  0.00000000000E+00  0.00000000000E+00 -0.17103819991E+04  0.17103819991E+04  0.50400001928E-02 0.  1.
    10030    2    1    2    0    0  0.00000000000E+00  0.00000000000E+00 -0.76572437189E+03  0.26550396264E+04  0.25422237517E+04 0.  0.
        2    1    3    3  502    0 -0.82623321153E+03  0.79881449652E+03 -0.95006505080E+03  0.14911034573E+04  0.25500000920E-02 0.  1.
       -2    1    3    3    0  502  0.82623321153E+03 -0.79881449652E+03  0.18434067890E+03  0.11639361690E+04  0.25500000920E-02 0. -1.
</event>
<event>
 5   0  0.1451052E-05  0.1914917E+04  0.7818609E-02  0.8647467E-01
       -1   -1    0    0    0  501  0.00000000000E+00  0.00000000000E+00  0.43336467761E+03  0.43336467764E+03  0.50400001928E-02 0.  1.
        1   -1    0    0  501    0  0.00000000000E+00  0.00000000000E+00 -0.21153698624E+04  0.21153698624E+04  0.50400001928E-02 0. -1.
    10030    2    1    2    0    0  0.00000000000E+00  0.00000000000E+00 -0.16820051848E+04  0.25487345400E+04  0.19149167904E+04 0.  0.
        1    1    3    3  502    0  0.47554090632E+03  0.32069703329E+03  0.17939078474E+03  0.60097154211E+03  0.50400001928E-02 0.  1.
       -1    1    3    3    0  502 -0.47554090632E+03 -0.32069703329E+03 -0.18613959695E+04  0.19477629979E+04  0.50400001928E-02 0. -1.
</event>
<event>
 5   0  0.3508470E-05  0.2562345E+04  0.7818609E-02  0.8381105E-01
       -2   -1    0    0    0  501  0.00000000000E+00  0.00000000000E+00  0.11226834832E+04  0.11226834832E+04  0.25500000920E-02 0.  1.
        2   -1    0    0  501    0  0.00000000000E+00  0.00000000000E+00 -0.14620355808E+04  0.14620355808E+04  0.25500000920E-02 0. -1.
    10030    2    1    2    0    0  0.00000000000E+00  0.00000000000E+00 -0.33935209765E+03  0.25847190640E+04  0.25623451746E+04 0.  0.
        5    1    3    3  502    0 -0.81884579423E+03 -0.69047494814E+03  0.53939641349E+03  0.11992642201E+04  0.46999998093E+01 0.  1.
       -5    1    3    3    0  502  0.81884579423E+03  0.69047494814E+03 -0.87874851114E+03  0.13854548439E+04  0.46999998093E+01 0. -1.
</event>
<event>
 5   0  0.1474554E-05  0.2594862E+04  0.7818609E-02  0.8369949E-01
        1   -1    0    0  501    0  0.00000000000E+00  0.00000000000E+00  0.11862093696E+04  0.11862093696E+04  0.50400001928E-02 0.  1.
       -1   -1    0    0    0  501  0.00000000000E+00  0.00000000000E+00 -0.14190808714E+04  0.14190808714E+04  0.50400001928E-02 0. -1.
    10030    2    1    2    0    0  0.00000000000E+00  0.00000000000E+00 -0.23287150174E+03  0.26052902410E+04  0.25948618660E+04 0.  0.
        5    1    3    3  502    0 -0.38007405038E+03  0.83947938317E+02  0.11261978690E+04  0.11915734431E+04  0.46999998093E+01 0.  1.
       -5    1    3    3    0  502  0.38007405038E+03 -0.83947938317E+02 -0.13590693708E+04  0.14137167979E+04  0.46999998093E+01 0. -1.
</event>
<event>
 5   0  0.3647623E-05  0.2668296E+04  0.7818609E-02  0.8345366E-01
        2   -1    0    0  501    0  0.00000000000E+00  0.00000000000E+00  0.16657963237E+04  0.16657963237E+04  0.25500000920E-02 0. -1.
       -2   -1    0    0    0  501  0.00000000000E+00  0.00000000000E+00 -0.10685281508E+04  0.10685281508E+04  0.25500000920E-02 0.  1.
    10030    2    1    2    0    0  0.00000000000E+00  0.00000000000E+00  0.59726817287E+03  0.27343244745E+04  0.26682955349E+04 0.  0.
        3    1    3    3  502    0  0.20230675263E+03  0.55690693141E+02 -0.10515129617E+04  0.10722448388E+04  0.10100000352E+00 0.  1.
       -3    1    3    3    0  502 -0.20230675263E+03 -0.55690693141E+02  0.16487811346E+04  0.16620796357E+04  0.10100000352E+00 0. -1.
</event>
<event>
 5   0  0.3849687E-05  0.2617507E+04  0.7818609E-02  0.8362279E-01
        2   -1    0    0  501    0  0.00000000000E+00  0.00000000000E+00  0.13614695630E+04  0.13614695630E+04  0.25500000920E-02 0.  1.
       -2   -1    0    0    0  501  0.00000000000E+00  0.00000000000E+00 -0.12580785476E+04  0.12580785476E+04  0.25500000920E-02 0. -1.
    10030    2    1    2    0    0  0.00000000000E+00  0.00000000000E+00  0.10339101533E+03  0.26195481106E+04  0.26175069440E+04 0.  0.
        1    1    3    3  502    0 -0.53991454489E+02  0.88782315888E+03 -0.90910034237E+03  0.12718523779E+04  0.50400001928E-02 0. -1.
       -1    1    3    3    0  502  0.53991454489E+02 -0.88782315888E+03  0.10124913577E+04  0.13476957327E+04  0.50400001928E-02 0.  1.
</event>
<event>
 5   0  0.1435062E-05  0.2585302E+04  0.7818609E-02  0.8373211E-01
        1   -1    0    0  501    0  0.00000000000E+00  0.00000000000E+00  0.25781475481E+04  0.25781475481E+04  0.50400001928E-02 0. -1.
       -1   -1    0    0    0  501  0.00000000000E+00  0.00000000000E+00 -0.64811919491E+03  0.64811919493E+03  0.50400001928E-02 0.  1.
    10030    2    1    2    0    0  0.00000000000E+00  0.00000000000E+00  0.19300283532E+04  0.32262667430E+04  0.25853022363E+04 0.  0.
        2    1    3    3  502    0 -0.52953166365E+03 -0.96312976184E+03  0.11594341031E+03  0.11051993464E+04  0.25500000920E-02 0.  1.
       -2    1    3    3    0  502  0.52953166365E+03  0.96312976184E+03  0.18140849429E+04  0.21210673966E+04  0.25500000920E-02 0. -1.
</event>
<event>
 5   0  0.1435062E-05  0.2461923E+04  0.7818609E-02  0.8416677E-01
        1   -1    0    0  501    0  0.00000000000E+00  0.00000000000E+00  0.21411502894E+04  0.21411502894E+04  0.50400001928E-02 0. -1.
       -1   -1    0    0    0  501  0.00000000000E+00  0.00000000000E+00 -0.70768811447E+03  0.70768811449E+03  0.50400001928E-02 0.  1.
    10030    2    1    2    0    0  0.00000000000E+00  0.00000000000E+00  0.14334621750E+04  0.28488384039E+04  0.24619233222E+04 0.  0.
        2    1    3    3  502    0 -0.70641915218E+03  0.67288304884E+03 -0.15188433079E+03  0.98735427579E+03  0.25500000920E-02 0.  1.
       -2    1    3    3    0  502  0.70641915218E+03 -0.67288304884E+03  0.15853465057E+04  0.18614841281E+04  0.25500000920E-02 0. -1.
</event>
<event>
 5   0  0.3647623E-05  0.2470434E+04  0.7818609E-02  0.8413595E-01
        2   -1    0    0  501    0  0.00000000000E+00  0.00000000000E+00  0.11818291926E+04  0.11818291927E+04  0.25500000920E-02 0. -1.
       -2   -1    0    0    0  501  0.00000000000E+00  0.00000000000E+00 -0.12910160892E+04  0.12910160892E+04  0.25500000920E-02 0.  1.
    10030    2    1    2    0    0  0.00000000000E+00  0.00000000000E+00 -0.10918689652E+03  0.24728452818E+04  0.24704335671E+04 0.  0.
        3    1    3    3  502    0  0.11281918881E+04  0.39500231364E+03  0.25702498291E+03  0.12226633291E+04  0.10100000352E+00 0. -1.
       -3    1    3    3    0  502 -0.11281918881E+04 -0.39500231364E+03 -0.36621187943E+03  0.12501819528E+04  0.10100000352E+00 0.  1.
</event>
<event>
 5   0  0.3508470E-05  0.2591645E+04  0.7818609E-02  0.8371045E-01
        2   -1    0    0  501    0  0.00000000000E+00  0.00000000000E+00  0.18912519394E+04  0.18912519394E+04  0.25500000920E-02 0. -1.
       -2   -1    0    0    0  501  0.00000000000E+00  0.00000000000E+00 -0.88785443729E+03  0.88785443729E+03  0.25500000920E-02 0.  1.
    10030    2    1    2    0    0  0.00000000000E+00  0.00000000000E+00  0.10033975021E+04  0.27791063767E+04  0.25916453665E+04 0.  0.
        5    1    3    3  502    0  0.36140403573E+03 -0.12040111438E+04  0.16450399921E+03  0.12678088843E+04  0.46999998093E+01 0.  1.
       -5    1    3    3    0  502 -0.36140403573E+03  0.12040111438E+04  0.83889350293E+03  0.15112974924E+04  0.46999998093E+01 0. -1.
</event>
<event>
 5   0  0.1533248E-05  0.2645924E+04  0.7818609E-02  0.8352767E-01
        1   -1    0    0  501    0  0.00000000000E+00  0.00000000000E+00  0.12973422413E+04  0.12973422413E+04  0.50400001928E-02 0.  1.
       -1   -1    0    0    0  501  0.00000000000E+00  0.00000000000E+00 -0.13490876466E+04  0.13490876466E+04  0.50400001928E-02 0. -1.
    10030    2    1    2    0    0  0.00000000000E+00  0.00000000000E+00 -0.51745405283E+02  0.26464298879E+04  0.26459239529E+04 0.  0.
        4    1    3    3  502    0 -0.59795837317E+03 -0.10686490569E+04 -0.52662975358E+03  0.13330062015E+04  0.12699999809E+01 0. -1.
       -4    1    3    3    0  502  0.59795837317E+03  0.10686490569E+04  0.47488434830E+03  0.13134236864E+04  0.12699999809E+01 0.  1.
</event>
<event>
 5   0  0.1533248E-05  0.2594993E+04  0.7818609E-02  0.8369904E-01
        1   -1    0    0  501    0  0.00000000000E+00  0.00000000000E+00  0.85327141949E+03  0.85327141951E+03  0.50400001928E-02 0. -1.
       -1   -1    0    0    0  501  0.00000000000E+00  0.00000000000E+00 -0.19729918625E+04  0.19729918625E+04  0.50400001928E-02 0.  1.
    10030    2    1    2    0    0  0.00000000000E+00  0.00000000000E+00 -0.11197204430E+04  0.28262632820E+04  0.25949933080E+04 0.  0.
        4    1    3    3  502    0  0.38674859298E+03 -0.10444561758E+04  0.16506682462E+03  0.11259271055E+04  0.12699999809E+01 0. -1.
       -4    1    3    3    0  502 -0.38674859298E+03  0.10444561758E+04 -0.12847872676E+04  0.17003361765E+04  0.12699999809E+01 0.  1.
</event>
<event>
 5   0  0.1451052E-05  0.2601693E+04  0.7818609E-02  0.8367627E-01
        1   -1    0    0  501    0  0.00000000000E+00  0.00000000000E+00  0.14301864433E+04  0.14301864433E+04  0.50400001928E-02 0. -1.
       -1   -1    0    0    0  501  0.00000000000E+00  0.00000000000E+00 -0.11832031091E+04  0.11832031091E+04  0.50400001928E-02 0.  1.
    10030    2    1    2    0    0  0.00000000000E+00  0.00000000000E+00  0.24698333417E+03  0.26133895524E+04  0.26016925616E+04 0.  0.
        1    1    3    3  502    0 -0.69088338511E+03 -0.10856480186E+03 -0.97829652642E+03  0.12025681942E+04  0.50400001928E-02 0.  1.
       -1    1    3    3    0  502  0.69088338511E+03  0.10856480186E+03  0.12252798606E+04  0.14108213582E+04  0.50400001928E-02 0. -1.
</event>
<event>
 5   0  0.1451052E-05  0.2239934E+04  0.7818609E-02  0.8501988E-01
        1   -1    0    0  501    0  0.00000000000E+00  0.00000000000E+00  0.25675982364E+04  0.25675982364E+04  0.50400001928E-02 0.  1.
       -1   -1    0    0    0  501  0.00000000000E+00  0.00000000000E+00 -0.48852114076E+03  0.48852114079E+03  0.50400001928E-02 0. -1.
    10030    2    1    2    0    0  0.00000000000E+00  0.00000000000E+00  0.20790770956E+04  0.30561193772E+04  0.22399339450E+04 0.  0.
        1    1    3    3  502    0  0.56048192792E+03  0.59627553435E+03  0.20827682145E+04  0.22377685180E+04  0.50400001928E-02 0.  1.
       -1    1    3    3    0  502 -0.56048192792E+03 -0.59627553435E+03 -0.36911189423E+01  0.81835085921E+03  0.50400001928E-02 0. -1.
</event>
<event>
 5   0  0.1435062E-05  0.2676893E+04  0.7818609E-02  0.8342541E-01
        1   -1    0    0  501    0  0.00000000000E+00  0.00000000000E+00  0.10443629067E+04  0.10443629068E+04  0.50400001928E-02 0.  1.
       -1   -1    0    0    0  501  0.00000000000E+00  0.00000000000E+00 -0.17153418614E+04  0.17153418614E+04  0.50400001928E-02 0. -1.
    10030    2    1    2    0    0  0.00000000000E+00  0.00000000000E+00 -0.67097895464E+03  0.27597047682E+04  0.26768932832E+04 0.  0.
        2    1    3    3  502    0 -0.12219458565E+04 -0.37880871278E+03 -0.74109643330E+03  0.14784693573E+04  0.25500000920E-02 0. -1.
       -2    1    3    3    0  502  0.12219458565E+04  0.37880871278E+03  0.70117478653E+02  0.12812354108E+04  0.25500000920E-02 0.  1.
</event>
<event>
 5   0  0.1474554E-05  0.2570786E+04  0.7818609E-02  0.8378193E-01
       -1   -1    0    0    0  501  0.00000000000E+00  0.00000000000E+00  0.11658843480E+04  0.11658843480E+04  0.50400001928E-02 0. -1.
        1   -1    0    0  501    0  0.00000000000E+00  0.00000000000E+00 -0.14171519852E+04  0.14171519852E+04  0.50400001928E-02 0.  1.
    10030    2    1    2    0    0  0.00000000000E+00  0.00000000000E+00 -0.25126763722E+03  0.25830363332E+04  0.25707861196E+04 0.  0.
        5    1    3    3  502    0  0.42866185741E+03  0.92575023119E+03 -0.91131183089E+03  0.13679458402E+04  0.46999998093E+01 0.  1.
       -5    1    3    3    0  502 -0.42866185741E+03 -0.92575023119E+03  0.66004419367E+03  0.12150904930E+04  0.46999998093E+01 0. -1.
</event>
<event>
 5   0  0.1435062E-05  0.2279633E+04  0.7818609E-02  0.8485995E-01
       -1   -1    0    0    0  501  0.00000000000E+00  0.00000000000E+00  0.87811751666E+03  0.87811751667E+03  0.50400001928E-02 0.  1.
        1   -1    0    0  501    0  0.00000000000E+00  0.00000000000E+00 -0.14795083042E+04  0.14795083042E+04  0.50400001928E-02 0. -1.
    10030    2    1    2    0    0  0.00000000000E+00  0.00000000000E+00 -0.60139078757E+03  0.23576258209E+04  0.22796334425E+04 0.  0.
        2    1    3    3  502    0  0.67898314463E+03  0.76764966767E+03 -0.81664008056E+03  0.13104217429E+04  0.25500000920E-02 0. -1.
       -2    1    3    3    0  502 -0.67898314463E+03 -0.76764966767E+03  0.21524929298E+03  0.10472040781E+04  0.25500000920E-02 0.  1.
</event>
<event>
 5   0  0.3849687E-05  0.2607155E+04  0.7818609E-02  0.8365775E-01
       -2   -1    0    0    0  501  0.00000000000E+00  0.00000000000E+00  0.99089736871E+03  0.99089736872E+03  0.25500000920E-02 0.  1.
        2   -1    0    0  501    0  0.00000000000E+00  0.00000000000E+00 -0.17149240145E+04  0.17149240145E+04  0.25500000920E-02 0. -1.
    10030    2    1    2    0    0  0.00000000000E+00  0.00000000000E+00 -0.72402664580E+03  0.27058213832E+04  0.26071545359E+04 0.  0.
        1    1    3    3  502    0  0.69815465026E+03  0.23179626101E+03  0.75489475481E+03  0.10540472063E+04  0.50400001928E-02 0.  1.
       -1    1    3    3    0  502 -0.69815465026E+03 -0.23179626101E+03 -0.14789214006E+04  0.16517741769E+04  0.50400001928E-02 0. -1.
</event>
<event>
 5   0  0.3849687E-05  0.2554920E+04  0.7818609E-02  0.8383677E-01
        2   -1    0    0  501    0  0.00000000000E+00  0.00000000000E+00  0.96586349051E+03  0.96586349051E+03  0.25500000920E-02 0. -1.
       -2   -1    0    0    0  501  0.00000000000E+00  0.00000000000E+00 -0.16895806788E+04  0.16895806788E+04  0.25500000920E-02 0.  1.
    10030    2    1    2    0    0  0.00000000000E+00  0.00000000000E+00 -0.72371718829E+03  0.26554441693E+04  0.25549201881E+04 0.  0.
        1    1    3    3  502    0  0.25862878859E+03  0.24102615681E+03  0.91400780311E+03  0.97999628710E+03  0.50400001928E-02 0. -1.
       -1    1    3    3    0  502 -0.25862878859E+03 -0.24102615681E+03 -0.16377249914E+04  0.16754478822E+04  0.50400001928E-02 0.  1.
</event>
<event>
 5   0  0.3499642E-05  0.2616516E+04  0.7818609E-02  0.8362613E-01
        2   -1    0    0  501    0  0.00000000000E+00  0.00000000000E+00  0.18404278331E+04  0.18404278331E+04  0.25500000920E-02 0.  1.
       -2   -1    0    0    0  501  0.00000000000E+00  0.00000000000E+00 -0.92996806908E+03  0.92996806908E+03  0.25500000920E-02 0. -1.
    10030    2    1    2    0    0  0.00000000000E+00  0.00000000000E+00  0.91045976400E+03  0.27703959022E+04  0.26165160945E+04 0.  0.
        2    1    3    3  502    0 -0.35624096119E+03  0.12501740726E+04  0.61118911982E+03  0.14364522179E+04  0.25500000920E-02 0.  1.
       -2    1    3    3    0  502  0.35624096119E+03 -0.12501740726E+04  0.29927064418E+03  0.13339436842E+04  0.25500000920E-02 0. -1.
</event>
<event>
 5   0  0.1533248E-05  0.2579972E+04  0.7818609E-02  0.8375036E-01
       -1   -1    0    0    0  501  0.00000000000E+00  0.00000000000E+00  0.72358234776E+03  0.72358234778E+03  0.50400001928E-02 0.  1.
        1   -1    0    0  501    0  0.00000000000E+00  0.00000000000E+00 -0.22997579731E+04  0.22997579731E+04  0.50400001928E-02 0. -1.
    10030    2    1    2    0    0  0.00000000000E+00  0.00000000000E+00 -0.15761756254E+04  0.30233403209E+04  0.25799723049E+04 0.  0.
        4    1    3    3  502    0 -0.97635911105E+03 -0.61797163408E+03 -0.14601379718E+04  0.18620339857E+04  0.12699999809E+01 0. -1.
       -4    1    3    3    0  502  0.97635911105E+03  0.61797163408E+03 -0.11603765353E+03  0.11613063352E+04  0.12699999809E+01 0.  1.
</event>
<event>
 5   0  0.1533248E-05  0.2640740E+04  0.7818609E-02  0.8354493E-01
       -1   -1    0    0    0  501  0.00000000000E+00  0.00000000000E+00  0.12004833101E+04  0.12004833101E+04  0.50400001928E-02 0. -1.
        1   -1    0    0  501    0  0.00000000000E+00  0.00000000000E+00 -0.14522293664E+04  0.14522293664E+04  0.50400001928E-02 0.  1.
    10030    2    1    2    0    0  0.00000000000E+00  0.00000000000E+00 -0.25174605629E+03  0.26527126765E+04  0.26407401362E+04 0.  0.
        4    1    3    3  502    0  0.42790027726E+03 -0.12060701337E+03 -0.13747839901E+04  0.14448796944E+04  0.12699999809E+01 0.  1.
       -4    1    3    3    0  502 -0.42790027726E+03  0.12060701337E+03  0.11230379338E+04  0.12078329821E+04  0.12699999809E+01 0. -1.
</event>
<event>
 5   0  0.1451052E-05  0.2559584E+04  0.7818609E-02  0.8382061E-01
        1   -1    0    0  501    0  0.00000000000E+00  0.00000000000E+00  0.94990875226E+03  0.94990875227E+03  0.50400001928E-02 0. -1.
       -1   -1    0    0    0  501  0.00000000000E+00  0.00000000000E+00 -0.17242371702E+04  0.17242371702E+04  0.50400001928E-02 0.  1.
    10030    2    1    2    0    0  0.00000000000E+00  0.00000000000E+00 -0.77432841791E+03  0.26741459225E+04  0.25595843248E+04 0.  0.
        1    1    3    3  502    0  0.22732927059E+03 -0.12055809679E+04 -0.64880489492E+01  0.12268439845E+04  0.50400001928E-02 0. -1.
       -1    1    3    3    0  502 -0.22732927059E+03  0.12055809679E+04 -0.76784036896E+03  0.14473019380E+04  0.50400001928E-02 0.  1.
</event>
<event>
 5   0  0.1435062E-05  0.2581722E+04  0.7818609E-02  0.8374437E-01
        1   -1    0    0  501    0  0.00000000000E+00  0.00000000000E+00  0.11944558676E+04  0.11944558676E+04  0.50400001928E-02 0. -1.
       -1   -1    0    0    0  501  0.00000000000E+00  0.00000000000E+00 -0.13950466334E+04  0.13950466334E+04  0.50400001928E-02 0.  1.
    10030    2    1    2    0    0  0.00000000000E+00  0.00000000000E+00 -0.20059076582E+03  0.25895025010E+04  0.25817216247E+04 0.  0.
        2    1    3    3  502    0  0.77470165402E+03  0.83227716120E+03 -0.71326216646E+03  0.13422335281E+04  0.25500000920E-02 0.  1.
       -2    1    3    3    0  502 -0.77470165402E+03 -0.83227716120E+03  0.51267140065E+03  0.12472689729E+04  0.25500000920E-02 0. -1.
</event>
<event>
 5   0  0.1435062E-05  0.2580623E+04  0.7818609E-02  0.8374813E-01
        1   -1    0    0  501    0  0.00000000000E+00  0.00000000000E+00  0.13600637901E+04  0.13600637901E+04  0.50400001928E-02 0. -1.
       -1   -1    0    0    0  501  0.00000000000E+00  0.00000000000E+00 -0.12241362474E+04  0.12241362474E+04  0.50400001928E-02 0.  1.
    10030    2    1    2    0    0  0.00000000000E+00  0.00000000000E+00  0.13592754264E+03  0.25842000375E+04  0.25806227033E+04 0.  0.
        2    1    3    3  502    0 -0.83544733933E+02 -0.69758863628E+03 -0.10157997499E+04  0.12350946360E+04  0.25500000920E-02 0.  1.
       -2    1    3    3    0  502  0.83544733933E+02  0.69758863628E+03  0.11517272925E+04  0.13491054015E+04  0.25500000920E-02 0. -1.
</event>
<event>
 5   0  0.3647623E-05  0.2337668E+04  0.7818609E-02  0.8463216E-01
        2   -1    0    0  501    0  0.00000000000E+00  0.00000000000E+00  0.19176268912E+04  0.19176268912E+04  0.25500000920E-02 0. -1.
       -2   -1    0    0    0  501  0.00000000000E+00  0.00000000000E+00 -0.71242884394E+03  0.71242884394E+03  0.25500000920E-02 0.  1.
    10030    2    1    2    0    0  0.00000000000E+00  0.00000000000E+00  0.12051980472E+04  0.26300557351E+04  0.23376678200E+04 0.  0.
        3    1    3    3  502    0 -0.72512790117E+03  0.86858738722E+03  0.27281874578E+03  0.11639091891E+04  0.10100000352E+00 0. -1.
       -3    1    3    3    0  502  0.72512790117E+03 -0.86858738722E+03  0.93237930145E+03  0.14661465460E+04  0.10100000352E+00 0.  1.
</event>
<event>
 5   0  0.3849687E-05  0.2425094E+04  0.7818609E-02  0.8430168E-01
        2   -1    0    0  501    0  0.00000000000E+00  0.00000000000E+00  0.17077067245E+04  0.17077067245E+04  0.25500000920E-02 0.  1.
       -2   -1    0    0    0  501  0.00000000000E+00  0.00000000000E+00 -0.86096157393E+03  0.86096157393E+03  0.25500000920E-02 0. -1.
    10030    2    1    2    0    0  0.00000000000E+00  0.00000000000E+00  0.84674515056E+03  0.25686682984E+04  0.24250937048E+04 0.  0.
        1    1    3    3  502    0 -0.62868161685E+03  0.64188200373E+03 -0.43909298883E+03  0.10000278671E+04  0.50400001928E-02 0. -1.
       -1    1    3    3    0  502  0.62868161685E+03 -0.64188200373E+03  0.12858381394E+04  0.15686404313E+04  0.50400001928E-02 0.  1.
</event>
<event>
 5   0  0.3647623E-05  0.2598445E+04  0.7818609E-02  0.8368729E-01
        2   -1    0    0  501    0  0.00000000000E+00  0.00000000000E+00  0.18900945343E+04  0.18900945343E+04  0.25500000920E-02 0.  1.
       -2   -1    0    0    0  501  0.00000000000E+00  0.00000000000E+00 -0.89306621345E+03  0.89306621346E+03  0.25500000920E-02 0. -1.
    10030    2    1    2    0    0  0.00000000000E+00  0.00000000000E+00  0.99702832084E+03  0.27831607478E+04  0.25984453574E+04 0.  0.
        3    1    3    3  502    0  0.19732265154E+03 -0.12829728564E+04  0.43961431932E+03  0.13704803315E+04  0.10100000352E+00 0.  1.
       -3    1    3    3    0  502 -0.19732265154E+03  0.12829728564E+04  0.55741400152E+03  0.14126804162E+04  0.10100000352E+00 0. -1.
</event>
<event>
 5   0  0.1451052E-05  0.2561623E+04  0.7818609E-02  0.8381355E-01
        1   -1    0    0  501    0  0.00000000000E+00  0.00000000000E+00  0.17922629673E+04  0.17922629673E+04  0.50400001928E-02 0.  1.
       -1   -1    0    0    0  501  0.00000000000E+00  0.00000000000E+00 -0.91531113722E+03  0.91531113723E+03  0.50400001928E-02 0. -1.
    10030    2    1    2    0    0  0.00000000000E+00  0.00000000000E+00  0.87695183008E+03  0.27075741045E+04  0.25616231220E+04 0.  0.
        1    1    3    3  502    0  0.31876119692E+03  0.11095541725E+04 -0.14789249281E+03  0.11638691300E+04  0.50400001928E-02 0. -1.
       -1    1    3    3    0  502 -0.31876119692E+03 -0.11095541725E+04  0.10248443229E+04  0.15437049746E+04  0.50400001928E-02 0.  1.
</event>
<event>
 5   0  0.3499642E-05  0.2501529E+04  0.7818609E-02  0.8402441E-01
        2   -1    0    0  501    0  0.00000000000E+00  0.00000000000E+00  0.19117259920E+04  0.19117259920E+04  0.25500000920E-02 0.  1.
       -2   -1    0    0    0  501  0.00000000000E+00  0.00000000000E+00 -0.81832401222E+03  0.81832401223E+03  0.25500000920E-02 0. -1.
    10030    2    1    2    0    0  0.00000000000E+00  0.00000000000E+00  0.10934019797E+04  0.27300500042E+04  0.25015285599E+04 0.  0.
        2    1    3    3  502    0 -0.41470565625E+03  0.11073444621E+03 -0.73542638706E+03  0.85152502588E+03  0.25500000920E-02 0. -1.
       -2    1    3    3    0  502  0.41470565625E+03 -0.11073444621E+03  0.18288283668E+04  0.18785249783E+04  0.25500000920E-02 0.  1.
</event>
<event>
 5   0  0.3499642E-05  0.2616275E+04  0.7818609E-02  0.8362694E-01
        2   -1    0    0  501    0  0.00000000000E+00  0.00000000000E+00  0.14240745728E+04  0.14240745728E+04  0.25500000920E-02 0. -1.
       -2   -1    0    0    0  501  0.00000000000E+00  0.00000000000E+00 -0.12016392682E+04  0.12016392682E+04  0.25500000920E-02 0.  1.
    10030    2    1    2    0    0  0.00000000000E+00  0.00000000000E+00  0.22243530463E+03  0.26257138410E+04  0.26162751595E+04 0.  0.
        2    1    3    3  502    0  0.10996824406E+04  0.70745644901E+03  0.73294690286E+02  0.13096443063E+04  0.25500000920E-02 0.  1.
       -2    1    3    3    0  502 -0.10996824406E+04 -0.70745644901E+03  0.14914061435E+03  0.13160695347E+04  0.25500000920E-02 0. -1.
</event>
<event>
 5   0  0.1451052E-05  0.2603126E+04  0.7818609E-02  0.8367140E-01
        1   -1    0    0  501    0  0.00000000000E+00  0.00000000000E+00  0.12617575975E+04  0.12617575975E+04  0.50400001928E-02 0.  1.
       -1   -1    0    0    0  501  0.00000000000E+00  0.00000000000E+00 -0.13426245036E+04  0.13426245036E+04  0.50400001928E-02 0. -1.
    10030    2    1    2    0    0  0.00000000000E+00  0.00000000000E+00 -0.80866906021E+02  0.26043821011E+04  0.26031263266E+04 0.  0.
        1    1    3    3  502    0 -0.65111616747E+03  0.31776907612E+03 -0.11222215552E+04  0.13357809208E+04  0.50400001928E-02 0. -1.
       -1    1    3    3    0  502  0.65111616747E+03 -0.31776907612E+03  0.10413546492E+04  0.12686011803E+04  0.50400001928E-02 0.  1.
</event>
<event>
 5   0  0.1533248E-05  0.2584767E+04  0.7818609E-02  0.8373394E-01
       -1   -1    0    0    0  501  0.00000000000E+00  0.00000000000E+00  0.14267686684E+04  0.14267686684E+04  0.50400001928E-02 0. -1.
        1   -1    0    0  501    0  0.00000000000E+00  0.00000000000E+00 -0.11706560299E+04  0.11706560299E+04  0.50400001928E-02 0.  1.
    10030    2    1    2    0    0  0.00000000000E+00  0.00000000000E+00  0.25611263854E+03  0.25974246983E+04  0.25847671809E+04 0.  0.
        4    1    3    3  502    0 -0.15039278982E+03  0.12595865473E+04  0.37640511413E+03  0.13232001678E+04  0.12699999809E+01 0. -1.
       -4    1    3    3    0  502  0.15039278982E+03 -0.12595865473E+04 -0.12029247559E+03  0.12742245304E+04  0.12699999809E+01 0.  1.
</event>
<event>
 5   0  0.1474554E-05  0.2604927E+04  0.7818609E-02  0.8366530E-01
        1   -1    0    0  501    0  0.00000000000E+00  0.00000000000E+00  0.11592835854E+04  0.11592835854E+04  0.50400001928E-02 0.  1.
       -1   -1    0    0    0  501  0.00000000000E+00  0.00000000000E+00 -0.14633271394E+04  0.14633271394E+04  0.50400001928E-02 0. -1.
    10030    2    1    2    0    0  0.00000000000E+00  0.00000000000E+00 -0.30404355395E+03  0.26226107248E+04  0.26049269723E+04 0.  0.
        5    1    3    3  502    0  0.81134009145E+03 -0.70752334748E+03 -0.89016124381E+03  0.13968790790E+04  0.46999998093E+01 0. -1.
       -5    1    3    3    0  502 -0.81134009145E+03  0.70752334748E+03  0.58611768986E+03  0.12257316458E+04  0.46999998093E+01 0.  1.
</event>
<event>
 5   0  0.3441646E-05  0.2241242E+04  0.7818609E-02  0.8501456E-01
       -2   -1    0    0    0  501  0.00000000000E+00  0.00000000000E+00  0.58656985155E+03  0.58656985156E+03  0.25500000920E-02 0.  1.
        2   -1    0    0  501    0  0.00000000000E+00  0.00000000000E+00 -0.21409071845E+04  0.21409071845E+04  0.25500000920E-02 0. -1.
    10030    2    1    2    0    0  0.00000000000E+00  0.00000000000E+00 -0.15543373330E+04  0.27274770361E+04  0.22412421640E+04 0.  0.
        4    1    3    3  502    0  0.30899108702E+03 -0.25158105258E+03  0.49744885428E+03  0.63735821435E+03  0.12699999809E+01 0.  1.
       -4    1    3    3    0  502 -0.30899108702E+03  0.25158105258E+03 -0.20517861872E+04  0.20901188217E+04  0.12699999809E+01 0. -1.
</event>
<event>
 5   0  0.1474554E-05  0.2559202E+04  0.7818609E-02  0.8382193E-01
        1   -1    0    0  501    0  0.00000000000E+00  0.00000000000E+00  0.17778990208E+04  0.17778990208E+04  0.50400001928E-02 0. -1.
       -1   -1    0    0    0  501  0.00000000000E+00  0.00000000000E+00 -0.92096286858E+03  0.92096286860E+03  0.50400001928E-02 0.  1.
    10030    2    1    2    0    0  0.00000000000E+00  0.00000000000E+00  0.85693615225E+03  0.26988618894E+04  0.25592022056E+04 0.  0.
        5    1    3    3  502    0  0.20014304981E+03  0.82288948273E+03  0.14400614515E+04  0.16706296463E+04  0.46999998093E+01 0. -1.
       -5    1    3    3    0  502 -0.20014304981E+03 -0.82288948273E+03 -0.58312529923E+03  0.10282322431E+04  0.46999998093E+01 0.  1.
</event>
<event>
 5   0  0.3849687E-05  0.2623397E+04  0.7818609E-02  0.8360297E-01
       -2   -1    0    0    0  501  0.00000000000E+00  0.00000000000E+00  0.13455282833E+04  0.13455282833E+04  0.25500000920E-02 0.  1.
        2   -1    0    0  501    0  0.00000000000E+00  0.00000000000E+00 -0.12787190044E+04  0.12787190044E+04  0.25500000920E-02 0. -1.
    10030    2    1    2    0    0  0.00000000000E+00  0.00000000000E+00  0.66809278934E+02  0.26242472877E+04  0.26233967194E+04 0.  0.
        1    1    3    3  502    0  0.61182031577E+02  0.12499943020E+04  0.42637242150E+03  0.13221279960E+04  0.50400001928E-02 0.  1.
       -1    1    3    3    0  502 -0.61182031577E+02 -0.12499943020E+04 -0.35956314257E+03  0.13021192916E+04  0.50400001928E-02 0. -1.
</event>
<event>
 5   0  0.1474554E-05  0.2537439E+04  0.7818609E-02  0.8389768E-01
       -1   -1    0    0    0  501  0.00000000000E+00  0.00000000000E+00  0.94337394085E+03  0.94337394086E+03  0.50400001928E-02 0.  1.
        1   -1    0    0  501    0  0.00000000000E+00  0.00000000000E+00 -0.17062688281E+04  0.17062688281E+04  0.50400001928E-02 0. -1.
    10030    2    1    2    0    0  0.00000000000E+00  0.00000000000E+00 -0.76289488724E+03  0.26496427690E+04  0.25374392986E+04 0.  0.
        5    1    3    3  502    0 -0.16662153548E+03 -0.81809032952E+03  0.61609231618E+03  0.10376060695E+04  0.46999998093E+01 0. -1.
       -5    1    3    3    0  502  0.16662153548E+03  0.81809032952E+03 -0.13789872034E+04  0.16120366995E+04  0.46999998093E+01 0.  1.
</event>
<event>
 5   0  0.1497497E-05  0.2522852E+04  0.7818609E-02  0.8394889E-01
       -1   -1    0    0    0  501  0.00000000000E+00  0.00000000000E+00  0.96846694108E+03  0.96846694109E+03  0.50400001928E-02 0.  1.
        1   -1    0    0  501    0  0.00000000000E+00  0.00000000000E+00 -0.16430048886E+04  0.16430048886E+04  0.50400001928E-02 0. -1.
    10030    2    1    2    0    0  0.00000000000E+00  0.00000000000E+00 -0.67453794752E+03  0.26114718297E+04  0.25228522895E+04 0.  0.
        3    1    3    3  502    0 -0.38935373030E+03 -0.17772366528E+03  0.89100992139E+03  0.98847393427E+03  0.10100000352E+00 0.  1.
       -3    1    3    3    0  502  0.38935373030E+03  0.17772366528E+03 -0.15655478689E+04  0.16229978954E+04  0.10100000352E+00 0. -1.
</event>
<event>
 5   0  0.1497497E-05  0.2497860E+04  0.7818609E-02  0.8403748E-01
        1   -1    0    0  501    0  0.00000000000E+00  0.00000000000E+00  0.13122031461E+04  0.13122031461E+04  0.50400001928E-02 0. -1.
       -1   -1    0    0    0  501  0.00000000000E+00  0.00000000000E+00 -0.11887078939E+04  0.11887078939E+04  0.50400001928E-02 0.  1.
    10030    2    1    2    0    0  0.00000000000E+00  0.00000000000E+00  0.12349525220E+03  0.25009110401E+04  0.24978600748E+04 0.  0.
        3    1    3    3  502    0  0.91858130534E+03 -0.11867445232E+03  0.90059612579E+03  0.12918779479E+04  0.10100000352E+00 0. -1.
       -3    1    3    3    0  502 -0.91858130534E+03  0.11867445232E+03 -0.77710087359E+03  0.12090330922E+04  0.10100000352E+00 0.  1.
</event>
<event>
 5   0  0.1474554E-05  0.2592304E+04  0.7818609E-02  0.8370820E-01
        1   -1    0    0  501    0  0.00000000000E+00  0.00000000000E+00  0.60136533014E+03  0.60136533017E+03  0.50400001928E-02 0.  1.
       -1   -1    0    0    0  501  0.00000000000E+00  0.00000000000E+00 -0.27936602859E+04  0.27936602860E+04  0.50400001928E-02 0. -1.
    10030    2    1    2    0    0  0.00000000000E+00  0.00000000000E+00 -0.21922949558E+04  0.33950256161E+04  0.25923043342E+04 0.  0.
        5    1    3    3  502    0 -0.12505352212E+04 -0.17978797187E+02 -0.15418668899E+04  0.19853304946E+04  0.46999998093E+01 0. -1.
       -5    1    3    3    0  502  0.12505352212E+04  0.17978797187E+02 -0.65042806589E+03  0.14096951215E+04  0.46999998093E+01 0.  1.
</event>
<event>
 5   0  0.3441646E-05  0.2585425E+04  0.7818609E-02  0.8373169E-01
       -2   -1    0    0    0  501  0.00000000000E+00  0.00000000000E+00  0.10609590241E+04  0.10609590241E+04  0.25500000920E-02 0.  1.
        2   -1    0    0  501    0  0.00000000000E+00  0.00000000000E+00 -0.15750890856E+04  0.15750890856E+04  0.25500000920E-02 0. -1.
    10030    2    1    2    0    0  0.00000000000E+00  0.00000000000E+00 -0.51413006144E+03  0.26360481097E+04  0.25854245138E+04 0.  0.
        4    1    3    3  502    0 -0.66217053044E+02 -0.11033977963E+04 -0.94043642962E+03  0.14513075780E+04  0.12699999809E+01 0. -1.
       -4    1    3    3    0  502  0.66217053044E+02  0.11033977963E+04  0.42630636818E+03  0.11847405317E+04  0.12699999809E+01 0.  1.
</event>
<event>
 5   0  0.3647623E-05  0.2523501E+04  0.7818609E-02  0.8394661E-01
       -2   -1    0    0    0  501  0.00000000000E+00  0.00000000000E+00  0.99399804392E+03  0.99399804393E+03  0.25500000920E-02 0.  1.
        2   -1    0    0  501    0  0.00000000000E+00  0.00000000000E+00 -0.16016273938E+04  0.16016273938E+04  0.25500000920E-02 0. -1.
    10030    2    1    2    0    0  0.00000000000E+00  0.00000000000E+00 -0.60762934984E+03  0.25956254377E+04  0.25235011365E+04 0.  0.
        3    1    3    3  502    0  0.45449357630E+03  0.72685206070E+03 -0.12560919594E+04  0.15207384226E+04  0.10100000352E+00 0. -1.
       -3    1    3    3    0  502 -0.45449357630E+03 -0.72685206070E+03  0.64846260961E+03  0.10748870151E+04  0.10100000352E+00 0.  1.
</event>
<event>
 5   0  0.3499642E-05  0.2494254E+04  0.7818609E-02  0.8405035E-01
        2   -1    0    0  501    0  0.00000000000E+00  0.00000000000E+00  0.11137368958E+04  0.11137368958E+04  0.25500000920E-02 0.  1.
       -2   -1    0    0    0  501  0.00000000000E+00  0.00000000000E+00 -0.13964931153E+04  0.13964931153E+04  0.25500000920E-02 0. -1.
    10030    2    1    2    0    0  0.00000000000E+00  0.00000000000E+00 -0.28275621946E+03  0.25102300111E+04  0.24942541228E+04 0.  0.
        2    1    3    3  502    0 -0.74183032720E+03  0.54232484759E+03  0.70716965085E+03  0.11595332638E+04  0.25500000920E-02 0.  1.
       -2    1    3    3    0  502  0.74183032720E+03 -0.54232484759E+03 -0.98992587031E+03  0.13506967474E+04  0.25500000920E-02 0. -1.
</event>
<event>
 5   0  0.3849687E-05  0.2606119E+04  0.7818609E-02  0.8366126E-01
       -2   -1    0    0    0  501  0.00000000000E+00  0.00000000000E+00  0.17832611411E+04  0.17832611411E+04  0.25500000920E-02 0.  1.
        2   -1    0    0  501    0  0.00000000000E+00  0.00000000000E+00 -0.95216760585E+03  0.95216760585E+03  0.25500000920E-02 0. -1.
    10030    2    1    2    0    0  0.00000000000E+00  0.00000000000E+00  0.83109353529E+03  0.27354287470E+04  0.26061185632E+04 0.  0.
        1    1    3    3  502    0  0.15290459490E+03  0.12931807786E+04  0.36556963122E+03  0.13525300354E+04  0.50400001928E-02 0.  1.
       -1    1    3    3    0  502 -0.15290459490E+03 -0.12931807786E+04  0.46552390407E+03  0.13828987116E+04  0.50400001928E-02 0. -1.
</event>
<event>
 5   0  0.3508470E-05  0.2595413E+04  0.7818609E-02  0.8369761E-01
       -2   -1    0    0    0  501  0.00000000000E+00  0.00000000000E+00  0.11124631556E+04  0.11124631556E+04  0.25500000920E-02 0. -1.
        2   -1    0    0  501    0  0.00000000000E+00  0.00000000000E+00 -0.15137960659E+04  0.15137960659E+04  0.25500000920E-02 0.  1.
    10030    2    1    2    0    0  0.00000000000E+00  0.00000000000E+00 -0.40133291023E+03  0.26262592215E+04  0.25954131451E+04 0.  0.
        5    1    3    3  502    0 -0.10588736870E+03 -0.31238012672E+03 -0.14706632757E+04  0.15072047103E+04  0.46999998093E+01 0.  1.
       -5    1    3    3    0  502  0.10588736870E+03  0.31238012672E+03  0.10693303655E+04  0.11190545111E+04  0.46999998093E+01 0. -1.
</event>
<event>
 5   0  0.3647623E-05  0.2609932E+04  0.7818609E-02  0.8364835E-01
       -2   -1    0    0    0  501  0.00000000000E+00  0.00000000000E+00  0.12798975393E+04  0.12798975393E+04  0.25500000920E-02 0.  1.
        2   -1    0    0  501    0  0.00000000000E+00  0.00000000000E+00 -0.13305251670E+04  0.13305251670E+04  0.25500000920E-02 0. -1.
    10030    2    1    2    0    0  0.00000000000E+00  0.00000000000E+00 -0.50627627748E+02  0.26104227063E+04  0.26099317135E+04 0.  0.
        3    1    3    3  502    0  0.30570982268E+03  0.14938892671E+03  0.12347487062E+04  0.12807731746E+04  0.10100000352E+00 0.  1.
       -3    1    3    3    0  502 -0.30570982268E+03 -0.14938892671E+03 -0.12853763340E+04  0.13296495317E+04  0.10100000352E+00 0. -1.
</event>
<event>
 5   0  0.1451052E-05  0.2493073E+04  0.7818609E-02  0.8405457E-01
       -1   -1    0    0    0  501  0.00000000000E+00  0.00000000000E+00  0.12205631733E+04  0.12205631733E+04  0.50400001928E-02 0. -1.
        1   -1    0    0  501    0  0.00000000000E+00  0.00000000000E+00 -0.12730629786E+04  0.12730629786E+04  0.50400001928E-02 0.  1.
    10030    2    1    2    0    0  0.00000000000E+00  0.00000000000E+00 -0.52499805300E+02  0.24936261519E+04  0.24930734357E+04 0.  0.
        1    1    3    3  502    0 -0.39742875419E+03 -0.60426420734E+03 -0.10417429046E+04  0.12681928585E+04  0.50400001928E-02 0.  1.
       -1    1    3    3    0  502  0.39742875419E+03  0.60426420734E+03  0.98924309935E+03  0.12254332934E+04  0.50400001928E-02 0. -1.
</event>
<event>
 5   0  0.1497497E-05  0.1850770E+04  0.7818609E-02  0.8679757E-01
        1   -1    0    0  501    0  0.00000000000E+00  0.00000000000E+00  0.84841432338E+03  0.84841432339E+03  0.50400001928E-02 0. -1.
       -1   -1    0    0    0  501  0.00000000000E+00  0.00000000000E+00 -0.10093386245E+04  0.10093386245E+04  0.50400001928E-02 0.  1.
    10030    2    1    2    0    0  0.00000000000E+00  0.00000000000E+00 -0.16092430112E+03  0.18577529479E+04  0.18507699438E+04 0.  0.
        3    1    3    3  502    0 -0.21933699389E+03 -0.60012546320E+03 -0.75237408449E+03  0.98707956199E+03  0.10100000352E+00 0.  1.
       -3    1    3    3    0  502  0.21933699389E+03  0.60012546320E+03  0.59144978337E+03  0.87067338591E+03  0.10100000352E+00 0. -1.
</event>
<event>
 5   0  0.1474554E-05  0.2569774E+04  0.7818609E-02  0.8378541E-01
        1   -1    0    0  501    0  0.00000000000E+00  0.00000000000E+00  0.14276756566E+04  0.14276756566E+04  0.50400001928E-02 0.  1.
       -1   -1    0    0    0  501  0.00000000000E+00  0.00000000000E+00 -0.11563789221E+04  0.11563789221E+04  0.50400001928E-02 0. -1.
    10030    2    1    2    0    0  0.00000000000E+00  0.00000000000E+00  0.27129673455E+03  0.25840545787E+04  0.25697735596E+04 0.  0.
        5    1    3    3  502    0  0.23544812510E+03  0.30828296408E+03 -0.10960824739E+04  0.11627093726E+04  0.46999998093E+01 0. -1.
       -5    1    3    3    0  502 -0.23544812510E+03 -0.30828296408E+03  0.13673792084E+04  0.14213452062E+04  0.46999998093E+01 0.  1.
</event>
<event>
 5   0  0.1497497E-05  0.2600021E+04  0.7818609E-02  0.8368194E-01
       -1   -1    0    0    0  501  0.00000000000E+00  0.00000000000E+00  0.11496650158E+04  0.11496650158E+04  0.50400001928E-02 0. -1.
        1   -1    0    0  501    0  0.00000000000E+00  0.00000000000E+00 -0.14700175962E+04  0.14700175962E+04  0.50400001928E-02 0.  1.
    10030    2    1    2    0    0  0.00000000000E+00  0.00000000000E+00 -0.32035258039E+03  0.26196826120E+04  0.26000213868E+04 0.  0.
        3    1    3    3  502    0 -0.11611105159E+04 -0.37650106065E+03  0.29052849558E+03  0.12547260640E+04  0.10100000352E+00 0. -1.
       -3    1    3    3    0  502  0.11611105159E+04  0.37650106065E+03 -0.61088107597E+03  0.13649565480E+04  0.10100000352E+00 0.  1.
</event>
<event>
 5   0  0.3499642E-05  0.2571066E+04  0.7818609E-02  0.8378096E-01
        2   -1    0    0  501    0  0.00000000000E+00  0.00000000000E+00  0.10059517865E+04  0.10059517865E+04  0.25500000920E-02 0. -1.
       -2   -1    0    0    0  501  0.00000000000E+00  0.00000000000E+00 -0.16428178989E+04  0.16428178989E+04  0.25500000920E-02 0.  1.
    10030    2    1    2    0    0  0.00000000000E+00  0.00000000000E+00 -0.63686611246E+03  0.26487696854E+04  0.25710663938E+04 0.  0.
        2    1    3    3  502    0  0.20585205045E+03  0.33657086764E+03 -0.15789050109E+04  0.16274507824E+04  0.25500000920E-02 0.  1.
       -2    1    3    3    0  502 -0.20585205045E+03 -0.33657086764E+03  0.94203889842E+03  0.10213189031E+04  0.25500000920E-02 0. -1.
</event>
<event>
 5   0  0.3647623E-05  0.2610230E+04  0.7818609E-02  0.8364734E-01
       -2   -1    0    0    0  501  0.00000000000E+00  0.00000000000E+00  0.10679987220E+04  0.10679987220E+04  0.25500000920E-02 0. -1.
        2   -1    0    0  501    0  0.00000000000E+00  0.00000000000E+00 -0.15948760376E+04  0.15948760376E+04  0.25500000920E-02 0.  1.
    10030    2    1    2    0    0  0.00000000000E+00  0.00000000000E+00 -0.52687731566E+03  0.26628747596E+04  0.26102303116E+04 0.  0.
        3    1    3    3  502    0  0.21692037549E+03 -0.12865923117E+04 -0.23197288661E+03  0.13252115515E+04  0.10100000352E+00 0. -1.
       -3    1    3    3    0  502 -0.21692037549E+03  0.12865923117E+04 -0.29490442904E+03  0.13376632081E+04  0.10100000352E+00 0.  1.
</event>
<event>
 5   0  0.1497497E-05  0.2501198E+04  0.7818609E-02  0.8402559E-01
       -1   -1    0    0    0  501  0.00000000000E+00  0.00000000000E+00  0.89340862725E+03  0.89340862727E+03  0.50400001928E-02 0. -1.
        1   -1    0    0  501    0  0.00000000000E+00  0.00000000000E+00 -0.17505959484E+04  0.17505959484E+04  0.50400001928E-02 0.  1.
    10030    2    1    2    0    0  0.00000000000E+00  0.00000000000E+00 -0.85718732118E+03  0.26440045757E+04  0.25011977316E+04 0.  0.
        3    1    3    3  502    0  0.11385063431E+03  0.12104815374E+04 -0.73818005432E+03  0.14223703182E+04  0.10100000352E+00 0.  1.
       -3    1    3    3    0  502 -0.11385063431E+03 -0.12104815374E+04 -0.11900726686E+03  0.12216342575E+04  0.10100000352E+00 0. -1.
</event>
<event>
 5   0  0.1435062E-05  0.2590647E+04  0.7818609E-02  0.8371385E-01
        1   -1    0    0  501    0  0.00000000000E+00  0.00000000000E+00  0.16362697587E+04  0.16362697587E+04  0.50400001928E-02 0. -1.
       -1   -1    0    0    0  501  0.00000000000E+00  0.00000000000E+00 -0.10254193920E+04  0.10254193920E+04  0.50400001928E-02 0.  1.
    10030    2    1    2    0    0  0.00000000000E+00  0.00000000000E+00  0.61085036668E+03  0.26616891507E+04  0.25906468235E+04 0.  0.
        2    1    3    3  502    0  0.80444440950E+03  0.70958655536E+03 -0.44058471491E+03  0.11596373479E+04  0.25500000920E-02 0. -1.
       -2    1    3    3    0  502 -0.80444440950E+03 -0.70958655536E+03  0.10514350816E+04  0.15020518028E+04  0.25500000920E-02 0.  1.
</event>
<event>
 5   0  0.3499642E-05  0.2475582E+04  0.7818609E-02  0.8411736E-01
        2   -1    0    0  501    0  0.00000000000E+00  0.00000000000E+00  0.12237308982E+04  0.12237308982E+04  0.25500000920E-02 0. -1.
       -2   -1    0    0    0  501  0.00000000000E+00  0.00000000000E+00 -0.12520130062E+04  0.12520130062E+04  0.25500000920E-02 0.  1.
    10030    2    1    2    0    0  0.00000000000E+00  0.00000000000E+00 -0.28282107935E+02  0.24757439044E+04  0.24755823562E+04 0.  0.
        2    1    3    3  502    0  0.89135914611E+03 -0.85839555172E+03  0.13482298569E+02  0.12375563918E+04  0.25500000920E-02 0. -1.
       -2    1    3    3    0  502 -0.89135914611E+03  0.85839555172E+03 -0.41764406504E+02  0.12381875125E+04  0.25500000920E-02 0.  1.
</event>
<event>
 5   0  0.1533248E-05  0.2588890E+04  0.7818609E-02  0.8371985E-01
       -1   -1    0    0    0  501  0.00000000000E+00  0.00000000000E+00  0.11887291453E+04  0.11887291453E+04  0.50400001928E-02 0. -1.
        1   -1    0    0  501    0  0.00000000000E+00  0.00000000000E+00 -0.14095620906E+04  0.14095620906E+04  0.50400001928E-02 0.  1.
    10030    2    1    2    0    0  0.00000000000E+00  0.00000000000E+00 -0.22083294530E+03  0.25982912358E+04  0.25888897536E+04 0.  0.
        4    1    3    3  502    0 -0.71731050996E+03 -0.10771134977E+04 -0.14015635530E+03  0.13016732583E+04  0.12699999809E+01 0. -1.
       -4    1    3    3    0  502  0.71731050996E+03  0.10771134977E+04 -0.80676589996E+02  0.12966179775E+04  0.12699999809E+01 0.  1.
</event>
<event>
 5   0  0.3849687E-05  0.2605150E+04  0.7818609E-02  0.8366454E-01
        2   -1    0    0  501    0  0.00000000000E+00  0.00000000000E+00  0.21576198568E+04  0.21576198568E+04  0.25500000920E-02 0. -1.
       -2   -1    0    0    0  501  0.00000000000E+00  0.00000000000E+00 -0.78637646845E+03  0.78637646846E+03  0.25500000920E-02 0.  1.
    10030    2    1    2    0    0  0.00000000000E+00  0.00000000000E+00  0.13712433883E+04  0.29439963252E+04  0.26051498868E+04 0.  0.
        1    1    3    3  502    0 -0.10400394418E+04 -0.26200836417E+03 -0.14968967399E+03  0.10829300171E+04  0.50400001928E-02 0.  1.
       -1    1    3    3    0  502  0.10400394418E+04  0.26200836417E+03  0.15209330623E+04  0.18610663082E+04  0.50400001928E-02 0. -1.
</event>
<event>
 5   0  0.1533248E-05  0.2662520E+04  0.7818609E-02  0.8347269E-01
        1   -1    0    0  501    0  0.00000000000E+00  0.00000000000E+00  0.12218839658E+04  0.12218839658E+04  0.50400001928E-02 0. -1.
       -1   -1    0    0    0  501  0.00000000000E+00  0.00000000000E+00 -0.14504262790E+04  0.14504262790E+04  0.50400001928E-02 0.  1.
    10030    2    1    2    0    0  0.00000000000E+00  0.00000000000E+00 -0.22854231326E+03  0.26723102448E+04  0.26625195691E+04 0.  0.
        4    1    3    3  502    0 -0.50184566225E+03  0.29692001311E+03 -0.13154344000E+04  0.14388814532E+04  0.12699999809E+01 0.  1.
       -4    1    3    3    0  502  0.50184566225E+03 -0.29692001311E+03  0.10868920867E+04  0.12334287916E+04  0.12699999809E+01 0. -1.
</event>
<event>
 5   0  0.1497497E-05  0.2340505E+04  0.7818609E-02  0.8462120E-01
        1   -1    0    0  501    0  0.00000000000E+00  0.00000000000E+00  0.73819312155E+03  0.73819312157E+03  0.50400001928E-02 0.  1.
       -1   -1    0    0    0  501  0.00000000000E+00  0.00000000000E+00 -0.18551935265E+04  0.18551935265E+04  0.50400001928E-02 0. -1.
    10030    2    1    2    0    0  0.00000000000E+00  0.00000000000E+00 -0.11170004049E+04  0.25933866480E+04  0.23405051595E+04 0.  0.
        3    1    3    3  502    0 -0.92192202726E+03 -0.47598827135E+03  0.41264807078E+02  0.10383678796E+04  0.10100000352E+00 0.  1.
       -3    1    3    3    0  502  0.92192202726E+03  0.47598827135E+03 -0.11582652120E+04  0.15550187685E+04  0.10100000352E+00 0. -1.
</event>
<event>
 5   0  0.1435062E-05  0.2557279E+04  0.7818609E-02  0.8382859E-01
        1   -1    0    0  501    0  0.00000000000E+00  0.00000000000E+00  0.22698960491E+04  0.22698960491E+04  0.50400001928E-02 0.  1.
       -1   -1    0    0    0  501  0.00000000000E+00  0.00000000000E+00 -0.72026142203E+03  0.72026142205E+03  0.50400001928E-02 0. -1.
    10030    2    1    2    0    0  0.00000000000E+00  0.00000000000E+00  0.15496346271E+04  0.29901574712E+04  0.25572786757E+04 0.  0.
        2    1    3    3  502    0  0.79310328804E+03 -0.88628246947E+03  0.22586985536E+03  0.12105893741E+04  0.25500000920E-02 0. -1.
       -2    1    3    3    0  502 -0.79310328804E+03  0.88628246947E+03  0.13237647717E+04  0.17795680971E+04  0.25500000920E-02 0.  1.
</event>
<event>
 5   0  0.3849687E-05  0.2589463E+04  0.7818609E-02  0.8371789E-01
        2   -1    0    0  501    0  0.00000000000E+00  0.00000000000E+00  0.15776382882E+04  0.15776382882E+04  0.25500000920E-02 0.  1.
       -2   -1    0    0    0  501  0.00000000000E+00  0.00000000000E+00 -0.10625567250E+04  0.10625567250E+04  0.25500000920E-02 0. -1.
    10030    2    1    2    0    0  0.00000000000E+00  0.00000000000E+00  0.51508156320E+03  0.26401950132E+04  0.25894633982E+04 0.  0.
        1    1    3    3  502    0  0.99028917639E+03  0.74302424251E+03  0.64387382318E+03  0.13954680856E+04  0.50400001928E-02 0.  1.
       -1    1    3    3    0  502 -0.99028917639E+03 -0.74302424251E+03 -0.12879225998E+03  0.12447269275E+04  0.50400001928E-02 0. -1.
</event>
<event>
 5   0  0.3508470E-05  0.2591319E+04  0.7818609E-02  0.8371156E-01
        2   -1    0    0  501    0  0.00000000000E+00  0.00000000000E+00  0.18968864876E+04  0.18968864876E+04  0.25500000920E-02 0. -1.
       -2   -1    0    0    0  501  0.00000000000E+00  0.00000000000E+00 -0.88499389714E+03  0.88499389715E+03  0.25500000920E-02 0.  1.
    10030    2    1    2    0    0  0.00000000000E+00  0.00000000000E+00  0.10118925905E+04  0.27818803848E+04  0.25913185564E+04 0.  0.
        5    1    3    3  502    0 -0.65538950940E+03 -0.32799872823E+03 -0.64107944178E+03  0.97371634238E+03  0.46999998093E+01 0.  1.
       -5    1    3    3    0  502  0.65538950940E+03  0.32799872823E+03  0.16529720323E+04  0.18081640424E+04  0.46999998093E+01 0. -1.
</event>
<event>
 5   0  0.1474554E-05  0.2573602E+04  0.7818609E-02  0.8377224E-01
       -1   -1    0    0    0  501  0.00000000000E+00  0.00000000000E+00  0.10599500966E+04  0.10599500966E+04  0.50400001928E-02 0.  1.
        1   -1    0    0  501    0  0.00000000000E+00  0.00000000000E+00 -0.15622024438E+04  0.15622024438E+04  0.50400001928E-02 0. -1.
    10030    2    1    2    0    0  0.00000000000E+00  0.00000000000E+00 -0.50225234722E+03  0.26221525404E+04  0.25736018582E+04 0.  0.
        5    1    3    3  502    0 -0.67595123577E+02 -0.10204261697E+04  0.54463004171E+03  0.11586555316E+04  0.46999998093E+01 0. -1.
       -5    1    3    3    0  502  0.67595123577E+02  0.10204261697E+04 -0.10468823889E+04  0.14634970088E+04  0.46999998093E+01 0.  1.
</event>
<event>
 5   0  0.3441646E-05  0.2594312E+04  0.7818609E-02  0.8370136E-01
        2   -1    0    0  501    0  0.00000000000E+00  0.00000000000E+00  0.16914645607E+04  0.16914645607E+04  0.25500000920E-02 0. -1.
       -2   -1    0    0    0  501  0.00000000000E+00  0.00000000000E+00 -0.99476708801E+03  0.99476708802E+03  0.25500000920E-02 0.  1.
    10030    2    1    2    0    0  0.00000000000E+00  0.00000000000E+00  0.69669747268E+03  0.26862316487E+04  0.25943116818E+04 0.  0.
        4    1    3    3  502    0  0.12029777165E+04 -0.42817951047E+03  0.11196499063E+03  0.12818076500E+04  0.12699999809E+01 0. -1.
       -4    1    3    3    0  502 -0.12029777165E+04  0.42817951047E+03  0.58473248205E+03  0.14044239987E+04  0.12699999809E+01 0.  1.
</event>
<event>
 5   0  0.1451052E-05  0.2555451E+04  0.7818609E-02  0.8383493E-01
       -1   -1    0    0    0  501  0.00000000000E+00  0.00000000000E+00  0.85943985134E+03  0.85943985136E+03  0.50400001928E-02 0.  1.
        1   -1    0    0  501    0  0.00000000000E+00  0.00000000000E+00 -0.18995894905E+04  0.18995894905E+04  0.50400001928E-02 0. -1.
    10030    2    1    2    0    0  0.00000000000E+00  0.00000000000E+00 -0.10401496392E+04  0.27590293419E+04  0.25554513569E+04 0.  0.
        1    1    3    3  502    0  0.56169077374E+03  0.72179199906E+03 -0.14834007429E+04  0.17426869998E+04  0.50400001928E-02 0. -1.
       -1    1    3    3    0  502 -0.56169077374E+03 -0.72179199906E+03  0.44325110377E+03  0.10163423420E+04  0.50400001928E-02 0.  1.
</event>
<event>
 5   0  0.1474554E-05  0.2115918E+04  0.7818609E-02  0.8554264E-01
       -1   -1    0    0    0  501  0.00000000000E+00  0.00000000000E+00  0.81533889891E+03  0.81533889893E+03  0.50400001928E-02 0. -1.
        1   -1    0    0  501    0  0.00000000000E+00  0.00000000000E+00 -0.13727757816E+04  0.13727757817E+04  0.50400001928E-02 0.  1.
    10030    2    1    2    0    0  0.00000000000E+00  0.00000000000E+00 -0.55743688274E+03  0.21881146806E+04  0.21159182350E+04 0.  0.
        5    1    3    3  502    0 -0.40206563485E+03 -0.22467533355E+03 -0.12636441639E+04  0.13449737705E+04  0.46999998093E+01 0.  1.
       -5    1    3    3    0  502  0.40206563485E+03  0.22467533355E+03  0.70620728121E+03  0.84314091009E+03  0.46999998093E+01 0. -1.
</event>
<event>
 5   0  0.1435062E-05  0.2667380E+04  0.7818609E-02  0.8345667E-01
        1   -1    0    0  501    0  0.00000000000E+00  0.00000000000E+00  0.17241915918E+04  0.17241915919E+04  0.50400001928E-02 0. -1.
       -1   -1    0    0    0  501  0.00000000000E+00  0.00000000000E+00 -0.10316306301E+04  0.10316306301E+04  0.50400001928E-02 0.  1.
    10030    2    1    2    0    0  0.00000000000E+00  0.00000000000E+00  0.69256096171E+03  0.27558222220E+04  0.26673798818E+04 0.  0.
        2    1    3    3  502    0  0.10244031409E+04  0.38214698220E+03 -0.44277741526E+03  0.11796143228E+04  0.25500000920E-02 0.  1.
       -2    1    3    3    0  502 -0.10244031409E+04 -0.38214698220E+03  0.11353383770E+04  0.15762078992E+04  0.25500000920E-02 0. -1.
</event>
<event>
 5   0  0.1435062E-05  0.2312698E+04  0.7818609E-02  0.8472931E-01
       -1   -1    0    0    0  501  0.00000000000E+00  0.00000000000E+00  0.82729715065E+03  0.82729715066E+03  0.50400001928E-02 0. -1.
        1   -1    0    0  501    0  0.00000000000E+00  0.00000000000E+00 -0.16162794473E+04  0.16162794473E+04  0.50400001928E-02 0.  1.
    10030    2    1    2    0    0  0.00000000000E+00  0.00000000000E+00 -0.78898229664E+03  0.24435765980E+04  0.23126983214E+04 0.  0.
        2    1    3    3  502    0  0.43924405724E+03  0.66023608942E+03  0.49473960234E+03  0.93467337061E+03  0.25500000920E-02 0. -1.
       -2    1    3    3    0  502 -0.43924405724E+03 -0.66023608942E+03 -0.12837218990E+04  0.15089032274E+04  0.25500000920E-02 0.  1.
</event>
<event>
 5   0  0.1474554E-05  0.2700349E+04  0.7818609E-02  0.8334892E-01
        1   -1    0    0  501    0  0.00000000000E+00  0.00000000000E+00  0.12174211048E+04  0.12174211048E+04  0.50400001928E-02 0. -1.
       -1   -1    0    0    0  501  0.00000000000E+00  0.00000000000E+00 -0.14974037701E+04  0.14974037701E+04  0.50400001928E-02 0.  1.
    10030    2    1    2    0    0  0.00000000000E+00  0.00000000000E+00 -0.27998266522E+03  0.27148248749E+04  0.27003488309E+04 0.  0.
        5    1    3    3  502    0 -0.67449446461E+03  0.10024772330E+04  0.46577127934E+03  0.12949395199E+04  0.46999998093E+01 0. -1.
       -5    1    3    3    0  502  0.67449446461E+03 -0.10024772330E+04 -0.74575394455E+03  0.14198853550E+04  0.46999998093E+01 0.  1.
</event>
<event>
 5   0  0.1474554E-05  0.2587945E+04  0.7818609E-02  0.8372308E-01
       -1   -1    0    0    0  501  0.00000000000E+00  0.00000000000E+00  0.12069390901E+04  0.12069390901E+04  0.50400001928E-02 0. -1.
        1   -1    0    0  501    0  0.00000000000E+00  0.00000000000E+00 -0.13872816414E+04  0.13872816415E+04  0.50400001928E-02 0.  1.
    10030    2    1    2    0    0  0.00000000000E+00  0.00000000000E+00 -0.18034255138E+03  0.25942207315E+04  0.25879446996E+04 0.  0.
        5    1    3    3  502    0  0.53305208020E+03  0.10674171668E+04  0.41186101393E+03  0.12622105660E+04  0.46999998093E+01 0. -1.
       -5    1    3    3    0  502 -0.53305208020E+03 -0.10674171668E+04 -0.59220356531E+03  0.13320101655E+04  0.46999998093E+01 0.  1.
</event>
<event>
 5   0  0.1435062E-05  0.3264228E+04  0.7818609E-02  0.8172058E-01
       -1   -1    0    0    0  501  0.00000000000E+00  0.00000000000E+00  0.11276089842E+04  0.11276089842E+04  0.50400001928E-02 0. -1.
        1   -1    0    0  501    0  0.00000000000E+00  0.00000000000E+00 -0.23623400051E+04  0.23623400051E+04  0.50400001928E-02 0.  1.
    10030    2    1    2    0    0  0.00000000000E+00  0.00000000000E+00 -0.12347310209E+04  0.34899489893E+04  0.32642278190E+04 0.  0.
        2    1    3    3  502    0  0.51758727890E+03  0.11029912216E+04 -0.17784198127E+04  0.21557512047E+04  0.25500000920E-02 0.  1.
       -2    1    3    3    0  502 -0.51758727890E+03 -0.11029912216E+04  0.54368879181E+03  0.13341977847E+04  0.25500000920E-02 0. -1.
</event>
<event>
 5   0  0.1435062E-05  0.2632608E+04  0.7818609E-02  0.8357209E-01
       -1   -1    0    0    0  501  0.00000000000E+00  0.00000000000E+00  0.11178249213E+04  0.11178249214E+04  0.50400001928E-02 0.  1.
        1   -1    0    0  501    0  0.00000000000E+00  0.00000000000E+00 -0.15500244241E+04  0.15500244241E+04  0.50400001928E-02 0. -1.
    10030    2    1    2    0    0  0.00000000000E+00  0.00000000000E+00 -0.43219950273E+03  0.26678493454E+04  0.26326077793E+04 0.  0.
        2    1    3    3  502    0 -0.60610961193E+03  0.11467464750E+04  0.11087843201E+02  0.12971196089E+04  0.25500000920E-02 0. -1.
       -2    1    3    3    0  502  0.60610961193E+03 -0.11467464750E+04 -0.44328734593E+03  0.13707297365E+04  0.25500000920E-02 0.  1.
</event>
<event>
 5   0  0.1435062E-05  0.2507903E+04  0.7818609E-02  0.8400175E-01
       -1   -1    0    0    0  501  0.00000000000E+00  0.00000000000E+00  0.69059857035E+03  0.69059857037E+03  0.50400001928E-02 0.  1.
        1   -1    0    0  501    0  0.00000000000E+00  0.00000000000E+00 -0.22768579325E+04  0.22768579325E+04  0.50400001928E-02 0. -1.
    10030    2    1    2    0    0  0.00000000000E+00  0.00000000000E+00 -0.15862593621E+04  0.29674565029E+04  0.25079033738E+04 0.  0.
        2    1    3    3  502    0  0.29148593702E+03 -0.11244998636E+04 -0.13518039079E+04  0.17823685927E+04  0.25500000920E-02 0. -1.
       -2    1    3    3    0  502 -0.29148593702E+03  0.11244998636E+04 -0.23445545424E+03  0.11850879102E+04  0.25500000920E-02 0.  1.
</event>
<event>
 5   0  0.3849687E-05  0.2547345E+04  0.7818609E-02  0.8386310E-01
       -2   -1    0    0    0  501  0.00000000000E+00  0.00000000000E+00  0.10296019196E+04  0.10296019196E+04  0.25500000920E-02 0.  1.
        2   -1    0    0  501    0  0.00000000000E+00  0.00000000000E+00 -0.15756012460E+04  0.15756012460E+04  0.25500000920E-02 0. -1.
    10030    2    1    2    0    0  0.00000000000E+00  0.00000000000E+00 -0.54599932637E+03  0.26052031656E+04  0.25473453378E+04 0.  0.
        1    1    3    3  502    0  0.26316038806E+03  0.74816529532E+03  0.74624934441E+03  0.10889870445E+04  0.50400001928E-02 0.  1.
       -1    1    3    3    0  502 -0.26316038806E+03 -0.74816529532E+03 -0.12922486708E+04  0.15162161212E+04  0.50400001928E-02 0. -1.
</event>
<event>
 5   0  0.1474554E-05  0.2559772E+04  0.7818609E-02  0.8381996E-01
       -1   -1    0    0    0  501  0.00000000000E+00  0.00000000000E+00  0.14608211941E+04  0.14608211941E+04  0.50400001928E-02 0. -1.
        1   -1    0    0  501    0  0.00000000000E+00  0.00000000000E+00 -0.11213610011E+04  0.11213610011E+04  0.50400001928E-02 0.  1.
    10030    2    1    2    0    0  0.00000000000E+00  0.00000000000E+00  0.33946019301E+03  0.25821821952E+04  0.25597717997E+04 0.  0.
        5    1    3    3  502    0 -0.58068766247E+03  0.21751221905E+03 -0.95970423196E+03  0.11426128083E+04  0.46999998093E+01 0.  1.
       -5    1    3    3    0  502  0.58068766247E+03 -0.21751221905E+03  0.12991644250E+04  0.14395693870E+04  0.46999998093E+01 0. -1.
</event>
<event>
 5   0  0.1435062E-05  0.2600189E+04  0.7818609E-02  0.8368137E-01
        1   -1    0    0  501    0  0.00000000000E+00  0.00000000000E+00  0.10244141070E+04  0.10244141070E+04  0.50400001928E-02 0.  1.
       -1   -1    0    0    0  501  0.00000000000E+00  0.00000000000E+00 -0.16499626936E+04  0.16499626936E+04  0.50400001928E-02 0. -1.
    10030    2    1    2    0    0  0.00000000000E+00  0.00000000000E+00 -0.62554858660E+03  0.26743768006E+04  0.26001885004E+04 0.  0.
        2    1    3    3  502    0 -0.93082313387E+03  0.65045946036E+03 -0.96385678941E+03  0.14894794818E+04  0.25500000920E-02 0. -1.
       -2    1    3    3    0  502  0.93082313387E+03 -0.65045946036E+03  0.33830820281E+03  0.11848973189E+04  0.25500000920E-02 0.  1.
</event>
<event>
 5   0  0.1451052E-05  0.2613408E+04  0.7818609E-02  0.8363661E-01
       -1   -1    0    0    0  501  0.00000000000E+00  0.00000000000E+00  0.10781676129E+04  0.10781676129E+04  0.50400001928E-02 0.  1.
        1   -1    0    0  501    0  0.00000000000E+00  0.00000000000E+00 -0.15836826086E+04  0.15836826086E+04  0.50400001928E-02 0. -1.
    10030    2    1    2    0    0  0.00000000000E+00  0.00000000000E+00 -0.50551499570E+03  0.26618502215E+04  0.26134079649E+04 0.  0.
        1    1    3    3  502    0  0.59384180298E+03 -0.79528712977E+03 -0.11184206222E+04  0.14953241769E+04  0.50400001928E-02 0. -1.
       -1    1    3    3    0  502 -0.59384180298E+03  0.79528712977E+03  0.61290562651E+03  0.11665260446E+04  0.50400001928E-02 0.  1.
</event>
<event>
 5   0  0.3508470E-05  0.2388273E+04  0.7818609E-02  0.8443907E-01
       -2   -1    0    0    0  501  0.00000000000E+00  0.00000000000E+00  0.78394659062E+03  0.78394659063E+03  0.25500000920E-02 0. -1.
        2   -1    0    0  501    0  0.00000000000E+00  0.00000000000E+00 -0.18189532096E+04  0.18189532096E+04  0.25500000920E-02 0.  1.
    10030    2    1    2    0    0  0.00000000000E+00  0.00000000000E+00 -0.10350066190E+04  0.26028998002E+04  0.23882731562E+04 0.  0.
        5    1    3    3  502    0 -0.53048093838E+03  0.33012087075E+03 -0.16265735299E+04  0.17424561267E+04  0.46999998093E+01 0.  1.
       -5    1    3    3    0  502  0.53048093838E+03 -0.33012087075E+03  0.59156691090E+03  0.86044367355E+03  0.46999998093E+01 0. -1.
</event>
<event>
 5   0  0.3508470E-05  0.2498978E+04  0.7818609E-02  0.8403350E-01
        2   -1    0    0  501    0  0.00000000000E+00  0.00000000000E+00  0.99564469942E+03  0.99564469942E+03  0.25500000920E-02 0.  1.
       -2   -1    0    0    0  501  0.00000000000E+00  0.00000000000E+00 -0.15680525343E+04  0.15680525343E+04  0.25500000920E-02 0. -1.
    10030    2    1    2    0    0  0.00000000000E+00  0.00000000000E+00 -0.57240783486E+03  0.25636972337E+04  0.24989783466E+04 0.  0.
        5    1    3    3  502    0 -0.41532863970E+03  0.80561817850E+03  0.59611773270E+03  0.10848488234E+04  0.46999998093E+01 0.  1.
       -5    1    3    3    0  502  0.41532863970E+03 -0.80561817850E+03 -0.11685255676E+04  0.14788484103E+04  0.46999998093E+01 0. -1.
</event>
<event>
 5   0  0.3441646E-05  0.3583890E+04  0.7818609E-02  0.8094192E-01
        2   -1    0    0  501    0  0.00000000000E+00  0.00000000000E+00  0.19547870035E+04  0.19547870035E+04  0.25500000920E-02 0. -1.
       -2   -1    0    0    0  501  0.00000000000E+00  0.00000000000E+00 -0.16426687314E+04  0.16426687314E+04  0.25500000920E-02 0.  1.
    10030    2    1    2    0    0  0.00000000000E+00  0.00000000000E+00  0.31211827213E+03  0.35974557350E+04  0.35838903372E+04 0.  0.
        4    1    3    3  502    0 -0.61038406588E+03  0.12413162897E+04  0.12995069764E+04  0.18979343597E+04  0.12699999809E+01 0. -1.
       -4    1    3    3    0  502  0.61038406588E+03 -0.12413162897E+04 -0.98738870429E+03  0.16995213753E+04  0.12699999809E+01 0.  1.
</event>
<event>
 5   0  0.1474554E-05  0.2625223E+04  0.7818609E-02  0.8359684E-01
       -1   -1    0    0    0  501  0.00000000000E+00  0.00000000000E+00  0.55429574268E+03  0.55429574270E+03  0.50400001928E-02 0.  1.
        1   -1    0    0  501    0  0.00000000000E+00  0.00000000000E+00 -0.31083557220E+04  0.31083557220E+04  0.50400001928E-02 0. -1.
    10030    2    1    2    0    0  0.00000000000E+00  0.00000000000E+00 -0.25540599794E+04  0.36626514647E+04  0.26252225380E+04 0.  0.
        5    1    3    3  502    0  0.42203654739E+02  0.36879773830E+03  0.47952750213E+03  0.60643353762E+03  0.46999998093E+01 0.  1.
       -5    1    3    3    0  502 -0.42203654739E+02 -0.36879773830E+03 -0.30335874815E+04  0.30562179271E+04  0.46999998093E+01 0. -1.
</event>
<event>
 5   0  0.3499642E-05  0.2575302E+04  0.7818609E-02  0.8376639E-01
       -2   -1    0    0    0  501  0.00000000000E+00  0.00000000000E+00  0.78327353215E+03  0.78327353216E+03  0.25500000920E-02 0.  1.
        2   -1    0    0  501    0  0.00000000000E+00  0.00000000000E+00 -0.21168156157E+04  0.21168156157E+04  0.25500000920E-02 0. -1.
    10030    2    1    2    0    0  0.00000000000E+00  0.00000000000E+00 -0.13335420836E+04  0.29000891479E+04  0.25753024244E+04 0.  0.
        2    1    3    3  502    0 -0.11822134577E+04  0.49802116599E+03 -0.79212905820E+03  0.15076876952E+04  0.25500000920E-02 0. -1.
       -2    1    3    3    0  502  0.11822134577E+04 -0.49802116599E+03 -0.54141302538E+03  0.13924014527E+04  0.25500000920E-02 0.  1.
</event>
<event>
 5   0  0.1435062E-05  0.2611520E+04  0.7818609E-02  0.8364299E-01
       -1   -1    0    0    0  501  0.00000000000E+00  0.00000000000E+00  0.11030024674E+04  0.11030024674E+04  0.50400001928E-02 0.  1.
        1   -1    0    0  501    0  0.00000000000E+00  0.00000000000E+00 -0.15457892576E+04  0.15457892576E+04  0.50400001928E-02 0. -1.
    10030    2    1    2    0    0  0.00000000000E+00  0.00000000000E+00 -0.44278679021E+03  0.26487917250E+04  0.26115201436E+04 0.  0.
        2    1    3    3  502    0  0.97622155396E+03 -0.20634030859E+03  0.63290094359E+03  0.11815872586E+04  0.25500000920E-02 0.  1.
       -2    1    3    3    0  502 -0.97622155396E+03  0.20634030859E+03 -0.10756877338E+04  0.14672044663E+04  0.25500000920E-02 0. -1.
</event>
<event>
 5   0  0.3499642E-05  0.1891095E+04  0.7818609E-02  0.8659302E-01
       -2   -1    0    0    0  501  0.00000000000E+00  0.00000000000E+00  0.69703356714E+03  0.69703356715E+03  0.25500000920E-02 0.  1.
        2   -1    0    0  501    0  0.00000000000E+00  0.00000000000E+00 -0.12826644861E+04  0.12826644861E+04  0.25500000920E-02 0. -1.
    10030    2    1    2    0    0  0.00000000000E+00  0.00000000000E+00 -0.58563091899E+03  0.19796980533E+04  0.18910951348E+04 0.  0.
        2    1    3    3  502    0 -0.59972052615E+03 -0.18125140819E+03  0.44856280116E+03  0.77053576754E+03  0.25500000920E-02 0.  1.
       -2    1    3    3    0  502  0.59972052615E+03  0.18125140819E+03 -0.10341937202E+04  0.12091622857E+04  0.25500000920E-02 0. -1.
</event>
<event>
 5   0  0.1474554E-05  0.2603034E+04  0.7818609E-02  0.8367171E-01
        1   -1    0    0  501    0  0.00000000000E+00  0.00000000000E+00  0.11994018815E+04  0.11994018815E+04  0.50400001928E-02 0.  1.
       -1   -1    0    0    0  501  0.00000000000E+00  0.00000000000E+00 -0.14123256095E+04  0.14123256095E+04  0.50400001928E-02 0. -1.
    10030    2    1    2    0    0  0.00000000000E+00  0.00000000000E+00 -0.21292372796E+03  0.26117274910E+04  0.26030336097E+04 0.  0.
        5    1    3    3  502    0 -0.11874125466E+04 -0.43477646331E+03  0.20269836353E+03  0.12806591449E+04  0.46999998093E+01 0.  1.
       -5    1    3    3    0  502  0.11874125466E+04  0.43477646331E+03 -0.41562209149E+03  0.13310683461E+04  0.46999998093E+01 0. -1.
</event>
<event>
 5   0  0.3441646E-05  0.2437614E+04  0.7818609E-02  0.8425554E-01
        2   -1    0    0  501    0  0.00000000000E+00  0.00000000000E+00  0.16322428301E+04  0.16322428301E+04  0.25500000920E-02 0.  1.
       -2   -1    0    0    0  501  0.00000000000E+00  0.00000000000E+00 -0.91009148309E+03  0.91009148309E+03  0.25500000920E-02 0. -1.
    10030    2    1    2    0    0  0.00000000000E+00  0.00000000000E+00  0.72215134698E+03  0.25423343132E+04  0.24376138316E+04 0.  0.
        4    1    3    3  502    0 -0.44731226579E+03 -0.55187054933E+03 -0.67184432765E+03  0.97776570805E+03  0.12699999809E+01 0. -1.
       -4    1    3    3    0  502  0.44731226579E+03  0.55187054933E+03  0.13939956746E+04  0.15645686051E+04  0.12699999809E+01 0.  1.
</event>
<event>
 5   0  0.1451052E-05  0.2578610E+04  0.7818609E-02  0.8375503E-01
        1   -1    0    0  501    0  0.00000000000E+00  0.00000000000E+00  0.17259921456E+04  0.17259921456E+04  0.50400001928E-02 0.  1.
       -1   -1    0    0    0  501  0.00000000000E+00  0.00000000000E+00 -0.96310268969E+03  0.96310268970E+03  0.50400001928E-02 0. -1.
    10030    2    1    2    0    0  0.00000000000E+00  0.00000000000E+00  0.76288945593E+03  0.26890948353E+04  0.25786102287E+04 0.  0.
        1    1    3    3  502    0 -0.82325291083E+03 -0.71451397274E+03  0.10994444827E+04  0.15482421461E+04  0.50400001928E-02 0.  1.
       -1    1    3    3    0  502  0.82325291083E+03  0.71451397274E+03 -0.33655502677E+03  0.11408526892E+04  0.50400001928E-02 0. -1.
</event>
<event>
 5   0  0.1474554E-05  0.2580632E+04  0.7818609E-02  0.8374810E-01
       -1   -1    0    0    0  501  0.00000000000E+00  0.00000000000E+00  0.12414511976E+04  0.12414511976E+04  0.50400001928E-02 0.  1.
        1   -1    0    0  501    0  0.00000000000E+00  0.00000000000E+00 -0.13411039275E+04  0.13411039275E+04  0.50400001928E-02 0. -1.
    10030    2    1    2    0    0  0.00000000000E+00  0.00000000000E+00 -0.99652729875E+02  0.25825551251E+04  0.25806317652E+04 0.  0.
        5    1    3    3  502    0  0.38383097171E+03 -0.11177317803E+04  0.46848091234E+03  0.12712777048E+04  0.46999998093E+01 0. -1.
       -5    1    3    3    0  502 -0.38383097171E+03  0.11177317803E+04 -0.56813364221E+03  0.13112774203E+04  0.46999998093E+01 0.  1.
</event>
<event>
 5   0  0.1451052E-05  0.2058222E+04  0.7818609E-02  0.8579874E-01
       -1   -1    0    0    0  501  0.00000000000E+00  0.00000000000E+00  0.76637893998E+03  0.76637894000E+03  0.50400001928E-02 0. -1.
        1   -1    0    0  501    0  0.00000000000E+00  0.00000000000E+00 -0.13819133705E+04  0.13819133706E+04  0.50400001928E-02 0.  1.
    10030    2    1    2    0    0  0.00000000000E+00  0.00000000000E+00 -0.61553443057E+03  0.21482923106E+04  0.20582218579E+04 0.  0.
        1    1    3    3  502    0  0.31719470358E+01 -0.10032470259E+04 -0.54704740965E+03  0.11427053534E+04  0.50400001928E-02 0.  1.
       -1    1    3    3    0  502 -0.31719470358E+01  0.10032470259E+04 -0.68487020916E+02  0.10055869571E+04  0.50400001928E-02 0. -1.
</event>
<event>
 5   0  0.3499642E-05  0.2587909E+04  0.7818609E-02  0.8372320E-01
       -2   -1    0    0    0  501  0.00000000000E+00  0.00000000000E+00  0.71343990186E+03  0.71343990186E+03  0.25500000920E-02 0.  1.
        2   -1    0    0  501    0  0.00000000000E+00  0.00000000000E+00 -0.23468251021E+04  0.23468251021E+04  0.25500000920E-02 0. -1.
    10030    2    1    2    0    0  0.00000000000E+00  0.00000000000E+00 -0.16333852002E+04  0.30602650040E+04  0.25879093265E+04 0.  0.
        2    1    3    3  502    0  0.11332365706E+03  0.91603225616E+03 -0.18890543604E+04  0.21024946426E+04  0.25500000920E-02 0. -1.
       -2    1    3    3    0  502 -0.11332365706E+03 -0.91603225616E+03  0.25566916020E+03  0.95777036134E+03  0.25500000920E-02 0.  1.
</event>
<event>
 5   0  0.3647623E-05  0.2566707E+04  0.7818609E-02  0.8379599E-01
        2   -1    0    0  501    0  0.00000000000E+00  0.00000000000E+00  0.15281034079E+04  0.15281034079E+04  0.25500000920E-02 0.  1.
       -2   -1    0    0    0  501  0.00000000000E+00  0.00000000000E+00 -0.10778043679E+04  0.10778043679E+04  0.25500000920E-02 0. -1.
    10030    2    1    2    0    0  0.00000000000E+00  0.00000000000E+00  0.45029904001E+03  0.26059077758E+04  0.25667072507E+04 0.  0.
        3    1    3    3  502    0  0.40162471567E+03 -0.12095124851E+04  0.37836373473E+03  0.13294291970E+04  0.10100000352E+00 0. -1.
       -3    1    3    3    0  502 -0.40162471567E+03  0.12095124851E+04  0.71935305276E+02  0.12764785788E+04  0.10100000352E+00 0.  1.
</event>
<event>
 5   0  0.1474554E-05  0.2410205E+04  0.7818609E-02  0.8435693E-01
       -1   -1    0    0    0  501  0.00000000000E+00  0.00000000000E+00  0.84968355444E+03  0.84968355446E+03  0.50400001928E-02 0.  1.
        1   -1    0    0  501    0  0.00000000000E+00  0.00000000000E+00 -0.17091916503E+04  0.17091916503E+04  0.50400001928E-02 0. -1.
    10030    2    1    2    0    0  0.00000000000E+00  0.00000000000E+00 -0.85950809584E+03  0.25588752047E+04  0.24102050010E+04 0.  0.
        5    1    3    3  502    0  0.11103044057E+04 -0.45638197965E+03 -0.31744838205E+03  0.12417149230E+04  0.46999998093E+01 0. -1.
       -5    1    3    3    0  502 -0.11103044057E+04  0.45638197965E+03 -0.54205971379E+03  0.13171602818E+04  0.46999998093E+01 0.  1.
</event>
<event>
 5   0  0.3508470E-05  0.2596318E+04  0.7818609E-02  0.8369453E-01
        2   -1    0    0  501    0  0.00000000000E+00  0.00000000000E+00  0.22449892625E+04  0.22449892625E+04  0.25500000920E-02 0. -1.
       -2   -1    0    0    0  501  0.00000000000E+00  0.00000000000E+00 -0.75065690823E+03  0.75065690824E+03  0.25500000920E-02 0.  1.
    10030    2    1    2    0    0  0.00000000000E+00  0.00000000000E+00  0.14943323542E+04  0.29956461707E+04  0.25963179303E+04 0.  0.
        5    1    3    3  502    0 -0.84989094386E+03 -0.81754262480E+03  0.12101633129E+03  0.11854777949E+04  0.46999998093E+01 0.  1.
       -5    1    3    3    0  502  0.84989094386E+03  0.81754262480E+03  0.13733160229E+04  0.18101683758E+04  0.46999998093E+01 0. -1.
</event>
<event>
 5   0  0.3508470E-05  0.2365720E+04  0.7818609E-02  0.8452450E-01
       -2   -1    0    0    0  501  0.00000000000E+00  0.00000000000E+00  0.11619559547E+04  0.11619559547E+04  0.25500000920E-02 0.  1.
        2   -1    0    0  501    0  0.00000000000E+00  0.00000000000E+00 -0.12041401728E+04  0.12041401728E+04  0.25500000920E-02 0. -1.
    10030    2    1    2    0    0  0.00000000000E+00  0.00000000000E+00 -0.42184218119E+02  0.23660961275E+04  0.23657200545E+04 0.  0.
        5    1    3    3  502    0  0.29371353055E+03  0.11253338175E+04  0.19456200685E+03  0.11792032494E+04  0.46999998093E+01 0.  1.
       -5    1    3    3    0  502 -0.29371353055E+03 -0.11253338175E+04 -0.23674622497E+03  0.11868928780E+04  0.46999998093E+01 0. -1.
</event>
<event>
 5   0  0.3508470E-05  0.2656056E+04  0.7818609E-02  0.8349406E-01
       -2   -1    0    0    0  501  0.00000000000E+00  0.00000000000E+00  0.15204967941E+04  0.15204967941E+04  0.25500000920E-02 0. -1.
        2   -1    0    0  501    0  0.00000000000E+00  0.00000000000E+00 -0.11599223269E+04  0.11599223269E+04  0.25500000920E-02 0.  1.
    10030    2    1    2    0    0  0.00000000000E+00  0.00000000000E+00  0.36057446721E+03  0.26804191210E+04  0.26560558575E+04 0.  0.
        5    1    3    3  502    0  0.26743277733E+03 -0.88743256207E+03 -0.77953059605E+03  0.12110932593E+04  0.46999998093E+01 0.  1.
       -5    1    3    3    0  502 -0.26743277733E+03  0.88743256207E+03  0.11401050633E+04  0.14693258617E+04  0.46999998093E+01 0. -1.
</event>
<event>
 5   0  0.1451052E-05  0.2569560E+04  0.7818609E-02  0.8378615E-01
       -1   -1    0    0    0  501  0.00000000000E+00  0.00000000000E+00  0.13896708453E+04  0.13896708453E+04  0.50400001928E-02 0.  1.
        1   -1    0    0  501    0  0.00000000000E+00  0.00000000000E+00 -0.11878062712E+04  0.11878062712E+04  0.50400001928E-02 0. -1.
    10030    2    1    2    0    0  0.00000000000E+00  0.00000000000E+00  0.20186457409E+03  0.25774771165E+04  0.25695600751E+04 0.  0.
        1    1    3    3  502    0 -0.11768488533E+04  0.51385928735E+03  0.60370656134E+02  0.12855618253E+04  0.50400001928E-02 0.  1.
       -1    1    3    3    0  502  0.11768488533E+04 -0.51385928735E+03  0.14149391796E+03  0.12919152911E+04  0.50400001928E-02 0. -1.
</event>
<event>
 5   0  0.3441646E-05  0.2528865E+04  0.7818609E-02  0.8392774E-01
       -2   -1    0    0    0  501  0.00000000000E+00  0.00000000000E+00  0.13056977894E+04  0.13056977894E+04  0.25500000920E-02 0.  1.
        2   -1    0    0  501    0  0.00000000000E+00  0.00000000000E+00 -0.12244716314E+04  0.12244716314E+04  0.25500000920E-02 0. -1.
    10030    2    1    2    0    0  0.00000000000E+00  0.00000000000E+00  0.81226157987E+02  0.25301694208E+04  0.25288652809E+04 0.  0.
        4    1    3    3  502    0 -0.80953871179E+03  0.72662793108E+03  0.68549742314E+03  0.12857874654E+04  0.12699999809E+01 0.  1.
       -4    1    3    3    0  502  0.80953871179E+03 -0.72662793108E+03 -0.60427126515E+03  0.12443819554E+04  0.12699999809E+01 0. -1.
</event>
<event>
 5   0  0.1451052E-05  0.2576345E+04  0.7818609E-02  0.8376281E-01
        1   -1    0    0  501    0  0.00000000000E+00  0.00000000000E+00  0.10508413703E+04  0.10508413703E+04  0.50400001928E-02 0. -1.
       -1   -1    0    0    0  501  0.00000000000E+00  0.00000000000E+00 -0.15791050076E+04  0.15791050076E+04  0.50400001928E-02 0.  1.
    10030    2    1    2    0    0  0.00000000000E+00  0.00000000000E+00 -0.52826363734E+03  0.26299463779E+04  0.25763453729E+04 0.  0.
        1    1    3    3  502    0 -0.63656486186E+03 -0.36306836873E+03  0.81732208615E+03  0.10977471732E+04  0.50400001928E-02 0. -1.
       -1    1    3    3    0  502  0.63656486186E+03  0.36306836873E+03 -0.13455857235E+04  0.15321992047E+04  0.50400001928E-02 0.  1.
</event>
<event>
 5   0  0.1497497E-05  0.2667780E+04  0.7818609E-02  0.8345535E-01
       -1   -1    0    0    0  501  0.00000000000E+00  0.00000000000E+00  0.11490698630E+04  0.11490698630E+04  0.50400001928E-02 0.  1.
        1   -1    0    0  501    0  0.00000000000E+00  0.00000000000E+00 -0.15484376020E+04  0.15484376020E+04  0.50400001928E-02 0. -1.
    10030    2    1    2    0    0  0.00000000000E+00  0.00000000000E+00 -0.39936773900E+03  0.26975074651E+04  0.26677803383E+04 0.  0.
        3    1    3    3  502    0 -0.21954116206E+01  0.17539922128E+03  0.11373566529E+04  0.11508040114E+04  0.10100000352E+00 0.  1.
       -3    1    3    3    0  502  0.21954116206E+01 -0.17539922128E+03 -0.15367243919E+04  0.15467034536E+04  0.10100000352E+00 0. -1.
</event>
<event>
 5   0  0.1435062E-05  0.2551101E+04  0.7818609E-02  0.8385003E-01
       -1   -1    0    0    0  501  0.00000000000E+00  0.00000000000E+00  0.94811963297E+03  0.94811963298E+03  0.50400001928E-02 0. -1.
        1   -1    0    0  501    0  0.00000000000E+00  0.00000000000E+00 -0.17160587585E+04  0.17160587585E+04  0.50400001928E-02 0.  1.
    10030    2    1    2    0    0  0.00000000000E+00  0.00000000000E+00 -0.76793912549E+03  0.26641783914E+04  0.25511009390E+04 0.  0.
        2    1    3    3  502    0  0.91247536965E+03  0.88421650512E+03 -0.26684270040E+03  0.12983278303E+04  0.25500000920E-02 0.  1.
       -2    1    3    3    0  502 -0.91247536965E+03 -0.88421650512E+03 -0.50109642508E+03  0.13658505612E+04  0.25500000920E-02 0. -1.
</event>
<event>
 5   0  0.3441646E-05  0.2586743E+04  0.7818609E-02  0.8372718E-01
       -2   -1    0    0    0  501  0.00000000000E+00  0.00000000000E+00  0.16392593426E+04  0.16392593426E+04  0.25500000920E-02 0.  1.
        2   -1    0    0  501    0  0.00000000000E+00  0.00000000000E+00 -0.10204665231E+04  0.10204665231E+04  0.25500000920E-02 0. -1.
    10030    2    1    2    0    0  0.00000000000E+00  0.00000000000E+00  0.61879281953E+03  0.26597258657E+04  0.25867425707E+04 0.  0.
        4    1    3    3  502    0 -0.59272792577E+03 -0.76188882241E+02  0.14887885521E+04  0.16042518834E+04  0.12699999809E+01 0.  1.
       -4    1    3    3    0  502  0.59272792577E+03  0.76188882241E+02 -0.86999573254E+03  0.10554739823E+04  0.12699999809E+01 0. -1.
</event>
<event>
 5   0  0.1533248E-05  0.2597423E+04  0.7818609E-02  0.8369077E-01
       -1   -1    0    0    0  501  0.00000000000E+00  0.00000000000E+00  0.13018948521E+04  0.13018948521E+04  0.50400001928E-02 0. -1.
        1   -1    0    0  501    0  0.00000000000E+00  0.00000000000E+00 -0.12955360076E+04  0.12955360076E+04  0.50400001928E-02 0.  1.
    10030    2    1    2    0    0  0.00000000000E+00  0.00000000000E+00  0.63588445101E+01  0.25974308597E+04  0.25974230760E+04 0.  0.
        4    1    3    3  502    0  0.78889245200E+02 -0.68383685140E+03 -0.10980930066E+04  0.12960193734E+04  0.12699999809E+01 0.  1.
       -4    1    3    3    0  502 -0.78889245200E+02  0.68383685140E+03  0.11044518511E+04  0.13014114863E+04  0.12699999809E+01 0. -1.
</event>
<event>
 5   0  0.1497497E-05  0.2425296E+04  0.7818609E-02  0.8430094E-01
        1   -1    0    0  501    0  0.00000000000E+00  0.00000000000E+00  0.16721544683E+04  0.16721544683E+04  0.50400001928E-02 0. -1.
       -1   -1    0    0    0  501  0.00000000000E+00  0.00000000000E+00 -0.87941325450E+03  0.87941325451E+03  0.50400001928E-02 0.  1.
    10030    2    1    2    0    0  0.00000000000E+00  0.00000000000E+00  0.79274121384E+03  0.25515677229E+04  0.24252956958E+04 0.  0.
        3    1    3    3  502    0  0.10483556630E+04 -0.29056352133E+03  0.96002400445E+03  0.14509041510E+04  0.10100000352E+00 0. -1.
       -3    1    3    3    0  502 -0.10483556630E+04  0.29056352133E+03 -0.16728279062E+03  0.11006635718E+04  0.10100000352E+00 0.  1.
</event>
<event>
 5   0  0.3849687E-05  0.2706468E+04  0.7818609E-02  0.8332910E-01
        2   -1    0    0  501    0  0.00000000000E+00  0.00000000000E+00  0.10547264869E+04  0.10547264869E+04  0.25500000920E-02 0.  1.
       -2   -1    0    0    0  501  0.00000000000E+00  0.00000000000E+00 -0.17362241571E+04  0.17362241571E+04  0.25500000920E-02 0. -1.
    10030    2    1    2    0    0  0.00000000000E+00  0.00000000000E+00 -0.68149767015E+03  0.27909506440E+04  0.27064675174E+04 0.  0.
        1    1    3    3  502    0 -0.12864833225E+02 -0.58505602829E+03  0.91749673210E+03  0.10882354128E+04  0.50400001928E-02 0.  1.
       -1    1    3    3    0  502  0.12864833225E+02  0.58505602829E+03 -0.15989944023E+04  0.17027152312E+04  0.50400001928E-02 0. -1.
</event>
<event>
 5   0  0.3508470E-05  0.2602361E+04  0.7818609E-02  0.8367400E-01
       -2   -1    0    0    0  501  0.00000000000E+00  0.00000000000E+00  0.25646883167E+04  0.25646883167E+04  0.25500000920E-02 0.  1.
        2   -1    0    0  501    0  0.00000000000E+00  0.00000000000E+00 -0.66014673655E+03  0.66014673656E+03  0.25500000920E-02 0. -1.
    10030    2    1    2    0    0  0.00000000000E+00  0.00000000000E+00  0.19045415801E+04  0.32248350532E+04  0.26023609454E+04 0.  0.
        5    1    3    3  502    0  0.46436652697E+03  0.56492148690E+03  0.22859334664E+04  0.24000596785E+04  0.46999998093E+01 0.  1.
       -5    1    3    3    0  502 -0.46436652697E+03 -0.56492148690E+03 -0.38139188630E+03  0.82477537467E+03  0.46999998093E+01 0. -1.
</event>
<event>
 5   0  0.1533248E-05  0.2491452E+04  0.7818609E-02  0.8406037E-01
        1   -1    0    0  501    0  0.00000000000E+00  0.00000000000E+00  0.15715031160E+04  0.15715031160E+04  0.50400001928E-02 0.  1.
       -1   -1    0    0    0  501  0.00000000000E+00  0.00000000000E+00 -0.98748322288E+03  0.98748322289E+03  0.50400001928E-02 0. -1.
    10030    2    1    2    0    0  0.00000000000E+00  0.00000000000E+00  0.58401989309E+03  0.25589863389E+04  0.24914517549E+04 0.  0.
        4    1    3    3  502    0  0.75314259127E+03 -0.97099000431E+03  0.50196719526E+03  0.13274102716E+04  0.12699999809E+01 0.  1.
       -4    1    3    3    0  502 -0.75314259127E+03  0.97099000431E+03  0.82052697828E+02  0.12315760672E+04  0.12699999809E+01 0. -1.
</event>
<event>
 5   0  0.3441646E-05  0.2552514E+04  0.7818609E-02  0.8384512E-01
        2   -1    0    0  501    0  0.00000000000E+00  0.00000000000E+00  0.18162265422E+04  0.18162265422E+04  0.25500000920E-02 0.  1.
       -2   -1    0    0    0  501  0.00000000000E+00  0.00000000000E+00 -0.89682222737E+03  0.89682222738E+03  0.25500000920E-02 0. -1.
    10030    2    1    2    0    0  0.00000000000E+00  0.00000000000E+00  0.91940431481E+03  0.27130487696E+04  0.25525143157E+04 0.  0.
        4    1    3    3  502    0  0.26412285742E+03  0.11469949705E+04 -0.64760123509E+02  0.11787933799E+04  0.12699999809E+01 0.  1.
       -4    1    3    3    0  502 -0.26412285742E+03 -0.11469949705E+04  0.98416443832E+03  0.15342553896E+04  0.12699999809E+01 0. -1.
</event>
<event>
 5   0  0.3499642E-05  0.2520223E+04  0.7818609E-02  0.8395816E-01
        2   -1    0    0  501    0  0.00000000000E+00  0.00000000000E+00  0.89235884132E+03  0.89235884133E+03  0.25500000920E-02 0. -1.
       -2   -1    0    0    0  501  0.00000000000E+00  0.00000000000E+00 -0.17794200364E+04  0.17794200364E+04  0.25500000920E-02 0.  1.
    10030    2    1    2    0    0  0.00000000000E+00  0.00000000000E+00 -0.88706119506E+03  0.26717788777E+04  0.25202231662E+04 0.  0.
        2    1    3    3  502    0  0.97232148628E+02  0.44011377207E+03  0.80397812143E+03  0.92170225281E+03  0.25500000920E-02 0. -1.
       -2    1    3    3    0  502 -0.97232148628E+02 -0.44011377207E+03 -0.16910393165E+04  0.17500766249E+04  0.25500000920E-02 0.  1.
</event>
<event>
 5   0  0.1451052E-05  0.2367037E+04  0.7818609E-02  0.8451948E-01
       -1   -1    0    0    0  501  0.00000000000E+00  0.00000000000E+00  0.54254207781E+03  0.54254207783E+03  0.50400001928E-02 0.  1.
        1   -1    0    0  501    0  0.00000000000E+00  0.00000000000E+00 -0.25817656448E+04  0.25817656448E+04  0.50400001928E-02 0. -1.
    10030    2    1    2    0    0  0.00000000000E+00  0.00000000000E+00 -0.20392235670E+04  0.31243077227E+04  0.23670373866E+04 0.  0.
        1    1    3    3  502    0 -0.96143387520E+03  0.61807485775E+03 -0.14250342699E+04  0.18267715502E+04  0.50400001928E-02 0.  1.
       -1    1    3    3    0  502  0.96143387520E+03 -0.61807485775E+03 -0.61418929712E+03  0.12975361725E+04  0.50400001928E-02 0. -1.
</event>
<event>
 5   0  0.3499642E-05  0.2606935E+04  0.7818609E-02  0.8365849E-01
        2   -1    0    0  501    0  0.00000000000E+00  0.00000000000E+00  0.13429537090E+04  0.13429537090E+04  0.25500000920E-02 0. -1.
       -2   -1    0    0    0  501  0.00000000000E+00  0.00000000000E+00 -0.12651423161E+04  0.12651423161E+04  0.25500000920E-02 0.  1.
    10030    2    1    2    0    0  0.00000000000E+00  0.00000000000E+00  0.77811392904E+02  0.26080960251E+04  0.26069350324E+04 0.  0.
        2    1    3    3  502    0 -0.31196243222E+03  0.92603594548E+03 -0.82412814173E+03  0.12782997792E+04  0.25500000920E-02 0.  1.
       -2    1    3    3    0  502  0.31196243222E+03 -0.92603594548E+03  0.90193953464E+03  0.13297962459E+04  0.25500000920E-02 0. -1.
</event>
<event>
 5   0  0.1435062E-05  0.1700036E+04  0.7818609E-02  0.8761344E-01
        1   -1    0    0  501    0  0.00000000000E+00  0.00000000000E+00  0.62042009865E+03  0.62042009867E+03  0.50400001928E-02 0.  1.
       -1   -1    0    0    0  501  0.00000000000E+00  0.00000000000E+00 -0.11645829158E+04  0.11645829158E+04  0.50400001928E-02 0. -1.
    10030    2    1    2    0    0  0.00000000000E+00  0.00000000000E+00 -0.54416281716E+03  0.17850030145E+04  0.17000360555E+04 0.  0.
        2    1    3    3  502    0  0.22648955978E+03 -0.20352786194E+03  0.56118799927E+03  0.63847715840E+03  0.25500000920E-02 0.  1.
       -2    1    3    3    0  502 -0.22648955978E+03  0.20352786194E+03 -0.11053508164E+04  0.11465258561E+04  0.25500000920E-02 0. -1.
</event>
<event>
 5   0  0.1451052E-05  0.2587361E+04  0.7818609E-02  0.8372507E-01
       -1   -1    0    0    0  501  0.00000000000E+00  0.00000000000E+00  0.86825251516E+03  0.86825251517E+03  0.50400001928E-02 0.  1.
        1   -1    0    0  501    0  0.00000000000E+00  0.00000000000E+00 -0.19275602638E+04  0.19275602638E+04  0.50400001928E-02 0. -1.
    10030    2    1    2    0    0  0.00000000000E+00  0.00000000000E+00 -0.10593077486E+04  0.27958127789E+04  0.25873608540E+04 0.  0.
        1    1    3    3  502    0  0.39384943057E+03  0.50196481053E+03  0.68641346175E+03  0.93714966012E+03  0.50400001928E-02 0.  1.
       -1    1    3    3    0  502 -0.39384943057E+03 -0.50196481053E+03 -0.17457212103E+04  0.18586631188E+04  0.50400001928E-02 0. -1.
</event>
<event>
 5   0  0.3849687E-05  0.2574991E+04  0.7818609E-02  0.8376746E-01
       -2   -1    0    0    0  501  0.00000000000E+00  0.00000000000E+00  0.58188459030E+03  0.58188459030E+03  0.25500000920E-02 0. -1.
        2   -1    0    0  501    0  0.00000000000E+00  0.00000000000E+00 -0.28487512121E+04  0.28487512121E+04  0.25500000920E-02 0.  1.
    10030    2    1    2    0    0  0.00000000000E+00  0.00000000000E+00 -0.22668666218E+04  0.34306358024E+04  0.25749908209E+04 0.  0.
        1    1    3    3  502    0 -0.90238200608E+03 -0.91763628690E+03 -0.10854932117E+04  0.16836404463E+04  0.50400001928E-02 0.  1.
       -1    1    3    3    0  502  0.90238200608E+03  0.91763628690E+03 -0.11813734102E+04  0.17469953561E+04  0.50400001928E-02 0. -1.
</event>
<event>
 5   0  0.3499642E-05  0.2256105E+04  0.7818609E-02  0.8495432E-01
        2   -1    0    0  501    0  0.00000000000E+00  0.00000000000E+00  0.12392045113E+04  0.12392045113E+04  0.25500000920E-02 0. -1.
       -2   -1    0    0    0  501  0.00000000000E+00  0.00000000000E+00 -0.10268700468E+04  0.10268700468E+04  0.25500000920E-02 0.  1.
    10030    2    1    2    0    0  0.00000000000E+00  0.00000000000E+00  0.21233446444E+03  0.22660745581E+04  0.22561046026E+04 0.  0.
        2    1    3    3  502    0  0.59606138662E+03 -0.37876137276E+03 -0.77735205655E+03  0.10502502435E+04  0.25500000920E-02 0.  1.
       -2    1    3    3    0  502 -0.59606138662E+03  0.37876137276E+03  0.98968652099E+03  0.12158243146E+04  0.25500000920E-02 0. -1.
</event>
<event>
 5   0  0.1451052E-05  0.2502406E+04  0.7818609E-02  0.8402129E-01
        1   -1    0    0  501    0  0.00000000000E+00  0.00000000000E+00  0.10978921654E+04  0.10978921654E+04  0.50400001928E-02 0.  1.
       -1   -1    0    0    0  501  0.00000000000E+00  0.00000000000E+00 -0.14259218363E+04  0.14259218363E+04  0.50400001928E-02 0. -1.
    10030    2    1    2    0    0  0.00000000000E+00  0.00000000000E+00 -0.32802967089E+03  0.25238140018E+04  0.25024055728E+04 0.  0.
        1    1    3    3  502    0 -0.10517421031E+04 -0.19753002380E+03  0.48985943308E+03  0.11769204841E+04  0.50400001928E-02 0.  1.
       -1    1    3    3    0  502  0.10517421031E+04  0.19753002380E+03 -0.81788910397E+03  0.13468935177E+04  0.50400001928E-02 0. -1.
</event>
<event>
 5   0  0.1435062E-05  0.2568507E+04  0.7818609E-02  0.8378978E-01
       -1   -1    0    0    0  501  0.00000000000E+00  0.00000000000E+00  0.11659416863E+04  0.11659416863E+04  0.50400001928E-02 0.  1.
        1   -1    0    0  501    0  0.00000000000E+00  0.00000000000E+00 -0.14145712405E+04  0.14145712405E+04  0.50400001928E-02 0. -1.
    10030    2    1    2    0    0  0.00000000000E+00  0.00000000000E+00 -0.24862955418E+03  0.25805129268E+04  0.25685074090E+04 0.  0.
        2    1    3    3  502    0  0.77310073808E+03  0.37356871576E+02  0.90528126837E+03  0.11910560280E+04  0.25500000920E-02 0.  1.
       -2    1    3    3    0  502 -0.77310073808E+03 -0.37356871576E+02 -0.11539108225E+04  0.13894568987E+04  0.25500000920E-02 0. -1.
</event>
<event>
 5   0  0.3849687E-05  0.2585327E+04  0.7818609E-02  0.8373203E-01
        2   -1    0    0  501    0  0.00000000000E+00  0.00000000000E+00  0.52636886885E+03  0.52636886885E+03  0.25500000920E-02 0.  1.
       -2   -1    0    0    0  501  0.00000000000E+00  0.00000000000E+00 -0.31745390842E+04  0.31745390842E+04  0.25500000920E-02 0. -1.
    10030    2    1    2    0    0  0.00000000000E+00  0.00000000000E+00 -0.26481702153E+04  0.37009079530E+04  0.25853267081E+04 0.  0.
        1    1    3    3  502    0  0.39014484745E+03 -0.12307343176E+04 -0.14152820202E+04  0.19157095707E+04  0.50400001928E-02 0. -1.
       -1    1    3    3    0  502 -0.39014484745E+03  0.12307343176E+04 -0.12328881951E+04  0.17851983823E+04  0.50400001928E-02 0.  1.
</event>
<event>
 5   0  0.1435062E-05  0.2600958E+04  0.7818609E-02  0.8367876E-01
       -1   -1    0    0    0  501  0.00000000000E+00  0.00000000000E+00  0.17455307866E+04  0.17455307866E+04  0.50400001928E-02 0. -1.
        1   -1    0    0  501    0  0.00000000000E+00  0.00000000000E+00 -0.96890041074E+03  0.96890041076E+03  0.50400001928E-02 0.  1.
    10030    2    1    2    0    0  0.00000000000E+00  0.00000000000E+00  0.77663037589E+03  0.27144311974E+04  0.26009578975E+04 0.  0.
        2    1    3    3  502    0  0.10311650579E+04 -0.71911550177E+03  0.73573032673E+03  0.14566151157E+04  0.25500000920E-02 0. -1.
       -2    1    3    3    0  502 -0.10311650579E+04  0.71911550177E+03  0.40900049158E+02  0.12578160817E+04  0.25500000920E-02 0.  1.
</event>
<event>
 5   0  0.1497497E-05  0.2643737E+04  0.7818609E-02  0.8353495E-01
       -1   -1    0    0    0  501  0.00000000000E+00  0.00000000000E+00  0.13000230983E+04  0.13000230983E+04  0.50400001928E-02 0.  1.
        1   -1    0    0  501    0  0.00000000000E+00  0.00000000000E+00 -0.13440812930E+04  0.13440812930E+04  0.50400001928E-02 0. -1.
    10030    2    1    2    0    0  0.00000000000E+00  0.00000000000E+00 -0.44058194697E+02  0.26441043913E+04  0.26437372992E+04 0.  0.
        3    1    3    3  502    0 -0.37138019129E+03  0.15199613009E+03 -0.12816922295E+04  0.13430417162E+04  0.10100000352E+00 0. -1.
       -3    1    3    3    0  502  0.37138019129E+03 -0.15199613009E+03  0.12376340348E+04  0.13010626750E+04  0.10100000352E+00 0.  1.
</event>
<event>
 5   0  0.3441646E-05  0.2633217E+04  0.7818609E-02  0.8357005E-01
        2   -1    0    0  501    0  0.00000000000E+00  0.00000000000E+00  0.99151835708E+03  0.99151835709E+03  0.25500000920E-02 0.  1.
       -2   -1    0    0    0  501  0.00000000000E+00  0.00000000000E+00 -0.17482866222E+04  0.17482866222E+04  0.25500000920E-02 0. -1.
    10030    2    1    2    0    0  0.00000000000E+00  0.00000000000E+00 -0.75676826514E+03  0.27398049793E+04  0.26332172560E+04 0.  0.
        4    1    3    3  502    0 -0.15305272323E+03 -0.11707701437E+03  0.97676604359E+03  0.99559312984E+03  0.12699999809E+01 0.  1.
       -4    1    3    3    0  502  0.15305272323E+03  0.11707701437E+03 -0.17335343087E+04  0.17442118495E+04  0.12699999809E+01 0. -1.
</event>
<event>
 5   0  0.3441646E-05  0.2605782E+04  0.7818609E-02  0.8366240E-01
        2   -1    0    0  501    0  0.00000000000E+00  0.00000000000E+00  0.20100363567E+04  0.20100363567E+04  0.25500000920E-02 0. -1.
       -2   -1    0    0    0  501  0.00000000000E+00  0.00000000000E+00 -0.84452468096E+03  0.84452468097E+03  0.25500000920E-02 0.  1.
    10030    2    1    2    0    0  0.00000000000E+00  0.00000000000E+00  0.11655116757E+04  0.28545610376E+04  0.26057822724E+04 0.  0.
        4    1    3    3  502    0  0.23624295599E+03  0.80997183156E+03  0.16703439849E+04  0.18713406272E+04  0.12699999809E+01 0. -1.
       -4    1    3    3    0  502 -0.23624295599E+03 -0.80997183156E+03 -0.50483230921E+03  0.98322041044E+03  0.12699999809E+01 0.  1.
</event>
<event>
 5   0  0.3441646E-05  0.2641288E+04  0.7818609E-02  0.8354310E-01
       -2   -1    0    0    0  501  0.00000000000E+00  0.00000000000E+00  0.13829020711E+04  0.13829020711E+04  0.25500000920E-02 0. -1.
        2   -1    0    0  501    0  0.00000000000E+00  0.00000000000E+00 -0.12611885473E+04  0.12611885473E+04  0.25500000920E-02 0.  1.
    10030    2    1    2    0    0  0.00000000000E+00  0.00000000000E+00  0.12171352379E+03  0.26440906185E+04  0.26412877573E+04 0.  0.
        4    1    3    3  502    0 -0.37088455460E+03 -0.35231131166E+03  0.12796955139E+04  0.13781512378E+04  0.12699999809E+01 0. -1.
       -4    1    3    3    0  502  0.37088455460E+03  0.35231131166E+03 -0.11579819901E+04  0.12659393806E+04  0.12699999809E+01 0.  1.
</event>
<event>
 5   0  0.3647623E-05  0.2592510E+04  0.7818609E-02  0.8370750E-01
       -2   -1    0    0    0  501  0.00000000000E+00  0.00000000000E+00  0.68883121873E+03  0.68883121874E+03  0.25500000920E-02 0. -1.
        2   -1    0    0  501    0  0.00000000000E+00  0.00000000000E+00 -0.24393165139E+04  0.24393165139E+04  0.25500000920E-02 0.  1.
    10030    2    1    2    0    0  0.00000000000E+00  0.00000000000E+00 -0.17504852952E+04  0.31281477327E+04  0.25925102640E+04 0.  0.
        3    1    3    3  502    0  0.12359084552E+04 -0.25087148013E+03 -0.51351898899E+03  0.13616563338E+04  0.10100000352E+00 0.  1.
       -3    1    3    3    0  502 -0.12359084552E+04  0.25087148013E+03 -0.12369663062E+04  0.17664913988E+04  0.10100000352E+00 0. -1.
</event>
<event>
 5   0  0.1451052E-05  0.2089352E+04  0.7818609E-02  0.8565949E-01
        1   -1    0    0  501    0  0.00000000000E+00  0.00000000000E+00  0.12829985109E+04  0.12829985109E+04  0.50400001928E-02 0.  1.
       -1   -1    0    0    0  501  0.00000000000E+00  0.00000000000E+00 -0.85062282498E+03  0.85062282499E+03  0.50400001928E-02 0. -1.
    10030    2    1    2    0    0  0.00000000000E+00  0.00000000000E+00  0.43237568594E+03  0.21336213359E+04  0.20893518783E+04 0.  0.
        1    1    3    3  502    0 -0.46245955499E+03  0.46160511485E+03 -0.61618992132E+03  0.89813035869E+03  0.50400001928E-02 0. -1.
       -1    1    3    3    0  502  0.46245955499E+03 -0.46160511485E+03  0.10485656073E+04  0.12354909772E+04  0.50400001928E-02 0.  1.
</event>
<event>
 5   0  0.3499642E-05  0.2561076E+04  0.7818609E-02  0.8381544E-01
        2   -1    0    0  501    0  0.00000000000E+00  0.00000000000E+00  0.18891858073E+04  0.18891858073E+04  0.25500000920E-02 0.  1.
       -2   -1    0    0    0  501  0.00000000000E+00  0.00000000000E+00 -0.86798080513E+03  0.86798080514E+03  0.25500000920E-02 0. -1.
    10030    2    1    2    0    0  0.00000000000E+00  0.00000000000E+00  0.10212050022E+04  0.27571666125E+04  0.25610755695E+04 0.  0.
        2    1    3    3  502    0  0.34289698458E+03  0.11877507328E+04  0.86999959492E+03  0.15116975360E+04  0.25500000920E-02 0.  1.
       -2    1    3    3    0  502 -0.34289698458E+03 -0.11877507328E+04  0.15120540729E+03  0.12454690765E+04  0.25500000920E-02 0. -1.
</event>
<event>
 5   0  0.3849687E-05  0.2472523E+04  0.7818609E-02  0.8412840E-01
        2   -1    0    0  501    0  0.00000000000E+00  0.00000000000E+00  0.15748459523E+04  0.15748459523E+04  0.25500000920E-02 0.  1.
       -2   -1    0    0    0  501  0.00000000000E+00  0.00000000000E+00 -0.97047080536E+03  0.97047080536E+03  0.25500000920E-02 0. -1.
    10030    2    1    2    0    0  0.00000000000E+00  0.00000000000E+00  0.60437514696E+03  0.25453167577E+04  0.24725226144E+04 0.  0.
        1    1    3    3  502    0 -0.12916974894E+03 -0.50330837887E+03 -0.85259493785E+03  0.99845995230E+03  0.50400001928E-02 0. -1.
       -1    1    3    3    0  502  0.12916974894E+03  0.50330837887E+03  0.14569700848E+04  0.15468568054E+04  0.50400001928E-02 0.  1.
</event>
<event>
 5   0  0.1435062E-05  0.2602837E+04  0.7818609E-02  0.8367238E-01
        1   -1    0    0  501    0  0.00000000000E+00  0.00000000000E+00  0.29196247807E+04  0.29196247807E+04  0.50400001928E-02 0.  1.
       -1   -1    0    0    0  501  0.00000000000E+00  0.00000000000E+00 -0.58010537878E+03  0.58010537880E+03  0.50400001928E-02 0. -1.
    10030    2    1    2    0    0  0.00000000000E+00  0.00000000000E+00  0.23395194019E+04  0.34997301595E+04  0.26028369441E+04 0.  0.
        2    1    3    3  502    0  0.19520153327E+03 -0.12631956934E+04  0.84061677929E+03  0.15298377587E+04  0.25500000920E-02 0.  1.
       -2    1    3    3    0  502 -0.19520153327E+03  0.12631956934E+04  0.14989026227E+04  0.19698924008E+04  0.25500000920E-02 0. -1.
</event>
<event>
 5   0  0.1435062E-05  0.2568522E+04  0.7818609E-02  0.8378973E-01
        1   -1    0    0  501    0  0.00000000000E+00  0.00000000000E+00  0.68360858863E+03  0.68360858864E+03  0.50400001928E-02 0. -1.
       -1   -1    0    0    0  501  0.00000000000E+00  0.00000000000E+00 -0.24126756424E+04  0.24126756425E+04  0.50400001928E-02 0.  1.
    10030    2    1    2    0    0  0.00000000000E+00  0.00000000000E+00 -0.17290670538E+04  0.30962842311E+04  0.25685215909E+04 0.  0.
        2    1    3    3  502    0  0.11068184248E+04 -0.42257681595E+02 -0.80982314943E+02  0.11105813219E+04  0.25500000920E-02 0. -1.
       -2    1    3    3    0  502 -0.11068184248E+04  0.42257681595E+02 -0.16480847389E+04  0.19857029092E+04  0.25500000920E-02 0.  1.
</event>
<event>
 5   0  0.3441646E-05  0.2628159E+04  0.7818609E-02  0.8358699E-01
        2   -1    0    0  501    0  0.00000000000E+00  0.00000000000E+00  0.19813478089E+04  0.19813478089E+04  0.25500000920E-02 0. -1.
       -2   -1    0    0    0  501  0.00000000000E+00  0.00000000000E+00 -0.87153054043E+03  0.87153054043E+03  0.25500000920E-02 0.  1.
    10030    2    1    2    0    0  0.00000000000E+00  0.00000000000E+00  0.11098172684E+04  0.28528783493E+04  0.26281591479E+04 0.  0.
        4    1    3    3  502    0  0.64127655798E+03 -0.54523002298E+03  0.16502961390E+04  0.18525631868E+04  0.12699999809E+01 0. -1.
       -4    1    3    3    0  502 -0.64127655798E+03  0.54523002298E+03 -0.54047887061E+03  0.10003151625E+04  0.12699999809E+01 0.  1.
</event>
<event>
 5   0  0.3441646E-05  0.1839592E+04  0.7818609E-02  0.8685524E-01
        2   -1    0    0  501    0  0.00000000000E+00  0.00000000000E+00  0.12879354619E+04  0.12879354619E+04  0.25500000920E-02 0. -1.
       -2   -1    0    0    0  501  0.00000000000E+00  0.00000000000E+00 -0.65688456527E+03  0.65688456527E+03  0.25500000920E-02 0.  1.
    10030    2    1    2    0    0  0.00000000000E+00  0.00000000000E+00  0.63105089662E+03  0.19448200272E+04  0.18395922657E+04 0.  0.
        4    1    3    3  502    0 -0.14818710176E+03  0.86519743994E+03  0.60601031542E+03  0.10666659001E+04  0.12699999809E+01 0.  1.
       -4    1    3    3    0  502  0.14818710176E+03 -0.86519743994E+03  0.25040581199E+02  0.87815412703E+03  0.12699999809E+01 0. -1.
</event>
<event>
 5   0  0.3441646E-05  0.2560430E+04  0.7818609E-02  0.8381768E-01
       -2   -1    0    0    0  501  0.00000000000E+00  0.00000000000E+00  0.94959171548E+03  0.94959171548E+03  0.25500000920E-02 0.  1.
        2   -1    0    0  501    0  0.00000000000E+00  0.00000000000E+00 -0.17259523872E+04  0.17259523872E+04  0.25500000920E-02 0. -1.
    10030    2    1    2    0    0  0.00000000000E+00  0.00000000000E+00 -0.77636067173E+03  0.26755441027E+04  0.25604297204E+04 0.  0.
        4    1    3    3  502    0 -0.21236147417E+03  0.11623971893E+04 -0.90295800141E+03  0.14871447093E+04  0.12699999809E+01 0. -1.
       -4    1    3    3    0  502  0.21236147417E+03 -0.11623971893E+04  0.12659732968E+03  0.11883993933E+04  0.12699999809E+01 0.  1.
</event>
<event>
 5   0  0.1497497E-05  0.2581161E+04  0.7818609E-02  0.8374629E-01
        1   -1    0    0  501    0  0.00000000000E+00  0.00000000000E+00  0.11601054205E+04  0.11601054205E+04  0.50400001928E-02 0.  1.
       -1   -1    0    0    0  501  0.00000000000E+00  0.00000000000E+00 -0.14357293444E+04  0.14357293444E+04  0.50400001928E-02 0. -1.
    10030    2    1    2    0    0  0.00000000000E+00  0.00000000000E+00 -0.27562392392E+03  0.25958347649E+04  0.25811605102E+04 0.  0.
        3    1    3    3  502    0  0.30979709006E+03  0.95169119086E+03  0.68162521654E+03  0.12109101147E+04  0.10100000352E+00 0.  1.
       -3    1    3    3    0  502 -0.30979709006E+03 -0.95169119086E+03 -0.95724914046E+03  0.13849246503E+04  0.10100000352E+00 0. -1.
</event>
<event>
 5   0  0.1474554E-05  0.2269831E+04  0.7818609E-02  0.8489912E-01
        1   -1    0    0  501    0  0.00000000000E+00  0.00000000000E+00  0.12453808736E+04  0.12453808736E+04  0.50400001928E-02 0. -1.
       -1   -1    0    0    0  501  0.00000000000E+00  0.00000000000E+00 -0.10342483344E+04  0.10342483344E+04  0.50400001928E-02 0.  1.
    10030    2    1    2    0    0  0.00000000000E+00  0.00000000000E+00  0.21113253918E+03  0.22796292081E+04  0.22698309138E+04 0.  0.
        5    1    3    3  502    0 -0.59909196739E+03  0.23907829678E+03 -0.83224263537E+03  0.10529575070E+04  0.46999998093E+01 0.  1.
       -5    1    3    3    0  502  0.59909196739E+03 -0.23907829678E+03  0.10433751745E+04  0.12266717011E+04  0.46999998093E+01 0. -1.
</event>
<event>
 5   0  0.3499642E-05  0.2706252E+04  0.7818609E-02  0.8332979E-01
        2   -1    0    0  501    0  0.00000000000E+00  0.00000000000E+00  0.24879740035E+04  0.24879740035E+04  0.25500000920E-02 0. -1.
       -2   -1    0    0    0  501  0.00000000000E+00  0.00000000000E+00 -0.73592029088E+03  0.73592029088E+03  0.25500000920E-02 0.  1.
    10030    2    1    2    0    0  0.00000000000E+00  0.00000000000E+00  0.17520537126E+04  0.32238942944E+04  0.27062524290E+04 0.  0.
        2    1    3    3  502    0  0.11995131024E+04  0.16366258917E+03  0.15598590804E+03  0.12206345602E+04  0.25500000920E-02 0.  1.
       -2    1    3    3    0  502 -0.11995131024E+04 -0.16366258917E+03  0.15960678046E+04  0.20032597342E+04  0.25500000920E-02 0. -1.
</event>
<event>
 5   0  0.1435062E-05  0.2604449E+04  0.7818609E-02  0.8366692E-01
        1   -1    0    0  501    0  0.00000000000E+00  0.00000000000E+00  0.13826789553E+04  0.13826789553E+04  0.50400001928E-02 0. -1.
       -1   -1    0    0    0  501  0.00000000000E+00  0.00000000000E+00 -0.12264510491E+04  0.12264510492E+04  0.50400001928E-02 0.  1.
    10030    2    1    2    0    0  0.00000000000E+00  0.00000000000E+00  0.15622790615E+03  0.26091300044E+04  0.26044485446E+04 0.  0.
        2    1    3    3  502    0 -0.59719045896E+03 -0.87542579565E+03 -0.68006958061E+03  0.12591669478E+04  0.25500000920E-02 0. -1.
       -2    1    3    3    0  502  0.59719045896E+03  0.87542579565E+03  0.83629748676E+03  0.13499630566E+04  0.25500000920E-02 0.  1.
</event>
<event>
 5   0  0.1435062E-05  0.2571949E+04  0.7818609E-02  0.8377792E-01
        1   -1    0    0  501    0  0.00000000000E+00  0.00000000000E+00  0.33897093083E+04  0.33897093083E+04  0.50400001928E-02 0. -1.
       -1   -1    0    0    0  501  0.00000000000E+00  0.00000000000E+00 -0.48786784655E+03  0.48786784657E+03  0.50400001928E-02 0.  1.
    10030    2    1    2    0    0  0.00000000000E+00  0.00000000000E+00  0.29018414617E+04  0.38775771548E+04  0.25719488181E+04 0.  0.
        2    1    3    3  502    0  0.12201554801E+04 -0.30599224652E+03  0.10482942241E+04  0.16374771543E+04  0.25500000920E-02 0.  1.
       -2    1    3    3    0  502 -0.12201554801E+04  0.30599224652E+03  0.18535472376E+04  0.22401000006E+04  0.25500000920E-02 0. -1.
</event>
<event>
 5   0  0.1451052E-05  0.2640146E+04  0.7818609E-02  0.8354691E-01
       -1   -1    0    0    0  501  0.00000000000E+00  0.00000000000E+00  0.10418233978E+04  0.10418233978E+04  0.50400001928E-02 0.  1.
        1   -1    0    0  501    0  0.00000000000E+00  0.00000000000E+00 -0.16726376511E+04  0.16726376511E+04  0.50400001928E-02 0. -1.
    10030    2    1    2    0    0  0.00000000000E+00  0.00000000000E+00 -0.63081425333E+03  0.27144610489E+04  0.26401462391E+04 0.  0.
        1    1    3    3  502    0  0.77992004280E+03  0.10649713223E+04 -0.32815991491E+03  0.13601941480E+04  0.50400001928E-02 0.  1.
       -1    1    3    3    0  502 -0.77992004280E+03 -0.10649713223E+04 -0.30265433842E+03  0.13542669009E+04  0.50400001928E-02 0. -1.
</event>
<event>
 5   0  0.3499642E-05  0.2587248E+04  0.7818609E-02  0.8372546E-01
        2   -1    0    0  501    0  0.00000000000E+00  0.00000000000E+00  0.11769907231E+04  0.11769907231E+04  0.25500000920E-02 0.  1.
       -2   -1    0    0    0  501  0.00000000000E+00  0.00000000000E+00 -0.14218146286E+04  0.14218146286E+04  0.25500000920E-02 0. -1.
    10030    2    1    2    0    0  0.00000000000E+00  0.00000000000E+00 -0.24482390549E+03  0.25988053517E+04  0.25872476710E+04 0.  0.
        2    1    3    3  502    0 -0.81238085038E+02 -0.64161379488E+03 -0.12477715085E+04  0.14054186656E+04  0.25500000920E-02 0. -1.
       -2    1    3    3    0  502  0.81238085038E+02  0.64161379488E+03  0.10029476030E+04  0.11933866861E+04  0.25500000920E-02 0.  1.
</event>
<event>
 5   0  0.3441646E-05  0.2611832E+04  0.7818609E-02  0.8364193E-01
        2   -1    0    0  501    0  0.00000000000E+00  0.00000000000E+00  0.22812891334E+04  0.22812891334E+04  0.25500000920E-02 0.  1.
       -2   -1    0    0    0  501  0.00000000000E+00  0.00000000000E+00 -0.74756684067E+03  0.74756684068E+03  0.25500000920E-02 0. -1.
    10030    2    1    2    0    0  0.00000000000E+00  0.00000000000E+00  0.15337222927E+04  0.30288559740E+04  0.26118316256E+04 0.  0.
        4    1    3    3  502    0 -0.91014812452E+03 -0.69210552179E+03  0.35226964362E+02  0.11439502672E+04  0.12699999809E+01 0.  1.
       -4    1    3    3    0  502  0.91014812452E+03  0.69210552179E+03  0.14984953283E+04  0.18849057069E+04  0.12699999809E+01 0. -1.
</event>
<event>
 5   0  0.1451052E-05  0.2786425E+04  0.7818609E-02  0.8307495E-01
        1   -1    0    0  501    0  0.00000000000E+00  0.00000000000E+00  0.17143624120E+04  0.17143624120E+04  0.50400001928E-02 0. -1.
       -1   -1    0    0    0  501  0.00000000000E+00  0.00000000000E+00 -0.11322235071E+04  0.11322235071E+04  0.50400001928E-02 0.  1.
    10030    2    1    2    0    0  0.00000000000E+00  0.00000000000E+00  0.58213890497E+03  0.28465859191E+04  0.27864252529E+04 0.  0.
        1    1    3    3  502    0 -0.41177336207E+03  0.11430612226E+04  0.98762284662E+03  0.15657410857E+04  0.50400001928E-02 0. -1.
       -1    1    3    3    0  502  0.41177336207E+03 -0.11430612226E+04 -0.40548394165E+03  0.12808448334E+04  0.50400001928E-02 0.  1.
</event>
<event>
 5   0  0.3849687E-05  0.2469472E+04  0.7818609E-02  0.8413943E-01
        2   -1    0    0  501    0  0.00000000000E+00  0.00000000000E+00  0.12567552195E+04  0.12567552196E+04  0.25500000920E-02 0.  1.
       -2   -1    0    0    0  501  0.00000000000E+00  0.00000000000E+00 -0.12131026765E+04  0.12131026765E+04  0.25500000920E-02 0. -1.
    10030    2    1    2    0    0  0.00000000000E+00  0.00000000000E+00  0.43652543015E+02  0.24698578961E+04  0.24694721060E+04 0.  0.
        1    1    3    3  502    0 -0.10111436804E+04  0.29310887568E+03 -0.62344795799E+03  0.12235242996E+04  0.50400001928E-02 0. -1.
       -1    1    3    3    0  502  0.10111436804E+04 -0.29310887568E+03  0.66710050101E+03  0.12463335965E+04  0.50400001928E-02 0.  1.
</event>
<event>
 5   0  0.1435062E-05  0.2039128E+04  0.7818609E-02  0.8588542E-01
        1   -1    0    0  501    0  0.00000000000E+00  0.00000000000E+00  0.19575074025E+04  0.19575074025E+04  0.50400001928E-02 0.  1.
       -1   -1    0    0    0  501  0.00000000000E+00  0.00000000000E+00 -0.53103799343E+03  0.53103799345E+03  0.50400001928E-02 0. -1.
    10030    2    1    2    0    0  0.00000000000E+00  0.00000000000E+00  0.14264694090E+04  0.24885453959E+04  0.20391280520E+04 0.  0.
        2    1    3    3  502    0  0.31805792906E+03 -0.85330802482E+03  0.15369191541E+03  0.92353485929E+03  0.25500000920E-02 0. -1.
       -2    1    3    3    0  502 -0.31805792906E+03  0.85330802482E+03  0.12727774936E+04  0.15650105366E+04  0.25500000920E-02 0.  1.
</event>
<event>
 5   0  0.1451052E-05  0.2654617E+04  0.7818609E-02  0.8349882E-01
        1   -1    0    0  501    0  0.00000000000E+00  0.00000000000E+00  0.18883337145E+04  0.18883337145E+04  0.50400001928E-02 0.  1.
       -1   -1    0    0    0  501  0.00000000000E+00  0.00000000000E+00 -0.93296411574E+03  0.93296411576E+03  0.50400001928E-02 0. -1.
    10030    2    1    2    0    0  0.00000000000E+00  0.00000000000E+00  0.95536959878E+03  0.28212978303E+04  0.26546168042E+04 0.  0.
        1    1    3    3  502    0 -0.63299141666E+03  0.34555229443E+03  0.16619500285E+04  0.18116739273E+04  0.50400001928E-02 0.  1.
       -1    1    3    3    0  502  0.63299141666E+03 -0.34555229443E+03 -0.70658042971E+03  0.10096239030E+04  0.50400001928E-02 0. -1.
</event>
<event>
 5   0  0.1497497E-05  0.2665676E+04  0.7818609E-02  0.8346228E-01
        1   -1    0    0  501    0  0.00000000000E+00  0.00000000000E+00  0.14170126767E+04  0.14170126768E+04  0.50400001928E-02 0.  1.
       -1   -1    0    0    0  501  0.00000000000E+00  0.00000000000E+00 -0.12536637736E+04  0.12536637736E+04  0.50400001928E-02 0. -1.
    10030    2    1    2    0    0  0.00000000000E+00  0.00000000000E+00  0.16334890312E+03  0.26706764504E+04  0.26656762441E+04 0.  0.
        3    1    3    3  502    0  0.12455782850E+04  0.46529225557E+03 -0.10668401850E+02  0.13296901791E+04  0.10100000352E+00 0. -1.
       -3    1    3    3    0  502 -0.12455782850E+04 -0.46529225557E+03  0.17401730498E+03  0.13409862713E+04  0.10100000352E+00 0.  1.
</event>
<event>
 5   0  0.1451052E-05  0.2592200E+04  0.7818609E-02  0.8370855E-01
       -1   -1    0    0    0  501  0.00000000000E+00  0.00000000000E+00  0.11010754310E+04  0.11010754310E+04  0.50400001928E-02 0. -1.
        1   -1    0    0  501    0  0.00000000000E+00  0.00000000000E+00 -0.15256678775E+04  0.15256678775E+04  0.50400001928E-02 0.  1.
    10030    2    1    2    0    0  0.00000000000E+00  0.00000000000E+00 -0.42459244645E+03  0.26267433085E+04  0.25922001588E+04 0.  0.
        1    1    3    3  502    0  0.34290511883E+03  0.57602172313E+03  0.91176050345E+03  0.11316767037E+04  0.50400001928E-02 0. -1.
       -1    1    3    3    0  502 -0.34290511883E+03 -0.57602172313E+03 -0.13363529499E+04  0.14950666048E+04  0.50400001928E-02 0.  1.
</event>
<event>
 5   0  0.1451052E-05  0.2421125E+04  0.7818609E-02  0.8431637E-01
       -1   -1    0    0    0  501  0.00000000000E+00  0.00000000000E+00  0.12350275640E+04  0.12350275640E+04  0.50400001928E-02 0. -1.
        1   -1    0    0  501    0  0.00000000000E+00  0.00000000000E+00 -0.11865825127E+04  0.11865825127E+04  0.50400001928E-02 0.  1.
    10030    2    1    2    0    0  0.00000000000E+00  0.00000000000E+00  0.48445051322E+02  0.24216100767E+04  0.24211254492E+04 0.  0.
        1    1    3    3  502    0 -0.22974315879E+02 -0.21380073569E+03 -0.11673276220E+04  0.11869677127E+04  0.50400001928E-02 0.  1.
       -1    1    3    3    0  502  0.22974315879E+02  0.21380073569E+03  0.12157726733E+04  0.12346423640E+04  0.50400001928E-02 0. -1.
</event>
<event>
 5   0  0.1435062E-05  0.2592861E+04  0.7818609E-02  0.8370630E-01
       -1   -1    0    0    0  501  0.00000000000E+00  0.00000000000E+00  0.10479682996E+04  0.10479682996E+04  0.50400001928E-02 0. -1.
        1   -1    0    0  501    0  0.00000000000E+00  0.00000000000E+00 -0.16038006592E+04  0.16038006592E+04  0.50400001928E-02 0.  1.
    10030    2    1    2    0    0  0.00000000000E+00  0.00000000000E+00 -0.55583235959E+03  0.26517689588E+04  0.25928611608E+04 0.  0.
        2    1    3    3  502    0 -0.10426142932E+03  0.10269643047E+04 -0.10800867859E+04  0.14940259683E+04  0.25500000920E-02 0. -1.
       -2    1    3    3    0  502  0.10426142932E+03 -0.10269643047E+04  0.52425442630E+03  0.11577429906E+04  0.25500000920E-02 0.  1.
</event>
<event>
 5   0  0.1451052E-05  0.2556949E+04  0.7818609E-02  0.8382973E-01
       -1   -1    0    0    0  501  0.00000000000E+00  0.00000000000E+00  0.62271573760E+03  0.62271573762E+03  0.50400001928E-02 0. -1.
        1   -1    0    0  501    0  0.00000000000E+00  0.00000000000E+00 -0.26247886140E+04  0.26247886140E+04  0.50400001928E-02 0.  1.
    10030    2    1    2    0    0  0.00000000000E+00  0.00000000000E+00 -0.20020728764E+04  0.32475043516E+04  0.25569491022E+04 0.  0.
        1    1    3    3  502    0  0.58790319808E+03  0.11279632075E+04 -0.83756698187E+03  0.15229739384E+04  0.50400001928E-02 0. -1.
       -1    1    3    3    0  502 -0.58790319808E+03 -0.11279632075E+04 -0.11645058945E+04  0.17245304132E+04  0.50400001928E-02 0.  1.
</event>
<event>
 5   0  0.3499642E-05  0.2569489E+04  0.7818609E-02  0.8378640E-01
        2   -1    0    0  501    0  0.00000000000E+00  0.00000000000E+00  0.17621839526E+04  0.17621839526E+04  0.25500000920E-02 0. -1.
       -2   -1    0    0    0  501  0.00000000000E+00  0.00000000000E+00 -0.93666038510E+03  0.93666038510E+03  0.25500000920E-02 0.  1.
    10030    2    1    2    0    0  0.00000000000E+00  0.00000000000E+00  0.82552356755E+03  0.26988443377E+04  0.25694885870E+04 0.  0.
        2    1    3    3  502    0 -0.19444558128E+03 -0.53160785620E+03  0.16241455889E+04  0.17199607237E+04  0.25500000920E-02 0. -1.
       -2    1    3    3    0  502  0.19444558128E+03  0.53160785620E+03 -0.79862202140E+03  0.97888361408E+03  0.25500000920E-02 0.  1.
</event>
<event>
 5   0  0.1435062E-05  0.2207264E+04  0.7818609E-02  0.8515411E-01
        1   -1    0    0  501    0  0.00000000000E+00  0.00000000000E+00  0.13376923268E+04  0.13376923269E+04  0.50400001928E-02 0.  1.
       -1   -1    0    0    0  501  0.00000000000E+00  0.00000000000E+00 -0.91052622816E+03  0.91052622818E+03  0.50400001928E-02 0. -1.
    10030    2    1    2    0    0  0.00000000000E+00  0.00000000000E+00  0.42716609868E+03  0.22482185550E+04  0.22072643238E+04 0.  0.
        2    1    3    3  502    0  0.12851978921E+03 -0.97447075551E+03 -0.29761894931E+03  0.10269798579E+04  0.25500000920E-02 0. -1.
       -2    1    3    3    0  502 -0.12851978921E+03  0.97447075551E+03  0.72478504799E+03  0.12212386971E+04  0.25500000920E-02 0.  1.
</event>
<event>
 5   0  0.1474554E-05  0.2643408E+04  0.7818609E-02  0.8353604E-01
        1   -1    0    0  501    0  0.00000000000E+00  0.00000000000E+00  0.15396364807E+04  0.15396364807E+04  0.50400001928E-02 0.  1.
       -1   -1    0    0    0  501  0.00000000000E+00  0.00000000000E+00 -0.11346193490E+04  0.11346193490E+04  0.50400001928E-02 0. -1.
    10030    2    1    2    0    0  0.00000000000E+00  0.00000000000E+00  0.40501713164E+03  0.26742558297E+04  0.26434079076E+04 0.  0.
        5    1    3    3  502    0  0.56689653770E+03  0.44692530370E+03 -0.91755439244E+03  0.11674939249E+04  0.46999998093E+01 0. -1.
       -5    1    3    3    0  502 -0.56689653770E+03 -0.44692530370E+03  0.13225715241E+04  0.15067619048E+04  0.46999998093E+01 0.  1.
</event>
<event>
 5   0  0.3849687E-05  0.2415672E+04  0.7818609E-02  0.8433659E-01
       -2   -1    0    0    0  501  0.00000000000E+00  0.00000000000E+00  0.59286628523E+03  0.59286628523E+03  0.25500000920E-02 0.  1.
        2   -1    0    0  501    0  0.00000000000E+00  0.00000000000E+00 -0.24607025177E+04  0.24607025177E+04  0.25500000920E-02 0. -1.
    10030    2    1    2    0    0  0.00000000000E+00  0.00000000000E+00 -0.18678362324E+04  0.30535688029E+04  0.24156717995E+04 0.  0.
        1    1    3    3  502    0 -0.10062980293E+04 -0.32442200202E+03 -0.19578339309E+03  0.10752750793E+04  0.50400001928E-02 0.  1.
       -1    1    3    3    0  502  0.10062980293E+04  0.32442200202E+03 -0.16720528393E+04  0.19782937236E+04  0.50400001928E-02 0. -1.
</event>
<event>
 5   0  0.3849687E-05  0.2612457E+04  0.7818609E-02  0.8363982E-01
        2   -1    0    0  501    0  0.00000000000E+00  0.00000000000E+00  0.18474509418E+04  0.18474509418E+04  0.25500000920E-02 0. -1.
       -2   -1    0    0    0  501  0.00000000000E+00  0.00000000000E+00 -0.92356026732E+03  0.92356026732E+03  0.25500000920E-02 0.  1.
    10030    2    1    2    0    0  0.00000000000E+00  0.00000000000E+00  0.92389067444E+03  0.27710112091E+04  0.26124565341E+04 0.  0.
        1    1    3    3  502    0  0.11711526374E+04  0.43682432152E+03  0.59695125654E+02  0.12513902253E+04  0.50400001928E-02 0.  1.
       -1    1    3    3    0  502 -0.11711526374E+04 -0.43682432152E+03  0.86419554879E+03  0.15196209838E+04  0.50400001928E-02 0. -1.
</event>
<event>
 5   0  0.3499642E-05  0.2371984E+04  0.7818609E-02  0.8450067E-01
        2   -1    0    0  501    0  0.00000000000E+00  0.00000000000E+00  0.15111663467E+04  0.15111663467E+04  0.25500000920E-02 0.  1.
       -2   -1    0    0    0  501  0.00000000000E+00  0.00000000000E+00 -0.93078890253E+03  0.93078890253E+03  0.25500000920E-02 0. -1.
    10030    2    1    2    0    0  0.00000000000E+00  0.00000000000E+00  0.58037744417E+03  0.24419552492E+04  0.23719838662E+04 0.  0.
        2    1    3    3  502    0  0.45148047861E+02  0.11112233369E+04  0.71431388154E+03  0.13217790935E+04  0.25500000920E-02 0.  1.
       -2    1    3    3    0  502 -0.45148047861E+02 -0.11112233369E+04 -0.13393643737E+03  0.11201761557E+04  0.25500000920E-02 0. -1.
</event>
<event>
 5   0  0.3508470E-05  0.2547426E+04  0.7818609E-02  0.8386282E-01
        2   -1    0    0  501    0  0.00000000000E+00  0.00000000000E+00  0.81289933212E+03  0.81289933213E+03  0.25500000920E-02 0. -1.
       -2   -1    0    0    0  501  0.00000000000E+00  0.00000000000E+00 -0.19957514444E+04  0.19957514444E+04  0.25500000920E-02 0.  1.
    10030    2    1    2    0    0  0.00000000000E+00  0.00000000000E+00 -0.11828521123E+04  0.28086507765E+04  0.25474261648E+04 0.  0.
        5    1    3    3  502    0  0.54565211756E+03  0.11508838530E+04 -0.59945646093E+03  0.14077073613E+04  0.46999998093E+01 0. -1.
       -5    1    3    3    0  502 -0.54565211756E+03 -0.11508838530E+04 -0.58339565132E+03  0.14009434152E+04  0.46999998093E+01 0.  1.
</event>
<event>
 5   0  0.1533248E-05  0.2599648E+04  0.7818609E-02  0.8368321E-01
       -1   -1    0    0    0  501  0.00000000000E+00  0.00000000000E+00  0.12025531367E+04  0.12025531368E+04  0.50400001928E-02 0.  1.
        1   -1    0    0  501    0  0.00000000000E+00  0.00000000000E+00 -0.14049627794E+04  0.14049627794E+04  0.50400001928E-02 0. -1.
    10030    2    1    2    0    0  0.00000000000E+00  0.00000000000E+00 -0.20240964263E+03  0.26075159161E+04  0.25996479741E+04 0.  0.
        4    1    3    3  502    0  0.63554252778E+03  0.68303365362E+03 -0.10089806963E+04  0.13742244850E+04  0.12699999809E+01 0. -1.
       -4    1    3    3    0  502 -0.63554252778E+03 -0.68303365362E+03  0.80657105371E+03  0.12332914312E+04  0.12699999809E+01 0.  1.
</event>
<event>
 5   0  0.3849687E-05  0.2571165E+04  0.7818609E-02  0.8378062E-01
        2   -1    0    0  501    0  0.00000000000E+00  0.00000000000E+00  0.19765292946E+04  0.19765292946E+04  0.25500000920E-02 0.  1.
       -2   -1    0    0    0  501  0.00000000000E+00  0.00000000000E+00 -0.83617417580E+03  0.83617417580E+03  0.25500000920E-02 0. -1.
    10030    2    1    2    0    0  0.00000000000E+00  0.00000000000E+00  0.11403551188E+04  0.28127034704E+04  0.25711653030E+04 0.  0.
        1    1    3    3  502    0  0.10734533520E+04  0.66140293646E+03  0.29567285109E+03  0.12950592180E+04  0.50400001928E-02 0. -1.
       -1    1    3    3    0  502 -0.10734533520E+04 -0.66140293646E+03  0.84468226770E+03  0.15176442524E+04  0.50400001928E-02 0.  1.
</event>
<event>
 5   0  0.1451052E-05  0.2634958E+04  0.7818609E-02  0.8356423E-01
        1   -1    0    0  501    0  0.00000000000E+00  0.00000000000E+00  0.19511528806E+04  0.19511528806E+04  0.50400001928E-02 0. -1.
       -1   -1    0    0    0  501  0.00000000000E+00  0.00000000000E+00 -0.88960247288E+03  0.88960247290E+03  0.50400001928E-02 0.  1.
    10030    2    1    2    0    0  0.00000000000E+00  0.00000000000E+00  0.10615504077E+04  0.28407553535E+04  0.26349576297E+04 0.  0.
        1    1    3    3  502    0 -0.13518246150E+03  0.13104149427E+04  0.54909684901E+03  0.14272242184E+04  0.50400001928E-02 0.  1.
       -1    1    3    3    0  502  0.13518246150E+03 -0.13104149427E+04  0.51245355874E+03  0.14135311351E+04  0.50400001928E-02 0. -1.
</event>
<event>
 5   0  0.1435062E-05  0.2462218E+04  0.7818609E-02  0.8416571E-01
       -1   -1    0    0    0  501  0.00000000000E+00  0.00000000000E+00  0.17613121298E+04  0.17613121298E+04  0.50400001928E-02 0. -1.
        1   -1    0    0  501    0  0.00000000000E+00  0.00000000000E+00 -0.86051137445E+03  0.86051137447E+03  0.50400001928E-02 0.  1.
    10030    2    1    2    0    0  0.00000000000E+00  0.00000000000E+00  0.90080075532E+03  0.26218235042E+04  0.24622177984E+04 0.  0.
        2    1    3    3  502    0  0.10760821717E+04 -0.82469326788E+01  0.10871676921E+04  0.15296909632E+04  0.25500000920E-02 0.  1.
       -2    1    3    3    0  502 -0.10760821717E+04  0.82469326788E+01 -0.18636693680E+03  0.10921325410E+04  0.25500000920E-02 0. -1.
</event>
<event>
 5   0  0.1451052E-05  0.2560954E+04  0.7818609E-02  0.8381586E-01
        1   -1    0    0  501    0  0.00000000000E+00  0.00000000000E+00  0.11615617651E+04  0.11615617651E+04  0.50400001928E-02 0. -1.
       -1   -1    0    0    0  501  0.00000000000E+00  0.00000000000E+00 -0.14115665192E+04  0.14115665192E+04  0.50400001928E-02 0.  1.
    10030    2    1    2    0    0  0.00000000000E+00  0.00000000000E+00 -0.25000475413E+03  0.25731282844E+04  0.25609542734E+04 0.  0.
        1    1    3    3  502    0 -0.10445491976E+04 -0.42211226657E+03 -0.73646736838E+03  0.13459739881E+04  0.50400001928E-02 0.  1.
       -1    1    3    3    0  502  0.10445491976E+04  0.42211226657E+03  0.48646261424E+03  0.12271542963E+04  0.50400001928E-02 0. -1.
</event>
<event>
 5   0  0.1474554E-05  0.1768325E+04  0.7818609E-02  0.8723328E-01
       -1   -1    0    0    0  501  0.00000000000E+00  0.00000000000E+00  0.43459272245E+03  0.43459272248E+03  0.50400001928E-02 0.  1.
        1   -1    0    0  501    0  0.00000000000E+00  0.00000000000E+00 -0.17987949399E+04  0.17987949399E+04  0.50400001928E-02 0. -1.
    10030    2    1    2    0    0  0.00000000000E+00  0.00000000000E+00 -0.13642022175E+04  0.22333876624E+04  0.17683248458E+04 0.  0.
        5    1    3    3  502    0  0.85316562951E+03 -0.21106481276E+03 -0.56042563589E+03  0.10423717810E+04  0.46999998093E+01 0. -1.
       -5    1    3    3    0  502 -0.85316562951E+03  0.21106481276E+03 -0.80377658158E+03  0.11910158814E+04  0.46999998093E+01 0.  1.
</event>
<event>
 5   0  0.1435062E-05  0.2851300E+04  0.7818609E-02  0.8287516E-01
        1   -1    0    0  501    0  0.00000000000E+00  0.00000000000E+00  0.22483133345E+04  0.22483133345E+04  0.50400001928E-02 0. -1.
       -1   -1    0    0    0  501  0.00000000000E+00  0.00000000000E+00 -0.90400099428E+03  0.90400099429E+03  0.50400001928E-02 0.  1.
    10030    2    1    2    0    0  0.00000000000E+00  0.00000000000E+00  0.13443123402E+04  0.31523143288E+04  0.28512996965E+04 0.  0.
        2    1    3    3  502    0  0.56194432915E+03  0.12280490860E+04  0.11770905654E+04  0.17914877018E+04  0.25500000920E-02 0. -1.
       -2    1    3    3    0  502 -0.56194432915E+03 -0.12280490860E+04  0.16722177484E+03  0.13608266270E+04  0.25500000920E-02 0.  1.
</event>
<event>
 5   0  0.3849687E-05  0.1720108E+04  0.7818609E-02  0.8749978E-01
        2   -1    0    0  501    0  0.00000000000E+00  0.00000000000E+00  0.99184424199E+03  0.99184424199E+03  0.25500000920E-02 0. -1.
       -2   -1    0    0    0  501  0.00000000000E+00  0.00000000000E+00 -0.74577542881E+03  0.74577542882E+03  0.25500000920E-02 0.  1.
    10030    2    1    2    0    0  0.00000000000E+00  0.00000000000E+00  0.24606881317E+03  0.17376196708E+04  0.17201082116E+04 0.  0.
        1    1    3    3  502    0 -0.24338542992E+03 -0.55632200990E+03  0.73830181784E+03  0.95593944392E+03  0.50400001928E-02 0. -1.
       -1    1    3    3    0  502  0.24338542992E+03  0.55632200990E+03 -0.49223300466E+03  0.78168022688E+03  0.50400001928E-02 0.  1.
</event>
<event>
 5   0  0.3647623E-05  0.2521860E+04  0.7818609E-02  0.8395239E-01
       -2   -1    0    0    0  501  0.00000000000E+00  0.00000000000E+00  0.12169738920E+04  0.12169738920E+04  0.25500000920E-02 0.  1.
        2   -1    0    0  501    0  0.00000000000E+00  0.00000000000E+00 -0.13064741972E+04  0.13064741972E+04  0.25500000920E-02 0. -1.
    10030    2    1    2    0    0  0.00000000000E+00  0.00000000000E+00 -0.89500305263E+02  0.25234480892E+04  0.25218604153E+04 0.  0.
        3    1    3    3  502    0  0.86417680045E+03 -0.32364351173E+03 -0.90459219900E+03  0.12922204618E+04  0.10100000352E+00 0. -1.
       -3    1    3    3    0  502 -0.86417680045E+03  0.32364351173E+03  0.81509189374E+03  0.12312276274E+04  0.10100000352E+00 0.  1.
</event>
<event>
 5   0  0.1451052E-05  0.2597526E+04  0.7818609E-02  0.8369042E-01
       -1   -1    0    0    0  501  0.00000000000E+00  0.00000000000E+00  0.11438303280E+04  0.11438303280E+04  0.50400001928E-02 0.  1.
        1   -1    0    0  501    0  0.00000000000E+00  0.00000000000E+00 -0.14746816337E+04  0.14746816337E+04  0.50400001928E-02 0. -1.
    10030    2    1    2    0    0  0.00000000000E+00  0.00000000000E+00 -0.33085130572E+03  0.26185119617E+04  0.25975261899E+04 0.  0.
        1    1    3    3  502    0  0.21495073634E+03 -0.80502695462E+03  0.83887283272E+03  0.11823619777E+04  0.50400001928E-02 0.  1.
       -1    1    3    3    0  502 -0.21495073634E+03  0.80502695462E+03 -0.11697241384E+04  0.14361499841E+04  0.50400001928E-02 0. -1.
</event>
<event>
 5   0  0.1435062E-05  0.2611741E+04  0.7818609E-02  0.8364224E-01
        1   -1    0    0  501    0  0.00000000000E+00  0.00000000000E+00  0.19623952980E+04  0.19623952980E+04  0.50400001928E-02 0.  1.
       -1   -1    0    0    0  501  0.00000000000E+00  0.00000000000E+00 -0.86898810944E+03  0.86898810945E+03  0.50400001928E-02 0. -1.
    10030    2    1    2    0    0  0.00000000000E+00  0.00000000000E+00  0.10934071886E+04  0.28313834075E+04  0.26117413195E+04 0.  0.
        2    1    3    3  502    0 -0.35754534456E+03 -0.60894389067E+03  0.17375578513E+04  0.18755688796E+04  0.25500000920E-02 0.  1.
       -2    1    3    3    0  502  0.35754534456E+03  0.60894389067E+03 -0.64415066274E+03  0.95581452789E+03  0.25500000920E-02 0. -1.
</event>
<event>
 5   0  0.1451052E-05  0.2529203E+04  0.7818609E-02  0.8392655E-01
       -1   -1    0    0    0  501  0.00000000000E+00  0.00000000000E+00  0.56893737519E+03  0.56893737522E+03  0.50400001928E-02 0.  1.
        1   -1    0    0  501    0  0.00000000000E+00  0.00000000000E+00 -0.28108833029E+04  0.28108833029E+04  0.50400001928E-02 0. -1.
    10030    2    1    2    0    0  0.00000000000E+00  0.00000000000E+00 -0.22419459277E+04  0.33798206781E+04  0.25292026952E+04 0.  0.
        1    1    3    3  502    0 -0.26180181239E+03  0.96068843218E+03 -0.21627480736E+04  0.23809539439E+04  0.50400001928E-02 0. -1.
       -1    1    3    3    0  502  0.26180181239E+03 -0.96068843218E+03 -0.79197854053E+02  0.99886673426E+03  0.50400001928E-02 0.  1.
</event>
<event>
 5   0  0.1435062E-05  0.2556785E+04  0.7818609E-02  0.8383030E-01
        1   -1    0    0  501    0  0.00000000000E+00  0.00000000000E+00  0.10536097298E+04  0.10536097298E+04  0.50400001928E-02 0.  1.
       -1   -1    0    0    0  501  0.00000000000E+00  0.00000000000E+00 -0.15511318142E+04  0.15511318142E+04  0.50400001928E-02 0. -1.
    10030    2    1    2    0    0  0.00000000000E+00  0.00000000000E+00 -0.49752208438E+03  0.26047415440E+04  0.25567851467E+04 0.  0.
        2    1    3    3  502    0 -0.66014998486E+03  0.14121634762E+03  0.85721049393E+03  0.10911232241E+04  0.25500000920E-02 0.  1.
       -2    1    3    3    0  502  0.66014998486E+03 -0.14121634762E+03 -0.13547325783E+04  0.15136183198E+04  0.25500000920E-02 0. -1.
</event>
<event>
 5   0  0.1497497E-05  0.2622419E+04  0.7818609E-02  0.8360626E-01
        1   -1    0    0  501    0  0.00000000000E+00  0.00000000000E+00  0.15172939549E+04  0.15172939549E+04  0.50400001928E-02 0.  1.
       -1   -1    0    0    0  501  0.00000000000E+00  0.00000000000E+00 -0.11331159936E+04  0.11331159937E+04  0.50400001928E-02 0. -1.
    10030    2    1    2    0    0  0.00000000000E+00  0.00000000000E+00  0.38417796128E+03  0.26504099486E+04  0.26224187670E+04 0.  0.
        3    1    3    3  502    0 -0.11004813912E+04  0.67572711416E+03 -0.37500010357E+02  0.12919259600E+04  0.10100000352E+00 0.  1.
       -3    1    3    3    0  502  0.11004813912E+04 -0.67572711416E+03  0.42167797164E+03  0.13584839886E+04  0.10100000352E+00 0. -1.
</event>
<event>
 5   0  0.3849687E-05  0.2574525E+04  0.7818609E-02  0.8376906E-01
       -2   -1    0    0    0  501  0.00000000000E+00  0.00000000000E+00  0.67438695989E+03  0.67438695990E+03  0.25500000920E-02 0. -1.
        2   -1    0    0  501    0  0.00000000000E+00  0.00000000000E+00 -0.24571121428E+04  0.24571121428E+04  0.25500000920E-02 0.  1.
    10030    2    1    2    0    0  0.00000000000E+00  0.00000000000E+00 -0.17827251830E+04  0.31314991027E+04  0.25745247236E+04 0.  0.
        1    1    3    3  502    0  0.26672598361E+03 -0.23412034116E+03 -0.23964283872E+04  0.24225656027E+04  0.50400001928E-02 0.  1.
       -1    1    3    3    0  502 -0.26672598361E+03  0.23412034116E+03  0.61370320427E+03  0.70893350000E+03  0.50400001928E-02 0. -1.
</event>
<event>
 5   0  0.1474554E-05  0.2595145E+04  0.7818609E-02  0.8369852E-01
       -1   -1    0    0    0  501  0.00000000000E+00  0.00000000000E+00  0.10894999742E+04  0.10894999743E+04  0.50400001928E-02 0. -1.
        1   -1    0    0  501    0  0.00000000000E+00  0.00000000000E+00 -0.15453824963E+04  0.15453824963E+04  0.50400001928E-02 0.  1.
    10030    2    1    2    0    0  0.00000000000E+00  0.00000000000E+00 -0.45588252210E+03  0.26348824706E+04  0.25951448437E+04 0.  0.
        5    1    3    3  502    0  0.66644879283E+03  0.41717063333E+03  0.82008864710E+03  0.11361130269E+04  0.46999998093E+01 0. -1.
       -5    1    3    3    0  502 -0.66644879283E+03 -0.41717063333E+03 -0.12759711692E+04  0.14987694437E+04  0.46999998093E+01 0.  1.
</event>
<event>
 5   0  0.3499642E-05  0.2639459E+04  0.7818609E-02  0.8354920E-01
       -2   -1    0    0    0  501  0.00000000000E+00  0.00000000000E+00  0.12962286734E+04  0.12962286734E+04  0.25500000920E-02 0. -1.
        2   -1    0    0  501    0  0.00000000000E+00  0.00000000000E+00 -0.13436563913E+04  0.13436563913E+04  0.25500000920E-02 0.  1.
    10030    2    1    2    0    0  0.00000000000E+00  0.00000000000E+00 -0.47427717924E+02  0.26398850646E+04  0.26394589912E+04 0.  0.
        2    1    3    3  502    0  0.38744249336E+03 -0.29541648465E+03 -0.12504122973E+04  0.13419811840E+04  0.25500000920E-02 0.  1.
       -2    1    3    3    0  502 -0.38744249336E+03  0.29541648465E+03  0.12029845794E+04  0.12979038806E+04  0.25500000920E-02 0. -1.
</event>
<event>
 5   0  0.1533248E-05  0.2606945E+04  0.7818609E-02  0.8365846E-01
       -1   -1    0    0    0  501  0.00000000000E+00  0.00000000000E+00  0.25196248683E+04  0.25196248683E+04  0.50400001928E-02 0. -1.
        1   -1    0    0  501    0  0.00000000000E+00  0.00000000000E+00 -0.67432267783E+03  0.67432267785E+03  0.50400001928E-02 0.  1.
    10030    2    1    2    0    0  0.00000000000E+00  0.00000000000E+00  0.18453021905E+04  0.31939475462E+04  0.26069447162E+04 0.  0.
        4    1    3    3  502    0 -0.58272374041E+03  0.48068381499E+03 -0.37880740196E+03  0.84505653557E+03  0.12699999809E+01 0.  1.
       -4    1    3    3    0  502  0.58272374041E+03 -0.48068381499E+03  0.22241095924E+04  0.23488910106E+04  0.12699999809E+01 0. -1.
</event>
<event>
 5   0  0.3647623E-05  0.2432712E+04  0.7818609E-02  0.8427357E-01
        2   -1    0    0  501    0  0.00000000000E+00  0.00000000000E+00  0.75246079842E+03  0.75246079842E+03  0.25500000920E-02 0. -1.
       -2   -1    0    0    0  501  0.00000000000E+00  0.00000000000E+00 -0.19662451174E+04  0.19662451174E+04  0.25500000920E-02 0.  1.
    10030    2    1    2    0    0  0.00000000000E+00  0.00000000000E+00 -0.12137843190E+04  0.27187059158E+04  0.24327123718E+04 0.  0.
        3    1    3    3  502    0  0.10399374373E+04 -0.30218999616E+03  0.12053056452E+02  0.10830207540E+04  0.10100000352E+00 0. -1.
       -3    1    3    3    0  502 -0.10399374373E+04  0.30218999616E+03 -0.12258373755E+04  0.16356851618E+04  0.10100000352E+00 0.  1.
</event>
<event>
 5   0  0.1451052E-05  0.2606964E+04  0.7818609E-02  0.8365839E-01
       -1   -1    0    0    0  501  0.00000000000E+00  0.00000000000E+00  0.94335304121E+03  0.94335304123E+03  0.50400001928E-02 0. -1.
        1   -1    0    0  501    0  0.00000000000E+00  0.00000000000E+00 -0.18010919962E+04  0.18010919962E+04  0.50400001928E-02 0.  1.
    10030    2    1    2    0    0  0.00000000000E+00  0.00000000000E+00 -0.85773895495E+03  0.27444450374E+04  0.26069642208E+04 0.  0.
        1    1    3    3  502    0  0.24469374605E+03 -0.13766631203E+03 -0.17688822873E+04  0.17910252899E+04  0.50400001928E-02 0.  1.
       -1    1    3    3    0  502 -0.24469374605E+03  0.13766631203E+03  0.91114333233E+03  0.95341974749E+03  0.50400001928E-02 0. -1.
</event>
<event>
 5   0  0.3647623E-05  0.2567353E+04  0.7818609E-02  0.8379376E-01
        2   -1    0    0  501    0  0.00000000000E+00  0.00000000000E+00  0.12593318903E+04  0.12593318903E+04  0.25500000920E-02 0.  1.
       -2   -1    0    0    0  501  0.00000000000E+00  0.00000000000E+00 -0.13084912732E+04  0.13084912732E+04  0.25500000920E-02 0. -1.
    10030    2    1    2    0    0  0.00000000000E+00  0.00000000000E+00 -0.49159382890E+02  0.25678231636E+04  0.25673525575E+04 0.  0.
        3    1    3    3  502    0  0.44597886790E+03  0.10162123465E+04 -0.66986467161E+03  0.12962651628E+04  0.10100000352E+00 0. -1.
       -3    1    3    3    0  502 -0.44597886790E+03 -0.10162123465E+04  0.62070528872E+03  0.12715580008E+04  0.10100000352E+00 0.  1.
</event>
<event>
 5   0  0.1497497E-05  0.2449166E+04  0.7818609E-02  0.8421322E-01
       -1   -1    0    0    0  501  0.00000000000E+00  0.00000000000E+00  0.79421988882E+03  0.79421988883E+03  0.50400001928E-02 0.  1.
        1   -1    0    0  501    0  0.00000000000E+00  0.00000000000E+00 -0.18881468608E+04  0.18881468608E+04  0.50400001928E-02 0. -1.
    10030    2    1    2    0    0  0.00000000000E+00  0.00000000000E+00 -0.10939269720E+04  0.26823667497E+04  0.24491662172E+04 0.  0.
        3    1    3    3  502    0 -0.10462210595E+03 -0.44318484247E+03  0.69804513536E+03  0.83344202609E+03  0.10100000352E+00 0.  1.
       -3    1    3    3    0  502  0.10462210595E+03  0.44318484247E+03 -0.17919721074E+04  0.18489247236E+04  0.10100000352E+00 0. -1.
</event>
<event>
 5   0  0.1474554E-05  0.2581057E+04  0.7818609E-02  0.8374664E-01
        1   -1    0    0  501    0  0.00000000000E+00  0.00000000000E+00  0.16986813459E+04  0.16986813459E+04  0.50400001928E-02 0. -1.
       -1   -1    0    0    0  501  0.00000000000E+00  0.00000000000E+00 -0.98044534852E+03  0.98044534853E+03  0.50400001928E-02 0.  1.
    10030    2    1    2    0    0  0.00000000000E+00  0.00000000000E+00  0.71823599734E+03  0.26791266944E+04  0.25810573215E+04 0.  0.
        5    1    3    3  502    0 -0.13050691879E+03  0.77786363505E+03  0.14193677160E+04  0.16238013098E+04  0.46999998093E+01 0. -1.
       -5    1    3    3    0  502  0.13050691879E+03 -0.77786363505E+03 -0.70113171861E+03  0.10553253846E+04  0.46999998093E+01 0.  1.
</event>
<event>
 5   0  0.1497497E-05  0.2308495E+04  0.7818609E-02  0.8474579E-01
        1   -1    0    0  501    0  0.00000000000E+00  0.00000000000E+00  0.15201687865E+04  0.15201687865E+04  0.50400001928E-02 0. -1.
       -1   -1    0    0    0  501  0.00000000000E+00  0.00000000000E+00 -0.87640771278E+03  0.87640771280E+03  0.50400001928E-02 0.  1.
    10030    2    1    2    0    0  0.00000000000E+00  0.00000000000E+00  0.64376107372E+03  0.23965764993E+04  0.23084953102E+04 0.  0.
        3    1    3    3  502    0 -0.47075074317E+03 -0.73017029763E+03 -0.46707148647E+03  0.98636236212E+03  0.10100000352E+00 0.  1.
       -3    1    3    3    0  502  0.47075074317E+03  0.73017029763E+03  0.11108325602E+04  0.14102141372E+04  0.10100000352E+00 0. -1.
</event>
<event>
 5   0  0.3508470E-05  0.2556499E+04  0.7818609E-02  0.8383130E-01
        2   -1    0    0  501    0  0.00000000000E+00  0.00000000000E+00  0.16353511260E+04  0.16353511260E+04  0.25500000920E-02 0. -1.
       -2   -1    0    0    0  501  0.00000000000E+00  0.00000000000E+00 -0.99912582007E+03  0.99912582008E+03  0.25500000920E-02 0.  1.
    10030    2    1    2    0    0  0.00000000000E+00  0.00000000000E+00  0.63622530589E+03  0.26344769460E+04  0.25564988049E+04 0.  0.
        5    1    3    3  502    0  0.48616172280E+03  0.11421330966E+04  0.37196815194E+01  0.12413126750E+04  0.46999998093E+01 0.  1.
       -5    1    3    3    0  502 -0.48616172280E+03 -0.11421330966E+04  0.63250562437E+03  0.13931642710E+04  0.46999998093E+01 0. -1.
</event>
<event>
 5   0  0.3849687E-05  0.2537274E+04  0.7818609E-02  0.8389826E-01
       -2   -1    0    0    0  501  0.00000000000E+00  0.00000000000E+00  0.12294238444E+04  0.12294238444E+04  0.25500000920E-02 0. -1.
        2   -1    0    0  501    0  0.00000000000E+00  0.00000000000E+00 -0.13091007015E+04  0.13091007015E+04  0.25500000920E-02 0.  1.
    10030    2    1    2    0    0  0.00000000000E+00  0.00000000000E+00 -0.79676857064E+02  0.25385245458E+04  0.25372738260E+04 0.  0.
        1    1    3    3  502    0 -0.12637557347E+04  0.94630343681E+02  0.18552640762E+02  0.12674295481E+04  0.50400001928E-02 0. -1.
       -1    1    3    3    0  502  0.12637557347E+04 -0.94630343681E+02 -0.98229497826E+02  0.12710949977E+04  0.50400001928E-02 0.  1.
</event>
<event>
 5   0  0.3849687E-05  0.2572180E+04  0.7818609E-02  0.8377713E-01
       -2   -1    0    0    0  501  0.00000000000E+00  0.00000000000E+00  0.14094374603E+04  0.14094374603E+04  0.25500000920E-02 0. -1.
        2   -1    0    0  501    0  0.00000000000E+00  0.00000000000E+00 -0.11735373097E+04  0.11735373097E+04  0.25500000920E-02 0.  1.
    10030    2    1    2    0    0  0.00000000000E+00  0.00000000000E+00  0.23590015066E+03  0.25829747700E+04  0.25721799667E+04 0.  0.
        1    1    3    3  502    0 -0.32844491414E+03 -0.12434219346E+04  0.12527976051E+03  0.12921567968E+04  0.50400001928E-02 0. -1.
       -1    1    3    3    0  502  0.32844491414E+03  0.12434219346E+04  0.11062039015E+03  0.12908179732E+04  0.50400001928E-02 0.  1.
</event>
<event>
 5   0  0.1435062E-05  0.2926188E+04  0.7818609E-02  0.8265128E-01
        1   -1    0    0  501    0  0.00000000000E+00  0.00000000000E+00  0.92724929619E+03  0.92724929621E+03  0.50400001928E-02 0. -1.
       -1   -1    0    0    0  501  0.00000000000E+00  0.00000000000E+00 -0.23085955575E+04  0.23085955575E+04  0.50400001928E-02 0.  1.
    10030    2    1    2    0    0  0.00000000000E+00  0.00000000000E+00 -0.13813462613E+04  0.32358448537E+04  0.29261876945E+04 0.  0.
        2    1    3    3  502    0  0.27377517969E+03 -0.84469705076E+03 -0.19765588925E+04  0.21668527897E+04  0.25500000920E-02 0.  1.
       -2    1    3    3    0  502 -0.27377517969E+03  0.84469705076E+03  0.59521263121E+03  0.10689920640E+04  0.25500000920E-02 0. -1.
</event>
<event>
 5   0  0.1217200E-05  0.2634444E+04  0.7818609E-02  0.8356595E-01
       -4   -1    0    0    0  501  0.00000000000E+00  0.00000000000E+00  0.16270944056E+04  0.16270949012E+04  0.12699999809E+01 0. -1.
        4   -1    0    0  501    0  0.00000000000E+00  0.00000000000E+00 -0.10663621994E+04  0.10663629556E+04  0.12699999809E+01 0.  1.
    10030    2    1    2    0    0  0.00000000000E+00  0.00000000000E+00  0.56073220623E+03  0.26934578569E+04  0.26344438919E+04 0.  0.
        5    1    3    3  502    0 -0.58038968699E+03 -0.41925524015E+03  0.14107663399E+04  0.15820590700E+04  0.46999998093E+01 0. -1.
       -5    1    3    3    0  502  0.58038968699E+03  0.41925524015E+03 -0.85003413364E+03  0.11113987869E+04  0.46999998093E+01 0.  1.
</event>
<event>
 5   0  0.3499642E-05  0.2532638E+04  0.7818609E-02  0.8391450E-01
       -2   -1    0    0    0  501  0.00000000000E+00  0.00000000000E+00  0.59724849094E+03  0.59724849095E+03  0.25500000920E-02 0. -1.
        2   -1    0    0  501    0  0.00000000000E+00  0.00000000000E+00 -0.26849188759E+04  0.26849188759E+04  0.25500000920E-02 0.  1.
    10030    2    1    2    0    0  0.00000000000E+00  0.00000000000E+00 -0.20876703849E+04  0.32821673668E+04  0.25326379504E+04 0.  0.
        2    1    3    3  502    0 -0.12489621753E+04  0.18035196514E+03 -0.11805586417E+04  0.17280486258E+04  0.25500000920E-02 0.  1.
       -2    1    3    3    0  502  0.12489621753E+04 -0.18035196514E+03 -0.90711174321E+03  0.15541187410E+04  0.25500000920E-02 0. -1.
</event>
<event>
 5   0  0.1474554E-05  0.2615001E+04  0.7818609E-02  0.8363124E-01
        1   -1    0    0  501    0  0.00000000000E+00  0.00000000000E+00  0.10497814561E+04  0.10497814561E+04  0.50400001928E-02 0.  1.
       -1   -1    0    0    0  501  0.00000000000E+00  0.00000000000E+00 -0.16284886762E+04  0.16284886762E+04  0.50400001928E-02 0. -1.
    10030    2    1    2    0    0  0.00000000000E+00  0.00000000000E+00 -0.57870722015E+03  0.26782701324E+04  0.26150007371E+04 0.  0.
        5    1    3    3  502    0 -0.25325967678E+03 -0.83042671126E+03 -0.12906506358E+04  0.15554903215E+04  0.46999998093E+01 0. -1.
       -5    1    3    3    0  502  0.25325967678E+03  0.83042671126E+03  0.71194341561E+03  0.11227798109E+04  0.46999998093E+01 0.  1.
</event>
<event>
 5   0  0.1533248E-05  0.1933283E+04  0.7818609E-02  0.8638465E-01
       -1   -1    0    0    0  501  0.00000000000E+00  0.00000000000E+00  0.90238633507E+03  0.90238633509E+03  0.50400001928E-02 0.  1.
        1   -1    0    0  501    0  0.00000000000E+00  0.00000000000E+00 -0.10354717459E+04  0.10354717459E+04  0.50400001928E-02 0. -1.
    10030    2    1    2    0    0  0.00000000000E+00  0.00000000000E+00 -0.13308541080E+03  0.19378580810E+04  0.19332827562E+04 0.  0.
        4    1    3    3  502    0 -0.57338575332E+03 -0.39471734321E+03  0.60573146333E+03  0.92275956874E+03  0.12699999809E+01 0.  1.
       -4    1    3    3    0  502  0.57338575332E+03  0.39471734321E+03 -0.73881687413E+03  0.10150985122E+04  0.12699999809E+01 0. -1.
</event>
<event>
 5   0  0.1497497E-05  0.2524808E+04  0.7818609E-02  0.8394201E-01
       -1   -1    0    0    0  501  0.00000000000E+00  0.00000000000E+00  0.95046760926E+03  0.95046760927E+03  0.50400001928E-02 0. -1.
        1   -1    0    0  501    0  0.00000000000E+00  0.00000000000E+00 -0.16767155272E+04  0.16767155272E+04  0.50400001928E-02 0.  1.
    10030    2    1    2    0    0  0.00000000000E+00  0.00000000000E+00 -0.72624791791E+03  0.26271831364E+04  0.25248079519E+04 0.  0.
        3    1    3    3  502    0 -0.18756242032E+03 -0.12451731935E+04 -0.45635520512E+03  0.13393640382E+04  0.10100000352E+00 0. -1.
       -3    1    3    3    0  502  0.18756242032E+03  0.12451731935E+04 -0.26989271279E+03  0.12878190983E+04  0.10100000352E+00 0.  1.
</event>
<event>
 5   0  0.1474554E-05  0.2569953E+04  0.7818609E-02  0.8378480E-01
       -1   -1    0    0    0  501  0.00000000000E+00  0.00000000000E+00  0.15692804759E+04  0.15692804759E+04  0.50400001928E-02 0.  1.
        1   -1    0    0  501    0  0.00000000000E+00  0.00000000000E+00 -0.10521792210E+04  0.10521792210E+04  0.50400001928E-02 0. -1.
    10030    2    1    2    0    0  0.00000000000E+00  0.00000000000E+00  0.51710125494E+03  0.26214596969E+04  0.25699527690E+04 0.  0.
        5    1    3    3  502    0 -0.17793297310E+03 -0.22205914280E+03 -0.10196282362E+04  0.10586001303E+04  0.46999998093E+01 0. -1.
       -5    1    3    3    0  502  0.17793297310E+03  0.22205914280E+03  0.15367294912E+04  0.15628595666E+04  0.46999998093E+01 0.  1.
</event>
<event>
 5   0  0.3499642E-05  0.2565199E+04  0.7818609E-02  0.8380119E-01
       -2   -1    0    0    0  501  0.00000000000E+00  0.00000000000E+00  0.62343623577E+03  0.62343623578E+03  0.25500000920E-02 0.  1.
        2   -1    0    0  501    0  0.00000000000E+00  0.00000000000E+00 -0.26387003199E+04  0.26387003199E+04  0.25500000920E-02 0. -1.
    10030    2    1    2    0    0  0.00000000000E+00  0.00000000000E+00 -0.20152640841E+04  0.32621365557E+04  0.25651989356E+04 0.  0.
        2    1    3    3  502    0  0.45751306442E+03  0.81980931839E+03 -0.21189285094E+04  0.23175986603E+04  0.25500000920E-02 0. -1.
       -2    1    3    3    0  502 -0.45751306442E+03 -0.81980931839E+03  0.10366442525E+03  0.94453789533E+03  0.25500000920E-02 0.  1.
</event>
<event>
 5   0  0.3499642E-05  0.1801375E+04  0.7818609E-02  0.8705569E-01
       -2   -1    0    0    0  501  0.00000000000E+00  0.00000000000E+00  0.11849473490E+04  0.11849473490E+04  0.25500000920E-02 0.  1.
        2   -1    0    0  501    0  0.00000000000E+00  0.00000000000E+00 -0.68461908586E+03  0.68461908587E+03  0.25500000920E-02 0. -1.
    10030    2    1    2    0    0  0.00000000000E+00  0.00000000000E+00  0.50032826310E+03  0.18695664348E+04  0.18013745539E+04 0.  0.
        2    1    3    3  502    0  0.34995868509E+03 -0.64200037587E+03  0.79600310587E+03  0.10808591529E+04  0.25500000920E-02 0.  1.
       -2    1    3    3    0  502 -0.34995868509E+03  0.64200037587E+03 -0.29567484277E+03  0.78870728191E+03  0.25500000920E-02 0. -1.
</event>
<event>
 5   0  0.1533248E-05  0.2638182E+04  0.7818609E-02  0.8355346E-01
       -1   -1    0    0    0  501  0.00000000000E+00  0.00000000000E+00  0.11204418609E+04  0.11204418609E+04  0.50400001928E-02 0.  1.
        1   -1    0    0  501    0  0.00000000000E+00  0.00000000000E+00 -0.15529593293E+04  0.15529593293E+04  0.50400001928E-02 0. -1.
    10030    2    1    2    0    0  0.00000000000E+00  0.00000000000E+00 -0.43251746843E+03  0.26734011902E+04  0.26381816774E+04 0.  0.
        4    1    3    3  502    0  0.15000998058E+03  0.47291044764E+03 -0.14548077149E+04  0.15370798242E+04  0.12699999809E+01 0. -1.
       -4    1    3    3    0  502 -0.15000998058E+03 -0.47291044764E+03  0.10222902465E+04  0.11363213660E+04  0.12699999809E+01 0.  1.
</event>
<event>
 5   0  0.1451052E-05  0.1667994E+04  0.7818609E-02  0.8779832E-01
       -1   -1    0    0    0  501  0.00000000000E+00  0.00000000000E+00  0.90222923287E+03  0.90222923288E+03  0.50400001928E-02 0.  1.
        1   -1    0    0  501    0  0.00000000000E+00  0.00000000000E+00 -0.77092464896E+03  0.77092464897E+03  0.50400001928E-02 0. -1.
    10030    2    1    2    0    0  0.00000000000E+00  0.00000000000E+00  0.13130458391E+03  0.16731538819E+04  0.16679937106E+04 0.  0.
        1    1    3    3  502    0 -0.12216390090E+02 -0.11260131181E+03  0.89447868357E+03  0.90162099077E+03  0.50400001928E-02 0.  1.
       -1    1    3    3    0  502  0.12216390090E+02  0.11260131181E+03 -0.76317409966E+03  0.77153289108E+03  0.50400001928E-02 0. -1.
</event>
<event>
 5   0  0.1451052E-05  0.2582116E+04  0.7818609E-02  0.8374302E-01
        1   -1    0    0  501    0  0.00000000000E+00  0.00000000000E+00  0.61768046275E+03  0.61768046277E+03  0.50400001928E-02 0. -1.
       -1   -1    0    0    0  501  0.00000000000E+00  0.00000000000E+00 -0.26985320775E+04  0.26985320775E+04  0.50400001928E-02 0.  1.
    10030    2    1    2    0    0  0.00000000000E+00  0.00000000000E+00 -0.20808516147E+04  0.33162125403E+04  0.25821158320E+04 0.  0.
        1    1    3    3  502    0 -0.48375930128E+03 -0.11446230603E+04 -0.14901978951E+04  0.19403285233E+04  0.50400001928E-02 0. -1.
       -1    1    3    3    0  502  0.48375930128E+03  0.11446230603E+04 -0.59065371962E+03  0.13758840170E+04  0.50400001928E-02 0.  1.
</event>
<event>
 5   0  0.1474554E-05  0.1983998E+04  0.7818609E-02  0.8614139E-01
        1   -1    0    0  501    0  0.00000000000E+00  0.00000000000E+00  0.86931363214E+03  0.86931363216E+03  0.50400001928E-02 0. -1.
       -1   -1    0    0    0  501  0.00000000000E+00  0.00000000000E+00 -0.11319983496E+04  0.11319983496E+04  0.50400001928E-02 0.  1.
    10030    2    1    2    0    0  0.00000000000E+00  0.00000000000E+00 -0.26268471747E+03  0.20013119818E+04  0.19839975775E+04 0.  0.
        5    1    3    3  502    0  0.74269567451E+03 -0.65348176649E+03 -0.57187385513E+02  0.99092268676E+03  0.46999998093E+01 0.  1.
       -5    1    3    3    0  502 -0.74269567451E+03  0.65348176649E+03 -0.20549733196E+03  0.10103892950E+04  0.46999998093E+01 0. -1.
</event>
<event>
 5   0  0.3441646E-05  0.2564533E+04  0.7818609E-02  0.8380349E-01
       -2   -1    0    0    0  501  0.00000000000E+00  0.00000000000E+00  0.94362311634E+03  0.94362311634E+03  0.25500000920E-02 0.  1.
        2   -1    0    0  501    0  0.00000000000E+00  0.00000000000E+00 -0.17424411593E+04  0.17424411593E+04  0.25500000920E-02 0. -1.
    10030    2    1    2    0    0  0.00000000000E+00  0.00000000000E+00 -0.79881804296E+03  0.26860642756E+04  0.25645332962E+04 0.  0.
        4    1    3    3  502    0 -0.50533599116E+03  0.98382612081E+02 -0.16294392522E+04  0.17088351272E+04  0.12699999809E+01 0. -1.
       -4    1    3    3    0  502  0.50533599116E+03 -0.98382612081E+02  0.83062120929E+03  0.97722914843E+03  0.12699999809E+01 0.  1.
</event>
<event>
 5   0  0.3647623E-05  0.2561389E+04  0.7818609E-02  0.8381436E-01
       -2   -1    0    0    0  501  0.00000000000E+00  0.00000000000E+00  0.17348423201E+04  0.17348423201E+04  0.25500000920E-02 0. -1.
        2   -1    0    0  501    0  0.00000000000E+00  0.00000000000E+00 -0.94543340129E+03  0.94543340129E+03  0.25500000920E-02 0.  1.
    10030    2    1    2    0    0  0.00000000000E+00  0.00000000000E+00  0.78940891878E+03  0.26802757214E+04  0.25613885885E+04 0.  0.
        3    1    3    3  502    0  0.31218941863E+03 -0.12419274174E+04  0.37564010713E+03  0.13345229273E+04  0.10100000352E+00 0.  1.
       -3    1    3    3    0  502 -0.31218941863E+03  0.12419274174E+04  0.41376881164E+03  0.13457527941E+04  0.10100000352E+00 0. -1.
</event>
<event>
 5   0  0.3849687E-05  0.2673861E+04  0.7818609E-02  0.8343536E-01
        2   -1    0    0  501    0  0.00000000000E+00  0.00000000000E+00  0.12239918244E+04  0.12239918244E+04  0.25500000920E-02 0.  1.
       -2   -1    0    0    0  501  0.00000000000E+00  0.00000000000E+00 -0.14602895793E+04  0.14602895793E+04  0.25500000920E-02 0. -1.
    10030    2    1    2    0    0  0.00000000000E+00  0.00000000000E+00 -0.23629775490E+03  0.26842814036E+04  0.26738605096E+04 0.  0.
        1    1    3    3  502    0 -0.12786849162E+04  0.38122512089E+03 -0.20222968833E+03  0.13495423501E+04  0.50400001928E-02 0. -1.
       -1    1    3    3    0  502  0.12786849162E+04 -0.38122512089E+03 -0.34068066573E+02  0.13347390535E+04  0.50400001928E-02 0.  1.
</event>
<event>
 5   0  0.3647623E-05  0.2620564E+04  0.7818609E-02  0.8361249E-01
       -2   -1    0    0    0  501  0.00000000000E+00  0.00000000000E+00  0.17064872979E+04  0.17064872979E+04  0.25500000920E-02 0. -1.
        2   -1    0    0  501    0  0.00000000000E+00  0.00000000000E+00 -0.10060660796E+04  0.10060660796E+04  0.25500000920E-02 0.  1.
    10030    2    1    2    0    0  0.00000000000E+00  0.00000000000E+00  0.70042121837E+03  0.27125533775E+04  0.26205640505E+04 0.  0.
        3    1    3    3  502    0  0.11598632558E+04  0.55892498976E+03  0.60197490671E+03  0.14212859371E+04  0.10100000352E+00 0.  1.
       -3    1    3    3    0  502 -0.11598632558E+04 -0.55892498976E+03  0.98446311659E+02  0.12912674405E+04  0.10100000352E+00 0. -1.
</event>
<event>
 5   0  0.3508470E-05  0.2562185E+04  0.7818609E-02  0.8381161E-01
       -2   -1    0    0    0  501  0.00000000000E+00  0.00000000000E+00  0.70578897548E+03  0.70578897549E+03  0.25500000920E-02 0. -1.
        2   -1    0    0  501    0  0.00000000000E+00  0.00000000000E+00 -0.23253379549E+04  0.23253379549E+04  0.25500000920E-02 0.  1.
    10030    2    1    2    0    0  0.00000000000E+00  0.00000000000E+00 -0.16195489794E+04  0.30311269304E+04  0.25621849214E+04 0.  0.
        5    1    3    3  502    0 -0.76967427029E+03  0.29798262447E+03 -0.19688869546E+04  0.21348840851E+04  0.46999998093E+01 0.  1.
       -5    1    3    3    0  502  0.76967427029E+03 -0.29798262447E+03  0.34933797518E+03  0.89624284529E+03  0.46999998093E+01 0. -1.
</event>
<event>
 5   0  0.1217200E-05  0.2591243E+04  0.7818609E-02  0.8371182E-01
        4   -1    0    0  501    0  0.00000000000E+00  0.00000000000E+00  0.91852062389E+03  0.91852150187E+03  0.12699999809E+01 0.  1.
       -4   -1    0    0    0  501  0.00000000000E+00  0.00000000000E+00 -0.18275406297E+04  0.18275410710E+04  0.12699999809E+01 0. -1.
    10030    2    1    2    0    0  0.00000000000E+00  0.00000000000E+00 -0.90902000581E+03  0.27460625729E+04  0.25912433855E+04 0.  0.
        3    1    3    3  502    0  0.15775347068E+03 -0.58007959556E+02 -0.18159383465E+04  0.18237004055E+04  0.10100000352E+00 0. -1.
       -3    1    3    3    0  502 -0.15775347068E+03  0.58007959556E+02  0.90691834064E+03  0.92236216730E+03  0.10100000352E+00 0.  1.
</event>
<event>
 5   0  0.1497497E-05  0.2578269E+04  0.7818609E-02  0.8375620E-01
       -1   -1    0    0    0  501  0.00000000000E+00  0.00000000000E+00  0.30594949833E+04  0.30594949833E+04  0.50400001928E-02 0. -1.
        1   -1    0    0  501    0  0.00000000000E+00  0.00000000000E+00 -0.54318380146E+03  0.54318380148E+03  0.50400001928E-02 0.  1.
    10030    2    1    2    0    0  0.00000000000E+00  0.00000000000E+00  0.25163111819E+04  0.36026787848E+04  0.25782692766E+04 0.  0.
        3    1    3    3  502    0 -0.72825828409E+03 -0.82021101365E+03  0.22045908816E+04  0.24623824238E+04  0.10100000352E+00 0. -1.
       -3    1    3    3    0  502  0.72825828409E+03  0.82021101365E+03  0.31172030022E+03  0.11402963610E+04  0.10100000352E+00 0.  1.
</event>
<event>
 5   0  0.3441646E-05  0.2599202E+04  0.7818609E-02  0.8368472E-01
        2   -1    0    0  501    0  0.00000000000E+00  0.00000000000E+00  0.18781988395E+04  0.18781988395E+04  0.25500000920E-02 0.  1.
       -2   -1    0    0    0  501  0.00000000000E+00  0.00000000000E+00 -0.89924626188E+03  0.89924626189E+03  0.25500000920E-02 0. -1.
    10030    2    1    2    0    0  0.00000000000E+00  0.00000000000E+00  0.97895257763E+03  0.27774451014E+04  0.25992024050E+04 0.  0.
        4    1    3    3  502    0 -0.46174424437E+03 -0.11436924782E+04  0.92709882158E+03  0.15429692382E+04  0.12699999809E+01 0.  1.
       -4    1    3    3    0  502  0.46174424437E+03  0.11436924782E+04  0.51853756042E+02  0.12344758632E+04  0.12699999809E+01 0. -1.
</event>
<event>
 5   0  0.1497497E-05  0.2640370E+04  0.7818609E-02  0.8354616E-01
        1   -1    0    0  501    0  0.00000000000E+00  0.00000000000E+00  0.20283473999E+04  0.20283473999E+04  0.50400001928E-02 0.  1.
       -1   -1    0    0    0  501  0.00000000000E+00  0.00000000000E+00 -0.85926537345E+03  0.85926537346E+03  0.50400001928E-02 0. -1.
    10030    2    1    2    0    0  0.00000000000E+00  0.00000000000E+00  0.11690820264E+04  0.28876127733E+04  0.26403701908E+04 0.  0.
        3    1    3    3  502    0 -0.40904199347E+03 -0.11564505977E+04  0.50787480791E+02  0.12277103550E+04  0.10100000352E+00 0. -1.
       -3    1    3    3    0  502  0.40904199347E+03  0.11564505977E+04  0.11182945456E+04  0.16599024183E+04  0.10100000352E+00 0.  1.
</event>
<event>
 5   0  0.1435062E-05  0.2034478E+04  0.7818609E-02  0.8590669E-01
       -1   -1    0    0    0  501  0.00000000000E+00  0.00000000000E+00  0.10937244504E+04  0.10937244504E+04  0.50400001928E-02 0.  1.
        1   -1    0    0  501    0  0.00000000000E+00  0.00000000000E+00 -0.94610233680E+03  0.94610233682E+03  0.50400001928E-02 0. -1.
    10030    2    1    2    0    0  0.00000000000E+00  0.00000000000E+00  0.14762211355E+03  0.20398267872E+04  0.20344780739E+04 0.  0.
        2    1    3    3  502    0  0.87844142772E+03 -0.49059195396E+03  0.22398952833E+03  0.10307817985E+04  0.25500000920E-02 0.  1.
       -2    1    3    3    0  502 -0.87844142772E+03  0.49059195396E+03 -0.76367414781E+02  0.10090449887E+04  0.25500000920E-02 0. -1.
</event>
<event>
 5   0  0.1533248E-05  0.2527019E+04  0.7818609E-02  0.8393423E-01
       -1   -1    0    0    0  501  0.00000000000E+00  0.00000000000E+00  0.10853316692E+04  0.10853316692E+04  0.50400001928E-02 0. -1.
        1   -1    0    0  501    0  0.00000000000E+00  0.00000000000E+00 -0.14709381461E+04  0.14709381461E+04  0.50400001928E-02 0.  1.
    10030    2    1    2    0    0  0.00000000000E+00  0.00000000000E+00 -0.38560647693E+03  0.25562698153E+04  0.25270186017E+04 0.  0.
        4    1    3    3  502    0  0.44448753318E+03  0.33000656626E+03  0.95611691929E+03  0.11048233692E+04  0.12699999809E+01 0. -1.
       -4    1    3    3    0  502 -0.44448753318E+03 -0.33000656626E+03 -0.13417233962E+04  0.14514464461E+04  0.12699999809E+01 0.  1.
</event>
<event>
 5   0  0.3441646E-05  0.2471226E+04  0.7818609E-02  0.8413309E-01
       -2   -1    0    0    0  501  0.00000000000E+00  0.00000000000E+00  0.10986164234E+04  0.10986164234E+04  0.25500000920E-02 0.  1.
        2   -1    0    0  501    0  0.00000000000E+00  0.00000000000E+00 -0.13896930298E+04  0.13896930298E+04  0.25500000920E-02 0. -1.
    10030    2    1    2    0    0  0.00000000000E+00  0.00000000000E+00 -0.29107660643E+03  0.24883094532E+04  0.24712260812E+04 0.  0.
        4    1    3    3  502    0 -0.26577716002E+03 -0.15707491651E+03  0.10591554444E+04  0.11032324762E+04  0.12699999809E+01 0.  1.
       -4    1    3    3    0  502  0.26577716002E+03  0.15707491651E+03 -0.13502320509E+04  0.13850769770E+04  0.12699999809E+01 0. -1.
</event>
<event>
 5   0  0.1474554E-05  0.2174521E+04  0.7818609E-02  0.8529108E-01
       -1   -1    0    0    0  501  0.00000000000E+00  0.00000000000E+00  0.16935356489E+04  0.16935356489E+04  0.50400001928E-02 0.  1.
        1   -1    0    0  501    0  0.00000000000E+00  0.00000000000E+00 -0.69802821620E+03  0.69802821622E+03  0.50400001928E-02 0. -1.
    10030    2    1    2    0    0  0.00000000000E+00  0.00000000000E+00  0.99550743270E+03  0.23915638651E+04  0.21745212513E+04 0.  0.
        5    1    3    3  502    0 -0.59394946505E+03 -0.79037508453E+03  0.22434685411E+00  0.98868138529E+03  0.46999998093E+01 0.  1.
       -5    1    3    3    0  502  0.59394946505E+03  0.79037508453E+03  0.99528308584E+03  0.14028824798E+04  0.46999998093E+01 0. -1.
</event>
<event>
 5   0  0.1474554E-05  0.2582374E+04  0.7818609E-02  0.8374213E-01
       -1   -1    0    0    0  501  0.00000000000E+00  0.00000000000E+00  0.89398102655E+03  0.89398102656E+03  0.50400001928E-02 0.  1.
        1   -1    0    0  501    0  0.00000000000E+00  0.00000000000E+00 -0.18648763390E+04  0.18648763390E+04  0.50400001928E-02 0. -1.
    10030    2    1    2    0    0  0.00000000000E+00  0.00000000000E+00 -0.97089531242E+03  0.27588573655E+04  0.25823741510E+04 0.  0.
        5    1    3    3  502    0 -0.85450226237E+03 -0.43879753124E+03 -0.14072131268E+04  0.17038157953E+04  0.46999998093E+01 0. -1.
       -5    1    3    3    0  502  0.85450226237E+03  0.43879753124E+03  0.43631781443E+03  0.10550415703E+04  0.46999998093E+01 0.  1.
</event>
<event>
 5   0  0.1474554E-05  0.2495077E+04  0.7818609E-02  0.8404741E-01
        1   -1    0    0  501    0  0.00000000000E+00  0.00000000000E+00  0.96392806343E+03  0.96392806344E+03  0.50400001928E-02 0. -1.
       -1   -1    0    0    0  501  0.00000000000E+00  0.00000000000E+00 -0.16145940053E+04  0.16145940053E+04  0.50400001928E-02 0.  1.
    10030    2    1    2    0    0  0.00000000000E+00  0.00000000000E+00 -0.65066594189E+03  0.25785220688E+04  0.24950771313E+04 0.  0.
        5    1    3    3  502    0 -0.11461979341E+03 -0.59582007270E+03  0.80116400306E+03  0.10050000527E+04  0.46999998093E+01 0. -1.
       -5    1    3    3    0  502  0.11461979341E+03  0.59582007270E+03 -0.14518299449E+04  0.15735220161E+04  0.46999998093E+01 0.  1.
</event>
<event>
 5   0  0.3508470E-05  0.2563836E+04  0.7818609E-02  0.8380590E-01
       -2   -1    0    0    0  501  0.00000000000E+00  0.00000000000E+00  0.94333253831E+03  0.94333253832E+03  0.25500000920E-02 0. -1.
        2   -1    0    0  501    0  0.00000000000E+00  0.00000000000E+00 -0.17420305609E+04  0.17420305609E+04  0.25500000920E-02 0.  1.
    10030    2    1    2    0    0  0.00000000000E+00  0.00000000000E+00 -0.79869802260E+03  0.26853630992E+04  0.25638362747E+04 0.  0.
        5    1    3    3  502    0 -0.11591428090E+04 -0.54663786555E+03 -0.43018980780E+03  0.13518544183E+04  0.46999998093E+01 0. -1.
       -5    1    3    3    0  502  0.11591428090E+04  0.54663786555E+03 -0.36850821480E+03  0.13335086809E+04  0.46999998093E+01 0.  1.
</event>
<event>
 5   0  0.3849687E-05  0.2628764E+04  0.7818609E-02  0.8358496E-01
       -2   -1    0    0    0  501  0.00000000000E+00  0.00000000000E+00  0.14239800287E+04  0.14239800287E+04  0.25500000920E-02 0. -1.
        2   -1    0    0  501    0  0.00000000000E+00  0.00000000000E+00 -0.12132193370E+04  0.12132193370E+04  0.25500000920E-02 0.  1.
    10030    2    1    2    0    0  0.00000000000E+00  0.00000000000E+00  0.21076069178E+03  0.26371993657E+04  0.26287640490E+04 0.  0.
        1    1    3    3  502    0  0.36180927673E+02 -0.12288397591E+04  0.57189284248E+03  0.13558826042E+04  0.50400001928E-02 0.  1.
       -1    1    3    3    0  502 -0.36180927673E+02  0.12288397591E+04 -0.36113215070E+03  0.12813167615E+04  0.50400001928E-02 0. -1.
</event>
<event>
 5   0  0.1435062E-05  0.2599563E+04  0.7818609E-02  0.8368350E-01
       -1   -1    0    0    0  501  0.00000000000E+00  0.00000000000E+00  0.84016546283E+03  0.84016546284E+03  0.50400001928E-02 0. -1.
        1   -1    0    0  501    0  0.00000000000E+00  0.00000000000E+00 -0.20108329556E+04  0.20108329556E+04  0.50400001928E-02 0.  1.
    10030    2    1    2    0    0  0.00000000000E+00  0.00000000000E+00 -0.11706674928E+04  0.28509984185E+04  0.25995633486E+04 0.  0.
        2    1    3    3  502    0 -0.36823969383E+03 -0.12110656450E+04 -0.26156488261E+03  0.12925543147E+04  0.25500000920E-02 0. -1.
       -2    1    3    3    0  502  0.36823969383E+03  0.12110656450E+04 -0.90910261018E+03  0.15584441037E+04  0.25500000920E-02 0.  1.
</event>
<event>
 5   0  0.1217200E-05  0.2540746E+04  0.7818609E-02  0.8388612E-01
       -4   -1    0    0    0  501  0.00000000000E+00  0.00000000000E+00  0.18174769770E+04  0.18174774207E+04  0.12699999809E+01 0.  1.
        4   -1    0    0  501    0  0.00000000000E+00  0.00000000000E+00 -0.88795944515E+03  0.88796035336E+03  0.12699999809E+01 0. -1.
    10030    2    1    2    0    0  0.00000000000E+00  0.00000000000E+00  0.92951753187E+03  0.27054377741E+04  0.25407460927E+04 0.  0.
        1    1    3    3  502    0 -0.10706937247E+04  0.12406500749E+03  0.11807032813E+04  0.15986986635E+04  0.50400001928E-02 0.  1.
       -1    1    3    3    0  502  0.10706937247E+04 -0.12406500749E+03 -0.25118574947E+03  0.11067391106E+04  0.50400001928E-02 0. -1.
</event>
<event>
 5   0  0.3849687E-05  0.2609451E+04  0.7818609E-02  0.8364998E-01
        2   -1    0    0  501    0  0.00000000000E+00  0.00000000000E+00  0.20254184792E+04  0.20254184792E+04  0.25500000920E-02 0. -1.
       -2   -1    0    0    0  501  0.00000000000E+00  0.00000000000E+00 -0.84047242318E+03  0.84047242319E+03  0.25500000920E-02 0.  1.
    10030    2    1    2    0    0  0.00000000000E+00  0.00000000000E+00  0.11849460560E+04  0.28658909024E+04  0.26094508060E+04 0.  0.
        1    1    3    3  502    0  0.12751128257E+04  0.22193946722E+03  0.77340016626E+03  0.15077525203E+04  0.50400001928E-02 0. -1.
       -1    1    3    3    0  502 -0.12751128257E+04 -0.22193946722E+03  0.41154588978E+03  0.13581383821E+04  0.50400001928E-02 0.  1.
</event>
<event>
 5   0  0.3849687E-05  0.2510511E+04  0.7818609E-02  0.8399251E-01
        2   -1    0    0  501    0  0.00000000000E+00  0.00000000000E+00  0.19291183375E+04  0.19291183375E+04  0.25500000920E-02 0. -1.
       -2   -1    0    0    0  501  0.00000000000E+00  0.00000000000E+00 -0.81678041652E+03  0.81678041652E+03  0.25500000920E-02 0.  1.
    10030    2    1    2    0    0  0.00000000000E+00  0.00000000000E+00  0.11123379210E+04  0.27458987540E+04  0.25105107681E+04 0.  0.
        1    1    3    3  502    0 -0.11449902850E+04 -0.30414606731E+03  0.10234579409E+03  0.11891098539E+04  0.50400001928E-02 0.  1.
       -1    1    3    3    0  502  0.11449902850E+04  0.30414606731E+03  0.10099921269E+04  0.15567889001E+04  0.50400001928E-02 0. -1.
</event>
<event>
 5   0  0.3647623E-05  0.2646942E+04  0.7818609E-02  0.8352429E-01
        2   -1    0    0  501    0  0.00000000000E+00  0.00000000000E+00  0.15625069496E+04  0.15625069496E+04  0.25500000920E-02 0. -1.
       -2   -1    0    0    0  501  0.00000000000E+00  0.00000000000E+00 -0.11210031572E+04  0.11210031572E+04  0.25500000920E-02 0.  1.
    10030    2    1    2    0    0  0.00000000000E+00  0.00000000000E+00  0.44150379244E+03  0.26835101068E+04  0.26469418004E+04 0.  0.
        3    1    3    3  502    0  0.73466383453E+03 -0.14779959032E+03  0.13266936139E+04  0.15237098228E+04  0.10100000352E+00 0. -1.
       -3    1    3    3    0  502 -0.73466383453E+03  0.14779959032E+03 -0.88518982146E+03  0.11598002841E+04  0.10100000352E+00 0.  1.
</event>
<event>
 5   0  0.1533248E-05  0.2656231E+04  0.7818609E-02  0.8349348E-01
        1   -1    0    0  501    0  0.00000000000E+00  0.00000000000E+00  0.19178063092E+04  0.19178063092E+04  0.50400001928E-02 0.  1.
       -1   -1    0    0    0  501  0.00000000000E+00  0.00000000000E+00 -0.91974380334E+03  0.91974380336E+03  0.50400001928E-02 0. -1.
    10030    2    1    2    0    0  0.00000000000E+00  0.00000000000E+00  0.99806250588E+03  0.28375501126E+04  0.26562307648E+04 0.  0.
        4    1    3    3  502    0  0.12200574555E+04 -0.21872737820E+03 -0.10505030529E+02  0.12395538832E+04  0.12699999809E+01 0.  1.
       -4    1    3    3    0  502 -0.12200574555E+04  0.21872737820E+03  0.10085675364E+04  0.15979962294E+04  0.12699999809E+01 0. -1.
</event>
<event>
 5   0  0.1533248E-05  0.2561431E+04  0.7818609E-02  0.8381421E-01
        1   -1    0    0  501    0  0.00000000000E+00  0.00000000000E+00  0.11929657767E+04  0.11929657767E+04  0.50400001928E-02 0.  1.
       -1   -1    0    0    0  501  0.00000000000E+00  0.00000000000E+00 -0.13749201527E+04  0.13749201527E+04  0.50400001928E-02 0. -1.
    10030    2    1    2    0    0  0.00000000000E+00  0.00000000000E+00 -0.18195437601E+03  0.25678859294E+04  0.25614313873E+04 0.  0.
        4    1    3    3  502    0 -0.91729308073E+03 -0.39260062679E+03 -0.89591340909E+03  0.13409788580E+04  0.12699999809E+01 0. -1.
       -4    1    3    3    0  502  0.91729308073E+03  0.39260062679E+03  0.71395903309E+03  0.12269070714E+04  0.12699999809E+01 0.  1.
</event>
<event>
 5   0  0.1451052E-05  0.2639533E+04  0.7818609E-02  0.8354895E-01
       -1   -1    0    0    0  501  0.00000000000E+00  0.00000000000E+00  0.14207954048E+04  0.14207954048E+04  0.50400001928E-02 0.  1.
        1   -1    0    0  501    0  0.00000000000E+00  0.00000000000E+00 -0.12259217201E+04  0.12259217201E+04  0.50400001928E-02 0. -1.
    10030    2    1    2    0    0  0.00000000000E+00  0.00000000000E+00  0.19487368466E+03  0.26467171249E+04  0.26395332516E+04 0.  0.
        1    1    3    3  502    0 -0.10225765566E+04  0.66330376540E+03 -0.41005250683E+03  0.12859929073E+04  0.50400001928E-02 0. -1.
       -1    1    3    3    0  502  0.10225765566E+04 -0.66330376540E+03  0.60492619149E+03  0.13607242176E+04  0.50400001928E-02 0.  1.
</event>
<event>
 5   0  0.3508470E-05  0.2440049E+04  0.7818609E-02  0.8424660E-01
        2   -1    0    0  501    0  0.00000000000E+00  0.00000000000E+00  0.10568244829E+04  0.10568244829E+04  0.25500000920E-02 0.  1.
       -2   -1    0    0    0  501  0.00000000000E+00  0.00000000000E+00 -0.14084264405E+04  0.14084264405E+04  0.25500000920E-02 0. -1.
    10030    2    1    2    0    0  0.00000000000E+00  0.00000000000E+00 -0.35160195764E+03  0.24652509234E+04  0.24400488066E+04 0.  0.
        5    1    3    3  502    0  0.98300279892E+03  0.12277518758E+03 -0.89524371973E+03  0.13352346824E+04  0.46999998093E+01 0. -1.
       -5    1    3    3    0  502 -0.98300279892E+03 -0.12277518758E+03  0.54364176209E+03  0.11300162410E+04  0.46999998093E+01 0.  1.
</event>
<event>
 5   0  0.1497497E-05  0.2667910E+04  0.7818609E-02  0.8345493E-01
        1   -1    0    0  501    0  0.00000000000E+00  0.00000000000E+00  0.11663767797E+04  0.11663767798E+04  0.50400001928E-02 0. -1.
       -1   -1    0    0    0  501  0.00000000000E+00  0.00000000000E+00 -0.15256095242E+04  0.15256095242E+04  0.50400001928E-02 0.  1.
    10030    2    1    2    0    0  0.00000000000E+00  0.00000000000E+00 -0.35923274446E+03  0.26919863040E+04  0.26679096866E+04 0.  0.
        3    1    3    3  502    0 -0.12108892461E+04 -0.60633746125E+02  0.38173716841E+03  0.12710831969E+04  0.10100000352E+00 0. -1.
       -3    1    3    3    0  502  0.12108892461E+04  0.60633746125E+02 -0.74096991287E+03  0.14209031070E+04  0.10100000352E+00 0.  1.
</event>
<event>
 5   0  0.3508470E-05  0.2638112E+04  0.7818609E-02  0.8355369E-01
        2   -1    0    0  501    0  0.00000000000E+00  0.00000000000E+00  0.13361274795E+04  0.13361274795E+04  0.25500000920E-02 0. -1.
       -2   -1    0    0    0  501  0.00000000000E+00  0.00000000000E+00 -0.13022026866E+04  0.13022026866E+04  0.25500000920E-02 0.  1.
    10030    2    1    2    0    0  0.00000000000E+00  0.00000000000E+00  0.33924792920E+02  0.26383301661E+04  0.26381120472E+04 0.  0.
        5    1    3    3  502    0  0.12097719871E+04 -0.23170508976E+03  0.48886070440E+03  0.13252329560E+04  0.46999998093E+01 0. -1.
       -5    1    3    3    0  502 -0.12097719871E+04  0.23170508976E+03 -0.45493591148E+03  0.13130972100E+04  0.46999998093E+01 0.  1.
</event>
<event>
 5   0  0.3849687E-05  0.2600665E+04  0.7818609E-02  0.8367975E-01
       -2   -1    0    0    0  501  0.00000000000E+00  0.00000000000E+00  0.10049085156E+04  0.10049085156E+04  0.25500000920E-02 0.  1.
        2   -1    0    0  501    0  0.00000000000E+00  0.00000000000E+00 -0.16826057294E+04  0.16826057294E+04  0.25500000920E-02 0. -1.
    10030    2    1    2    0    0  0.00000000000E+00  0.00000000000E+00 -0.67769721374E+03  0.26875142450E+04  0.26006651656E+04 0.  0.
        1    1    3    3  502    0  0.13473947947E+03  0.12930670550E+04 -0.31174902127E+03  0.13369235536E+04  0.50400001928E-02 0. -1.
       -1    1    3    3    0  502 -0.13473947947E+03 -0.12930670550E+04 -0.36594819247E+03  0.13505906914E+04  0.50400001928E-02 0.  1.
</event>
<event>
 5   0  0.3441646E-05  0.2578093E+04  0.7818609E-02  0.8375681E-01
       -2   -1    0    0    0  501  0.00000000000E+00  0.00000000000E+00  0.95492521224E+03  0.95492521224E+03  0.25500000920E-02 0. -1.
        2   -1    0    0  501    0  0.00000000000E+00  0.00000000000E+00 -0.17400748015E+04  0.17400748015E+04  0.25500000920E-02 0.  1.
    10030    2    1    2    0    0  0.00000000000E+00  0.00000000000E+00 -0.78514958930E+03  0.26950000138E+04  0.25780933258E+04 0.  0.
        4    1    3    3  502    0  0.11510100404E+04 -0.48776606257E+03 -0.63830719207E+02  0.12517251370E+04  0.12699999809E+01 0. -1.
       -4    1    3    3    0  502 -0.11510100404E+04  0.48776606257E+03 -0.72131887010E+03  0.14432748768E+04  0.12699999809E+01 0.  1.
</event>
<event>
 5   0  0.3508470E-05  0.2487893E+04  0.7818609E-02  0.8407312E-01
        2   -1    0    0  501    0  0.00000000000E+00  0.00000000000E+00  0.21814333205E+04  0.21814333205E+04  0.25500000920E-02 0. -1.
       -2   -1    0    0    0  501  0.00000000000E+00  0.00000000000E+00 -0.70935118104E+03  0.70935118105E+03  0.25500000920E-02 0.  1.
    10030    2    1    2    0    0  0.00000000000E+00  0.00000000000E+00  0.14720821394E+04  0.28907845015E+04  0.24878925236E+04 0.  0.
        5    1    3    3  502    0 -0.96165785623E+03 -0.58002186961E+03  0.13576187390E+04  0.17619199562E+04  0.46999998093E+01 0. -1.
       -5    1    3    3    0  502  0.96165785623E+03  0.58002186961E+03  0.11446340049E+03  0.11288645453E+04  0.46999998093E+01 0.  1.
</event>
<event>
 5   0  0.1533248E-05  0.2597041E+04  0.7818609E-02  0.8369207E-01
        1   -1    0    0  501    0  0.00000000000E+00  0.00000000000E+00  0.31712459696E+04  0.31712459696E+04  0.50400001928E-02 0.  1.
       -1   -1    0    0    0  501  0.00000000000E+00  0.00000000000E+00 -0.53170143805E+03  0.53170143808E+03  0.50400001928E-02 0. -1.
    10030    2    1    2    0    0  0.00000000000E+00  0.00000000000E+00  0.26395445316E+04  0.37029474077E+04  0.25970414263E+04 0.  0.
        4    1    3    3  502    0 -0.11296295428E+03  0.10345597155E+04  0.24270488812E+04  0.26407654797E+04  0.12699999809E+01 0.  1.
       -4    1    3    3    0  502  0.11296295428E+03 -0.10345597155E+04  0.21249565034E+03  0.10621819280E+04  0.12699999809E+01 0. -1.
</event>
<event>
 5   0  0.3849687E-05  0.2509283E+04  0.7818609E-02  0.8399686E-01
       -2   -1    0    0    0  501  0.00000000000E+00  0.00000000000E+00  0.14702688119E+04  0.14702688119E+04  0.25500000920E-02 0. -1.
        2   -1    0    0  501    0  0.00000000000E+00  0.00000000000E+00 -0.10706380159E+04  0.10706380159E+04  0.25500000920E-02 0.  1.
    10030    2    1    2    0    0  0.00000000000E+00  0.00000000000E+00  0.39963079594E+03  0.25409068278E+04  0.25092833109E+04 0.  0.
        1    1    3    3  502    0  0.94479974850E+03 -0.66840007585E+03 -0.29076988253E+03  0.11932947460E+04  0.50400001928E-02 0.  1.
       -1    1    3    3    0  502 -0.94479974850E+03  0.66840007585E+03  0.69040067847E+03  0.13476120818E+04  0.50400001928E-02 0. -1.
</event>
<event>
 5   0  0.1533248E-05  0.2858542E+04  0.7818609E-02  0.8285320E-01
       -1   -1    0    0    0  501  0.00000000000E+00  0.00000000000E+00  0.98938472592E+03  0.98938472593E+03  0.50400001928E-02 0. -1.
        1   -1    0    0  501    0  0.00000000000E+00  0.00000000000E+00 -0.20647330379E+04  0.20647330379E+04  0.50400001928E-02 0.  1.
    10030    2    1    2    0    0  0.00000000000E+00  0.00000000000E+00 -0.10753483120E+04  0.30541177639E+04  0.28585418177E+04 0.  0.
        4    1    3    3  502    0  0.62012257533E+03  0.86281362301E+03  0.48366555622E+03  0.11674473606E+04  0.12699999809E+01 0. -1.
       -4    1    3    3    0  502 -0.62012257533E+03 -0.86281362301E+03 -0.15590138682E+04  0.18866704033E+04  0.12699999809E+01 0.  1.
</event>
<event>
 5   0  0.1435062E-05  0.2585979E+04  0.7818609E-02  0.8372979E-01
       -1   -1    0    0    0  501  0.00000000000E+00  0.00000000000E+00  0.13668210078E+04  0.13668210078E+04  0.50400001928E-02 0. -1.
        1   -1    0    0  501    0  0.00000000000E+00  0.00000000000E+00 -0.12231461394E+04  0.12231461394E+04  0.50400001928E-02 0.  1.
    10030    2    1    2    0    0  0.00000000000E+00  0.00000000000E+00  0.14367486845E+03  0.25899671472E+04  0.25859789937E+04 0.  0.
        2    1    3    3  502    0 -0.64383039295E+03  0.50435486346E+03 -0.93117119179E+03  0.12393430484E+04  0.25500000920E-02 0.  1.
       -2    1    3    3    0  502  0.64383039295E+03 -0.50435486346E+03  0.10748460602E+04  0.13506240988E+04  0.25500000920E-02 0. -1.
</event>
<event>
 5   0  0.1435062E-05  0.2593097E+04  0.7818609E-02  0.8370550E-01
        1   -1    0    0  501    0  0.00000000000E+00  0.00000000000E+00  0.10534296895E+04  0.10534296895E+04  0.50400001928E-02 0. -1.
       -1   -1    0    0    0  501  0.00000000000E+00  0.00000000000E+00 -0.15957758412E+04  0.15957758412E+04  0.50400001928E-02 0.  1.
    10030    2    1    2    0    0  0.00000000000E+00  0.00000000000E+00 -0.54234615172E+03  0.26492055308E+04  0.25930967194E+04 0.  0.
        2    1    3    3  502    0  0.11790576671E+04 -0.24487699224E+03  0.21974053312E+03  0.12241027839E+04  0.25500000920E-02 0.  1.
       -2    1    3    3    0  502 -0.11790576671E+04  0.24487699224E+03 -0.76208668484E+03  0.14251027468E+04  0.25500000920E-02 0. -1.
</event>
<event>
 5   0  0.1451052E-05  0.2201787E+04  0.7818609E-02  0.8517685E-01
        1   -1    0    0  501    0  0.00000000000E+00  0.00000000000E+00  0.21941541389E+04  0.21941541389E+04  0.50400001928E-02 0. -1.
       -1   -1    0    0    0  501  0.00000000000E+00  0.00000000000E+00 -0.55236152994E+03  0.55236152997E+03  0.50400001928E-02 0.  1.
    10030    2    1    2    0    0  0.00000000000E+00  0.00000000000E+00  0.16417926090E+04  0.27465156689E+04  0.22017868536E+04 0.  0.
        1    1    3    3  502    0 -0.74160592438E+03  0.34608072648E+03  0.17394247684E+04  0.19223292489E+04  0.50400001928E-02 0. -1.
       -1    1    3    3    0  502  0.74160592438E+03 -0.34608072648E+03 -0.97632159401E+02  0.82418641999E+03  0.50400001928E-02 0.  1.
</event>
<event>
 5   0  0.1533248E-05  0.2587836E+04  0.7818609E-02  0.8372345E-01
       -1   -1    0    0    0  501  0.00000000000E+00  0.00000000000E+00  0.14068878448E+04  0.14068878448E+04  0.50400001928E-02 0.  1.
        1   -1    0    0  501    0  0.00000000000E+00  0.00000000000E+00 -0.11900189575E+04  0.11900189575E+04  0.50400001928E-02 0. -1.
    10030    2    1    2    0    0  0.00000000000E+00  0.00000000000E+00  0.21686888732E+03  0.25969068024E+04  0.25878355485E+04 0.  0.
        4    1    3    3  502    0 -0.67367873398E+03  0.10553406713E+04 -0.21925979923E+03  0.12710875035E+04  0.12699999809E+01 0. -1.
       -4    1    3    3    0  502  0.67367873398E+03 -0.10553406713E+04  0.43612868655E+03  0.13258192989E+04  0.12699999809E+01 0.  1.
</event>
<event>
 5   0  0.3441646E-05  0.2557339E+04  0.7818609E-02  0.8382838E-01
       -2   -1    0    0    0  501  0.00000000000E+00  0.00000000000E+00  0.12162123588E+04  0.12162123588E+04  0.25500000920E-02 0.  1.
        2   -1    0    0  501    0  0.00000000000E+00  0.00000000000E+00 -0.13443343239E+04  0.13443343239E+04  0.25500000920E-02 0. -1.
    10030    2    1    2    0    0  0.00000000000E+00  0.00000000000E+00 -0.12812196509E+03  0.25605466827E+04  0.25573392572E+04 0.  0.
        4    1    3    3  502    0  0.47903352759E+03 -0.10513698589E+04  0.48447895032E+03  0.12528260721E+04  0.12699999809E+01 0.  1.
       -4    1    3    3    0  502 -0.47903352759E+03  0.10513698589E+04 -0.61260091541E+03  0.13077206105E+04  0.12699999809E+01 0. -1.
</event>
<event>
 5   0  0.3499642E-05  0.2621636E+04  0.7818609E-02  0.8360889E-01
        2   -1    0    0  501    0  0.00000000000E+00  0.00000000000E+00  0.11500926080E+04  0.11500926080E+04  0.25500000920E-02 0.  1.
       -2   -1    0    0    0  501  0.00000000000E+00  0.00000000000E+00 -0.14940052394E+04  0.14940052394E+04  0.25500000920E-02 0. -1.
    10030    2    1    2    0    0  0.00000000000E+00  0.00000000000E+00 -0.34391263145E+03  0.26440978474E+04  0.26216364219E+04 0.  0.
        2    1    3    3  502    0 -0.70707870369E+03 -0.17632375896E+03  0.92696326294E+03  0.11791146051E+04  0.25500000920E-02 0.  1.
       -2    1    3    3    0  502  0.70707870369E+03  0.17632375896E+03 -0.12708758944E+04  0.14649832423E+04  0.25500000920E-02 0. -1.
</event>
<event>
 5   0  0.1474554E-05  0.1986583E+04  0.7818609E-02  0.8612919E-01
        1   -1    0    0  501    0  0.00000000000E+00  0.00000000000E+00  0.11804210380E+04  0.11804210380E+04  0.50400001928E-02 0. -1.
       -1   -1    0    0    0  501  0.00000000000E+00  0.00000000000E+00 -0.83582755004E+03  0.83582755006E+03  0.50400001928E-02 0.  1.
    10030    2    1    2    0    0  0.00000000000E+00  0.00000000000E+00  0.34459348797E+03  0.20162485881E+04  0.19865834231E+04 0.  0.
        5    1    3    3  502    0  0.39957088218E+02  0.83577156915E+03  0.71554242828E+03  0.11009694552E+04  0.46999998093E+01 0. -1.
       -5    1    3    3    0  502 -0.39957088218E+02 -0.83577156915E+03 -0.37094894031E+03  0.91527913284E+03  0.46999998093E+01 0.  1.
</event>
<event>
 5   0  0.3499642E-05  0.2587321E+04  0.7818609E-02  0.8372521E-01
       -2   -1    0    0    0  501  0.00000000000E+00  0.00000000000E+00  0.12560581199E+04  0.12560581199E+04  0.25500000920E-02 0.  1.
        2   -1    0    0  501    0  0.00000000000E+00  0.00000000000E+00 -0.13323882221E+04  0.13323882221E+04  0.25500000920E-02 0. -1.
    10030    2    1    2    0    0  0.00000000000E+00  0.00000000000E+00 -0.76330102144E+02  0.25884463420E+04  0.25873206567E+04 0.  0.
        2    1    3    3  502    0 -0.11633256549E+04 -0.55562843671E+03 -0.14548476839E+03  0.12973878976E+04  0.25500000920E-02 0.  1.
       -2    1    3    3    0  502  0.11633256549E+04  0.55562843671E+03  0.69154666251E+02  0.12910584444E+04  0.25500000920E-02 0. -1.
</event>
<event>
 5   0  0.1474554E-05  0.2574913E+04  0.7818609E-02  0.8376773E-01
        1   -1    0    0  501    0  0.00000000000E+00  0.00000000000E+00  0.19243155454E+04  0.19243155454E+04  0.50400001928E-02 0.  1.
       -1   -1    0    0    0  501  0.00000000000E+00  0.00000000000E+00 -0.86136814548E+03  0.86136814549E+03  0.50400001928E-02 0. -1.
    10030    2    1    2    0    0  0.00000000000E+00  0.00000000000E+00  0.10629473999E+04  0.27856836909E+04  0.25749129016E+04 0.  0.
        5    1    3    3  502    0  0.56799528790E+03 -0.86698650326E+02 -0.71495658430E+03  0.91723514460E+03  0.46999998093E+01 0. -1.
       -5    1    3    3    0  502 -0.56799528790E+03  0.86698650326E+02  0.17779039842E+04  0.18684485463E+04  0.46999998093E+01 0.  1.
</event>
<event>
 5   0  0.3849687E-05  0.2670300E+04  0.7818609E-02  0.8344706E-01
       -2   -1    0    0    0  501  0.00000000000E+00  0.00000000000E+00  0.23380357748E+04  0.23380357748E+04  0.25500000920E-02 0. -1.
        2   -1    0    0  501    0  0.00000000000E+00  0.00000000000E+00 -0.76244600375E+03  0.76244600375E+03  0.25500000920E-02 0.  1.
    10030    2    1    2    0    0  0.00000000000E+00  0.00000000000E+00  0.15755897711E+04  0.31004817786E+04  0.26703003825E+04 0.  0.
        1    1    3    3  502    0 -0.66763339700E+02  0.11206957564E+04  0.16268520255E+04  0.19766294126E+04  0.50400001928E-02 0. -1.
       -1    1    3    3    0  502  0.66763339700E+02 -0.11206957564E+04 -0.51262254389E+02  0.11238523660E+04  0.50400001928E-02 0.  1.
</event>
<event>
 5   0  0.3441646E-05  0.2708736E+04  0.7818609E-02  0.8332176E-01
        2   -1    0    0  501    0  0.00000000000E+00  0.00000000000E+00  0.18475327956E+04  0.18475327956E+04  0.25500000920E-02 0. -1.
       -2   -1    0    0    0  501  0.00000000000E+00  0.00000000000E+00 -0.99284442053E+03  0.99284442054E+03  0.25500000920E-02 0.  1.
    10030    2    1    2    0    0  0.00000000000E+00  0.00000000000E+00  0.85468837504E+03  0.28403772161E+04  0.27087359619E+04 0.  0.
        4    1    3    3  502    0  0.45289588998E+03  0.11927376261E+04 -0.49247455347E+02  0.12767790164E+04  0.12699999809E+01 0.  1.
       -4    1    3    3    0  502 -0.45289588998E+03 -0.11927376261E+04  0.90393583039E+03  0.15635981997E+04  0.12699999809E+01 0. -1.
</event>
<event>
 5   0  0.1474554E-05  0.2922197E+04  0.7818609E-02  0.8266304E-01
       -1   -1    0    0    0  501  0.00000000000E+00  0.00000000000E+00  0.93377640011E+03  0.93377640012E+03  0.50400001928E-02 0. -1.
        1   -1    0    0  501    0  0.00000000000E+00  0.00000000000E+00 -0.22862096490E+04  0.22862096490E+04  0.50400001928E-02 0.  1.
    10030    2    1    2    0    0  0.00000000000E+00  0.00000000000E+00 -0.13524332489E+04  0.32199860491E+04  0.29221968558E+04 0.  0.
        5    1    3    3  502    0  0.63317925665E+03 -0.11886288258E+04 -0.13005531311E+04  0.18722219402E+04  0.46999998093E+01 0.  1.
       -5    1    3    3    0  502 -0.63317925665E+03  0.11886288258E+04 -0.51880117799E+02  0.13477641089E+04  0.46999998093E+01 0. -1.
</event>
<event>
 5   0  0.3441646E-05  0.2342720E+04  0.7818609E-02  0.8461265E-01
        2   -1    0    0  501    0  0.00000000000E+00  0.00000000000E+00  0.19499704859E+04  0.19499704859E+04  0.25500000920E-02 0.  1.
       -2   -1    0    0    0  501  0.00000000000E+00  0.00000000000E+00 -0.70364389302E+03  0.70364389302E+03  0.25500000920E-02 0. -1.
    10030    2    1    2    0    0  0.00000000000E+00  0.00000000000E+00  0.12463265929E+04  0.26536143789E+04  0.23427204904E+04 0.  0.
        4    1    3    3  502    0  0.10184814846E+03  0.48136171109E+02  0.19438197632E+04  0.19470816678E+04  0.12699999809E+01 0.  1.
       -4    1    3    3    0  502 -0.10184814846E+03 -0.48136171109E+02 -0.69749317034E+03  0.70653271112E+03  0.12699999809E+01 0. -1.
</event>
<event>
 5   0  0.3508470E-05  0.2578672E+04  0.7818609E-02  0.8375482E-01
       -2   -1    0    0    0  501  0.00000000000E+00  0.00000000000E+00  0.67001349149E+03  0.67001349150E+03  0.25500000920E-02 0. -1.
        2   -1    0    0  501    0  0.00000000000E+00  0.00000000000E+00 -0.24811251650E+04  0.24811251650E+04  0.25500000920E-02 0.  1.
    10030    2    1    2    0    0  0.00000000000E+00  0.00000000000E+00 -0.18111116735E+04  0.31511386565E+04  0.25786720106E+04 0.  0.
        5    1    3    3  502    0 -0.14454859691E+03 -0.72382207572E+03 -0.21973858908E+04  0.23180464916E+04  0.46999998093E+01 0.  1.
       -5    1    3    3    0  502  0.14454859691E+03  0.72382207572E+03  0.38627421733E+03  0.83309216485E+03  0.46999998093E+01 0. -1.
</event>
<event>
 5   0  0.3849687E-05  0.2581475E+04  0.7818609E-02  0.8374521E-01
       -2   -1    0    0    0  501  0.00000000000E+00  0.00000000000E+00  0.11029769995E+04  0.11029769995E+04  0.25500000920E-02 0.  1.
        2   -1    0    0  501    0  0.00000000000E+00  0.00000000000E+00 -0.15104606027E+04  0.15104606027E+04  0.25500000920E-02 0. -1.
    10030    2    1    2    0    0  0.00000000000E+00  0.00000000000E+00 -0.40748360319E+03  0.26134376022E+04  0.25814750074E+04 0.  0.
        1    1    3    3  502    0  0.93796701253E+03 -0.47565331307E+02  0.69263541602E+03  0.11669568959E+04  0.50400001928E-02 0.  1.
       -1    1    3    3    0  502 -0.93796701253E+03  0.47565331307E+02 -0.11001190192E+04  0.14464807063E+04  0.50400001928E-02 0. -1.
</event>
<event>
 5   0  0.1533248E-05  0.2617518E+04  0.7818609E-02  0.8362275E-01
        1   -1    0    0  501    0  0.00000000000E+00  0.00000000000E+00  0.17368210879E+04  0.17368210879E+04  0.50400001928E-02 0. -1.
       -1   -1    0    0    0  501  0.00000000000E+00  0.00000000000E+00 -0.98619816050E+03  0.98619816052E+03  0.50400001928E-02 0.  1.
    10030    2    1    2    0    0  0.00000000000E+00  0.00000000000E+00  0.75062292736E+03  0.27230192484E+04  0.26175177264E+04 0.  0.
        4    1    3    3  502    0  0.10276244168E+04  0.60359096649E+03 -0.18733361068E+03  0.12064118249E+04  0.12699999809E+01 0. -1.
       -4    1    3    3    0  502 -0.10276244168E+04 -0.60359096649E+03  0.93795653804E+03  0.15166074235E+04  0.12699999809E+01 0.  1.
</event>
<event>
 5   0  0.3849687E-05  0.2594541E+04  0.7818609E-02  0.8370058E-01
        2   -1    0    0  501    0  0.00000000000E+00  0.00000000000E+00  0.16374616275E+04  0.16374616275E+04  0.25500000920E-02 0.  1.
       -2   -1    0    0    0  501  0.00000000000E+00  0.00000000000E+00 -0.10277561234E+04  0.10277561235E+04  0.25500000920E-02 0. -1.
    10030    2    1    2    0    0  0.00000000000E+00  0.00000000000E+00  0.60970550401E+03  0.26652177509E+04  0.25945413580E+04 0.  0.
        1    1    3    3  502    0  0.76489817245E+03  0.94469426763E+03  0.77040321082E+03  0.14391099961E+04  0.50400001928E-02 0.  1.
       -1    1    3    3    0  502 -0.76489817245E+03 -0.94469426763E+03 -0.16069770681E+03  0.12261077548E+04  0.50400001928E-02 0. -1.
</event>
<event>
 5   0  0.1435062E-05  0.2592614E+04  0.7818609E-02  0.8370715E-01
        1   -1    0    0  501    0  0.00000000000E+00  0.00000000000E+00  0.18293139305E+04  0.18293139306E+04  0.50400001928E-02 0.  1.
       -1   -1    0    0    0  501  0.00000000000E+00  0.00000000000E+00 -0.91860195189E+03  0.91860195190E+03  0.50400001928E-02 0. -1.
    10030    2    1    2    0    0  0.00000000000E+00  0.00000000000E+00  0.91071197866E+03  0.27479158825E+04  0.25926136212E+04 0.  0.
        2    1    3    3  502    0  0.84004344153E+02 -0.12444330563E+04  0.82969942488E+03  0.14980225289E+04  0.25500000920E-02 0. -1.
       -2    1    3    3    0  502 -0.84004344153E+02  0.12444330563E+04  0.81012553772E+02  0.12498933536E+04  0.25500000920E-02 0.  1.
</event>
<event>
 5   0  0.3647623E-05  0.2364268E+04  0.7818609E-02  0.8453004E-01
        2   -1    0    0  501    0  0.00000000000E+00  0.00000000000E+00  0.19893590173E+04  0.19893590173E+04  0.25500000920E-02 0.  1.
       -2   -1    0    0    0  501  0.00000000000E+00  0.00000000000E+00 -0.70245764754E+03  0.70245764755E+03  0.25500000920E-02 0. -1.
    10030    2    1    2    0    0  0.00000000000E+00  0.00000000000E+00  0.12869013698E+04  0.26918166649E+04  0.23642677136E+04 0.  0.
        3    1    3    3  502    0  0.94573321804E+03 -0.58712345216E+03  0.19043827222E+03  0.11293325522E+04  0.10100000352E+00 0. -1.
       -3    1    3    3    0  502 -0.94573321804E+03  0.58712345216E+03  0.10964630976E+04  0.15624841126E+04  0.10100000352E+00 0.  1.
</event>
<event>
 5   0  0.1533248E-05  0.2688540E+04  0.7818609E-02  0.8338733E-01
       -1   -1    0    0    0  501  0.00000000000E+00  0.00000000000E+00  0.10307190783E+04  0.10307190783E+04  0.50400001928E-02 0.  1.
        1   -1    0    0  501    0  0.00000000000E+00  0.00000000000E+00 -0.17532046368E+04  0.17532046368E+04  0.50400001928E-02 0. -1.
    10030    2    1    2    0    0  0.00000000000E+00  0.00000000000E+00 -0.72248555847E+03  0.27839237152E+04  0.26885397281E+04 0.  0.
        4    1    3    3  502    0  0.69843683471E+03 -0.67362395050E+03  0.60207270543E+03  0.11419616431E+04  0.12699999809E+01 0.  1.
       -4    1    3    3    0  502 -0.69843683471E+03  0.67362395050E+03 -0.13245582639E+04  0.16419620721E+04  0.12699999809E+01 0. -1.
</event>
<event>
 5   0  0.1451052E-05  0.2567221E+04  0.7818609E-02  0.8379421E-01
       -1   -1    0    0    0  501  0.00000000000E+00  0.00000000000E+00  0.10779071494E+04  0.10779071494E+04  0.50400001928E-02 0. -1.
        1   -1    0    0  501    0  0.00000000000E+00  0.00000000000E+00 -0.15285693713E+04  0.15285693713E+04  0.50400001928E-02 0.  1.
    10030    2    1    2    0    0  0.00000000000E+00  0.00000000000E+00 -0.45066222195E+03  0.26064765207E+04  0.25672209517E+04 0.  0.
        1    1    3    3  502    0  0.10688107900E+04 -0.70115818050E+03 -0.10659606526E+03  0.12827088602E+04  0.50400001928E-02 0.  1.
       -1    1    3    3    0  502 -0.10688107900E+04  0.70115818050E+03 -0.34406615669E+03  0.13237676605E+04  0.50400001928E-02 0. -1.
</event>
<event>
 5   0  0.3849687E-05  0.2562959E+04  0.7818609E-02  0.8380893E-01
       -2   -1    0    0    0  501  0.00000000000E+00  0.00000000000E+00  0.10826205408E+04  0.10826205408E+04  0.25500000920E-02 0.  1.
        2   -1    0    0  501    0  0.00000000000E+00  0.00000000000E+00 -0.15168659587E+04  0.15168659587E+04  0.25500000920E-02 0. -1.
    10030    2    1    2    0    0  0.00000000000E+00  0.00000000000E+00 -0.43424541791E+03  0.25994864994E+04  0.25629594179E+04 0.  0.
        1    1    3    3  502    0 -0.92551708766E+03 -0.71895005680E+03 -0.74289194387E+03  0.13875732428E+04  0.50400001928E-02 0. -1.
       -1    1    3    3    0  502  0.92551708766E+03  0.71895005680E+03  0.30864652596E+03  0.12119132567E+04  0.50400001928E-02 0.  1.
</event>
<event>
 5   0  0.3441646E-05  0.2587093E+04  0.7818609E-02  0.8372599E-01
        2   -1    0    0  501    0  0.00000000000E+00  0.00000000000E+00  0.16192690476E+04  0.16192690476E+04  0.25500000920E-02 0.  1.
       -2   -1    0    0    0  501  0.00000000000E+00  0.00000000000E+00 -0.10333447153E+04  0.10333447153E+04  0.25500000920E-02 0. -1.
    10030    2    1    2    0    0  0.00000000000E+00  0.00000000000E+00  0.58592433234E+03  0.26526137629E+04  0.25870934370E+04 0.  0.
        4    1    3    3  502    0 -0.65442132079E+03  0.90312178293E+03 -0.37889254352E+03  0.11779038129E+04  0.12699999809E+01 0. -1.
       -4    1    3    3    0  502  0.65442132079E+03 -0.90312178293E+03  0.96481687586E+03  0.14747099500E+04  0.12699999809E+01 0.  1.
</event>
<event>
 5   0  0.1474554E-05  0.2490755E+04  0.7818609E-02  0.8406287E-01
        1   -1    0    0  501    0  0.00000000000E+00  0.00000000000E+00  0.19367026558E+04  0.19367026558E+04  0.50400001928E-02 0.  1.
       -1   -1    0    0    0  501  0.00000000000E+00  0.00000000000E+00 -0.80082740983E+03  0.80082740984E+03  0.50400001928E-02 0. -1.
    10030    2    1    2    0    0  0.00000000000E+00  0.00000000000E+00  0.11358752459E+04  0.27375300656E+04  0.24907545615E+04 0.  0.
        5    1    3    3  502    0 -0.46427606101E+03 -0.42917653616E+03 -0.61130433704E+03  0.87946565737E+03  0.46999998093E+01 0. -1.
       -5    1    3    3    0  502  0.46427606101E+03  0.42917653616E+03  0.17471795830E+04  0.18580644082E+04  0.46999998093E+01 0.  1.
</event>
<event>
 5   0  0.3849687E-05  0.1934564E+04  0.7818609E-02  0.8637840E-01
        2   -1    0    0  501    0  0.00000000000E+00  0.00000000000E+00  0.21952626629E+04  0.21952626629E+04  0.25500000920E-02 0. -1.
       -2   -1    0    0    0  501  0.00000000000E+00  0.00000000000E+00 -0.42620616158E+03  0.42620616159E+03  0.25500000920E-02 0.  1.
    10030    2    1    2    0    0  0.00000000000E+00  0.00000000000E+00  0.17690565014E+04  0.26214688245E+04  0.19345640059E+04 0.  0.
        1    1    3    3  502    0 -0.83880854112E+03  0.10332913488E+03  0.15220705489E+04  0.17409696823E+04  0.50400001928E-02 0. -1.
       -1    1    3    3    0  502  0.83880854112E+03 -0.10332913488E+03  0.24698595247E+03  0.88049914226E+03  0.50400001928E-02 0.  1.
</event>
<event>
 5   0  0.3647623E-05  0.2606333E+04  0.7818609E-02  0.8366053E-01
       -2   -1    0    0    0  501  0.00000000000E+00  0.00000000000E+00  0.65538350247E+03  0.65538350248E+03  0.25500000920E-02 0.  1.
        2   -1    0    0  501    0  0.00000000000E+00  0.00000000000E+00 -0.25912205394E+04  0.25912205394E+04  0.25500000920E-02 0. -1.
    10030    2    1    2    0    0  0.00000000000E+00  0.00000000000E+00 -0.19358370369E+04  0.32466040418E+04  0.26063332042E+04 0.  0.
        3    1    3    3  502    0  0.12709549496E+04 -0.23631289760E+02 -0.13253995244E+04  0.18364555076E+04  0.10100000352E+00 0. -1.
       -3    1    3    3    0  502 -0.12709549496E+04  0.23631289760E+02 -0.61043751252E+03  0.14101485343E+04  0.10100000352E+00 0.  1.
</event>
<event>
 5   0  0.1451052E-05  0.2171209E+04  0.7818609E-02  0.8530508E-01
        1   -1    0    0  501    0  0.00000000000E+00  0.00000000000E+00  0.15245052869E+04  0.15245052869E+04  0.50400001928E-02 0.  1.
       -1   -1    0    0    0  501  0.00000000000E+00  0.00000000000E+00 -0.77306234121E+03  0.77306234123E+03  0.50400001928E-02 0. -1.
    10030    2    1    2    0    0  0.00000000000E+00  0.00000000000E+00  0.75144294570E+03  0.22975676282E+04  0.21712094568E+04 0.  0.
        1    1    3    3  502    0  0.70832276210E+03 -0.73813328711E+03 -0.87053098137E+01  0.10230531107E+04  0.50400001928E-02 0.  1.
       -1    1    3    3    0  502 -0.70832276210E+03  0.73813328711E+03  0.76014825552E+03  0.12745145175E+04  0.50400001928E-02 0. -1.
</event>
<event>
 5   0  0.1451052E-05  0.2612361E+04  0.7818609E-02  0.8364015E-01
       -1   -1    0    0    0  501  0.00000000000E+00  0.00000000000E+00  0.16143945971E+04  0.16143945972E+04  0.50400001928E-02 0.  1.
        1   -1    0    0  501    0  0.00000000000E+00  0.00000000000E+00 -0.10568093379E+04  0.10568093379E+04  0.50400001928E-02 0. -1.
    10030    2    1    2    0    0  0.00000000000E+00  0.00000000000E+00  0.55758525929E+03  0.26712039350E+04  0.26123608367E+04 0.  0.
        1    1    3    3  502    0 -0.38224809285E+03 -0.50648619827E+03  0.14462032424E+04  0.15792864503E+04  0.50400001928E-02 0.  1.
       -1    1    3    3    0  502  0.38224809285E+03  0.50648619827E+03 -0.88861798314E+03  0.10919174848E+04  0.50400001928E-02 0. -1.
</event>
<event>
 5   0  0.1497497E-05  0.2582719E+04  0.7818609E-02  0.8374095E-01
        1   -1    0    0  501    0  0.00000000000E+00  0.00000000000E+00  0.11619304070E+04  0.11619304070E+04  0.50400001928E-02 0. -1.
       -1   -1    0    0    0  501  0.00000000000E+00  0.00000000000E+00 -0.14352064152E+04  0.14352064153E+04  0.50400001928E-02 0.  1.
    10030    2    1    2    0    0  0.00000000000E+00  0.00000000000E+00 -0.27327600825E+03  0.25971368223E+04  0.25827194770E+04 0.  0.
        3    1    3    3  502    0 -0.26678480182E+03  0.11097455881E+04 -0.74408006291E+03  0.13624846976E+04  0.10100000352E+00 0. -1.
       -3    1    3    3    0  502  0.26678480182E+03 -0.11097455881E+04  0.47080405466E+03  0.12346521247E+04  0.10100000352E+00 0.  1.
</event>
<event>
 5   0  0.1474554E-05  0.2724621E+04  0.7818609E-02  0.8327060E-01
       -1   -1    0    0    0  501  0.00000000000E+00  0.00000000000E+00  0.12472845908E+04  0.12472845908E+04  0.50400001928E-02 0. -1.
        1   -1    0    0  501    0  0.00000000000E+00  0.00000000000E+00 -0.14879436891E+04  0.14879436891E+04  0.50400001928E-02 0.  1.
    10030    2    1    2    0    0  0.00000000000E+00  0.00000000000E+00 -0.24065909834E+03  0.27352282799E+04  0.27246205133E+04 0.  0.
        5    1    3    3  502    0 -0.94445870995E+03  0.70940164066E+03  0.56099842162E+03  0.13076674889E+04  0.46999998093E+01 0. -1.
       -5    1    3    3    0  502  0.94445870995E+03 -0.70940164066E+03 -0.80165751995E+03  0.14275607910E+04  0.46999998093E+01 0.  1.
</event>
<event>
 5   0  0.1474554E-05  0.2619741E+04  0.7818609E-02  0.8361526E-01
        1   -1    0    0  501    0  0.00000000000E+00  0.00000000000E+00  0.27370223085E+04  0.27370223085E+04  0.50400001928E-02 0.  1.
       -1   -1    0    0    0  501  0.00000000000E+00  0.00000000000E+00 -0.62687127156E+03  0.62687127158E+03  0.50400001928E-02 0. -1.
    10030    2    1    2    0    0  0.00000000000E+00  0.00000000000E+00  0.21101510370E+04  0.33638935801E+04  0.26197409451E+04 0.  0.
        5    1    3    3  502    0  0.98477178967E+03 -0.50911582328E+03  0.19509418178E+04  0.22439185515E+04  0.46999998093E+01 0.  1.
       -5    1    3    3    0  502 -0.98477178967E+03  0.50911582328E+03  0.15920921916E+03  0.11199750286E+04  0.46999998093E+01 0. -1.
</event>
<event>
 5   0  0.3441646E-05  0.2672995E+04  0.7818609E-02  0.8343821E-01
        2   -1    0    0  501    0  0.00000000000E+00  0.00000000000E+00  0.14329428528E+04  0.14329428528E+04  0.25500000920E-02 0. -1.
       -2   -1    0    0    0  501  0.00000000000E+00  0.00000000000E+00 -0.12465437013E+04  0.12465437013E+04  0.25500000920E-02 0.  1.
    10030    2    1    2    0    0  0.00000000000E+00  0.00000000000E+00  0.18639915152E+03  0.26794865541E+04  0.26729952394E+04 0.  0.
        4    1    3    3  502    0  0.30855694445E+03  0.12471348759E+04  0.46243017989E+03  0.13654288963E+04  0.12699999809E+01 0.  1.
       -4    1    3    3    0  502 -0.30855694445E+03 -0.12471348759E+04 -0.27603102838E+03  0.13140576578E+04  0.12699999809E+01 0. -1.
</event>
<event>
 5   0  0.3849687E-05  0.2665000E+04  0.7818609E-02  0.8346451E-01
       -2   -1    0    0    0  501  0.00000000000E+00  0.00000000000E+00  0.11586818056E+04  0.11586818057E+04  0.25500000920E-02 0.  1.
        2   -1    0    0  501    0  0.00000000000E+00  0.00000000000E+00 -0.15323935223E+04  0.15323935223E+04  0.25500000920E-02 0. -1.
    10030    2    1    2    0    0  0.00000000000E+00  0.00000000000E+00 -0.37371171669E+03  0.26910753280E+04  0.26650001827E+04 0.  0.
        1    1    3    3  502    0 -0.81988453549E+03  0.41950975023E+03  0.78556034093E+03  0.12104974727E+04  0.50400001928E-02 0.  1.
       -1    1    3    3    0  502  0.81988453549E+03 -0.41950975023E+03 -0.11592720576E+04  0.14805778553E+04  0.50400001928E-02 0. -1.
</event>
<event>
 5   0  0.1435062E-05  0.2546609E+04  0.7818609E-02  0.8386566E-01
        1   -1    0    0  501    0  0.00000000000E+00  0.00000000000E+00  0.12447169197E+04  0.12447169197E+04  0.50400001928E-02 0. -1.
       -1   -1    0    0    0  501  0.00000000000E+00  0.00000000000E+00 -0.13025487925E+04  0.13025487925E+04  0.50400001928E-02 0.  1.
    10030    2    1    2    0    0  0.00000000000E+00  0.00000000000E+00 -0.57831872785E+02  0.25472657123E+04  0.25466091344E+04 0.  0.
        2    1    3    3  502    0  0.47649292291E+03 -0.11842414304E+03 -0.12040527564E+04  0.13003125868E+04  0.25500000920E-02 0.  1.
       -2    1    3    3    0  502 -0.47649292291E+03  0.11842414304E+03  0.11462208836E+04  0.12469531255E+04  0.25500000920E-02 0. -1.
</event>
<event>
 5   0  0.3508470E-05  0.2577443E+04  0.7818609E-02  0.8375904E-01
        2   -1    0    0  501    0  0.00000000000E+00  0.00000000000E+00  0.21185658059E+04  0.21185658059E+04  0.25500000920E-02 0. -1.
       -2   -1    0    0    0  501  0.00000000000E+00  0.00000000000E+00 -0.78392824367E+03  0.78392824367E+03  0.25500000920E-02 0.  1.
    10030    2    1    2    0    0  0.00000000000E+00  0.00000000000E+00  0.13346375623E+04  0.29024940496E+04  0.25774433622E+04 0.  0.
        5    1    3    3  502    0  0.66216592153E+03  0.23736749138E+02  0.19120459030E+04  0.20236029171E+04  0.46999998093E+01 0. -1.
       -5    1    3    3    0  502 -0.66216592153E+03 -0.23736749138E+02 -0.57740834073E+03  0.87889113252E+03  0.46999998093E+01 0.  1.
</event>
<event>
 5   0  0.1435062E-05  0.2508063E+04  0.7818609E-02  0.8400119E-01
       -1   -1    0    0    0  501  0.00000000000E+00  0.00000000000E+00  0.77757896218E+03  0.77757896220E+03  0.50400001928E-02 0. -1.
        1   -1    0    0  501    0  0.00000000000E+00  0.00000000000E+00 -0.20224248922E+04  0.20224248922E+04  0.50400001928E-02 0.  1.
    10030    2    1    2    0    0  0.00000000000E+00  0.00000000000E+00 -0.12448459301E+04  0.28000038544E+04  0.25080630366E+04 0.  0.
        2    1    3    3  502    0 -0.32234589820E+03 -0.11977209481E+04 -0.82873887098E+03  0.14917273423E+04  0.25500000920E-02 0.  1.
       -2    1    3    3    0  502  0.32234589820E+03  0.11977209481E+04 -0.41610705908E+03  0.13082765121E+04  0.25500000920E-02 0. -1.
</event>
<event>
 5   0  0.3499642E-05  0.2577520E+04  0.7818609E-02  0.8375877E-01
       -2   -1    0    0    0  501  0.00000000000E+00  0.00000000000E+00  0.11966774968E+04  0.11966774968E+04  0.25500000920E-02 0.  1.
        2   -1    0    0  501    0  0.00000000000E+00  0.00000000000E+00 -0.13879280993E+04  0.13879280993E+04  0.25500000920E-02 0. -1.
    10030    2    1    2    0    0  0.00000000000E+00  0.00000000000E+00 -0.19125060252E+03  0.25846055962E+04  0.25775199892E+04 0.  0.
        2    1    3    3  502    0 -0.84438268627E+03 -0.85878555564E+03 -0.55558832571E+03  0.13263382446E+04  0.25500000920E-02 0.  1.
       -2    1    3    3    0  502  0.84438268627E+03  0.85878555564E+03  0.36433772319E+03  0.12582673516E+04  0.25500000920E-02 0. -1.
</event>
<event>
 5   0  0.3647623E-05  0.2599194E+04  0.7818609E-02  0.8368475E-01
       -2   -1    0    0    0  501  0.00000000000E+00  0.00000000000E+00  0.94958875971E+03  0.94958875972E+03  0.25500000920E-02 0.  1.
        2   -1    0    0  501    0  0.00000000000E+00  0.00000000000E+00 -0.17786150102E+04  0.17786150102E+04  0.25500000920E-02 0. -1.
    10030    2    1    2    0    0  0.00000000000E+00  0.00000000000E+00 -0.82902625052E+03  0.27282037699E+04  0.25991943533E+04 0.  0.
        3    1    3    3  502    0  0.23222251181E+03 -0.11427611763E+04  0.18765363309E+03  0.11811199335E+04  0.10100000352E+00 0.  1.
       -3    1    3    3    0  502 -0.23222251181E+03  0.11427611763E+04 -0.10166798836E+04  0.15470838365E+04  0.10100000352E+00 0. -1.
</event>
<event>
 5   0  0.3849687E-05  0.2577828E+04  0.7818609E-02  0.8375772E-01
       -2   -1    0    0    0  501  0.00000000000E+00  0.00000000000E+00  0.11819036365E+04  0.11819036365E+04  0.25500000920E-02 0.  1.
        2   -1    0    0  501    0  0.00000000000E+00  0.00000000000E+00 -0.14056128161E+04  0.14056128161E+04  0.25500000920E-02 0. -1.
    10030    2    1    2    0    0  0.00000000000E+00  0.00000000000E+00 -0.22370917963E+03  0.25875164526E+04  0.25778276892E+04 0.  0.
        1    1    3    3  502    0 -0.24230830221E+02  0.43030715577E+03 -0.13311412869E+04  0.13991742233E+04  0.50400001928E-02 0. -1.
       -1    1    3    3    0  502  0.24230830221E+02 -0.43030715577E+03  0.11074321073E+04  0.11883422292E+04  0.50400001928E-02 0.  1.
</event>
<event>
 5   0  0.3441646E-05  0.2720272E+04  0.7818609E-02  0.8328457E-01
        2   -1    0    0  501    0  0.00000000000E+00  0.00000000000E+00  0.13306585704E+04  0.13306585704E+04  0.25500000920E-02 0.  1.
       -2   -1    0    0    0  501  0.00000000000E+00  0.00000000000E+00 -0.13902662372E+04  0.13902662372E+04  0.25500000920E-02 0. -1.
    10030    2    1    2    0    0  0.00000000000E+00  0.00000000000E+00 -0.59607666771E+02  0.27209248077E+04  0.27202718127E+04 0.  0.
        4    1    3    3  502    0 -0.13291558937E+04  0.28700659755E+03 -0.60468884019E+02  0.13611341872E+04  0.12699999809E+01 0.  1.
       -4    1    3    3    0  502  0.13291558937E+04 -0.28700659755E+03  0.86121724859E+00  0.13597906204E+04  0.12699999809E+01 0. -1.
</event>
<event>
 5   0  0.1474554E-05  0.1818210E+04  0.7818609E-02  0.8696675E-01
        1   -1    0    0  501    0  0.00000000000E+00  0.00000000000E+00  0.10630809135E+04  0.10630809135E+04  0.50400001928E-02 0.  1.
       -1   -1    0    0    0  501  0.00000000000E+00  0.00000000000E+00 -0.77743059365E+03  0.77743059367E+03  0.50400001928E-02 0. -1.
    10030    2    1    2    0    0  0.00000000000E+00  0.00000000000E+00  0.28565031981E+03  0.18405115071E+04  0.18182096971E+04 0.  0.
        5    1    3    3  502    0  0.19664330129E+03 -0.63408291947E+03 -0.48585612666E+03  0.82268341574E+03  0.46999998093E+01 0. -1.
       -5    1    3    3    0  502 -0.19664330129E+03  0.63408291947E+03  0.77150644648E+03  0.10178280914E+04  0.46999998093E+01 0.  1.
</event>
<event>
 5   0  0.1533248E-05  0.2565177E+04  0.7818609E-02  0.8380127E-01
        1   -1    0    0  501    0  0.00000000000E+00  0.00000000000E+00  0.50854267909E+03  0.50854267912E+03  0.50400001928E-02 0.  1.
       -1   -1    0    0    0  501  0.00000000000E+00  0.00000000000E+00 -0.32347977900E+04  0.32347977900E+04  0.50400001928E-02 0. -1.
    10030    2    1    2    0    0  0.00000000000E+00  0.00000000000E+00 -0.27262551109E+04  0.37433404691E+04  0.25651765900E+04 0.  0.
        4    1    3    3  502    0 -0.92971244440E+03 -0.45930835674E+03 -0.26167491322E+03  0.10694880873E+04  0.12699999809E+01 0.  1.
       -4    1    3    3    0  502  0.92971244440E+03  0.45930835674E+03 -0.24645801977E+04  0.26738523817E+04  0.12699999809E+01 0. -1.
</event>
<event>
 5   0  0.1217200E-05  0.2549133E+04  0.7818609E-02  0.8385688E-01
       -3   -1    0    0    0  501  0.00000000000E+00  0.00000000000E+00  0.16663868499E+04  0.16663868530E+04  0.10100000352E+00 0.  1.
        3   -1    0    0  501    0  0.00000000000E+00  0.00000000000E+00 -0.97487582282E+03  0.97487582805E+03  0.10100000352E+00 0. -1.
    10030    2    1    2    0    0  0.00000000000E+00  0.00000000000E+00  0.69151102709E+03  0.26412626810E+04  0.25491333919E+04 0.  0.
        2    1    3    3  502    0  0.92500624930E+03 -0.51934881083E+03 -0.38629178912E+03  0.11289734695E+04  0.25500000920E-02 0. -1.
       -2    1    3    3    0  502 -0.92500624930E+03  0.51934881083E+03  0.10778028162E+04  0.15122892115E+04  0.25500000920E-02 0.  1.
</event>
<event>
 5   0  0.3647623E-05  0.2619772E+04  0.7818609E-02  0.8361516E-01
        2   -1    0    0  501    0  0.00000000000E+00  0.00000000000E+00  0.18137585227E+04  0.18137585227E+04  0.25500000920E-02 0.  1.
       -2   -1    0    0    0  501  0.00000000000E+00  0.00000000000E+00 -0.94599250320E+03  0.94599250321E+03  0.25500000920E-02 0. -1.
    10030    2    1    2    0    0  0.00000000000E+00  0.00000000000E+00  0.86776601945E+03  0.27597510259E+04  0.26197724825E+04 0.  0.
        3    1    3    3  502    0  0.20877614115E+03 -0.11480686110E+04  0.10607880397E+04  0.15769972378E+04  0.10100000352E+00 0.  1.
       -3    1    3    3    0  502 -0.20877614115E+03  0.11480686110E+04 -0.19302202024E+03  0.11827537881E+04  0.10100000352E+00 0. -1.
</event>
<event>
 5   0  0.3499642E-05  0.2626003E+04  0.7818609E-02  0.8359422E-01
       -2   -1    0    0    0  501  0.00000000000E+00  0.00000000000E+00  0.11827854025E+04  0.11827854025E+04  0.25500000920E-02 0. -1.
        2   -1    0    0  501    0  0.00000000000E+00  0.00000000000E+00 -0.14575533839E+04  0.14575533839E+04  0.25500000920E-02 0.  1.
    10030    2    1    2    0    0  0.00000000000E+00  0.00000000000E+00 -0.27476798145E+03  0.26403387864E+04  0.26260029443E+04 0.  0.
        2    1    3    3  502    0  0.10547334166E+04  0.75125130866E+03 -0.35566766846E+03  0.13428851772E+04  0.25500000920E-02 0. -1.
       -2    1    3    3    0  502 -0.10547334166E+04 -0.75125130866E+03  0.80899687009E+02  0.12974536092E+04  0.25500000920E-02 0.  1.
</event>
<event>
 5   0  0.3508470E-05  0.2313068E+04  0.7818609E-02  0.8472786E-01
       -2   -1    0    0    0  501  0.00000000000E+00  0.00000000000E+00  0.99844336755E+03  0.99844336755E+03  0.25500000920E-02 0. -1.
        2   -1    0    0  501    0  0.00000000000E+00  0.00000000000E+00 -0.13396558313E+04  0.13396558314E+04  0.25500000920E-02 0.  1.
    10030    2    1    2    0    0  0.00000000000E+00  0.00000000000E+00 -0.34121246380E+03  0.23380991989E+04  0.23130676424E+04 0.  0.
        5    1    3    3  502    0 -0.11268402784E+04 -0.17602825518E+03  0.23285699888E+02  0.11407538181E+04  0.46999998093E+01 0. -1.
       -5    1    3    3    0  502  0.11268402784E+04  0.17602825518E+03 -0.36449816369E+03  0.11973453808E+04  0.46999998093E+01 0.  1.
</event>
<event>
 5   0  0.1533248E-05  0.2600002E+04  0.7818609E-02  0.8368200E-01
       -1   -1    0    0    0  501  0.00000000000E+00  0.00000000000E+00  0.10845380313E+04  0.10845380313E+04  0.50400001928E-02 0.  1.
        1   -1    0    0  501    0  0.00000000000E+00  0.00000000000E+00 -0.15582698322E+04  0.15582698322E+04  0.50400001928E-02 0. -1.
    10030    2    1    2    0    0  0.00000000000E+00  0.00000000000E+00 -0.47373180094E+03  0.26428078635E+04  0.26000022277E+04 0.  0.
        4    1    3    3  502    0  0.94680269155E+03  0.87664311564E+03 -0.75947163848E+02  0.12925587312E+04  0.12699999809E+01 0.  1.
       -4    1    3    3    0  502 -0.94680269155E+03 -0.87664311564E+03 -0.39778463709E+03  0.13502491323E+04  0.12699999809E+01 0. -1.
</event>
<event>
 5   0  0.1451052E-05  0.2435910E+04  0.7818609E-02  0.8426180E-01
       -1   -1    0    0    0  501  0.00000000000E+00  0.00000000000E+00  0.67635829955E+03  0.67635829957E+03  0.50400001928E-02 0. -1.
        1   -1    0    0  501    0  0.00000000000E+00  0.00000000000E+00 -0.21932383471E+04  0.21932383471E+04  0.50400001928E-02 0.  1.
    10030    2    1    2    0    0  0.00000000000E+00  0.00000000000E+00 -0.15168800476E+04  0.28695966467E+04  0.24359104737E+04 0.  0.
        1    1    3    3  502    0  0.33146940686E+03  0.64553594778E+03 -0.19107679650E+04  0.20439233947E+04  0.50400001928E-02 0.  1.
       -1    1    3    3    0  502 -0.33146940686E+03 -0.64553594778E+03  0.39388791737E+03  0.82567325198E+03  0.50400001928E-02 0. -1.
</event>
<event>
 5   0  0.3499642E-05  0.2533713E+04  0.7818609E-02  0.8391073E-01
       -2   -1    0    0    0  501  0.00000000000E+00  0.00000000000E+00  0.64394915433E+03  0.64394915433E+03  0.25500000920E-02 0.  1.
        2   -1    0    0  501    0  0.00000000000E+00  0.00000000000E+00 -0.24923161515E+04  0.24923161515E+04  0.25500000920E-02 0. -1.
    10030    2    1    2    0    0  0.00000000000E+00  0.00000000000E+00 -0.18483669972E+04  0.31362653059E+04  0.25337125947E+04 0.  0.
        2    1    3    3  502    0 -0.69242051538E+03 -0.23422240877E+03  0.35659146602E+03  0.81330423614E+03  0.25500000920E-02 0.  1.
       -2    1    3    3    0  502  0.69242051538E+03  0.23422240877E+03 -0.22049584632E+04  0.23229610697E+04  0.25500000920E-02 0. -1.
</event>
<event>
 5   0  0.1533248E-05  0.2615217E+04  0.7818609E-02  0.8363051E-01
        1   -1    0    0  501    0  0.00000000000E+00  0.00000000000E+00  0.11414453280E+04  0.11414453280E+04  0.50400001928E-02 0. -1.
       -1   -1    0    0    0  501  0.00000000000E+00  0.00000000000E+00 -0.14979599924E+04  0.14979599924E+04  0.50400001928E-02 0.  1.
    10030    2    1    2    0    0  0.00000000000E+00  0.00000000000E+00 -0.35651466437E+03  0.26394053204E+04  0.26152165760E+04 0.  0.
        4    1    3    3  502    0  0.48794394971E+03  0.25257277632E+03  0.10192905703E+04  0.11579452427E+04  0.12699999809E+01 0. -1.
       -4    1    3    3    0  502 -0.48794394971E+03 -0.25257277632E+03 -0.13758052347E+04  0.14814600778E+04  0.12699999809E+01 0.  1.
</event>
<event>
 5   0  0.3441646E-05  0.2530704E+04  0.7818609E-02  0.8392128E-01
        2   -1    0    0  501    0  0.00000000000E+00  0.00000000000E+00  0.11966247562E+04  0.11966247562E+04  0.25500000920E-02 0.  1.
       -2   -1    0    0    0  501  0.00000000000E+00  0.00000000000E+00 -0.13380262610E+04  0.13380262610E+04  0.25500000920E-02 0. -1.
    10030    2    1    2    0    0  0.00000000000E+00  0.00000000000E+00 -0.14140150485E+03  0.25346510172E+04  0.25307037348E+04 0.  0.
        4    1    3    3  502    0 -0.10141769055E+04  0.58315206076E+02  0.68490176091E+03  0.12251724344E+04  0.12699999809E+01 0.  1.
       -4    1    3    3    0  502  0.10141769055E+04 -0.58315206076E+02 -0.82630326577E+03  0.13094785828E+04  0.12699999809E+01 0. -1.
</event>
<event>
 5   0  0.1474554E-05  0.2612093E+04  0.7818609E-02  0.8364105E-01
        1   -1    0    0  501    0  0.00000000000E+00  0.00000000000E+00  0.24751241498E+04  0.24751241498E+04  0.50400001928E-02 0. -1.
       -1   -1    0    0    0  501  0.00000000000E+00  0.00000000000E+00 -0.68916030672E+03  0.68916030674E+03  0.50400001928E-02 0.  1.
    10030    2    1    2    0    0  0.00000000000E+00  0.00000000000E+00  0.17859638431E+04  0.31642844565E+04  0.26120928913E+04 0.  0.
        5    1    3    3  502    0  0.11854216620E+04 -0.39665912527E+03  0.13513520692E+04  0.18408523796E+04  0.46999998093E+01 0.  1.
       -5    1    3    3    0  502 -0.11854216620E+04  0.39665912527E+03  0.43461177383E+03  0.13234320769E+04  0.46999998093E+01 0. -1.
</event>
<event>
 5   0  0.3508470E-05  0.2476536E+04  0.7818609E-02  0.8411393E-01
        2   -1    0    0  501    0  0.00000000000E+00  0.00000000000E+00  0.24922090729E+04  0.24922090729E+04  0.25500000920E-02 0. -1.
       -2   -1    0    0    0  501  0.00000000000E+00  0.00000000000E+00 -0.61524025582E+03  0.61524025583E+03  0.25500000920E-02 0.  1.
    10030    2    1    2    0    0  0.00000000000E+00  0.00000000000E+00  0.18769688171E+04  0.31074493287E+04  0.24765357640E+04 0.  0.
        5    1    3    3  502    0 -0.59299197530E+03 -0.10853181652E+03  0.22956337057E+04  0.23734731595E+04  0.46999998093E+01 0. -1.
       -5    1    3    3    0  502  0.59299197530E+03  0.10853181652E+03 -0.41866488867E+03  0.73397616921E+03  0.46999998093E+01 0.  1.
</event>
<event>
 5   0  0.3849687E-05  0.2534778E+04  0.7818609E-02  0.8390699E-01
       -2   -1    0    0    0  501  0.00000000000E+00  0.00000000000E+00  0.11980862839E+04  0.11980862839E+04  0.25500000920E-02 0.  1.
        2   -1    0    0  501    0  0.00000000000E+00  0.00000000000E+00 -0.13407006971E+04  0.13407006971E+04  0.25500000920E-02 0. -1.
    10030    2    1    2    0    0  0.00000000000E+00  0.00000000000E+00 -0.14261441314E+03  0.25387869810E+04  0.25347781883E+04 0.  0.
        1    1    3    3  502    0 -0.85473609405E+03 -0.64686414187E+03 -0.74859267443E+03  0.13074394826E+04  0.50400001928E-02 0. -1.
       -1    1    3    3    0  502  0.85473609405E+03  0.64686414187E+03  0.60597826129E+03  0.12313474984E+04  0.50400001928E-02 0.  1.
</event>
<event>
 5   0  0.1497497E-05  0.2601871E+04  0.7818609E-02  0.8367566E-01
       -1   -1    0    0    0  501  0.00000000000E+00  0.00000000000E+00  0.12355719394E+04  0.12355719395E+04  0.50400001928E-02 0. -1.
        1   -1    0    0  501    0  0.00000000000E+00  0.00000000000E+00 -0.13697565365E+04  0.13697565365E+04  0.50400001928E-02 0.  1.
    10030    2    1    2    0    0  0.00000000000E+00  0.00000000000E+00 -0.13418459702E+03  0.26053284759E+04  0.26018706658E+04 0.  0.
        3    1    3    3  502    0 -0.45868084619E+03 -0.62094442682E+03  0.98142519159E+03  0.12486614901E+04  0.10100000352E+00 0. -1.
       -3    1    3    3    0  502  0.45868084619E+03  0.62094442682E+03 -0.11156097886E+04  0.13566669859E+04  0.10100000352E+00 0.  1.
</event>
<event>
 5   0  0.1533248E-05  0.2626135E+04  0.7818609E-02  0.8359378E-01
        1   -1    0    0  501    0  0.00000000000E+00  0.00000000000E+00  0.13898925605E+04  0.13898925605E+04  0.50400001928E-02 0. -1.
       -1   -1    0    0    0  501  0.00000000000E+00  0.00000000000E+00 -0.12404886578E+04  0.12404886578E+04  0.50400001928E-02 0.  1.
    10030    2    1    2    0    0  0.00000000000E+00  0.00000000000E+00  0.14940390274E+03  0.26303812183E+04  0.26261347694E+04 0.  0.
        4    1    3    3  502    0 -0.11193251699E+04  0.44443652543E+03 -0.44933778420E+03  0.12854255009E+04  0.12699999809E+01 0.  1.
       -4    1    3    3    0  502  0.11193251699E+04 -0.44443652543E+03  0.59874168694E+03  0.13449557174E+04  0.12699999809E+01 0. -1.
</event>
<event>
 5   0  0.1533248E-05  0.2603639E+04  0.7818609E-02  0.8366966E-01
        1   -1    0    0  501    0  0.00000000000E+00  0.00000000000E+00  0.13402290032E+04  0.13402290032E+04  0.50400001928E-02 0.  1.
       -1   -1    0    0    0  501  0.00000000000E+00  0.00000000000E+00 -0.12645108120E+04  0.12645108121E+04  0.50400001928E-02 0. -1.
    10030    2    1    2    0    0  0.00000000000E+00  0.00000000000E+00  0.75718191141E+02  0.26047398153E+04  0.26036390419E+04 0.  0.
        4    1    3    3  502    0  0.28947113074E+03  0.15247749029E+03  0.12984273446E+04  0.13390138546E+04  0.12699999809E+01 0.  1.
       -4    1    3    3    0  502 -0.28947113074E+03 -0.15247749029E+03 -0.12227091535E+04  0.12657259607E+04  0.12699999809E+01 0. -1.
</event>
<event>
 5   0  0.1533248E-05  0.1724536E+04  0.7818609E-02  0.8747493E-01
       -1   -1    0    0    0  501  0.00000000000E+00  0.00000000000E+00  0.44584507444E+03  0.44584507447E+03  0.50400001928E-02 0. -1.
        1   -1    0    0  501    0  0.00000000000E+00  0.00000000000E+00 -0.16676327597E+04  0.16676327597E+04  0.50400001928E-02 0.  1.
    10030    2    1    2    0    0  0.00000000000E+00  0.00000000000E+00 -0.12217876852E+04  0.21134778342E+04  0.17245357079E+04 0.  0.
        4    1    3    3  502    0  0.35981709682E+03  0.65069590727E+03 -0.75809843729E+02  0.74741036399E+03  0.12699999809E+01 0. -1.
       -4    1    3    3    0  502 -0.35981709682E+03 -0.65069590727E+03 -0.11459778415E+04  0.13660674702E+04  0.12699999809E+01 0.  1.
</event>
<event>
 5   0  0.1497497E-05  0.2660573E+04  0.7818609E-02  0.8347912E-01
        1   -1    0    0  501    0  0.00000000000E+00  0.00000000000E+00  0.23134110525E+04  0.23134110525E+04  0.50400001928E-02 0.  1.
       -1   -1    0    0    0  501  0.00000000000E+00  0.00000000000E+00 -0.76495774871E+03  0.76495774873E+03  0.50400001928E-02 0. -1.
    10030    2    1    2    0    0  0.00000000000E+00  0.00000000000E+00  0.15484533038E+04  0.30783688012E+04  0.26605726531E+04 0.  0.
        3    1    3    3  502    0  0.66534309937E+02  0.12339200528E+04  0.13442059857E+04  0.18258902632E+04  0.10100000352E+00 0. -1.
       -3    1    3    3    0  502 -0.66534309937E+02 -0.12339200528E+04  0.20424731811E+03  0.12524785380E+04  0.10100000352E+00 0.  1.
</event>
<event>
 5   0  0.3508470E-05  0.2624079E+04  0.7818609E-02  0.8360068E-01
       -2   -1    0    0    0  501  0.00000000000E+00  0.00000000000E+00  0.87381903858E+03  0.87381903858E+03  0.25500000920E-02 0. -1.
        2   -1    0    0  501    0  0.00000000000E+00  0.00000000000E+00 -0.19700276780E+04  0.19700276780E+04  0.25500000920E-02 0.  1.
    10030    2    1    2    0    0  0.00000000000E+00  0.00000000000E+00 -0.10962086395E+04  0.28438467166E+04  0.26240790321E+04 0.  0.
        5    1    3    3  502    0  0.29205026033E+03  0.86888442384E+02  0.83493387669E+03  0.88880797950E+03  0.46999998093E+01 0. -1.
       -5    1    3    3    0  502 -0.29205026033E+03 -0.86888442384E+02 -0.19311425162E+04  0.19550387371E+04  0.46999998093E+01 0.  1.
</event>
<event>
 5   0  0.3499642E-05  0.2520492E+04  0.7818609E-02  0.8395721E-01
        2   -1    0    0  501    0  0.00000000000E+00  0.00000000000E+00  0.31367902848E+04  0.31367902848E+04  0.25500000920E-02 0. -1.
       -2   -1    0    0    0  501  0.00000000000E+00  0.00000000000E+00 -0.50632005924E+03  0.50632005925E+03  0.25500000920E-02 0.  1.
    10030    2    1    2    0    0  0.00000000000E+00  0.00000000000E+00  0.26304702256E+04  0.36431103441E+04  0.25204918908E+04 0.  0.
        2    1    3    3  502    0  0.72965521672E+03  0.11754828355E+03  0.27906767273E+04  0.28868825626E+04  0.25500000920E-02 0. -1.
       -2    1    3    3    0  502 -0.72965521672E+03 -0.11754828355E+03 -0.16020650168E+03  0.75622778145E+03  0.25500000920E-02 0.  1.
</event>
<event>
 5   0  0.1435062E-05  0.2618702E+04  0.7818609E-02  0.8361876E-01
        1   -1    0    0  501    0  0.00000000000E+00  0.00000000000E+00  0.13230840205E+04  0.13230840205E+04  0.50400001928E-02 0. -1.
       -1   -1    0    0    0  501  0.00000000000E+00  0.00000000000E+00 -0.12957605303E+04  0.12957605303E+04  0.50400001928E-02 0.  1.
    10030    2    1    2    0    0  0.00000000000E+00  0.00000000000E+00  0.27323490225E+02  0.26188445508E+04  0.26187020083E+04 0.  0.
        2    1    3    3  502    0  0.37077456465E+02  0.12881073228E+04 -0.21830958269E+03  0.13070020224E+04  0.25500000920E-02 0.  1.
       -2    1    3    3    0  502 -0.37077456465E+02 -0.12881073228E+04  0.24563307291E+03  0.13118425284E+04  0.25500000920E-02 0. -1.
</event>
<event>
 5   0  0.1451052E-05  0.2647926E+04  0.7818609E-02  0.8352102E-01
        1   -1    0    0  501    0  0.00000000000E+00  0.00000000000E+00  0.70703676391E+03  0.70703676393E+03  0.50400001928E-02 0. -1.
       -1   -1    0    0    0  501  0.00000000000E+00  0.00000000000E+00 -0.24791896018E+04  0.24791896018E+04  0.50400001928E-02 0.  1.
    10030    2    1    2    0    0  0.00000000000E+00  0.00000000000E+00 -0.17721528379E+04  0.31862263658E+04  0.26479261268E+04 0.  0.
        1    1    3    3  502    0 -0.53201304284E+03  0.16813341826E+02  0.57261716539E+03  0.78179983649E+03  0.50400001928E-02 0. -1.
       -1    1    3    3    0  502  0.53201304284E+03 -0.16813341826E+02 -0.23447700033E+04  0.24044265293E+04  0.50400001928E-02 0.  1.
</event>
<event>
 5   0  0.1497497E-05  0.2568972E+04  0.7818609E-02  0.8378818E-01
       -1   -1    0    0    0  501  0.00000000000E+00  0.00000000000E+00  0.11548657821E+04  0.11548657821E+04  0.50400001928E-02 0.  1.
        1   -1    0    0  501    0  0.00000000000E+00  0.00000000000E+00 -0.14286541852E+04  0.14286541852E+04  0.50400001928E-02 0. -1.
    10030    2    1    2    0    0  0.00000000000E+00  0.00000000000E+00 -0.27378840306E+03  0.25835199673E+04  0.25689716487E+04 0.  0.
        3    1    3    3  502    0  0.72273982894E+03  0.63351625116E+03  0.72011021870E+03  0.12009389818E+04  0.10100000352E+00 0.  1.
       -3    1    3    3    0  502 -0.72273982894E+03 -0.63351625116E+03 -0.99389862176E+03  0.13825809855E+04  0.10100000352E+00 0. -1.
</event>
<event>
 5   0  0.1451052E-05  0.2622952E+04  0.7818609E-02  0.8360446E-01
        1   -1    0    0  501    0  0.00000000000E+00  0.00000000000E+00  0.15133989678E+04  0.15133989678E+04  0.50400001928E-02 0. -1.
       -1   -1    0    0    0  501  0.00000000000E+00  0.00000000000E+00 -0.11364946334E+04  0.11364946334E+04  0.50400001928E-02 0.  1.
    10030    2    1    2    0    0  0.00000000000E+00  0.00000000000E+00  0.37690433435E+03  0.26498936012E+04  0.26229523863E+04 0.  0.
        1    1    3    3  502    0  0.48505257381E+03  0.11416892295E+04  0.61854724068E+03  0.13861208407E+04  0.50400001928E-02 0. -1.
       -1    1    3    3    0  502 -0.48505257381E+03 -0.11416892295E+04 -0.24164290633E+03  0.12637727605E+04  0.50400001928E-02 0.  1.
</event>
<event>
 5   0  0.1533248E-05  0.2461685E+04  0.7818609E-02  0.8416764E-01
       -1   -1    0    0    0  501  0.00000000000E+00  0.00000000000E+00  0.91686427309E+03  0.91686427310E+03  0.50400001928E-02 0.  1.
        1   -1    0    0  501    0  0.00000000000E+00  0.00000000000E+00 -0.16523417198E+04  0.16523417198E+04  0.50400001928E-02 0. -1.
    10030    2    1    2    0    0  0.00000000000E+00  0.00000000000E+00 -0.73547744669E+03  0.25692059929E+04  0.24616848619E+04 0.  0.
        4    1    3    3  502    0 -0.26662616942E+03 -0.13309923403E+03 -0.16141219490E+04  0.16414006822E+04  0.12699999809E+01 0. -1.
       -4    1    3    3    0  502  0.26662616942E+03  0.13309923403E+03  0.87864450229E+03  0.92780531073E+03  0.12699999809E+01 0.  1.
</event>
<event>
 5   0  0.1533248E-05  0.2468353E+04  0.7818609E-02  0.8414347E-01
        1   -1    0    0  501    0  0.00000000000E+00  0.00000000000E+00  0.11713748381E+04  0.11713748382E+04  0.50400001928E-02 0.  1.
       -1   -1    0    0    0  501  0.00000000000E+00  0.00000000000E+00 -0.13003456896E+04  0.13003456896E+04  0.50400001928E-02 0. -1.
    10030    2    1    2    0    0  0.00000000000E+00  0.00000000000E+00 -0.12897085150E+03  0.24717205278E+04  0.24683534769E+04 0.  0.
        4    1    3    3  502    0 -0.78710744221E+03 -0.64558040741E+03 -0.76320397898E+03  0.12723184014E+04  0.12699999809E+01 0. -1.
       -4    1    3    3    0  502  0.78710744221E+03  0.64558040741E+03  0.63423312748E+03  0.11994021264E+04  0.12699999809E+01 0.  1.
</event>
<event>
 5   0  0.1497497E-05  0.2633782E+04  0.7818609E-02  0.8356816E-01
        1   -1    0    0  501    0  0.00000000000E+00  0.00000000000E+00  0.15178008734E+04  0.15178008734E+04  0.50400001928E-02 0.  1.
       -1   -1    0    0    0  501  0.00000000000E+00  0.00000000000E+00 -0.11425751559E+04  0.11425751559E+04  0.50400001928E-02 0. -1.
    10030    2    1    2    0    0  0.00000000000E+00  0.00000000000E+00  0.37522571751E+03  0.26603760294E+04  0.26337817447E+04 0.  0.
        3    1    3    3  502    0 -0.29877886915E+03 -0.46562589612E+03  0.13947216007E+04  0.15004414822E+04  0.10100000352E+00 0.  1.
       -3    1    3    3    0  502  0.29877886915E+03  0.46562589612E+03 -0.10194958832E+04  0.11599345472E+04  0.10100000352E+00 0. -1.
</event>
<event>
 5   0  0.3499642E-05  0.2612444E+04  0.7818609E-02  0.8363987E-01
       -2   -1    0    0    0  501  0.00000000000E+00  0.00000000000E+00  0.73373747060E+03  0.73373747061E+03  0.25500000920E-02 0. -1.
        2   -1    0    0  501    0  0.00000000000E+00  0.00000000000E+00 -0.23253758834E+04  0.23253758834E+04  0.25500000920E-02 0.  1.
    10030    2    1    2    0    0  0.00000000000E+00  0.00000000000E+00 -0.15916384128E+04  0.30591133540E+04  0.26124436215E+04 0.  0.
        2    1    3    3  502    0 -0.16090963101E+03  0.12905944675E+04 -0.93774166070E+03  0.16033980826E+04  0.25500000920E-02 0.  1.
       -2    1    3    3    0  502  0.16090963101E+03 -0.12905944675E+04 -0.65389675206E+03  0.14557152714E+04  0.25500000920E-02 0. -1.
</event>
<event>
 5   0  0.1217200E-05  0.1903003E+04  0.7818609E-02  0.8653363E-01
        3   -1    0    0  501    0  0.00000000000E+00  0.00000000000E+00  0.36589147426E+03  0.36589148820E+03  0.10100000352E+00 0.  1.
       -3   -1    0    0    0  501  0.00000000000E+00  0.00000000000E+00 -0.24743814730E+04  0.24743814751E+04  0.10100000352E+00 0. -1.
    10030    2    1    2    0    0  0.00000000000E+00  0.00000000000E+00 -0.21084899987E+04  0.28402729633E+04  0.19030030034E+04 0.  0.
        2    1    3    3  502    0  0.93541614066E+03  0.16410090528E+03 -0.96692745793E+03  0.13553158939E+04  0.25500000920E-02 0. -1.
       -2    1    3    3    0  502 -0.93541614066E+03 -0.16410090528E+03 -0.11415625408E+04  0.14849570694E+04  0.25500000920E-02 0.  1.
</event>
<event>
 5   0  0.3849687E-05  0.2627691E+04  0.7818609E-02  0.8358855E-01
        2   -1    0    0  501    0  0.00000000000E+00  0.00000000000E+00  0.10828193790E+04  0.10828193790E+04  0.25500000920E-02 0.  1.
       -2   -1    0    0    0  501  0.00000000000E+00  0.00000000000E+00 -0.15941629411E+04  0.15941629411E+04  0.25500000920E-02 0. -1.
    10030    2    1    2    0    0  0.00000000000E+00  0.00000000000E+00 -0.51134356212E+03  0.26769823201E+04  0.26276914019E+04 0.  0.
        1    1    3    3  502    0 -0.89887142768E+03 -0.87865260737E+03  0.13384878161E+03  0.12640869212E+04  0.50400001928E-02 0. -1.
       -1    1    3    3    0  502  0.89887142768E+03  0.87865260737E+03 -0.64519234373E+03  0.14128953989E+04  0.50400001928E-02 0.  1.
</event>
<event>
 5   0  0.1497497E-05  0.2534859E+04  0.7818609E-02  0.8390671E-01
        1   -1    0    0  501    0  0.00000000000E+00  0.00000000000E+00  0.11883717104E+04  0.11883717104E+04  0.50400001928E-02 0.  1.
       -1   -1    0    0    0  501  0.00000000000E+00  0.00000000000E+00 -0.13517465537E+04  0.13517465537E+04  0.50400001928E-02 0. -1.
    10030    2    1    2    0    0  0.00000000000E+00  0.00000000000E+00 -0.16337484324E+03  0.25401182641E+04  0.25348588632E+04 0.  0.
        3    1    3    3  502    0  0.36352560306E+03 -0.28670622868E+03 -0.12639769188E+04  0.13461014030E+04  0.10100000352E+00 0. -1.
       -3    1    3    3    0  502 -0.36352560306E+03  0.28670622868E+03  0.11006020756E+04  0.11940168611E+04  0.10100000352E+00 0.  1.
</event>
<event>
 5   0  0.3849687E-05  0.2470648E+04  0.7818609E-02  0.8413518E-01
       -2   -1    0    0    0  501  0.00000000000E+00  0.00000000000E+00  0.93882670295E+03  0.93882670296E+03  0.25500000920E-02 0.  1.
        2   -1    0    0  501    0  0.00000000000E+00  0.00000000000E+00 -0.16254597993E+04  0.16254597993E+04  0.25500000920E-02 0. -1.
    10030    2    1    2    0    0  0.00000000000E+00  0.00000000000E+00 -0.68663309636E+03  0.25642865023E+04  0.24706477403E+04 0.  0.
        1    1    3    3  502    0 -0.76687488568E+03  0.90885300863E+03  0.38982935040E+01  0.11891703319E+04  0.50400001928E-02 0. -1.
       -1    1    3    3    0  502  0.76687488568E+03 -0.90885300863E+03 -0.69053138987E+03  0.13751161704E+04  0.50400001928E-02 0.  1.
</event>
<event>
 5   0  0.1451052E-05  0.2226504E+04  0.7818609E-02  0.8507477E-01
        1   -1    0    0  501    0  0.00000000000E+00  0.00000000000E+00  0.14325148850E+04  0.14325148850E+04  0.50400001928E-02 0. -1.
       -1   -1    0    0    0  501  0.00000000000E+00  0.00000000000E+00 -0.86514256054E+03  0.86514256055E+03  0.50400001928E-02 0.  1.
    10030    2    1    2    0    0  0.00000000000E+00  0.00000000000E+00  0.56737232441E+03  0.22976574455E+04  0.22265036228E+04 0.  0.
        1    1    3    3  502    0  0.81129201614E+03  0.44320055030E+03 -0.35638396431E+03  0.99077292720E+03  0.50400001928E-02 0.  1.
       -1    1    3    3    0  502 -0.81129201614E+03 -0.44320055030E+03  0.92375628872E+03  0.13068845183E+04  0.50400001928E-02 0. -1.
</event>
<event>
 5   0  0.3508470E-05  0.2629780E+04  0.7818609E-02  0.8358155E-01
       -2   -1    0    0    0  501  0.00000000000E+00  0.00000000000E+00  0.55265453915E+03  0.55265453916E+03  0.25500000920E-02 0. -1.
        2   -1    0    0  501    0  0.00000000000E+00  0.00000000000E+00 -0.31284209319E+04  0.31284209319E+04  0.25500000920E-02 0.  1.
    10030    2    1    2    0    0  0.00000000000E+00  0.00000000000E+00 -0.25757663928E+04  0.36810754711E+04  0.26297802406E+04 0.  0.
        5    1    3    3  502    0 -0.27473819227E+03 -0.12440913383E+04 -0.83286338288E+03  0.15221458001E+04  0.46999998093E+01 0. -1.
       -5    1    3    3    0  502  0.27473819227E+03  0.12440913383E+04 -0.17429030099E+04  0.21589296710E+04  0.46999998093E+01 0.  1.
</event>
<event>
 5   0  0.1435062E-05  0.2622894E+04  0.7818609E-02  0.8360466E-01
        1   -1    0    0  501    0  0.00000000000E+00  0.00000000000E+00  0.95689916831E+03  0.95689916832E+03  0.50400001928E-02 0. -1.
       -1   -1    0    0    0  501  0.00000000000E+00  0.00000000000E+00 -0.17973613247E+04  0.17973613247E+04  0.50400001928E-02 0.  1.
    10030    2    1    2    0    0  0.00000000000E+00  0.00000000000E+00 -0.84046215636E+03  0.27542604930E+04  0.26228942462E+04 0.  0.
        2    1    3    3  502    0 -0.11911480367E+04 -0.48029221350E+03 -0.69880900824E+03  0.14621382581E+04  0.25500000920E-02 0.  1.
       -2    1    3    3    0  502  0.11911480367E+04  0.48029221350E+03 -0.14165314812E+03  0.12921222349E+04  0.25500000920E-02 0. -1.
</event>
<event>
 5   0  0.3647623E-05  0.2252331E+04  0.7818609E-02  0.8496957E-01
       -2   -1    0    0    0  501  0.00000000000E+00  0.00000000000E+00  0.83361091201E+03  0.83361091201E+03  0.25500000920E-02 0. -1.
        2   -1    0    0  501    0  0.00000000000E+00  0.00000000000E+00 -0.15213922799E+04  0.15213922799E+04  0.25500000920E-02 0.  1.
    10030    2    1    2    0    0  0.00000000000E+00  0.00000000000E+00 -0.68778136793E+03  0.23550031919E+04  0.22523314197E+04 0.  0.
        3    1    3    3  502    0 -0.26030920547E+03  0.55335848833E+03 -0.13326637294E+04  0.14662738915E+04  0.10100000352E+00 0.  1.
       -3    1    3    3    0  502  0.26030920547E+03 -0.55335848833E+03  0.64488236149E+03  0.88872930042E+03  0.10100000352E+00 0. -1.
</event>
<event>
 5   0  0.3499642E-05  0.2621778E+04  0.7818609E-02  0.8360841E-01
        2   -1    0    0  501    0  0.00000000000E+00  0.00000000000E+00  0.12952139795E+04  0.12952139795E+04  0.25500000920E-02 0. -1.
       -2   -1    0    0    0  501  0.00000000000E+00  0.00000000000E+00 -0.13267535540E+04  0.13267535540E+04  0.25500000920E-02 0.  1.
    10030    2    1    2    0    0  0.00000000000E+00  0.00000000000E+00 -0.31539574481E+02  0.26219675335E+04  0.26217778323E+04 0.  0.
        2    1    3    3  502    0 -0.29351483471E+03 -0.50880524440E+03  0.11562348072E+04  0.12968857561E+04  0.25500000920E-02 0. -1.
       -2    1    3    3    0  502  0.29351483471E+03  0.50880524440E+03 -0.11877743817E+04  0.13250817774E+04  0.25500000920E-02 0.  1.
</event>
<event>
 5   0  0.1435062E-05  0.2575897E+04  0.7818609E-02  0.8376435E-01
        1   -1    0    0  501    0  0.00000000000E+00  0.00000000000E+00  0.21262993581E+04  0.21262993581E+04  0.50400001928E-02 0.  1.
       -1   -1    0    0    0  501  0.00000000000E+00  0.00000000000E+00 -0.78013985656E+03  0.78013985657E+03  0.50400001928E-02 0. -1.
    10030    2    1    2    0    0  0.00000000000E+00  0.00000000000E+00  0.13461595015E+04  0.29064392147E+04  0.25758966410E+04 0.  0.
        2    1    3    3  502    0  0.23923499805E+03  0.97070233051E+03  0.15892561875E+04  0.18775600199E+04  0.25500000920E-02 0.  1.
       -2    1    3    3    0  502 -0.23923499805E+03 -0.97070233051E+03 -0.24309668596E+03  0.10288791948E+04  0.25500000920E-02 0. -1.
</event>
<event>
 5   0  0.3508470E-05  0.2680663E+04  0.7818609E-02  0.8341307E-01
       -2   -1    0    0    0  501  0.00000000000E+00  0.00000000000E+00  0.10916575151E+04  0.10916575151E+04  0.25500000920E-02 0.  1.
        2   -1    0    0  501    0  0.00000000000E+00  0.00000000000E+00 -0.16456516835E+04  0.16456516835E+04  0.25500000920E-02 0. -1.
    10030    2    1    2    0    0  0.00000000000E+00  0.00000000000E+00 -0.55399416840E+03  0.27373091986E+04  0.26806626252E+04 0.  0.
        5    1    3    3  502    0  0.35488642226E+02  0.95497604547E+03 -0.12366582629E+04  0.15628769754E+04  0.46999998093E+01 0. -1.
       -5    1    3    3    0  502 -0.35488642226E+02 -0.95497604547E+03  0.68266409445E+03  0.11744322232E+04  0.46999998093E+01 0.  1.
</event>
<event>
 5   0  0.3508470E-05  0.2553967E+04  0.7818609E-02  0.8384008E-01
       -2   -1    0    0    0  501  0.00000000000E+00  0.00000000000E+00  0.11122437789E+04  0.11122437789E+04  0.25500000920E-02 0.  1.
        2   -1    0    0  501    0  0.00000000000E+00  0.00000000000E+00 -0.14661236887E+04  0.14661236887E+04  0.25500000920E-02 0. -1.
    10030    2    1    2    0    0  0.00000000000E+00  0.00000000000E+00 -0.35387990983E+03  0.25783674676E+04  0.25539670725E+04 0.  0.
        5    1    3    3  502    0  0.23503289935E+03 -0.35369931622E+03 -0.13927384894E+04  0.14560515993E+04  0.46999998093E+01 0. -1.
       -5    1    3    3    0  502 -0.23503289935E+03  0.35369931622E+03  0.10388585795E+04  0.11223158683E+04  0.46999998093E+01 0.  1.
</event>
<event>
 5   0  0.3647623E-05  0.2577791E+04  0.7818609E-02  0.8375784E-01
        2   -1    0    0  501    0  0.00000000000E+00  0.00000000000E+00  0.11439045265E+04  0.11439045265E+04  0.25500000920E-02 0. -1.
       -2   -1    0    0    0  501  0.00000000000E+00  0.00000000000E+00 -0.14522642824E+04  0.14522642824E+04  0.25500000920E-02 0.  1.
    10030    2    1    2    0    0  0.00000000000E+00  0.00000000000E+00 -0.30835975591E+03  0.25961688089E+04  0.25777910592E+04 0.  0.
        3    1    3    3  502    0 -0.97729334039E+03 -0.41494215967E+03  0.58176387400E+03  0.12106727404E+04  0.10100000352E+00 0. -1.
       -3    1    3    3    0  502  0.97729334039E+03  0.41494215967E+03 -0.89012362992E+03  0.13854960685E+04  0.10100000352E+00 0.  1.
</event>
<event>
 5   0  0.3849687E-05  0.1762055E+04  0.7818609E-02  0.8726743E-01
        2   -1    0    0  501    0  0.00000000000E+00  0.00000000000E+00  0.82085393445E+03  0.82085393445E+03  0.25500000920E-02 0.  1.
       -2   -1    0    0    0  501  0.00000000000E+00  0.00000000000E+00 -0.94561208379E+03  0.94561208379E+03  0.25500000920E-02 0. -1.
    10030    2    1    2    0    0  0.00000000000E+00  0.00000000000E+00 -0.12475814933E+03  0.17664660182E+04  0.17620549361E+04 0.  0.
        1    1    3    3  502    0 -0.47817416602E+02  0.57296892178E+03  0.60684693793E+03  0.83596835871E+03  0.50400001928E-02 0.  1.
       -1    1    3    3    0  502  0.47817416602E+02 -0.57296892178E+03 -0.73160508727E+03  0.93049765953E+03  0.50400001928E-02 0. -1.
</event>
<event>
 5   0  0.1474554E-05  0.2585450E+04  0.7818609E-02  0.8373160E-01
        1   -1    0    0  501    0  0.00000000000E+00  0.00000000000E+00  0.10859281778E+04  0.10859281778E+04  0.50400001928E-02 0.  1.
       -1   -1    0    0    0  501  0.00000000000E+00  0.00000000000E+00 -0.15389023859E+04  0.15389023859E+04  0.50400001928E-02 0. -1.
    10030    2    1    2    0    0  0.00000000000E+00  0.00000000000E+00 -0.45297420808E+03  0.26248305637E+04  0.25854496427E+04 0.  0.
        5    1    3    3  502    0  0.25305034239E+03  0.11657210214E+04 -0.73224719289E+03  0.13996956873E+04  0.46999998093E+01 0. -1.
       -5    1    3    3    0  502 -0.25305034239E+03 -0.11657210214E+04  0.27927298481E+03  0.12251348765E+04  0.46999998093E+01 0.  1.
</event>
<event>
 5   0  0.1451052E-05  0.2565192E+04  0.7818609E-02  0.8380122E-01
       -1   -1    0    0    0  501  0.00000000000E+00  0.00000000000E+00  0.10726194365E+04  0.10726194365E+04  0.50400001928E-02 0.  1.
        1   -1    0    0  501    0  0.00000000000E+00  0.00000000000E+00 -0.15336773523E+04  0.15336773523E+04  0.50400001928E-02 0. -1.
    10030    2    1    2    0    0  0.00000000000E+00  0.00000000000E+00 -0.46105791575E+03  0.26062967888E+04  0.25651917179E+04 0.  0.
        1    1    3    3  502    0 -0.72847165118E+03  0.14920513452E+03  0.83126200575E+03  0.11153159377E+04  0.50400001928E-02 0.  1.
       -1    1    3    3    0  502  0.72847165118E+03 -0.14920513452E+03 -0.12923199215E+04  0.14909808511E+04  0.50400001928E-02 0. -1.
</event>
<event>
 5   0  0.3499642E-05  0.2662855E+04  0.7818609E-02  0.8347159E-01
       -2   -1    0    0    0  501  0.00000000000E+00  0.00000000000E+00  0.12510311483E+04  0.12510311483E+04  0.25500000920E-02 0. -1.
        2   -1    0    0  501    0  0.00000000000E+00  0.00000000000E+00 -0.14169902661E+04  0.14169902661E+04  0.25500000920E-02 0.  1.
    10030    2    1    2    0    0  0.00000000000E+00  0.00000000000E+00 -0.16595911772E+03  0.26680214144E+04  0.26628548287E+04 0.  0.
        2    1    3    3  502    0  0.62104888883E+03 -0.11291222422E+04  0.25245381350E+03  0.13131457223E+04  0.25500000920E-02 0.  1.
       -2    1    3    3    0  502 -0.62104888883E+03  0.11291222422E+04 -0.41841293123E+03  0.13548756921E+04  0.25500000920E-02 0. -1.
</event>
<event>
 5   0  0.1435062E-05  0.2642040E+04  0.7818609E-02  0.8354060E-01
        1   -1    0    0  501    0  0.00000000000E+00  0.00000000000E+00  0.10653483730E+04  0.10653483730E+04  0.50400001928E-02 0. -1.
       -1   -1    0    0    0  501  0.00000000000E+00  0.00000000000E+00 -0.16380499858E+04  0.16380499858E+04  0.50400001928E-02 0.  1.
    10030    2    1    2    0    0  0.00000000000E+00  0.00000000000E+00 -0.57270161276E+03  0.27033983588E+04  0.26420400355E+04 0.  0.
        2    1    3    3  502    0 -0.55340053757E+03 -0.11434016702E+04 -0.65736555372E+03  0.14302968243E+04  0.25500000920E-02 0.  1.
       -2    1    3    3    0  502  0.55340053757E+03  0.11434016702E+04  0.84663940962E+02  0.12731015345E+04  0.25500000920E-02 0. -1.
</event>
<event>
 5   0  0.3849687E-05  0.2584643E+04  0.7818609E-02  0.8373436E-01
        2   -1    0    0  501    0  0.00000000000E+00  0.00000000000E+00  0.14472703616E+04  0.14472703616E+04  0.25500000920E-02 0.  1.
       -2   -1    0    0    0  501  0.00000000000E+00  0.00000000000E+00 -0.11539618039E+04  0.11539618039E+04  0.25500000920E-02 0. -1.
    10030    2    1    2    0    0  0.00000000000E+00  0.00000000000E+00  0.29330855764E+03  0.26012321655E+04  0.25846428900E+04 0.  0.
        1    1    3    3  502    0  0.59981908356E+03  0.10658663146E+04 -0.27344649024E+03  0.12532465506E+04  0.50400001928E-02 0.  1.
       -1    1    3    3    0  502 -0.59981908356E+03 -0.10658663146E+04  0.56675504788E+03  0.13479856149E+04  0.50400001928E-02 0. -1.
</event>
<event>
 5   0  0.3508470E-05  0.2611053E+04  0.7818609E-02  0.8364456E-01
        2   -1    0    0  501    0  0.00000000000E+00  0.00000000000E+00  0.21360127146E+04  0.21360127146E+04  0.25500000920E-02 0.  1.
       -2   -1    0    0    0  501  0.00000000000E+00  0.00000000000E+00 -0.79793521139E+03  0.79793521139E+03  0.25500000920E-02 0. -1.
    10030    2    1    2    0    0  0.00000000000E+00  0.00000000000E+00  0.13380775032E+04  0.29339479260E+04  0.26110532411E+04 0.  0.
        5    1    3    3  502    0  0.64168850743E+03 -0.71784981819E+03  0.16597165963E+04  0.19187896633E+04  0.46999998093E+01 0.  1.
       -5    1    3    3    0  502 -0.64168850743E+03  0.71784981819E+03 -0.32163909309E+03  0.10151582627E+04  0.46999998093E+01 0. -1.
</event>
<event>
 5   0  0.1474554E-05  0.1629776E+04  0.7818609E-02  0.8802462E-01
       -1   -1    0    0    0  501  0.00000000000E+00  0.00000000000E+00  0.45071546940E+03  0.45071546943E+03  0.50400001928E-02 0. -1.
        1   -1    0    0  501    0  0.00000000000E+00  0.00000000000E+00 -0.14733067924E+04  0.14733067924E+04  0.50400001928E-02 0.  1.
    10030    2    1    2    0    0  0.00000000000E+00  0.00000000000E+00 -0.10225913230E+04  0.19240222618E+04  0.16297756441E+04 0.  0.
        5    1    3    3  502    0 -0.68552945237E+02  0.26972382633E+03  0.39285760118E+03  0.48146612922E+03  0.46999998093E+01 0. -1.
       -5    1    3    3    0  502  0.68552945237E+02 -0.26972382633E+03 -0.14154489242E+04  0.14425561326E+04  0.46999998093E+01 0.  1.
</event>
<event>
 5   0  0.1474554E-05  0.2636959E+04  0.7818609E-02  0.8355755E-01
        1   -1    0    0  501    0  0.00000000000E+00  0.00000000000E+00  0.20966640377E+04  0.20966640377E+04  0.50400001928E-02 0. -1.
       -1   -1    0    0    0  501  0.00000000000E+00  0.00000000000E+00 -0.82912072979E+03  0.82912072981E+03  0.50400001928E-02 0.  1.
    10030    2    1    2    0    0  0.00000000000E+00  0.00000000000E+00  0.12675433079E+04  0.29257847675E+04  0.26369585640E+04 0.  0.
        5    1    3    3  502    0 -0.30323044208E+03 -0.12754593890E+04  0.78918577847E+03  0.15302227409E+04  0.46999998093E+01 0.  1.
       -5    1    3    3    0  502  0.30323044208E+03  0.12754593890E+04  0.47835752940E+03  0.13955620265E+04  0.46999998093E+01 0. -1.
</event>
<event>
 5   0  0.3849687E-05  0.2581648E+04  0.7818609E-02  0.8374462E-01
        2   -1    0    0  501    0  0.00000000000E+00  0.00000000000E+00  0.14877444169E+04  0.14877444169E+04  0.25500000920E-02 0. -1.
       -2   -1    0    0    0  501  0.00000000000E+00  0.00000000000E+00 -0.11199678797E+04  0.11199678797E+04  0.25500000920E-02 0.  1.
    10030    2    1    2    0    0  0.00000000000E+00  0.00000000000E+00  0.36777653720E+03  0.26077122966E+04  0.25816475051E+04 0.  0.
        1    1    3    3  502    0  0.95995854647E+03 -0.14722363470E+02  0.10554372821E+04  0.14267743393E+04  0.50400001928E-02 0. -1.
       -1    1    3    3    0  502 -0.95995854647E+03  0.14722363470E+02 -0.68766074487E+03  0.11809379573E+04  0.50400001928E-02 0.  1.
</event>
<event>
 5   0  0.3441646E-05  0.2621801E+04  0.7818609E-02  0.8360833E-01
        2   -1    0    0  501    0  0.00000000000E+00  0.00000000000E+00  0.13859818588E+04  0.13859818588E+04  0.25500000920E-02 0.  1.
       -2   -1    0    0    0  501  0.00000000000E+00  0.00000000000E+00 -0.12398865550E+04  0.12398865550E+04  0.25500000920E-02 0. -1.
    10030    2    1    2    0    0  0.00000000000E+00  0.00000000000E+00  0.14609530377E+03  0.26258684138E+04  0.26218011154E+04 0.  0.
        4    1    3    3  502    0 -0.63286798938E+03  0.56804473717E+03  0.10722234690E+04  0.13685252997E+04  0.12699999809E+01 0.  1.
       -4    1    3    3    0  502  0.63286798938E+03 -0.56804473717E+03 -0.92612816523E+03  0.12573431142E+04  0.12699999809E+01 0. -1.
</event>
<event>
 5   0  0.1435062E-05  0.2122420E+04  0.7818609E-02  0.8551431E-01
       -1   -1    0    0    0  501  0.00000000000E+00  0.00000000000E+00  0.77005222684E+03  0.77005222685E+03  0.50400001928E-02 0. -1.
        1   -1    0    0  501    0  0.00000000000E+00  0.00000000000E+00 -0.14624555868E+04  0.14624555868E+04  0.50400001928E-02 0.  1.
    10030    2    1    2    0    0  0.00000000000E+00  0.00000000000E+00 -0.69240335992E+03  0.22325078136E+04  0.21224204873E+04 0.  0.
        2    1    3    3  502    0 -0.65137032041E+03  0.68598957477E+03 -0.85208624744E+03  0.12731519800E+04  0.25500000920E-02 0.  1.
       -2    1    3    3    0  502  0.65137032041E+03 -0.68598957477E+03  0.15968288752E+03  0.95935583366E+03  0.25500000920E-02 0. -1.
</event>
<event>
 5   0  0.1533248E-05  0.2612553E+04  0.7818609E-02  0.8363950E-01
       -1   -1    0    0    0  501  0.00000000000E+00  0.00000000000E+00  0.15197615273E+04  0.15197615273E+04  0.50400001928E-02 0.  1.
        1   -1    0    0  501    0  0.00000000000E+00  0.00000000000E+00 -0.11227803167E+04  0.11227803167E+04  0.50400001928E-02 0. -1.
    10030    2    1    2    0    0  0.00000000000E+00  0.00000000000E+00  0.39698121059E+03  0.26425418440E+04  0.26125530264E+04 0.  0.
        4    1    3    3  502    0 -0.16265298829E+03  0.42505325844E+02  0.15087729938E+04  0.15181107526E+04  0.12699999809E+01 0.  1.
       -4    1    3    3    0  502  0.16265298829E+03 -0.42505325844E+02 -0.11117917832E+04  0.11244310915E+04  0.12699999809E+01 0. -1.
</event>
<event>
 5   0  0.3647623E-05  0.2619908E+04  0.7818609E-02  0.8361470E-01
        2   -1    0    0  501    0  0.00000000000E+00  0.00000000000E+00  0.24043571364E+04  0.24043571364E+04  0.25500000920E-02 0.  1.
       -2   -1    0    0    0  501  0.00000000000E+00  0.00000000000E+00 -0.71369590622E+03  0.71369590623E+03  0.25500000920E-02 0. -1.
    10030    2    1    2    0    0  0.00000000000E+00  0.00000000000E+00  0.16906612302E+04  0.31180530427E+04  0.26199082773E+04 0.  0.
        3    1    3    3  502    0 -0.12837971455E+04  0.88437107699E+02  0.55375013943E+03  0.14009266433E+04  0.10100000352E+00 0.  1.
       -3    1    3    3    0  502  0.12837971455E+04 -0.88437107699E+02  0.11369110908E+04  0.17171263993E+04  0.10100000352E+00 0. -1.
</event>
<event>
 5   0  0.1451052E-05  0.2669637E+04  0.7818609E-02  0.8344925E-01
        1   -1    0    0  501    0  0.00000000000E+00  0.00000000000E+00  0.13245427636E+04  0.13245427636E+04  0.50400001928E-02 0. -1.
       -1   -1    0    0    0  501  0.00000000000E+00  0.00000000000E+00 -0.13451737076E+04  0.13451737077E+04  0.50400001928E-02 0.  1.
    10030    2    1    2    0    0  0.00000000000E+00  0.00000000000E+00 -0.20630944087E+02  0.26697164712E+04  0.26696367545E+04 0.  0.
        1    1    3    3  502    0  0.47433832972E+03 -0.12005523840E+04  0.32942577550E+03  0.13322327948E+04  0.50400001928E-02 0. -1.
       -1    1    3    3    0  502 -0.47433832972E+03  0.12005523840E+04 -0.35005671959E+03  0.13374836765E+04  0.50400001928E-02 0.  1.
</event>
<event>
 5   0  0.3508470E-05  0.2590192E+04  0.7818609E-02  0.8371540E-01
       -2   -1    0    0    0  501  0.00000000000E+00  0.00000000000E+00  0.12925473020E+04  0.12925473020E+04  0.25500000920E-02 0.  1.
        2   -1    0    0  501    0  0.00000000000E+00  0.00000000000E+00 -0.12976495642E+04  0.12976495642E+04  0.25500000920E-02 0. -1.
    10030    2    1    2    0    0  0.00000000000E+00  0.00000000000E+00 -0.51022621648E+01  0.25901968663E+04  0.25901918409E+04 0.  0.
        5    1    3    3  502    0  0.11227875861E+04  0.30849754732E+03 -0.56949901249E+03  0.12962152273E+04  0.46999998093E+01 0. -1.
       -5    1    3    3    0  502 -0.11227875861E+04 -0.30849754732E+03  0.56439675033E+03  0.12939816390E+04  0.46999998093E+01 0.  1.
</event>
<event>
 5   0  0.1435062E-05  0.2570348E+04  0.7818609E-02  0.8378344E-01
       -1   -1    0    0    0  501  0.00000000000E+00  0.00000000000E+00  0.14092344797E+04  0.14092344798E+04  0.50400001928E-02 0. -1.
        1   -1    0    0  501    0  0.00000000000E+00  0.00000000000E+00 -0.11720347519E+04  0.11720347519E+04  0.50400001928E-02 0.  1.
    10030    2    1    2    0    0  0.00000000000E+00  0.00000000000E+00  0.23719972784E+03  0.25812692317E+04  0.25703476682E+04 0.  0.
        2    1    3    3  502    0 -0.93141198901E+03 -0.32593321795E+03  0.94545186865E+03  0.13666162562E+04  0.25500000920E-02 0. -1.
       -2    1    3    3    0  502  0.93141198901E+03  0.32593321795E+03 -0.70825214081E+03  0.12146529755E+04  0.25500000920E-02 0.  1.
</event>
<event>
 5   0  0.3849687E-05  0.2600541E+04  0.7818609E-02  0.8368018E-01
        2   -1    0    0  501    0  0.00000000000E+00  0.00000000000E+00  0.95302052883E+03  0.95302052884E+03  0.25500000920E-02 0.  1.
       -2   -1    0    0    0  501  0.00000000000E+00  0.00000000000E+00 -0.17740467600E+04  0.17740467600E+04  0.25500000920E-02 0. -1.
    10030    2    1    2    0    0  0.00000000000E+00  0.00000000000E+00 -0.82102623117E+03  0.27270672888E+04  0.26005406987E+04 0.  0.
        1    1    3    3  502    0 -0.11402232296E+04 -0.61676201922E+03 -0.51641460000E+03  0.13954169415E+04  0.50400001928E-02 0. -1.
       -1    1    3    3    0  502  0.11402232296E+04  0.61676201922E+03 -0.30461163117E+03  0.13316503473E+04  0.50400001928E-02 0.  1.
</event>
<event>
 5   0  0.3499642E-05  0.2628778E+04  0.7818609E-02  0.8358491E-01
        2   -1    0    0  501    0  0.00000000000E+00  0.00000000000E+00  0.21303550878E+04  0.21303550878E+04  0.25500000920E-02 0. -1.
       -2   -1    0    0    0  501  0.00000000000E+00  0.00000000000E+00 -0.81095338560E+03  0.81095338561E+03  0.25500000920E-02 0.  1.
    10030    2    1    2    0    0  0.00000000000E+00  0.00000000000E+00  0.13194017022E+04  0.29413084734E+04  0.26287781732E+04 0.  0.
        2    1    3    3  502    0 -0.11170843205E+04  0.69049622617E+03  0.72053640556E+03  0.14979436335E+04  0.25500000920E-02 0. -1.
       -2    1    3    3    0  502  0.11170843205E+04 -0.69049622617E+03  0.59886529665E+03  0.14433648399E+04  0.25500000920E-02 0.  1.
</event>
<event>
 5   0  0.1217200E-05  0.2507026E+04  0.7818609E-02  0.8400487E-01
       -3   -1    0    0    0  501  0.00000000000E+00  0.00000000000E+00  0.16134683323E+04  0.16134683355E+04  0.10100000352E+00 0.  1.
        3   -1    0    0  501    0  0.00000000000E+00  0.00000000000E+00 -0.97386130217E+03  0.97386130741E+03  0.10100000352E+00 0. -1.
    10030    2    1    2    0    0  0.00000000000E+00  0.00000000000E+00  0.63960703018E+03  0.25873296429E+04  0.25070256337E+04 0.  0.
        5    1    3    3  502    0  0.41968166636E+03 -0.94003825712E+03  0.10578812111E+04  0.14761230886E+04  0.46999998093E+01 0.  1.
       -5    1    3    3    0  502 -0.41968166636E+03  0.94003825712E+03 -0.41827418091E+03  0.11112065543E+04  0.46999998093E+01 0. -1.
</event>
<event>
 5   0  0.1533248E-05  0.2599740E+04  0.7818609E-02  0.8368290E-01
       -1   -1    0    0    0  501  0.00000000000E+00  0.00000000000E+00  0.12078872857E+04  0.12078872857E+04  0.50400001928E-02 0.  1.
        1   -1    0    0  501    0  0.00000000000E+00  0.00000000000E+00 -0.13988570821E+04  0.13988570821E+04  0.50400001928E-02 0. -1.
    10030    2    1    2    0    0  0.00000000000E+00  0.00000000000E+00 -0.19096979640E+03  0.26067443677E+04  0.25997397438E+04 0.  0.
        4    1    3    3  502    0 -0.90845781021E+03  0.44244412881E+03 -0.91537236527E+03  0.13634370466E+04  0.12699999809E+01 0. -1.
       -4    1    3    3    0  502  0.90845781021E+03 -0.44244412881E+03  0.72440256887E+03  0.12433073211E+04  0.12699999809E+01 0.  1.
</event>
<event>
 5   0  0.3441646E-05  0.2592142E+04  0.7818609E-02  0.8370875E-01
       -2   -1    0    0    0  501  0.00000000000E+00  0.00000000000E+00  0.16638764462E+04  0.16638764462E+04  0.25500000920E-02 0. -1.
        2   -1    0    0  501    0  0.00000000000E+00  0.00000000000E+00 -0.10095698744E+04  0.10095698744E+04  0.25500000920E-02 0.  1.
    10030    2    1    2    0    0  0.00000000000E+00  0.00000000000E+00  0.65430657180E+03  0.26734463205E+04  0.25921416124E+04 0.  0.
        4    1    3    3  502    0  0.10295136095E+04  0.77238861193E+03  0.16966982811E+03  0.12981802277E+04  0.12699999809E+01 0.  1.
       -4    1    3    3    0  502 -0.10295136095E+04 -0.77238861193E+03  0.48463674369E+03  0.13752660929E+04  0.12699999809E+01 0. -1.
</event>
<event>
 5   0  0.3508470E-05  0.2576267E+04  0.7818609E-02  0.8376308E-01
       -2   -1    0    0    0  501  0.00000000000E+00  0.00000000000E+00  0.15422093089E+04  0.15422093089E+04  0.25500000920E-02 0. -1.
        2   -1    0    0  501    0  0.00000000000E+00  0.00000000000E+00 -0.10759163716E+04  0.10759163716E+04  0.25500000920E-02 0.  1.
    10030    2    1    2    0    0  0.00000000000E+00  0.00000000000E+00  0.46629293729E+03  0.26181256805E+04  0.25762672562E+04 0.  0.
        5    1    3    3  502    0  0.43732188736E+03 -0.11663349822E+04 -0.10032903261E+03  0.12496702480E+04  0.46999998093E+01 0.  1.
       -5    1    3    3    0  502 -0.43732188736E+03  0.11663349822E+04  0.56662196990E+03  0.13684554325E+04  0.46999998093E+01 0. -1.
</event>
<event>
 5   0  0.1451052E-05  0.2585774E+04  0.7818609E-02  0.8373050E-01
       -1   -1    0    0    0  501  0.00000000000E+00  0.00000000000E+00  0.14705497786E+04  0.14705497786E+04  0.50400001928E-02 0.  1.
        1   -1    0    0  501    0  0.00000000000E+00  0.00000000000E+00 -0.11366879834E+04  0.11366879834E+04  0.50400001928E-02 0. -1.
    10030    2    1    2    0    0  0.00000000000E+00  0.00000000000E+00  0.33386179524E+03  0.26072377620E+04  0.25857735882E+04 0.  0.
        1    1    3    3  502    0 -0.89615671928E+03  0.42226393333E+03 -0.67071930226E+03  0.11963561666E+04  0.50400001928E-02 0. -1.
       -1    1    3    3    0  502  0.89615671928E+03 -0.42226393333E+03  0.10045810975E+04  0.14108815954E+04  0.50400001928E-02 0.  1.
</event>
<event>
 5   0  0.3441646E-05  0.1835806E+04  0.7818609E-02  0.8687487E-01
       -2   -1    0    0    0  501  0.00000000000E+00  0.00000000000E+00  0.65647083546E+03  0.65647083547E+03  0.25500000920E-02 0. -1.
        2   -1    0    0  501    0  0.00000000000E+00  0.00000000000E+00 -0.12834471973E+04  0.12834471973E+04  0.25500000920E-02 0.  1.
    10030    2    1    2    0    0  0.00000000000E+00  0.00000000000E+00 -0.62697636186E+03  0.19399180328E+04  0.18358057129E+04 0.  0.
        4    1    3    3  502    0 -0.29980993386E+03  0.63843301611E+03 -0.93422114338E+03  0.11705782631E+04  0.12699999809E+01 0.  1.
       -4    1    3    3    0  502  0.29980993386E+03 -0.63843301611E+03  0.30724478152E+03  0.76933976965E+03  0.12699999809E+01 0. -1.
</event>
<event>
 5   0  0.1497497E-05  0.2506288E+04  0.7818609E-02  0.8400749E-01
        1   -1    0    0  501    0  0.00000000000E+00  0.00000000000E+00  0.15450216085E+04  0.15450216085E+04  0.50400001928E-02 0.  1.
       -1   -1    0    0    0  501  0.00000000000E+00  0.00000000000E+00 -0.10164062796E+04  0.10164062796E+04  0.50400001928E-02 0. -1.
    10030    2    1    2    0    0  0.00000000000E+00  0.00000000000E+00  0.52861532885E+03  0.25614278881E+04  0.25062878246E+04 0.  0.
        3    1    3    3  502    0  0.61574194362E+03  0.72886737536E+03  0.10945748002E+04  0.14520605344E+04  0.10100000352E+00 0.  1.
       -3    1    3    3    0  502 -0.61574194362E+03 -0.72886737536E+03 -0.56595947139E+03  0.11093673537E+04  0.10100000352E+00 0. -1.
</event>
<event>
 5   0  0.1435062E-05  0.2700765E+04  0.7818609E-02  0.8334757E-01
        1   -1    0    0  501    0  0.00000000000E+00  0.00000000000E+00  0.21295206537E+04  0.21295206537E+04  0.50400001928E-02 0.  1.
       -1   -1    0    0    0  501  0.00000000000E+00  0.00000000000E+00 -0.85631128484E+03  0.85631128485E+03  0.50400001928E-02 0. -1.
    10030    2    1    2    0    0  0.00000000000E+00  0.00000000000E+00  0.12732093689E+04  0.29858319386E+04  0.27007647562E+04 0.  0.
        2    1    3    3  502    0 -0.17825926129E+03 -0.14854022550E+02 -0.84315543344E+03  0.86192116297E+03  0.25500000920E-02 0. -1.
       -2    1    3    3    0  502  0.17825926129E+03  0.14854022550E+02  0.21163648023E+04  0.21239107756E+04  0.25500000920E-02 0.  1.
</event>
<event>
 5   0  0.1435062E-05  0.1954353E+04  0.7818609E-02  0.8628265E-01
       -1   -1    0    0    0  501  0.00000000000E+00  0.00000000000E+00  0.53476403026E+03  0.53476403028E+03  0.50400001928E-02 0. -1.
        1   -1    0    0  501    0  0.00000000000E+00  0.00000000000E+00 -0.17855983757E+04  0.17855983757E+04  0.50400001928E-02 0.  1.
    10030    2    1    2    0    0  0.00000000000E+00  0.00000000000E+00 -0.12508343454E+04  0.23203624060E+04  0.19543528687E+04 0.  0.
        2    1    3    3  502    0 -0.55618035411E+03  0.39847155763E+03 -0.14537582858E+04  0.16067138271E+04  0.25500000920E-02 0.  1.
       -2    1    3    3    0  502  0.55618035411E+03 -0.39847155763E+03  0.20292394041E+03  0.71364857888E+03  0.25500000920E-02 0. -1.
</event>
<event>
 5   0  0.1451052E-05  0.2496644E+04  0.7818609E-02  0.8404182E-01
        1   -1    0    0  501    0  0.00000000000E+00  0.00000000000E+00  0.18437879389E+04  0.18437879389E+04  0.50400001928E-02 0.  1.
       -1   -1    0    0    0  501  0.00000000000E+00  0.00000000000E+00 -0.84516674391E+03  0.84516674393E+03  0.50400001928E-02 0. -1.
    10030    2    1    2    0    0  0.00000000000E+00  0.00000000000E+00  0.99862119496E+03  0.26889546828E+04  0.24966443470E+04 0.  0.
        1    1    3    3  502    0 -0.53467590797E+03  0.81919104118E+03 -0.33589349273E+03  0.10343001146E+04  0.50400001928E-02 0. -1.
       -1    1    3    3    0  502  0.53467590797E+03 -0.81919104118E+03  0.13345146877E+04  0.16546545682E+04  0.50400001928E-02 0.  1.
</event>
<event>
 5   0  0.1474554E-05  0.1924591E+04  0.7818609E-02  0.8642712E-01
        1   -1    0    0  501    0  0.00000000000E+00  0.00000000000E+00  0.19525069251E+04  0.19525069251E+04  0.50400001928E-02 0.  1.
       -1   -1    0    0    0  501  0.00000000000E+00  0.00000000000E+00 -0.47426867335E+03  0.47426867338E+03  0.50400001928E-02 0. -1.
    10030    2    1    2    0    0  0.00000000000E+00  0.00000000000E+00  0.14782382518E+04  0.24267755985E+04  0.19245912492E+04 0.  0.
        5    1    3    3  502    0 -0.40202564851E+03  0.81723460237E+03  0.34743070657E+03  0.97479598031E+03  0.46999998093E+01 0. -1.
       -5    1    3    3    0  502  0.40202564851E+03 -0.81723460237E+03  0.11308075452E+04  0.14519796182E+04  0.46999998093E+01 0.  1.
</event>
<event>
 5   0  0.1435062E-05  0.2530436E+04  0.7818609E-02  0.8392222E-01
        1   -1    0    0  501    0  0.00000000000E+00  0.00000000000E+00  0.87505722255E+03  0.87505722256E+03  0.50400001928E-02 0. -1.
       -1   -1    0    0    0  501  0.00000000000E+00  0.00000000000E+00 -0.18293388249E+04  0.18293388249E+04  0.50400001928E-02 0.  1.
    10030    2    1    2    0    0  0.00000000000E+00  0.00000000000E+00 -0.95428160230E+03  0.27043960474E+04  0.25304356551E+04 0.  0.
        2    1    3    3  502    0 -0.24423618618E+03 -0.10755256257E+04  0.18545615091E+03  0.11183920020E+04  0.25500000920E-02 0. -1.
       -2    1    3    3    0  502  0.24423618618E+03  0.10755256257E+04 -0.11397377532E+04  0.15860040455E+04  0.25500000920E-02 0.  1.
</event>
<event>
 5   0  0.3441646E-05  0.2451375E+04  0.7818609E-02  0.8420516E-01
       -2   -1    0    0    0  501  0.00000000000E+00  0.00000000000E+00  0.18650918675E+04  0.18650918675E+04  0.25500000920E-02 0.  1.
        2   -1    0    0  501    0  0.00000000000E+00  0.00000000000E+00 -0.80548823909E+03  0.80548823909E+03  0.25500000920E-02 0. -1.
    10030    2    1    2    0    0  0.00000000000E+00  0.00000000000E+00  0.10596036284E+04  0.26705801066E+04  0.24513747686E+04 0.  0.
        4    1    3    3  502    0  0.68403667166E+03  0.81015948810E+03 -0.14003146471E+03  0.10695209153E+04  0.12699999809E+01 0. -1.
       -4    1    3    3    0  502 -0.68403667166E+03 -0.81015948810E+03  0.11996350931E+04  0.16010591912E+04  0.12699999809E+01 0.  1.
</event>
<event>
 5   0  0.3441646E-05  0.2217432E+04  0.7818609E-02  0.8511207E-01
       -2   -1    0    0    0  501  0.00000000000E+00  0.00000000000E+00  0.88608731708E+03  0.88608731708E+03  0.25500000920E-02 0.  1.
        2   -1    0    0  501    0  0.00000000000E+00  0.00000000000E+00 -0.13872802575E+04  0.13872802575E+04  0.25500000920E-02 0. -1.
    10030    2    1    2    0    0  0.00000000000E+00  0.00000000000E+00 -0.50119294041E+03  0.22733675746E+04  0.22174322460E+04 0.  0.
        4    1    3    3  502    0 -0.27873631366E+03 -0.79059798466E+03  0.49331783927E+03  0.97267836891E+03  0.12699999809E+01 0.  1.
       -4    1    3    3    0  502  0.27873631366E+03  0.79059798466E+03 -0.99451077969E+03  0.13006892057E+04  0.12699999809E+01 0. -1.
</event>
<event>
 5   0  0.3441646E-05  0.2438565E+04  0.7818609E-02  0.8425205E-01
       -2   -1    0    0    0  501  0.00000000000E+00  0.00000000000E+00  0.10892552960E+04  0.10892552960E+04  0.25500000920E-02 0. -1.
        2   -1    0    0  501    0  0.00000000000E+00  0.00000000000E+00 -0.13648317620E+04  0.13648317620E+04  0.25500000920E-02 0.  1.
    10030    2    1    2    0    0  0.00000000000E+00  0.00000000000E+00 -0.27557646603E+03  0.24540870580E+04  0.24385653363E+04 0.  0.
        4    1    3    3  502    0  0.71918337644E+03  0.51256077004E+03 -0.98379678950E+03  0.13220442534E+04  0.12699999809E+01 0.  1.
       -4    1    3    3    0  502 -0.71918337644E+03 -0.51256077004E+03  0.70822032347E+03  0.11320428046E+04  0.12699999809E+01 0. -1.
</event>
<event>
 5   0  0.1533248E-05  0.2602807E+04  0.7818609E-02  0.8367248E-01
        1   -1    0    0  501    0  0.00000000000E+00  0.00000000000E+00  0.14002744923E+04  0.14002744923E+04  0.50400001928E-02 0. -1.
       -1   -1    0    0    0  501  0.00000000000E+00  0.00000000000E+00 -0.12095139088E+04  0.12095139088E+04  0.50400001928E-02 0.  1.
    10030    2    1    2    0    0  0.00000000000E+00  0.00000000000E+00  0.19076058350E+03  0.26097884011E+04  0.26028073111E+04 0.  0.
        4    1    3    3  502    0 -0.88513076368E+03 -0.30846972875E+03  0.10005972725E+04  0.13710603769E+04  0.12699999809E+01 0. -1.
       -4    1    3    3    0  502  0.88513076368E+03  0.30846972875E+03 -0.80983668900E+03  0.12387280243E+04  0.12699999809E+01 0.  1.
</event>
<event>
 5   0  0.1533248E-05  0.2555705E+04  0.7818609E-02  0.8383405E-01
       -1   -1    0    0    0  501  0.00000000000E+00  0.00000000000E+00  0.91202747385E+03  0.91202747386E+03  0.50400001928E-02 0. -1.
        1   -1    0    0  501    0  0.00000000000E+00  0.00000000000E+00 -0.17904145182E+04  0.17904145182E+04  0.50400001928E-02 0.  1.
    10030    2    1    2    0    0  0.00000000000E+00  0.00000000000E+00 -0.87838704437E+03  0.27024419921E+04  0.25557051710E+04 0.  0.
        4    1    3    3  502    0  0.33622490242E+01 -0.37126326904E+03 -0.17321223972E+04  0.17714675643E+04  0.12699999809E+01 0.  1.
       -4    1    3    3    0  502 -0.33622490242E+01  0.37126326904E+03  0.85373535281E+03  0.93097442778E+03  0.12699999809E+01 0. -1.
</event>
<event>
 5   0  0.3508470E-05  0.2861042E+04  0.7818609E-02  0.8284564E-01
        2   -1    0    0  501    0  0.00000000000E+00  0.00000000000E+00  0.15663023606E+04  0.15663023606E+04  0.25500000920E-02 0.  1.
       -2   -1    0    0    0  501  0.00000000000E+00  0.00000000000E+00 -0.13065101992E+04  0.13065101992E+04  0.25500000920E-02 0. -1.
    10030    2    1    2    0    0  0.00000000000E+00  0.00000000000E+00  0.25979216145E+03  0.28728125598E+04  0.28610417747E+04 0.  0.
        5    1    3    3  502    0 -0.38846707129E+03  0.60716563520E+03 -0.11108295460E+04  0.13242058542E+04  0.46999998093E+01 0. -1.
       -5    1    3    3    0  502  0.38846707129E+03 -0.60716563520E+03  0.13706217074E+04  0.15486067057E+04  0.46999998093E+01 0.  1.
</event>
<event>
 5   0  0.1474554E-05  0.2170723E+04  0.7818609E-02  0.8530714E-01
        1   -1    0    0  501    0  0.00000000000E+00  0.00000000000E+00  0.80891700146E+03  0.80891700148E+03  0.50400001928E-02 0. -1.
       -1   -1    0    0    0  501  0.00000000000E+00  0.00000000000E+00 -0.14562794553E+04  0.14562794553E+04  0.50400001928E-02 0.  1.
    10030    2    1    2    0    0  0.00000000000E+00  0.00000000000E+00 -0.64736245384E+03  0.22651964568E+04  0.21707226541E+04 0.  0.
        5    1    3    3  502    0  0.36391448658E+03 -0.92400395181E+03  0.13329324678E+03  0.10020011158E+04  0.46999998093E+01 0. -1.
       -5    1    3    3    0  502 -0.36391448658E+03  0.92400395181E+03 -0.78065570061E+03  0.12631953410E+04  0.46999998093E+01 0.  1.
</event>
<event>
 5   0  0.1217200E-05  0.2483488E+04  0.7818609E-02  0.8408892E-01
       -3   -1    0    0    0  501  0.00000000000E+00  0.00000000000E+00  0.15611407016E+04  0.15611407049E+04  0.10100000352E+00 0.  1.
        3   -1    0    0  501    0  0.00000000000E+00  0.00000000000E+00 -0.98769288645E+03  0.98769289161E+03  0.10100000352E+00 0. -1.
    10030    2    1    2    0    0  0.00000000000E+00  0.00000000000E+00  0.57344781514E+03  0.25488335965E+04  0.24834875288E+04 0.  0.
        2    1    3    3  502    0 -0.22132557120E+03 -0.75787267955E+03  0.12703634957E+04  0.14957203676E+04  0.25500000920E-02 0.  1.
       -2    1    3    3    0  502  0.22132557120E+03  0.75787267955E+03 -0.69691568059E+03  0.10531132288E+04  0.25500000920E-02 0. -1.
</event>
<event>
 5   0  0.3499642E-05  0.2119307E+04  0.7818609E-02  0.8552786E-01
        2   -1    0    0  501    0  0.00000000000E+00  0.00000000000E+00  0.75502507924E+03  0.75502507925E+03  0.25500000920E-02 0. -1.
       -2   -1    0    0    0  501  0.00000000000E+00  0.00000000000E+00 -0.14871891051E+04  0.14871891051E+04  0.25500000920E-02 0.  1.
    10030    2    1    2    0    0  0.00000000000E+00  0.00000000000E+00 -0.73216402589E+03  0.22422141844E+04  0.21193065583E+04 0.  0.
        2    1    3    3  502    0 -0.86867217877E+03  0.59077844856E+03 -0.51289007829E+03  0.11690452352E+04  0.25500000920E-02 0.  1.
       -2    1    3    3    0  502  0.86867217877E+03 -0.59077844856E+03 -0.21927394760E+03  0.10731689492E+04  0.25500000920E-02 0. -1.
</event>
<event>
 5   0  0.1497497E-05  0.2582715E+04  0.7818609E-02  0.8374096E-01
       -1   -1    0    0    0  501  0.00000000000E+00  0.00000000000E+00  0.87619041842E+03  0.87619041843E+03  0.50400001928E-02 0. -1.
        1   -1    0    0  501    0  0.00000000000E+00  0.00000000000E+00 -0.19032440074E+04  0.19032440074E+04  0.50400001928E-02 0.  1.
    10030    2    1    2    0    0  0.00000000000E+00  0.00000000000E+00 -0.10270535890E+04  0.27794344258E+04  0.25827149771E+04 0.  0.
        3    1    3    3  502    0  0.98865416846E+03 -0.62551787648E+03  0.74827454982E+02  0.11723091899E+04  0.10100000352E+00 0. -1.
       -3    1    3    3    0  502 -0.98865416846E+03  0.62551787648E+03 -0.11018810440E+04  0.16071252359E+04  0.10100000352E+00 0.  1.
</event>
<event>
 5   0  0.3647623E-05  0.2601102E+04  0.7818609E-02  0.8367827E-01
        2   -1    0    0  501    0  0.00000000000E+00  0.00000000000E+00  0.10247427975E+04  0.10247427975E+04  0.25500000920E-02 0. -1.
       -2   -1    0    0    0  501  0.00000000000E+00  0.00000000000E+00 -0.16505925029E+04  0.16505925029E+04  0.25500000920E-02 0.  1.
    10030    2    1    2    0    0  0.00000000000E+00  0.00000000000E+00 -0.62584970535E+03  0.26753353004E+04  0.26011019042E+04 0.  0.
        3    1    3    3  502    0  0.20957599210E+03  0.11215650146E+04 -0.95492003761E+03  0.14878516280E+04  0.10100000352E+00 0.  1.
       -3    1    3    3    0  502 -0.20957599210E+03 -0.11215650146E+04  0.32907033227E+03  0.11874836724E+04  0.10100000352E+00 0. -1.
</event>
<event>
 5   0  0.3441646E-05  0.2589094E+04  0.7818609E-02  0.8371915E-01
       -2   -1    0    0    0  501  0.00000000000E+00  0.00000000000E+00  0.10295533330E+04  0.10295533330E+04  0.25500000920E-02 0.  1.
        2   -1    0    0  501    0  0.00000000000E+00  0.00000000000E+00 -0.16277470807E+04  0.16277470807E+04  0.25500000920E-02 0. -1.
    10030    2    1    2    0    0  0.00000000000E+00  0.00000000000E+00 -0.59819374777E+03  0.26573004137E+04  0.25890943839E+04 0.  0.
        4    1    3    3  502    0  0.10022119962E+04  0.81839473660E+03 -0.25738147761E+03  0.13192595150E+04  0.12699999809E+01 0.  1.
       -4    1    3    3    0  502 -0.10022119962E+04 -0.81839473660E+03 -0.34081227016E+03  0.13380408987E+04  0.12699999809E+01 0. -1.
</event>
<event>
 5   0  0.3441646E-05  0.2611359E+04  0.7818609E-02  0.8364353E-01
       -2   -1    0    0    0  501  0.00000000000E+00  0.00000000000E+00  0.15081023246E+04  0.15081023246E+04  0.25500000920E-02 0.  1.
        2   -1    0    0  501    0  0.00000000000E+00  0.00000000000E+00 -0.11304262823E+04  0.11304262823E+04  0.25500000920E-02 0. -1.
    10030    2    1    2    0    0  0.00000000000E+00  0.00000000000E+00  0.37767604231E+03  0.26385286069E+04  0.26113586533E+04 0.  0.
        4    1    3    3  502    0 -0.21716571984E+03  0.11739492607E+04 -0.34532021849E+03  0.12428054887E+04  0.12699999809E+01 0.  1.
       -4    1    3    3    0  502  0.21716571984E+03 -0.11739492607E+04  0.72299626080E+03  0.13957231182E+04  0.12699999809E+01 0. -1.
</event>
<event>
 5   0  0.1435062E-05  0.2594131E+04  0.7818609E-02  0.8370197E-01
        1   -1    0    0  501    0  0.00000000000E+00  0.00000000000E+00  0.10982485968E+04  0.10982485968E+04  0.50400001928E-02 0. -1.
       -1   -1    0    0    0  501  0.00000000000E+00  0.00000000000E+00 -0.15318745080E+04  0.15318745080E+04  0.50400001928E-02 0.  1.
    10030    2    1    2    0    0  0.00000000000E+00  0.00000000000E+00 -0.43362591120E+03  0.26301231048E+04  0.25941310906E+04 0.  0.
        2    1    3    3  502    0  0.18818732511E+03  0.10019492769E+04 -0.10298505932E+04  0.14491062995E+04  0.25500000920E-02 0.  1.
       -2    1    3    3    0  502 -0.18818732511E+03 -0.10019492769E+04  0.59622468202E+03  0.11810168053E+04  0.25500000920E-02 0. -1.
</event>
<event>
 5   0  0.3849687E-05  0.2621909E+04  0.7818609E-02  0.8360797E-01
       -2   -1    0    0    0  501  0.00000000000E+00  0.00000000000E+00  0.10168066324E+04  0.10168066324E+04  0.25500000920E-02 0.  1.
        2   -1    0    0  501    0  0.00000000000E+00  0.00000000000E+00 -0.16901946617E+04  0.16901946617E+04  0.25500000920E-02 0. -1.
    10030    2    1    2    0    0  0.00000000000E+00  0.00000000000E+00 -0.67338802933E+03  0.27070012941E+04  0.26219085736E+04 0.  0.
        1    1    3    3  502    0 -0.56157210126E+03 -0.11774985048E+04 -0.20313099765E+03  0.13202757879E+04  0.50400001928E-02 0. -1.
       -1    1    3    3    0  502  0.56157210126E+03  0.11774985048E+04 -0.47025703168E+03  0.13867255062E+04  0.50400001928E-02 0.  1.
</event>
<event>
 5   0  0.1451052E-05  0.1645345E+04  0.7818609E-02  0.8793165E-01
        1   -1    0    0  501    0  0.00000000000E+00  0.00000000000E+00  0.81532188135E+03  0.81532188137E+03  0.50400001928E-02 0. -1.
       -1   -1    0    0    0  501  0.00000000000E+00  0.00000000000E+00 -0.83008920445E+03  0.83008920446E+03  0.50400001928E-02 0.  1.
    10030    2    1    2    0    0  0.00000000000E+00  0.00000000000E+00 -0.14767323094E+02  0.16454110858E+04  0.16453448172E+04 0.  0.
        1    1    3    3  502    0 -0.35305239531E+03  0.31160766912E+03 -0.68198073718E+03  0.82875995270E+03  0.50400001928E-02 0.  1.
       -1    1    3    3    0  502  0.35305239531E+03 -0.31160766912E+03  0.66721341409E+03  0.81665113313E+03  0.50400001928E-02 0. -1.
</event>
<event>
 5   0  0.1474554E-05  0.2612654E+04  0.7818609E-02  0.8363916E-01
       -1   -1    0    0    0  501  0.00000000000E+00  0.00000000000E+00  0.72589231861E+03  0.72589231863E+03  0.50400001928E-02 0.  1.
        1   -1    0    0  501    0  0.00000000000E+00  0.00000000000E+00 -0.23508860144E+04  0.23508860144E+04  0.50400001928E-02 0. -1.
    10030    2    1    2    0    0  0.00000000000E+00  0.00000000000E+00 -0.16249936957E+04  0.30767783330E+04  0.26126538996E+04 0.  0.
        5    1    3    3  502    0 -0.92002112235E+03 -0.25508588664E+03  0.23749772949E+03  0.98383684452E+03  0.46999998093E+01 0.  1.
       -5    1    3    3    0  502  0.92002112235E+03  0.25508588664E+03 -0.18624914252E+04  0.20929414885E+04  0.46999998093E+01 0. -1.
</event>
<event>
 5   0  0.3849687E-05  0.2567700E+04  0.7818609E-02  0.8379256E-01
        2   -1    0    0  501    0  0.00000000000E+00  0.00000000000E+00  0.20679128234E+04  0.20679128234E+04  0.25500000920E-02 0. -1.
       -2   -1    0    0    0  501  0.00000000000E+00  0.00000000000E+00 -0.79707007423E+03  0.79707007423E+03  0.25500000920E-02 0.  1.
    10030    2    1    2    0    0  0.00000000000E+00  0.00000000000E+00  0.12708427491E+04  0.28649828976E+04  0.25677004713E+04 0.  0.
        1    1    3    3  502    0 -0.70538174490E+03  0.30074800684E+03 -0.51348221616E+03  0.92286334632E+03  0.50400001928E-02 0.  1.
       -1    1    3    3    0  502  0.70538174490E+03 -0.30074800684E+03  0.17843249653E+04  0.19421195513E+04  0.50400001928E-02 0. -1.
</event>
<event>
 5   0  0.1474554E-05  0.2559167E+04  0.7818609E-02  0.8382205E-01
       -1   -1    0    0    0  501  0.00000000000E+00  0.00000000000E+00  0.10281962489E+04  0.10281962489E+04  0.50400001928E-02 0.  1.
        1   -1    0    0  501    0  0.00000000000E+00  0.00000000000E+00 -0.15924335636E+04  0.15924335636E+04  0.50400001928E-02 0. -1.
    10030    2    1    2    0    0  0.00000000000E+00  0.00000000000E+00 -0.56423731466E+03  0.26206298125E+04  0.25591672214E+04 0.  0.
        5    1    3    3  502    0 -0.61946462416E+03 -0.49363297119E+03 -0.13111928121E+04  0.15318807432E+04  0.46999998093E+01 0. -1.
       -5    1    3    3    0  502  0.61946462416E+03  0.49363297119E+03  0.74695549744E+03  0.10887490693E+04  0.46999998093E+01 0.  1.
</event>
<event>
 5   0  0.1497497E-05  0.2606149E+04  0.7818609E-02  0.8366116E-01
        1   -1    0    0  501    0  0.00000000000E+00  0.00000000000E+00  0.23215532109E+04  0.23215532109E+04  0.50400001928E-02 0.  1.
       -1   -1    0    0    0  501  0.00000000000E+00  0.00000000000E+00 -0.73140826729E+03  0.73140826731E+03  0.50400001928E-02 0. -1.
    10030    2    1    2    0    0  0.00000000000E+00  0.00000000000E+00  0.15901449436E+04  0.30529614782E+04  0.26061490452E+04 0.  0.
        3    1    3    3  502    0 -0.10663660404E+03  0.39475476156E+02 -0.72558535812E+03  0.73444114854E+03  0.10100000352E+00 0. -1.
       -3    1    3    3    0  502  0.10663660404E+03 -0.39475476156E+02  0.23157303017E+04  0.23185203297E+04  0.10100000352E+00 0.  1.
</event>
<event>
 5   0  0.1533248E-05  0.2205953E+04  0.7818609E-02  0.8515954E-01
        1   -1    0    0  501    0  0.00000000000E+00  0.00000000000E+00  0.13128833809E+04  0.13128833810E+04  0.50400001928E-02 0.  1.
       -1   -1    0    0    0  501  0.00000000000E+00  0.00000000000E+00 -0.92663018406E+03  0.92663018407E+03  0.50400001928E-02 0. -1.
    10030    2    1    2    0    0  0.00000000000E+00  0.00000000000E+00  0.38625319688E+03  0.22395135650E+04  0.22059531899E+04 0.  0.
        4    1    3    3  502    0 -0.10657644730E+04 -0.15207303762E+03  0.43672631249E+03  0.11617708921E+04  0.12699999809E+01 0. -1.
       -4    1    3    3    0  502  0.10657644730E+04  0.15207303762E+03 -0.50473115610E+02  0.10777426729E+04  0.12699999809E+01 0.  1.
</event>
<event>
 5   0  0.3508470E-05  0.2554285E+04  0.7818609E-02  0.8383898E-01
       -2   -1    0    0    0  501  0.00000000000E+00  0.00000000000E+00  0.15495707502E+04  0.15495707502E+04  0.25500000920E-02 0. -1.
        2   -1    0    0  501    0  0.00000000000E+00  0.00000000000E+00 -0.10526093105E+04  0.10526093105E+04  0.25500000920E-02 0.  1.
    10030    2    1    2    0    0  0.00000000000E+00  0.00000000000E+00  0.49696143978E+03  0.26021800607E+04  0.25542847131E+04 0.  0.
        5    1    3    3  502    0 -0.16675322677E+03 -0.51287282521E+03 -0.93090795269E+03  0.10758516997E+04  0.46999998093E+01 0.  1.
       -5    1    3    3    0  502  0.16675322677E+03  0.51287282521E+03  0.14278693925E+04  0.15263283609E+04  0.46999998093E+01 0. -1.
</event>
<event>
 5   0  0.3849687E-05  0.2542318E+04  0.7818609E-02  0.8388063E-01
        2   -1    0    0  501    0  0.00000000000E+00  0.00000000000E+00  0.22390275813E+04  0.22390275813E+04  0.25500000920E-02 0. -1.
       -2   -1    0    0    0  501  0.00000000000E+00  0.00000000000E+00 -0.72167265636E+03  0.72167265636E+03  0.25500000920E-02 0.  1.
    10030    2    1    2    0    0  0.00000000000E+00  0.00000000000E+00  0.15173549249E+04  0.29607002376E+04  0.25423178261E+04 0.  0.
        1    1    3    3  502    0 -0.63503552695E+02  0.10870738209E+04  0.15224088291E+04  0.18717614261E+04  0.50400001928E-02 0. -1.
       -1    1    3    3    0  502  0.63503552695E+02 -0.10870738209E+04 -0.50539041959E+01  0.10889388115E+04  0.50400001928E-02 0.  1.
</event>
<event>
 5   0  0.1435062E-05  0.2545931E+04  0.7818609E-02  0.8386803E-01
       -1   -1    0    0    0  501  0.00000000000E+00  0.00000000000E+00  0.59967563321E+03  0.59967563323E+03  0.50400001928E-02 0.  1.
        1   -1    0    0  501    0  0.00000000000E+00  0.00000000000E+00 -0.27021951492E+04  0.27021951492E+04  0.50400001928E-02 0. -1.
    10030    2    1    2    0    0  0.00000000000E+00  0.00000000000E+00 -0.21025195160E+04  0.33018707825E+04  0.25459305467E+04 0.  0.
        2    1    3    3  502    0 -0.13828595067E+02 -0.11531371702E+04 -0.17503038131E+04  0.20960629765E+04  0.25500000920E-02 0. -1.
       -2    1    3    3    0  502  0.13828595067E+02  0.11531371702E+04 -0.35221570293E+03  0.12058078059E+04  0.25500000920E-02 0.  1.
</event>
<event>
 5   0  0.1474554E-05  0.2592439E+04  0.7818609E-02  0.8370774E-01
       -1   -1    0    0    0  501  0.00000000000E+00  0.00000000000E+00  0.18943653469E+04  0.18943653469E+04  0.50400001928E-02 0.  1.
        1   -1    0    0  501    0  0.00000000000E+00  0.00000000000E+00 -0.88693810317E+03  0.88693810319E+03  0.50400001928E-02 0. -1.
    10030    2    1    2    0    0  0.00000000000E+00  0.00000000000E+00  0.10074272437E+04  0.27813034500E+04  0.25924388575E+04 0.  0.
        5    1    3    3  502    0  0.31115374665E+03  0.50371247779E+03 -0.73338291048E+03  0.94255795456E+03  0.46999998093E+01 0. -1.
       -5    1    3    3    0  502 -0.31115374665E+03 -0.50371247779E+03  0.17408101542E+04  0.18387454955E+04  0.46999998093E+01 0.  1.
</event>
<event>
 5   0  0.3647623E-05  0.2608649E+04  0.7818609E-02  0.8365269E-01
       -2   -1    0    0    0  501  0.00000000000E+00  0.00000000000E+00  0.75354144228E+03  0.75354144229E+03  0.25500000920E-02 0.  1.
        2   -1    0    0  501    0  0.00000000000E+00  0.00000000000E+00 -0.22576886154E+04  0.22576886154E+04  0.25500000920E-02 0. -1.
    10030    2    1    2    0    0  0.00000000000E+00  0.00000000000E+00 -0.15041471731E+04  0.30112300577E+04  0.26086486429E+04 0.  0.
        3    1    3    3  502    0  0.55349486916E+03 -0.53921016204E+03 -0.19650264174E+04  0.21115001776E+04  0.10100000352E+00 0. -1.
       -3    1    3    3    0  502 -0.55349486916E+03  0.53921016204E+03  0.46087924426E+03  0.89972988003E+03  0.10100000352E+00 0.  1.
</event>
<event>
 5   0  0.3849687E-05  0.2609367E+04  0.7818609E-02  0.8365027E-01
       -2   -1    0    0    0  501  0.00000000000E+00  0.00000000000E+00  0.12989492403E+04  0.12989492403E+04  0.25500000920E-02 0. -1.
        2   -1    0    0  501    0  0.00000000000E+00  0.00000000000E+00 -0.13104426190E+04  0.13104426190E+04  0.25500000920E-02 0.  1.
    10030    2    1    2    0    0  0.00000000000E+00  0.00000000000E+00 -0.11493378777E+02  0.26093918593E+04  0.26093665472E+04 0.  0.
        1    1    3    3  502    0  0.57833052851E+03 -0.90203005668E+03  0.73862201671E+03  0.13014172686E+04  0.50400001928E-02 0. -1.
       -1    1    3    3    0  502 -0.57833052851E+03  0.90203005668E+03 -0.75011539548E+03  0.13079745907E+04  0.50400001928E-02 0.  1.
</event>
<event>
 5   0  0.1217200E-05  0.2630697E+04  0.7818609E-02  0.8357848E-01
        3   -1    0    0  501    0  0.00000000000E+00  0.00000000000E+00  0.11151414818E+04  0.11151414863E+04  0.10100000352E+00 0. -1.
       -3   -1    0    0    0  501  0.00000000000E+00  0.00000000000E+00 -0.15514994518E+04  0.15514994551E+04  0.10100000352E+00 0.  1.
    10030    2    1    2    0    0  0.00000000000E+00  0.00000000000E+00 -0.43635797002E+03  0.26666409414E+04  0.26306967960E+04 0.  0.
        1    1    3    3  502    0  0.58121719166E+03 -0.46888371193E+03  0.87942515550E+03  0.11537131200E+04  0.50400001928E-02 0. -1.
       -1    1    3    3    0  502 -0.58121719166E+03  0.46888371193E+03 -0.13157831255E+04  0.15129278214E+04  0.50400001928E-02 0.  1.
</event>
<event>
 5   0  0.1435062E-05  0.2614099E+04  0.7818609E-02  0.8363428E-01
       -1   -1    0    0    0  501  0.00000000000E+00  0.00000000000E+00  0.10912368608E+04  0.10912368608E+04  0.50400001928E-02 0. -1.
        1   -1    0    0  501    0  0.00000000000E+00  0.00000000000E+00 -0.15655427096E+04  0.15655427096E+04  0.50400001928E-02 0.  1.
    10030    2    1    2    0    0  0.00000000000E+00  0.00000000000E+00 -0.47430584878E+03  0.26567795703E+04  0.26140986300E+04 0.  0.
        2    1    3    3  502    0 -0.69083067333E+03  0.78013343813E+03  0.56473034739E+03  0.11852322835E+04  0.25500000920E-02 0. -1.
       -2    1    3    3    0  502  0.69083067333E+03 -0.78013343813E+03 -0.10390361962E+04  0.14715472869E+04  0.25500000920E-02 0.  1.
</event>
<event>
 5   0  0.1474554E-05  0.2528613E+04  0.7818609E-02  0.8392863E-01
        1   -1    0    0  501    0  0.00000000000E+00  0.00000000000E+00  0.10811644889E+04  0.10811644890E+04  0.50400001928E-02 0. -1.
       -1   -1    0    0    0  501  0.00000000000E+00  0.00000000000E+00 -0.14784710326E+04  0.14784710326E+04  0.50400001928E-02 0.  1.
    10030    2    1    2    0    0  0.00000000000E+00  0.00000000000E+00 -0.39730654366E+03  0.25596355216E+04  0.25286125669E+04 0.  0.
        5    1    3    3  502    0  0.10056730927E+04 -0.63686814611E+03 -0.62987131054E+03  0.13467514109E+04  0.46999998093E+01 0.  1.
       -5    1    3    3    0  502 -0.10056730927E+04  0.63686814611E+03  0.23256476689E+03  0.12128841106E+04  0.46999998093E+01 0. -1.
</event>
<event>
 5   0  0.1435062E-05  0.2559844E+04  0.7818609E-02  0.8381971E-01
        1   -1    0    0  501    0  0.00000000000E+00  0.00000000000E+00  0.22313843414E+04  0.22313843414E+04  0.50400001928E-02 0.  1.
       -1   -1    0    0    0  501  0.00000000000E+00  0.00000000000E+00 -0.73416307918E+03  0.73416307920E+03  0.50400001928E-02 0. -1.
    10030    2    1    2    0    0  0.00000000000E+00  0.00000000000E+00  0.14972212622E+04  0.29655474206E+04  0.25598437444E+04 0.  0.
        2    1    3    3  502    0 -0.61479049860E+03  0.35919295818E+03 -0.48353948425E+03  0.86069586452E+03  0.25500000920E-02 0. -1.
       -2    1    3    3    0  502  0.61479049860E+03 -0.35919295818E+03  0.19807607465E+04  0.21048515561E+04  0.25500000920E-02 0.  1.
</event>
<event>
 5   0  0.1474554E-05  0.2598010E+04  0.7818609E-02  0.8368877E-01
        1   -1    0    0  501    0  0.00000000000E+00  0.00000000000E+00  0.13627389407E+04  0.13627389407E+04  0.50400001928E-02 0. -1.
       -1   -1    0    0    0  501  0.00000000000E+00  0.00000000000E+00 -0.12382521434E+04  0.12382521434E+04  0.50400001928E-02 0.  1.
    10030    2    1    2    0    0  0.00000000000E+00  0.00000000000E+00  0.12448679732E+03  0.26009910841E+04  0.25980103265E+04 0.  0.
        5    1    3    3  502    0 -0.11615317700E+04 -0.58141533536E+03  0.76133009698E+02  0.13011603168E+04  0.46999998093E+01 0.  1.
       -5    1    3    3    0  502  0.11615317700E+04  0.58141533536E+03  0.48353787622E+02  0.12998307673E+04  0.46999998093E+01 0. -1.
</event>
<event>
 5   0  0.1435062E-05  0.2547324E+04  0.7818609E-02  0.8386318E-01
        1   -1    0    0  501    0  0.00000000000E+00  0.00000000000E+00  0.17804731779E+04  0.17804731779E+04  0.50400001928E-02 0.  1.
       -1   -1    0    0    0  501  0.00000000000E+00  0.00000000000E+00 -0.91111424415E+03  0.91111424416E+03  0.50400001928E-02 0. -1.
    10030    2    1    2    0    0  0.00000000000E+00  0.00000000000E+00  0.86935893373E+03  0.26915874221E+04  0.25473236730E+04 0.  0.
        2    1    3    3  502    0  0.33964250419E+03 -0.14749587750E+03 -0.85298455031E+03  0.92988962119E+03  0.25500000920E-02 0. -1.
       -2    1    3    3    0  502 -0.33964250419E+03  0.14749587750E+03  0.17223434840E+04  0.17616978009E+04  0.25500000920E-02 0.  1.
</event>
<event>
 5   0  0.3647623E-05  0.2639188E+04  0.7818609E-02  0.8355011E-01
        2   -1    0    0  501    0  0.00000000000E+00  0.00000000000E+00  0.17201301011E+04  0.17201301011E+04  0.25500000920E-02 0. -1.
       -2   -1    0    0    0  501  0.00000000000E+00  0.00000000000E+00 -0.10123232335E+04  0.10123232335E+04  0.25500000920E-02 0.  1.
    10030    2    1    2    0    0  0.00000000000E+00  0.00000000000E+00  0.70780686758E+03  0.27324533345E+04  0.26391875006E+04 0.  0.
        3    1    3    3  502    0  0.71926701750E+03  0.25882887327E+03 -0.75974305822E+03  0.10777508770E+04  0.10100000352E+00 0.  1.
       -3    1    3    3    0  502 -0.71926701750E+03 -0.25882887327E+03  0.14675499258E+04  0.16547024576E+04  0.10100000352E+00 0. -1.
</event>
<event>
 5   0  0.3499642E-05  0.2728090E+04  0.7818609E-02  0.8325948E-01
       -2   -1    0    0    0  501  0.00000000000E+00  0.00000000000E+00  0.10195898508E+04  0.10195898508E+04  0.25500000920E-02 0.  1.
        2   -1    0    0  501    0  0.00000000000E+00  0.00000000000E+00 -0.18248698684E+04  0.18248698684E+04  0.25500000920E-02 0. -1.
    10030    2    1    2    0    0  0.00000000000E+00  0.00000000000E+00 -0.80528001763E+03  0.28444597192E+04  0.27280900255E+04 0.  0.
        2    1    3    3  502    0  0.28967640022E+03 -0.10543945073E+04 -0.12528738657E+04  0.16629350911E+04  0.25500000920E-02 0. -1.
       -2    1    3    3    0  502 -0.28967640022E+03  0.10543945073E+04  0.44759384810E+03  0.11815246281E+04  0.25500000920E-02 0.  1.
</event>
<event>
 5   0  0.3849687E-05  0.2592527E+04  0.7818609E-02  0.8370744E-01
       -2   -1    0    0    0  501  0.00000000000E+00  0.00000000000E+00  0.90110371892E+03  0.90110371892E+03  0.25500000920E-02 0.  1.
        2   -1    0    0  501    0  0.00000000000E+00  0.00000000000E+00 -0.18647125541E+04  0.18647125541E+04  0.25500000920E-02 0. -1.
    10030    2    1    2    0    0  0.00000000000E+00  0.00000000000E+00 -0.96360883520E+03  0.27658162730E+04  0.25925272745E+04 0.  0.
        1    1    3    3  502    0  0.66022210887E+03 -0.47107431095E+02 -0.16708362905E+04  0.17971661728E+04  0.50400001928E-02 0. -1.
       -1    1    3    3    0  502 -0.66022210887E+03  0.47107431095E+02  0.70722745529E+03  0.96865010021E+03  0.50400001928E-02 0.  1.
</event>
<event>
 5   0  0.1435062E-05  0.2583771E+04  0.7818609E-02  0.8373735E-01
        1   -1    0    0  501    0  0.00000000000E+00  0.00000000000E+00  0.22860949575E+04  0.22860949575E+04  0.50400001928E-02 0.  1.
       -1   -1    0    0    0  501  0.00000000000E+00  0.00000000000E+00 -0.73005182574E+03  0.73005182576E+03  0.50400001928E-02 0. -1.
    10030    2    1    2    0    0  0.00000000000E+00  0.00000000000E+00  0.15560431317E+04  0.30161467832E+04  0.25837707310E+04 0.  0.
        2    1    3    3  502    0 -0.26950000947E+03  0.18481848207E+03  0.22370507864E+04  0.22607928581E+04  0.25500000920E-02 0.  1.
       -2    1    3    3    0  502  0.26950000947E+03 -0.18481848207E+03 -0.68100765468E+03  0.75535392510E+03  0.25500000920E-02 0. -1.
</event>
<event>
 5   0  0.3441646E-05  0.2598637E+04  0.7818609E-02  0.8368664E-01
       -2   -1    0    0    0  501  0.00000000000E+00  0.00000000000E+00  0.10302435965E+04  0.10302435965E+04  0.25500000920E-02 0.  1.
        2   -1    0    0  501    0  0.00000000000E+00  0.00000000000E+00 -0.16386695935E+04  0.16386695935E+04  0.25500000920E-02 0. -1.
    10030    2    1    2    0    0  0.00000000000E+00  0.00000000000E+00 -0.60842599701E+03  0.26689131901E+04  0.25986372241E+04 0.  0.
        4    1    3    3  502    0 -0.22499113479E+03 -0.12730840347E+04 -0.17084251611E+03  0.13040524331E+04  0.12699999809E+01 0.  1.
       -4    1    3    3    0  502  0.22499113479E+03  0.12730840347E+04 -0.43758348090E+03  0.13648607569E+04  0.12699999809E+01 0. -1.
</event>
<event>
 5   0  0.1451052E-05  0.2328230E+04  0.7818609E-02  0.8466873E-01
       -1   -1    0    0    0  501  0.00000000000E+00  0.00000000000E+00  0.73115599308E+03  0.73115599310E+03  0.50400001928E-02 0.  1.
        1   -1    0    0  501    0  0.00000000000E+00  0.00000000000E+00 -0.18534530371E+04  0.18534530371E+04  0.50400001928E-02 0. -1.
    10030    2    1    2    0    0  0.00000000000E+00  0.00000000000E+00 -0.11222970440E+04  0.25846090302E+04  0.23282296244E+04 0.  0.
        1    1    3    3  502    0  0.54709522870E+03  0.49078817263E+03 -0.15633193182E+04  0.17274702632E+04  0.50400001928E-02 0. -1.
       -1    1    3    3    0  502 -0.54709522870E+03 -0.49078817263E+03  0.44102227412E+03  0.85713876703E+03  0.50400001928E-02 0.  1.
</event>
<event>
 5   0  0.1533248E-05  0.2609865E+04  0.7818609E-02  0.8364858E-01
       -1   -1    0    0    0  501  0.00000000000E+00  0.00000000000E+00  0.23858674226E+04  0.23858674226E+04  0.50400001928E-02 0.  1.
        1   -1    0    0  501    0  0.00000000000E+00  0.00000000000E+00 -0.71372325742E+03  0.71372325744E+03  0.50400001928E-02 0. -1.
    10030    2    1    2    0    0  0.00000000000E+00  0.00000000000E+00  0.16721441652E+04  0.30995906800E+04  0.26098651832E+04 0.  0.
        4    1    3    3  502    0  0.42793668604E+03  0.82671485798E+03 -0.24999583430E+03  0.96389148442E+03  0.12699999809E+01 0. -1.
       -4    1    3    3    0  502 -0.42793668604E+03 -0.82671485798E+03  0.19221399995E+04  0.21356991956E+04  0.12699999809E+01 0.  1.
</event>
<event>
 5   0  0.3647623E-05  0.2572741E+04  0.7818609E-02  0.8377520E-01
        2   -1    0    0  501    0  0.00000000000E+00  0.00000000000E+00  0.12268959225E+04  0.12268959225E+04  0.25500000920E-02 0. -1.
       -2   -1    0    0    0  501  0.00000000000E+00  0.00000000000E+00 -0.13487285478E+04  0.13487285478E+04  0.25500000920E-02 0.  1.
    10030    2    1    2    0    0  0.00000000000E+00  0.00000000000E+00 -0.12183262524E+03  0.25756244703E+04  0.25727413829E+04 0.  0.
        3    1    3    3  502    0  0.84347189333E+03 -0.33835111625E+03 -0.97233382379E+03  0.13309242607E+04  0.10100000352E+00 0.  1.
       -3    1    3    3    0  502 -0.84347189333E+03  0.33835111625E+03  0.85050119855E+03  0.12447002095E+04  0.10100000352E+00 0. -1.
</event>
<event>
 5   0  0.1474554E-05  0.2602759E+04  0.7818609E-02  0.8367264E-01
       -1   -1    0    0    0  501  0.00000000000E+00  0.00000000000E+00  0.11459451511E+04  0.11459451511E+04  0.50400001928E-02 0.  1.
        1   -1    0    0  501    0  0.00000000000E+00  0.00000000000E+00 -0.14778972632E+04  0.14778972632E+04  0.50400001928E-02 0. -1.
    10030    2    1    2    0    0  0.00000000000E+00  0.00000000000E+00 -0.33195211214E+03  0.26238424143E+04  0.26027594607E+04 0.  0.
        5    1    3    3  502    0  0.27398759044E+03 -0.15970553973E+03 -0.14383375549E+04  0.14728924167E+04  0.46999998093E+01 0. -1.
       -5    1    3    3    0  502 -0.27398759044E+03  0.15970553973E+03  0.11063854428E+04  0.11509499977E+04  0.46999998093E+01 0.  1.
</event>
<event>
 5   0  0.3647623E-05  0.2418725E+04  0.7818609E-02  0.8432526E-01
       -2   -1    0    0    0  501  0.00000000000E+00  0.00000000000E+00  0.16001612852E+04  0.16001612852E+04  0.25500000920E-02 0. -1.
        2   -1    0    0  501    0  0.00000000000E+00  0.00000000000E+00 -0.91400636280E+03  0.91400636280E+03  0.25500000920E-02 0.  1.
    10030    2    1    2    0    0  0.00000000000E+00  0.00000000000E+00  0.68615492240E+03  0.25141676480E+04  0.24187249502E+04 0.  0.
        3    1    3    3  502    0  0.23772245815E+03  0.95759834536E+03 -0.38383955805E+03  0.10586970174E+04  0.10100000352E+00 0.  1.
       -3    1    3    3    0  502 -0.23772245815E+03 -0.95759834536E+03  0.10699944805E+04  0.14554706306E+04  0.10100000352E+00 0. -1.
</event>
<event>
 5   0  0.1533248E-05  0.2698517E+04  0.7818609E-02  0.8335486E-01
        1   -1    0    0  501    0  0.00000000000E+00  0.00000000000E+00  0.12264037850E+04  0.12264037851E+04  0.50400001928E-02 0.  1.
       -1   -1    0    0    0  501  0.00000000000E+00  0.00000000000E+00 -0.14844197752E+04  0.14844197752E+04  0.50400001928E-02 0. -1.
    10030    2    1    2    0    0  0.00000000000E+00  0.00000000000E+00 -0.25801599013E+03  0.27108235602E+04  0.26985166525E+04 0.  0.
        4    1    3    3  502    0 -0.12716954426E+04 -0.38686375818E+03 -0.36163168337E+03  0.13775528859E+04  0.12699999809E+01 0. -1.
       -4    1    3    3    0  502  0.12716954426E+04  0.38686375818E+03  0.10361569323E+03  0.13332706743E+04  0.12699999809E+01 0.  1.
</event>
<event>
 5   0  0.1474554E-05  0.2593760E+04  0.7818609E-02  0.8370324E-01
       -1   -1    0    0    0  501  0.00000000000E+00  0.00000000000E+00  0.12512655088E+04  0.12512655088E+04  0.50400001928E-02 0. -1.
        1   -1    0    0  501    0  0.00000000000E+00  0.00000000000E+00 -0.13441568646E+04  0.13441568647E+04  0.50400001928E-02 0.  1.
    10030    2    1    2    0    0  0.00000000000E+00  0.00000000000E+00 -0.92891355877E+02  0.25954223734E+04  0.25937595287E+04 0.  0.
        5    1    3    3  502    0  0.94895669025E+03 -0.10019448717E+03  0.83236407926E+03  0.12662581829E+04  0.46999998093E+01 0. -1.
       -5    1    3    3    0  502 -0.94895669025E+03  0.10019448717E+03 -0.92525543514E+03  0.13291641906E+04  0.46999998093E+01 0.  1.
</event>
<event>
 5   0  0.3508470E-05  0.2583963E+04  0.7818609E-02  0.8373669E-01
        2   -1    0    0  501    0  0.00000000000E+00  0.00000000000E+00  0.14859783131E+04  0.14859783131E+04  0.25500000920E-02 0.  1.
       -2   -1    0    0    0  501  0.00000000000E+00  0.00000000000E+00 -0.11233110374E+04  0.11233110374E+04  0.25500000920E-02 0. -1.
    10030    2    1    2    0    0  0.00000000000E+00  0.00000000000E+00  0.36266727579E+03  0.26092893505E+04  0.25839627245E+04 0.  0.
        5    1    3    3  502    0  0.34619141695E+03  0.87479472726E+03 -0.71282799280E+03  0.11803644138E+04  0.46999998093E+01 0. -1.
       -5    1    3    3    0  502 -0.34619141695E+03 -0.87479472726E+03  0.10754952686E+04  0.14289249367E+04  0.46999998093E+01 0.  1.
</event>
<event>
 5   0  0.1451052E-05  0.2595914E+04  0.7818609E-02  0.8369590E-01
       -1   -1    0    0    0  501  0.00000000000E+00  0.00000000000E+00  0.15751183702E+04  0.15751183702E+04  0.50400001928E-02 0.  1.
        1   -1    0    0  501    0  0.00000000000E+00  0.00000000000E+00 -0.10695655924E+04  0.10695655924E+04  0.50400001928E-02 0. -1.
    10030    2    1    2    0    0  0.00000000000E+00  0.00000000000E+00  0.50555277784E+03  0.26446839626E+04  0.25959140300E+04 0.  0.
        1    1    3    3  502    0 -0.41787609480E+03 -0.44043926832E+03  0.14215367775E+04  0.15457600038E+04  0.50400001928E-02 0.  1.
       -1    1    3    3    0  502  0.41787609480E+03  0.44043926832E+03 -0.91598399962E+03  0.10989239588E+04  0.50400001928E-02 0. -1.
</event>
<event>
 5   0  0.3508470E-05  0.2293197E+04  0.7818609E-02  0.8480608E-01
       -2   -1    0    0    0  501  0.00000000000E+00  0.00000000000E+00  0.69631662556E+03  0.69631662556E+03  0.25500000920E-02 0.  1.
        2   -1    0    0  501    0  0.00000000000E+00  0.00000000000E+00 -0.18880601631E+04  0.18880601631E+04  0.25500000920E-02 0. -1.
    10030    2    1    2    0    0  0.00000000000E+00  0.00000000000E+00 -0.11917435375E+04  0.25843767887E+04  0.22931966175E+04 0.  0.
        5    1    3    3  502    0 -0.84774264100E+03  0.48709217607E+03 -0.12708720721E+04  0.16034538619E+04  0.46999998093E+01 0. -1.
       -5    1    3    3    0  502  0.84774264100E+03 -0.48709217607E+03  0.79128534597E+02  0.98092292681E+03  0.46999998093E+01 0.  1.
</event>
<event>
 5   0  0.1435062E-05  0.2549715E+04  0.7818609E-02  0.8385485E-01
       -1   -1    0    0    0  501  0.00000000000E+00  0.00000000000E+00  0.12692795578E+04  0.12692795578E+04  0.50400001928E-02 0.  1.
        1   -1    0    0  501    0  0.00000000000E+00  0.00000000000E+00 -0.12804599364E+04  0.12804599364E+04  0.50400001928E-02 0. -1.
    10030    2    1    2    0    0  0.00000000000E+00  0.00000000000E+00 -0.11180378616E+02  0.25497394943E+04  0.25497149817E+04 0.  0.
        2    1    3    3  502    0 -0.20238816040E+03  0.11820967403E+04 -0.43796912695E+03  0.12767656899E+04  0.25500000920E-02 0. -1.
       -2    1    3    3    0  502  0.20238816040E+03 -0.11820967403E+04  0.42678874833E+03  0.12729738043E+04  0.25500000920E-02 0.  1.
</event>
<event>
 5   0  0.1497497E-05  0.2594570E+04  0.7818609E-02  0.8370048E-01
        1   -1    0    0  501    0  0.00000000000E+00  0.00000000000E+00  0.21019878706E+04  0.21019878706E+04  0.50400001928E-02 0. -1.
       -1   -1    0    0    0  501  0.00000000000E+00  0.00000000000E+00 -0.80064596951E+03  0.80064596953E+03  0.50400001928E-02 0.  1.
    10030    2    1    2    0    0  0.00000000000E+00  0.00000000000E+00  0.13013419011E+04  0.29026338401E+04  0.25945698037E+04 0.  0.
        3    1    3    3  502    0  0.84192586721E+03  0.93636467129E+03  0.99969116028E+03  0.16077936403E+04  0.10100000352E+00 0.  1.
       -3    1    3    3    0  502 -0.84192586721E+03 -0.93636467129E+03  0.30165074077E+03  0.12948401998E+04  0.10100000352E+00 0. -1.
</event>
<event>
 5   0  0.1474554E-05  0.2561968E+04  0.7818609E-02  0.8381236E-01
       -1   -1    0    0    0  501  0.00000000000E+00  0.00000000000E+00  0.13021712964E+04  0.13021712964E+04  0.50400001928E-02 0.  1.
        1   -1    0    0  501    0  0.00000000000E+00  0.00000000000E+00 -0.12601418044E+04  0.12601418044E+04  0.50400001928E-02 0. -1.
    10030    2    1    2    0    0  0.00000000000E+00  0.00000000000E+00  0.42029492047E+02  0.25623131008E+04  0.25619683738E+04 0.  0.
        5    1    3    3  502    0 -0.26457216421E+03 -0.56248187525E+03  0.11412163946E+04  0.12995311613E+04  0.46999998093E+01 0.  1.
       -5    1    3    3    0  502  0.26457216421E+03  0.56248187525E+03 -0.10991869025E+04  0.12627819395E+04  0.46999998093E+01 0. -1.
</event>
<event>
 5   0  0.3499642E-05  0.2587820E+04  0.7818609E-02  0.8372350E-01
       -2   -1    0    0    0  501  0.00000000000E+00  0.00000000000E+00  0.11259821981E+04  0.11259821981E+04  0.25500000920E-02 0.  1.
        2   -1    0    0  501    0  0.00000000000E+00  0.00000000000E+00 -0.14868827647E+04  0.14868827647E+04  0.25500000920E-02 0. -1.
    10030    2    1    2    0    0  0.00000000000E+00  0.00000000000E+00 -0.36090056653E+03  0.26128649628E+04  0.25878203367E+04 0.  0.
        2    1    3    3  502    0 -0.36423958372E+03 -0.12350940268E+04 -0.30846770168E+03  0.13241148184E+04  0.25500000920E-02 0. -1.
       -2    1    3    3    0  502  0.36423958372E+03  0.12350940268E+04 -0.52432864850E+02  0.12887501444E+04  0.25500000920E-02 0.  1.
</event>
<event>
 5   0  0.3849687E-05  0.2631330E+04  0.7818609E-02  0.8357636E-01
        2   -1    0    0  501    0  0.00000000000E+00  0.00000000000E+00  0.20014865173E+04  0.20014865173E+04  0.25500000920E-02 0.  1.
       -2   -1    0    0    0  501  0.00000000000E+00  0.00000000000E+00 -0.86484450648E+03  0.86484450649E+03  0.25500000920E-02 0. -1.
    10030    2    1    2    0    0  0.00000000000E+00  0.00000000000E+00  0.11366420108E+04  0.28663310238E+04  0.26313301726E+04 0.  0.
        1    1    3    3  502    0  0.22289173469E+02 -0.29297746273E+02  0.20009254009E+04  0.20012640069E+04  0.50400001928E-02 0.  1.
       -1    1    3    3    0  502 -0.22289173469E+02  0.29297746273E+02 -0.86428339013E+03  0.86506701687E+03  0.50400001928E-02 0. -1.
</event>
<event>
 5   0  0.1451052E-05  0.2621813E+04  0.7818609E-02  0.8360829E-01
       -1   -1    0    0    0  501  0.00000000000E+00  0.00000000000E+00  0.82417220004E+03  0.82417220005E+03  0.50400001928E-02 0. -1.
        1   -1    0    0  501    0  0.00000000000E+00  0.00000000000E+00 -0.20850934918E+04  0.20850934919E+04  0.50400001928E-02 0.  1.
    10030    2    1    2    0    0  0.00000000000E+00  0.00000000000E+00 -0.12609212918E+04  0.29092656919E+04  0.26218131821E+04 0.  0.
        1    1    3    3  502    0 -0.11469766572E+03 -0.23756265093E+03 -0.20553356357E+04  0.20721959712E+04  0.50400001928E-02 0.  1.
       -1    1    3    3    0  502  0.11469766572E+03  0.23756265093E+03  0.79441434385E+03  0.83706972074E+03  0.50400001928E-02 0. -1.
</event>
<event>
 5   0  0.1497497E-05  0.2592356E+04  0.7818609E-02  0.8370802E-01
       -1   -1    0    0    0  501  0.00000000000E+00  0.00000000000E+00  0.11460015793E+04  0.11460015793E+04  0.50400001928E-02 0. -1.
        1   -1    0    0  501    0  0.00000000000E+00  0.00000000000E+00 -0.14660337355E+04  0.14660337355E+04  0.50400001928E-02 0.  1.
    10030    2    1    2    0    0  0.00000000000E+00  0.00000000000E+00 -0.32003215615E+03  0.26120353148E+04  0.25923556671E+04 0.  0.
        3    1    3    3  502    0 -0.60192047653E+03 -0.27177695704E+03  0.96375600315E+03  0.11683306973E+04  0.10100000352E+00 0. -1.
       -3    1    3    3    0  502  0.60192047653E+03  0.27177695704E+03 -0.12837881593E+04  0.14437046175E+04  0.10100000352E+00 0.  1.
</event>
<event>
 5   0  0.1497497E-05  0.2544185E+04  0.7818609E-02  0.8387411E-01
        1   -1    0    0  501    0  0.00000000000E+00  0.00000000000E+00  0.22467770574E+04  0.22467770574E+04  0.50400001928E-02 0.  1.
       -1   -1    0    0    0  501  0.00000000000E+00  0.00000000000E+00 -0.72024046605E+03  0.72024046607E+03  0.50400001928E-02 0. -1.
    10030    2    1    2    0    0  0.00000000000E+00  0.00000000000E+00  0.15265365914E+04  0.29670175235E+04  0.25441853352E+04 0.  0.
        3    1    3    3  502    0  0.54104846431E+03 -0.45146122731E+03  0.19983728906E+04  0.21189726049E+04  0.10100000352E+00 0.  1.
       -3    1    3    3    0  502 -0.54104846431E+03  0.45146122731E+03 -0.47183629919E+03  0.84804491858E+03  0.10100000352E+00 0. -1.
</event>
<event>
 5   0  0.1435062E-05  0.2588724E+04  0.7818609E-02  0.8372041E-01
       -1   -1    0    0    0  501  0.00000000000E+00  0.00000000000E+00  0.14952079811E+04  0.14952079811E+04  0.50400001928E-02 0.  1.
        1   -1    0    0  501    0  0.00000000000E+00  0.00000000000E+00 -0.11204951597E+04  0.11204951597E+04  0.50400001928E-02 0. -1.
    10030    2    1    2    0    0  0.00000000000E+00  0.00000000000E+00  0.37471282142E+03  0.26157031407E+04  0.25887242460E+04 0.  0.
        2    1    3    3  502    0 -0.83551834609E+02 -0.12906040723E+04  0.13452840865E+03  0.13002836895E+04  0.25500000920E-02 0.  1.
       -2    1    3    3    0  502  0.83551834609E+02  0.12906040723E+04  0.24018441277E+03  0.13154194512E+04  0.25500000920E-02 0. -1.
</event>
<event>
 5   0  0.3849687E-05  0.2651979E+04  0.7818609E-02  0.8350756E-01
        2   -1    0    0  501    0  0.00000000000E+00  0.00000000000E+00  0.23093236107E+04  0.23093236107E+04  0.25500000920E-02 0.  1.
       -2   -1    0    0    0  501  0.00000000000E+00  0.00000000000E+00 -0.76136936680E+03  0.76136936680E+03  0.25500000920E-02 0. -1.
    10030    2    1    2    0    0  0.00000000000E+00  0.00000000000E+00  0.15479542439E+04  0.30706929775E+04  0.26519790762E+04 0.  0.
        1    1    3    3  502    0  0.12507708950E+04 -0.20777196197E+02  0.12831694892E+04  0.17920333316E+04  0.50400001928E-02 0.  1.
       -1    1    3    3    0  502 -0.12507708950E+04  0.20777196197E+02  0.26478475474E+03  0.12786596459E+04  0.50400001928E-02 0. -1.
</event>
<event>
 5   0  0.3647623E-05  0.2627155E+04  0.7818609E-02  0.8359035E-01
        2   -1    0    0  501    0  0.00000000000E+00  0.00000000000E+00  0.16070362722E+04  0.16070362722E+04  0.25500000920E-02 0.  1.
       -2   -1    0    0    0  501  0.00000000000E+00  0.00000000000E+00 -0.10737070311E+04  0.10737070312E+04  0.25500000920E-02 0. -1.
    10030    2    1    2    0    0  0.00000000000E+00  0.00000000000E+00  0.53332924109E+03  0.26807433034E+04  0.26271552256E+04 0.  0.
        3    1    3    3  502    0 -0.12216127559E+04  0.42641602119E+03  0.35509535049E+02  0.12943837475E+04  0.10100000352E+00 0. -1.
       -3    1    3    3    0  502  0.12216127559E+04 -0.42641602119E+03  0.49781970605E+03  0.13863595559E+04  0.10100000352E+00 0.  1.
</event>
<event>
 5   0  0.1497497E-05  0.2655269E+04  0.7818609E-02  0.8349666E-01
        1   -1    0    0  501    0  0.00000000000E+00  0.00000000000E+00  0.26556635117E+04  0.26556635117E+04  0.50400001928E-02 0. -1.
       -1   -1    0    0    0  501  0.00000000000E+00  0.00000000000E+00 -0.66371867709E+03  0.66371867711E+03  0.50400001928E-02 0.  1.
    10030    2    1    2    0    0  0.00000000000E+00  0.00000000000E+00  0.19919448346E+04  0.33193821888E+04  0.26552690808E+04 0.  0.
        3    1    3    3  502    0  0.15036858191E+03 -0.84249397103E+03 -0.27287937577E+03  0.89825940884E+03  0.10100000352E+00 0.  1.
       -3    1    3    3    0  502 -0.15036858191E+03  0.84249397103E+03  0.22648242104E+04  0.24211227800E+04  0.10100000352E+00 0. -1.
</event>
<event>
 5   0  0.3441646E-05  0.2592734E+04  0.7818609E-02  0.8370674E-01
       -2   -1    0    0    0  501  0.00000000000E+00  0.00000000000E+00  0.17149266289E+04  0.17149266289E+04  0.25500000920E-02 0.  1.
        2   -1    0    0  501    0  0.00000000000E+00  0.00000000000E+00 -0.97996435474E+03  0.97996435475E+03  0.25500000920E-02 0. -1.
    10030    2    1    2    0    0  0.00000000000E+00  0.00000000000E+00  0.73496227418E+03  0.26948909837E+04  0.25927336673E+04 0.  0.
        4    1    3    3  502    0 -0.71976851514E+03  0.69773416743E+02 -0.75084439125E+03  0.10424509379E+04  0.12699999809E+01 0. -1.
       -4    1    3    3    0  502  0.71976851514E+03 -0.69773416743E+02  0.14858066654E+04  0.16524400458E+04  0.12699999809E+01 0.  1.
</event>
<event>
 5   0  0.1497497E-05  0.2598773E+04  0.7818609E-02  0.8368618E-01
        1   -1    0    0  501    0  0.00000000000E+00  0.00000000000E+00  0.20430430073E+04  0.20430430073E+04  0.50400001928E-02 0.  1.
       -1   -1    0    0    0  501  0.00000000000E+00  0.00000000000E+00 -0.82641690716E+03  0.82641690718E+03  0.50400001928E-02 0. -1.
    10030    2    1    2    0    0  0.00000000000E+00  0.00000000000E+00  0.12166261001E+04  0.28694599145E+04  0.25987730053E+04 0.  0.
        3    1    3    3  502    0  0.33599983211E+03  0.52141418562E+03  0.18690082324E+04  0.19692537732E+04  0.10100000352E+00 0.  1.
       -3    1    3    3    0  502 -0.33599983211E+03 -0.52141418562E+03 -0.65238213227E+03  0.90020614131E+03  0.10100000352E+00 0. -1.
</event>
<event>
 5   0  0.1497497E-05  0.2551462E+04  0.7818609E-02  0.8384878E-01
       -1   -1    0    0    0  501  0.00000000000E+00  0.00000000000E+00  0.90534955519E+03  0.90534955520E+03  0.50400001928E-02 0. -1.
        1   -1    0    0  501    0  0.00000000000E+00  0.00000000000E+00 -0.17976364485E+04  0.17976364485E+04  0.50400001928E-02 0.  1.
    10030    2    1    2    0    0  0.00000000000E+00  0.00000000000E+00 -0.89228689335E+03  0.27029860037E+04  0.25514618234E+04 0.  0.
        3    1    3    3  502    0  0.96370620427E+03 -0.14268345886E+03 -0.13187088794E+04  0.16395369274E+04  0.10100000352E+00 0.  1.
       -3    1    3    3    0  502 -0.96370620427E+03  0.14268345886E+03  0.42642198603E+03  0.10634490763E+04  0.10100000352E+00 0. -1.
</event>
<event>
 5   0  0.3508470E-05  0.2609134E+04  0.7818609E-02  0.8365105E-01
       -2   -1    0    0    0  501  0.00000000000E+00  0.00000000000E+00  0.11658032168E+04  0.11658032168E+04  0.25500000920E-02 0.  1.
        2   -1    0    0  501    0  0.00000000000E+00  0.00000000000E+00 -0.14598475160E+04  0.14598475160E+04  0.25500000920E-02 0. -1.
    10030    2    1    2    0    0  0.00000000000E+00  0.00000000000E+00 -0.29404429921E+03  0.26256507328E+04  0.26091339024E+04 0.  0.
        5    1    3    3  502    0  0.78705566694E+03  0.71276742594E+03 -0.90969764620E+03  0.13982367195E+04  0.46999998093E+01 0.  1.
       -5    1    3    3    0  502 -0.78705566694E+03 -0.71276742594E+03  0.61565334698E+03  0.12274140133E+04  0.46999998093E+01 0. -1.
</event>
<event>
 5   0  0.1533248E-05  0.2609881E+04  0.7818609E-02  0.8364852E-01
       -1   -1    0    0    0  501  0.00000000000E+00  0.00000000000E+00  0.84140649345E+03  0.84140649346E+03  0.50400001928E-02 0.  1.
        1   -1    0    0  501    0  0.00000000000E+00  0.00000000000E+00 -0.20238375952E+04  0.20238375953E+04  0.50400001928E-02 0. -1.
    10030    2    1    2    0    0  0.00000000000E+00  0.00000000000E+00 -0.11824311018E+04  0.28652440887E+04  0.26098812957E+04 0.  0.
        4    1    3    3  502    0 -0.42274352577E+03 -0.12437084352E+03 -0.19396835032E+04  0.19891088208E+04  0.12699999809E+01 0. -1.
       -4    1    3    3    0  502  0.42274352577E+03  0.12437084352E+03  0.75725240145E+03  0.87613526792E+03  0.12699999809E+01 0.  1.
</event>
<event>
 5   0  0.1497497E-05  0.2632858E+04  0.7818609E-02  0.8357125E-01
        1   -1    0    0  501    0  0.00000000000E+00  0.00000000000E+00  0.97444084125E+03  0.97444084126E+03  0.50400001928E-02 0.  1.
       -1   -1    0    0    0  501  0.00000000000E+00  0.00000000000E+00 -0.17784405587E+04  0.17784405587E+04  0.50400001928E-02 0. -1.
    10030    2    1    2    0    0  0.00000000000E+00  0.00000000000E+00 -0.80399971749E+03  0.27528814000E+04  0.26328578497E+04 0.  0.
        3    1    3    3  502    0  0.11426538478E+04  0.66469856191E+01 -0.10854674885E+04  0.15760525617E+04  0.10100000352E+00 0. -1.
       -3    1    3    3    0  502 -0.11426538478E+04 -0.66469856191E+01  0.28146777099E+03  0.11768288383E+04  0.10100000352E+00 0.  1.
</event>
<event>
 5   0  0.3499642E-05  0.2523468E+04  0.7818609E-02  0.8394672E-01
       -2   -1    0    0    0  501  0.00000000000E+00  0.00000000000E+00  0.21490760940E+04  0.21490760940E+04  0.25500000920E-02 0.  1.
        2   -1    0    0  501    0  0.00000000000E+00  0.00000000000E+00 -0.74077062066E+03  0.74077062066E+03  0.25500000920E-02 0. -1.
    10030    2    1    2    0    0  0.00000000000E+00  0.00000000000E+00  0.14083054734E+04  0.28898467147E+04  0.25234677981E+04 0.  0.
        2    1    3    3  502    0  0.42176739012E+03 -0.60072923871E+03 -0.47110829908E+03  0.87218483080E+03  0.25500000920E-02 0. -1.
       -2    1    3    3    0  502 -0.42176739012E+03  0.60072923871E+03  0.18794137724E+04  0.20176618839E+04  0.25500000920E-02 0.  1.
</event>
<event>
 5   0  0.1533248E-05  0.2594399E+04  0.7818609E-02  0.8370106E-01
       -1   -1    0    0    0  501  0.00000000000E+00  0.00000000000E+00  0.92185514760E+03  0.92185514762E+03  0.50400001928E-02 0. -1.
        1   -1    0    0  501    0  0.00000000000E+00  0.00000000000E+00 -0.18253700011E+04  0.18253700011E+04  0.50400001928E-02 0.  1.
    10030    2    1    2    0    0  0.00000000000E+00  0.00000000000E+00 -0.90351485351E+03  0.27472251487E+04  0.25943991457E+04 0.  0.
        4    1    3    3  502    0 -0.70260408225E+03 -0.10528490001E+02 -0.16063836233E+04  0.17533491676E+04  0.12699999809E+01 0.  1.
       -4    1    3    3    0  502  0.70260408225E+03  0.10528490001E+02  0.70286876976E+03  0.99387598115E+03  0.12699999809E+01 0. -1.
</event>
<event>
 5   0  0.3849687E-05  0.2627365E+04  0.7818609E-02  0.8358965E-01
        2   -1    0    0  501    0  0.00000000000E+00  0.00000000000E+00  0.18405420615E+04  0.18405420615E+04  0.25500000920E-02 0.  1.
       -2   -1    0    0    0  501  0.00000000000E+00  0.00000000000E+00 -0.93763751425E+03  0.93763751425E+03  0.25500000920E-02 0. -1.
    10030    2    1    2    0    0  0.00000000000E+00  0.00000000000E+00  0.90290454728E+03  0.27781795758E+04  0.26273646747E+04 0.  0.
        1    1    3    3  502    0  0.49522113997E+03 -0.37432847657E+03 -0.77275917863E+03  0.99122274693E+03  0.50400001928E-02 0. -1.
       -1    1    3    3    0  502 -0.49522113997E+03  0.37432847657E+03  0.16756637259E+04  0.17869568289E+04  0.50400001928E-02 0.  1.
</event>
<event>
 5   0  0.1435062E-05  0.2553909E+04  0.7818609E-02  0.8384028E-01
        1   -1    0    0  501    0  0.00000000000E+00  0.00000000000E+00  0.18374789795E+04  0.18374789795E+04  0.50400001928E-02 0.  1.
       -1   -1    0    0    0  501  0.00000000000E+00  0.00000000000E+00 -0.88741858765E+03  0.88741858766E+03  0.50400001928E-02 0. -1.
    10030    2    1    2    0    0  0.00000000000E+00  0.00000000000E+00  0.95006039184E+03  0.27248975672E+04  0.25539091611E+04 0.  0.
        2    1    3    3  502    0 -0.34032892523E+03 -0.11310401180E+04  0.99284533407E+03  0.15429897547E+04  0.25500000920E-02 0.  1.
       -2    1    3    3    0  502  0.34032892523E+03  0.11310401180E+04 -0.42784942239E+02  0.11819078124E+04  0.25500000920E-02 0. -1.
</event>
<event>
 5   0  0.1533248E-05  0.2508026E+04  0.7818609E-02  0.8400132E-01
        1   -1    0    0  501    0  0.00000000000E+00  0.00000000000E+00  0.31711283281E+04  0.31711283281E+04  0.50400001928E-02 0.  1.
       -1   -1    0    0    0  501  0.00000000000E+00  0.00000000000E+00 -0.49589553076E+03  0.49589553078E+03  0.50400001928E-02 0. -1.
    10030    2    1    2    0    0  0.00000000000E+00  0.00000000000E+00  0.26752327973E+04  0.36670238589E+04  0.25080258096E+04 0.  0.
        4    1    3    3  502    0 -0.72766478517E+03 -0.59582829523E+03  0.12481867148E+03  0.94873005150E+03  0.12699999809E+01 0.  1.
       -4    1    3    3    0  502  0.72766478517E+03  0.59582829523E+03  0.25504141259E+04  0.27182938074E+04  0.12699999809E+01 0. -1.
</event>
<event>
 5   0  0.3647623E-05  0.2614715E+04  0.7818609E-02  0.8363220E-01
        2   -1    0    0  501    0  0.00000000000E+00  0.00000000000E+00  0.12247966961E+04  0.12247966961E+04  0.25500000920E-02 0. -1.
       -2   -1    0    0    0  501  0.00000000000E+00  0.00000000000E+00 -0.13954833878E+04  0.13954833878E+04  0.25500000920E-02 0.  1.
    10030    2    1    2    0    0  0.00000000000E+00  0.00000000000E+00 -0.17068669171E+03  0.26202800838E+04  0.26147148546E+04 0.  0.
        3    1    3    3  502    0  0.34604579441E+03 -0.48450631388E+03  0.10810451932E+04  0.12341607593E+04  0.10100000352E+00 0. -1.
       -3    1    3    3    0  502 -0.34604579441E+03  0.48450631388E+03 -0.12517318849E+04  0.13861193245E+04  0.10100000352E+00 0.  1.
</event>
<event>
 5   0  0.1497497E-05  0.2523822E+04  0.7818609E-02  0.8394548E-01
        1   -1    0    0  501    0  0.00000000000E+00  0.00000000000E+00  0.73443000079E+03  0.73443000080E+03  0.50400001928E-02 0. -1.
       -1   -1    0    0    0  501  0.00000000000E+00  0.00000000000E+00 -0.21682381293E+04  0.21682381293E+04  0.50400001928E-02 0.  1.
    10030    2    1    2    0    0  0.00000000000E+00  0.00000000000E+00 -0.14338081285E+04  0.29026681301E+04  0.25238218091E+04 0.  0.
        3    1    3    3  502    0 -0.50439248820E+03  0.69640214895E+03  0.34533238831E+03  0.92662948574E+03  0.10100000352E+00 0. -1.
       -3    1    3    3    0  502  0.50439248820E+03 -0.69640214895E+03 -0.17791405168E+04  0.19760386443E+04  0.10100000352E+00 0.  1.
</event>
<event>
 5   0  0.3499642E-05  0.2392405E+04  0.7818609E-02  0.8442352E-01
        2   -1    0    0  501    0  0.00000000000E+00  0.00000000000E+00  0.88459146189E+03  0.88459146190E+03  0.25500000920E-02 0.  1.
       -2   -1    0    0    0  501  0.00000000000E+00  0.00000000000E+00 -0.16175835761E+04  0.16175835761E+04  0.25500000920E-02 0. -1.
    10030    2    1    2    0    0  0.00000000000E+00  0.00000000000E+00 -0.73299211416E+03  0.25021750380E+04  0.23924051666E+04 0.  0.
        2    1    3    3  502    0  0.11472148225E+04  0.28264324986E+03 -0.17107668566E+03  0.11938409811E+04  0.25500000920E-02 0.  1.
       -2    1    3    3    0  502 -0.11472148225E+04 -0.28264324986E+03 -0.56191542850E+03  0.13083340569E+04  0.25500000920E-02 0. -1.
</event>
<event>
 5   0  0.3647623E-05  0.2282439E+04  0.7818609E-02  0.8484878E-01
        2   -1    0    0  501    0  0.00000000000E+00  0.00000000000E+00  0.19968402700E+04  0.19968402700E+04  0.25500000920E-02 0. -1.
       -2   -1    0    0    0  501  0.00000000000E+00  0.00000000000E+00 -0.65222127349E+03  0.65222127350E+03  0.25500000920E-02 0.  1.
    10030    2    1    2    0    0  0.00000000000E+00  0.00000000000E+00  0.13446189965E+04  0.26490615435E+04  0.22824387868E+04 0.  0.
        3    1    3    3  502    0 -0.15002727091E+03  0.98080693813E+03  0.17926203307E+02  0.99237683914E+03  0.10100000352E+00 0.  1.
       -3    1    3    3    0  502  0.15002727091E+03 -0.98080693813E+03  0.13266927932E+04  0.16566847043E+04  0.10100000352E+00 0. -1.
</event>
<event>
 5   0  0.3499642E-05  0.2545293E+04  0.7818609E-02  0.8387025E-01
       -2   -1    0    0    0  501  0.00000000000E+00  0.00000000000E+00  0.89720850796E+03  0.89720850796E+03  0.25500000920E-02 0. -1.
        2   -1    0    0  501    0  0.00000000000E+00  0.00000000000E+00 -0.18051869221E+04  0.18051869221E+04  0.25500000920E-02 0.  1.
    10030    2    1    2    0    0  0.00000000000E+00  0.00000000000E+00 -0.90797841418E+03  0.27023954301E+04  0.25452929615E+04 0.  0.
        2    1    3    3  502    0 -0.95395518389E+03  0.42934089315E+03 -0.12234745297E+04  0.16097372519E+04  0.25500000920E-02 0. -1.
       -2    1    3    3    0  502  0.95395518389E+03 -0.42934089315E+03  0.31549611553E+03  0.10926581782E+04  0.25500000920E-02 0.  1.
</event>
<event>
 5   0  0.3499642E-05  0.2571538E+04  0.7818609E-02  0.8377934E-01
       -2   -1    0    0    0  501  0.00000000000E+00  0.00000000000E+00  0.96175290179E+03  0.96175290180E+03  0.25500000920E-02 0.  1.
        2   -1    0    0  501    0  0.00000000000E+00  0.00000000000E+00 -0.17189472894E+04  0.17189472894E+04  0.25500000920E-02 0. -1.
    10030    2    1    2    0    0  0.00000000000E+00  0.00000000000E+00 -0.75719438761E+03  0.26807001912E+04  0.25715384840E+04 0.  0.
        2    1    3    3  502    0 -0.11139785946E+04  0.62359495862E+03 -0.53800535432E+03  0.13853767513E+04  0.25500000920E-02 0. -1.
       -2    1    3    3    0  502  0.11139785946E+04 -0.62359495862E+03 -0.21918903329E+03  0.12953234399E+04  0.25500000920E-02 0.  1.
</event>
<event>
 5   0  0.1474554E-05  0.2641646E+04  0.7818609E-02  0.8354191E-01
       -1   -1    0    0    0  501  0.00000000000E+00  0.00000000000E+00  0.20660138069E+04  0.20660138069E+04  0.50400001928E-02 0.  1.
        1   -1    0    0  501    0  0.00000000000E+00  0.00000000000E+00 -0.84441508461E+03  0.84441508463E+03  0.50400001928E-02 0. -1.
    10030    2    1    2    0    0  0.00000000000E+00  0.00000000000E+00  0.12215987223E+04  0.29104288915E+04  0.26416458685E+04 0.  0.
        5    1    3    3  502    0 -0.82204939410E+03 -0.13090807216E+03  0.17406415916E+04  0.19294448347E+04  0.46999998093E+01 0.  1.
       -5    1    3    3    0  502  0.82204939410E+03  0.13090807216E+03 -0.51904286928E+03  0.98098405688E+03  0.46999998093E+01 0. -1.
</event>
<event>
 5   0  0.1451052E-05  0.2535250E+04  0.7818609E-02  0.8390534E-01
        1   -1    0    0  501    0  0.00000000000E+00  0.00000000000E+00  0.15019892511E+04  0.15019892511E+04  0.50400001928E-02 0.  1.
       -1   -1    0    0    0  501  0.00000000000E+00  0.00000000000E+00 -0.10698299089E+04  0.10698299089E+04  0.50400001928E-02 0. -1.
    10030    2    1    2    0    0  0.00000000000E+00  0.00000000000E+00  0.43215934222E+03  0.25718191600E+04  0.25352499077E+04 0.  0.
        1    1    3    3  502    0  0.65878000736E+03 -0.10640855061E+04  0.42049047876E+03  0.13202580449E+04  0.50400001928E-02 0. -1.
       -1    1    3    3    0  502 -0.65878000736E+03  0.10640855061E+04  0.11668863458E+02  0.12515611151E+04  0.50400001928E-02 0.  1.
</event>
<event>
 5   0  0.3499642E-05  0.2629801E+04  0.7818609E-02  0.8358149E-01
        2   -1    0    0  501    0  0.00000000000E+00  0.00000000000E+00  0.70531093963E+03  0.70531093963E+03  0.25500000920E-02 0. -1.
       -2   -1    0    0    0  501  0.00000000000E+00  0.00000000000E+00 -0.24513484119E+04  0.24513484119E+04  0.25500000920E-02 0.  1.
    10030    2    1    2    0    0  0.00000000000E+00  0.00000000000E+00 -0.17460374723E+04  0.31566593515E+04  0.26298006402E+04 0.  0.
        2    1    3    3  502    0  0.72627650967E+03 -0.76417721899E+03  0.70237888439E+02  0.10565877869E+04  0.25500000920E-02 0. -1.
       -2    1    3    3    0  502 -0.72627650967E+03  0.76417721899E+03 -0.18162753607E+04  0.21000715646E+04  0.25500000920E-02 0.  1.
</event>
<event>
 5   0  0.3499642E-05  0.2700722E+04  0.7818609E-02  0.8334771E-01
        2   -1    0    0  501    0  0.00000000000E+00  0.00000000000E+00  0.16375513115E+04  0.16375513115E+04  0.25500000920E-02 0. -1.
       -2   -1    0    0    0  501  0.00000000000E+00  0.00000000000E+00 -0.11135371166E+04  0.11135371166E+04  0.25500000920E-02 0.  1.
    10030    2    1    2    0    0  0.00000000000E+00  0.00000000000E+00  0.52401419488E+03  0.27510884281E+04  0.27007215078E+04 0.  0.
        2    1    3    3  502    0  0.10143616291E+04  0.48184377224E+03 -0.50189252356E+03  0.12300402598E+04  0.25500000920E-02 0.  1.
       -2    1    3    3    0  502 -0.10143616291E+04 -0.48184377224E+03  0.10259067184E+04  0.15210481683E+04  0.25500000920E-02 0. -1.
</event>
<event>
 5   0  0.3647623E-05  0.2593685E+04  0.7818609E-02  0.8370349E-01
       -2   -1    0    0    0  501  0.00000000000E+00  0.00000000000E+00  0.71378340046E+03  0.71378340046E+03  0.25500000920E-02 0. -1.
        2   -1    0    0  501    0  0.00000000000E+00  0.00000000000E+00 -0.23561774986E+04  0.23561774986E+04  0.25500000920E-02 0.  1.
    10030    2    1    2    0    0  0.00000000000E+00  0.00000000000E+00 -0.16423940982E+04  0.30699608991E+04  0.25936849362E+04 0.  0.
        3    1    3    3  502    0 -0.32393016010E+01  0.10495563460E+04 -0.17227940966E+04  0.20173245961E+04  0.10100000352E+00 0.  1.
       -3    1    3    3    0  502  0.32393016010E+01 -0.10495563460E+04  0.80399998370E+02  0.10526363030E+04  0.10100000352E+00 0. -1.
</event>
<event>
 5   0  0.1435062E-05  0.2652781E+04  0.7818609E-02  0.8350490E-01
        1   -1    0    0  501    0  0.00000000000E+00  0.00000000000E+00  0.74420487237E+03  0.74420487239E+03  0.50400001928E-02 0.  1.
       -1   -1    0    0    0  501  0.00000000000E+00  0.00000000000E+00 -0.23640157735E+04  0.23640157735E+04  0.50400001928E-02 0. -1.
    10030    2    1    2    0    0  0.00000000000E+00  0.00000000000E+00 -0.16198109012E+04  0.31082206459E+04  0.26527812251E+04 0.  0.
        2    1    3    3  502    0 -0.10694330058E+04  0.75604838982E+03 -0.56408649252E+03  0.14260048011E+04  0.25500000920E-02 0. -1.
       -2    1    3    3    0  502  0.10694330058E+04 -0.75604838982E+03 -0.10557244086E+04  0.16822158448E+04  0.25500000920E-02 0.  1.
</event>
<event>
 5   0  0.1451052E-05  0.2655262E+04  0.7818609E-02  0.8349669E-01
       -1   -1    0    0    0  501  0.00000000000E+00  0.00000000000E+00  0.93937913254E+03  0.93937913255E+03  0.50400001928E-02 0. -1.
        1   -1    0    0  501    0  0.00000000000E+00  0.00000000000E+00 -0.18763500803E+04  0.18763500803E+04  0.50400001928E-02 0.  1.
    10030    2    1    2    0    0  0.00000000000E+00  0.00000000000E+00 -0.93697094772E+03  0.28157292128E+04  0.26552620291E+04 0.  0.
        1    1    3    3  502    0  0.62734787373E+03  0.93702068023E+03 -0.12115695548E+04  0.16551356126E+04  0.50400001928E-02 0.  1.
       -1    1    3    3    0  502 -0.62734787373E+03 -0.93702068023E+03  0.27459860709E+03  0.11605936002E+04  0.50400001928E-02 0. -1.
</event>
<event>
 5   0  0.3499642E-05  0.2584000E+04  0.7818609E-02  0.8373656E-01
        2   -1    0    0  501    0  0.00000000000E+00  0.00000000000E+00  0.80522702495E+03  0.80522702495E+03  0.25500000920E-02 0.  1.
       -2   -1    0    0    0  501  0.00000000000E+00  0.00000000000E+00 -0.20730349476E+04  0.20730349476E+04  0.25500000920E-02 0. -1.
    10030    2    1    2    0    0  0.00000000000E+00  0.00000000000E+00 -0.12678079227E+04  0.28782619726E+04  0.25839998169E+04 0.  0.
        2    1    3    3  502    0 -0.48112382270E+03 -0.89699457418E+03  0.25244131062E+03  0.10487163650E+04  0.25500000920E-02 0.  1.
       -2    1    3    3    0  502  0.48112382270E+03  0.89699457418E+03 -0.15202492333E+04  0.18295456076E+04  0.25500000920E-02 0. -1.
</event>
<event>
 5   0  0.3508470E-05  0.2623555E+04  0.7818609E-02  0.8360244E-01
       -2   -1    0    0    0  501  0.00000000000E+00  0.00000000000E+00  0.29912433003E+04  0.29912433003E+04  0.25500000920E-02 0. -1.
        2   -1    0    0  501    0  0.00000000000E+00  0.00000000000E+00 -0.57526599676E+03  0.57526599677E+03  0.25500000920E-02 0.  1.
    10030    2    1    2    0    0  0.00000000000E+00  0.00000000000E+00  0.24159773035E+04  0.35665092970E+04  0.26235552662E+04 0.  0.
        5    1    3    3  502    0 -0.67112422304E+03  0.69491006027E+03  0.16775363428E+01  0.96609141325E+03  0.46999998093E+01 0.  1.
       -5    1    3    3    0  502  0.67112422304E+03 -0.69491006027E+03  0.24142997671E+04  0.26004178838E+04  0.46999998093E+01 0. -1.
</event>
<event>
 5   0  0.1435062E-05  0.2573203E+04  0.7818609E-02  0.8377361E-01
       -1   -1    0    0    0  501  0.00000000000E+00  0.00000000000E+00  0.13718127596E+04  0.13718127596E+04  0.50400001928E-02 0. -1.
        1   -1    0    0  501    0  0.00000000000E+00  0.00000000000E+00 -0.12066832208E+04  0.12066832208E+04  0.50400001928E-02 0.  1.
    10030    2    1    2    0    0  0.00000000000E+00  0.00000000000E+00  0.16512953874E+03  0.25784959804E+04  0.25732030150E+04 0.  0.
        2    1    3    3  502    0 -0.48274194294E+03 -0.41430316682E+03 -0.10380631458E+04  0.12174818241E+04  0.25500000920E-02 0.  1.
       -2    1    3    3    0  502  0.48274194294E+03  0.41430316682E+03  0.12031926845E+04  0.13610141563E+04  0.25500000920E-02 0. -1.
</event>
<event>
 5   0  0.1474554E-05  0.2620718E+04  0.7818609E-02  0.8361198E-01
       -1   -1    0    0    0  501  0.00000000000E+00  0.00000000000E+00  0.13502076498E+04  0.13502076498E+04  0.50400001928E-02 0.  1.
        1   -1    0    0  501    0  0.00000000000E+00  0.00000000000E+00 -0.12716861822E+04  0.12716861822E+04  0.50400001928E-02 0. -1.
    10030    2    1    2    0    0  0.00000000000E+00  0.00000000000E+00  0.78521467565E+02  0.26218938321E+04  0.26207177730E+04 0.  0.
        5    1    3    3  502    0  0.35737620190E+03  0.11057892211E+04  0.64495026548E+03  0.13290863351E+04  0.46999998093E+01 0.  1.
       -5    1    3    3    0  502 -0.35737620190E+03 -0.11057892211E+04 -0.56642879792E+03  0.12928074970E+04  0.46999998093E+01 0. -1.
</event>
<event>
 5   0  0.3441646E-05  0.2597714E+04  0.7818609E-02  0.8368978E-01
       -2   -1    0    0    0  501  0.00000000000E+00  0.00000000000E+00  0.86873933713E+03  0.86873933713E+03  0.25500000920E-02 0.  1.
        2   -1    0    0  501    0  0.00000000000E+00  0.00000000000E+00 -0.19419276765E+04  0.19419276765E+04  0.25500000920E-02 0. -1.
    10030    2    1    2    0    0  0.00000000000E+00  0.00000000000E+00 -0.10731883394E+04  0.28106670136E+04  0.25977135812E+04 0.  0.
        4    1    3    3  502    0 -0.40165475580E+03  0.48207139678E+03 -0.17670587298E+04  0.18751580045E+04  0.12699999809E+01 0. -1.
       -4    1    3    3    0  502  0.40165475580E+03 -0.48207139678E+03  0.69387039045E+03  0.93550900909E+03  0.12699999809E+01 0.  1.
</event>
<event>
 5   0  0.1497497E-05  0.2626425E+04  0.7818609E-02  0.8359280E-01
        1   -1    0    0  501    0  0.00000000000E+00  0.00000000000E+00  0.18320963312E+04  0.18320963312E+04  0.50400001928E-02 0. -1.
       -1   -1    0    0    0  501  0.00000000000E+00  0.00000000000E+00 -0.94128610924E+03  0.94128610925E+03  0.50400001928E-02 0.  1.
    10030    2    1    2    0    0  0.00000000000E+00  0.00000000000E+00  0.89081022197E+03  0.27733824405E+04  0.26264248151E+04 0.  0.
        3    1    3    3  502    0 -0.93183816080E+02  0.40860630339E+02 -0.93711749264E+03  0.94262506858E+03  0.10100000352E+00 0.  1.
       -3    1    3    3    0  502  0.93183816080E+02 -0.40860630339E+02  0.18279277146E+04  0.18307573719E+04  0.10100000352E+00 0. -1.
</event>
<event>
 5   0  0.1435062E-05  0.2685022E+04  0.7818609E-02  0.8339881E-01
        1   -1    0    0  501    0  0.00000000000E+00  0.00000000000E+00  0.60592534135E+03  0.60592534137E+03  0.50400001928E-02 0. -1.
       -1   -1    0    0    0  501  0.00000000000E+00  0.00000000000E+00 -0.29745175481E+04  0.29745175481E+04  0.50400001928E-02 0.  1.
    10030    2    1    2    0    0  0.00000000000E+00  0.00000000000E+00 -0.23685922067E+04  0.35804428895E+04  0.26850218328E+04 0.  0.
        2    1    3    3  502    0  0.53592398632E+03  0.11305219456E+04 -0.53506275091E+03  0.13607301481E+04  0.25500000920E-02 0. -1.
       -2    1    3    3    0  502 -0.53592398632E+03 -0.11305219456E+04 -0.18335294558E+04  0.22197127413E+04  0.25500000920E-02 0.  1.
</event>
<event>
 5   0  0.3499642E-05  0.2566944E+04  0.7818609E-02  0.8379517E-01
        2   -1    0    0  501    0  0.00000000000E+00  0.00000000000E+00  0.11973533115E+04  0.11973533115E+04  0.25500000920E-02 0.  1.
       -2   -1    0    0    0  501  0.00000000000E+00  0.00000000000E+00 -0.13757850435E+04  0.13757850435E+04  0.25500000920E-02 0. -1.
    10030    2    1    2    0    0  0.00000000000E+00  0.00000000000E+00 -0.17843173197E+03  0.25731383551E+04  0.25669443140E+04 0.  0.
        2    1    3    3  502    0 -0.12719290759E+03 -0.10040692978E+04 -0.88040336486E+03  0.13414332914E+04  0.25500000920E-02 0. -1.
       -2    1    3    3    0  502  0.12719290759E+03  0.10040692978E+04  0.70197163288E+03  0.12317050637E+04  0.25500000920E-02 0.  1.
</event>
<event>
 5   0  0.3508470E-05  0.2477662E+04  0.7818609E-02  0.8410987E-01
        2   -1    0    0  501    0  0.00000000000E+00  0.00000000000E+00  0.22305108863E+04  0.22305108863E+04  0.25500000920E-02 0.  1.
       -2   -1    0    0    0  501  0.00000000000E+00  0.00000000000E+00 -0.68804965134E+03  0.68804965134E+03  0.25500000920E-02 0. -1.
    10030    2    1    2    0    0  0.00000000000E+00  0.00000000000E+00  0.15424612350E+04  0.29185605377E+04  0.24776619928E+04 0.  0.
        5    1    3    3  502    0 -0.35626631861E+03 -0.11822707990E+04  0.88896791991E+03  0.15215045135E+04  0.46999998093E+01 0. -1.
       -5    1    3    3    0  502  0.35626631861E+03  0.11822707990E+04  0.65349331508E+03  0.13970560242E+04  0.46999998093E+01 0.  1.
</event>
<event>
 5   0  0.1533248E-05  0.2603093E+04  0.7818609E-02  0.8367151E-01
       -1   -1    0    0    0  501  0.00000000000E+00  0.00000000000E+00  0.10692123553E+04  0.10692123554E+04  0.50400001928E-02 0. -1.
        1   -1    0    0  501    0  0.00000000000E+00  0.00000000000E+00 -0.15843652401E+04  0.15843652402E+04  0.50400001928E-02 0.  1.
    10030    2    1    2    0    0  0.00000000000E+00  0.00000000000E+00 -0.51515288480E+03  0.26535775955E+04  0.26030926915E+04 0.  0.
        4    1    3    3  502    0 -0.14288864269E+03 -0.27730561047E+03  0.10305384410E+04  0.10767203244E+04  0.12699999809E+01 0. -1.
       -4    1    3    3    0  502  0.14288864269E+03  0.27730561047E+03 -0.15456913258E+04  0.15768572711E+04  0.12699999809E+01 0.  1.
</event>
<event>
 5   0  0.3508470E-05  0.2588646E+04  0.7818609E-02  0.8372068E-01
       -2   -1    0    0    0  501  0.00000000000E+00  0.00000000000E+00  0.12247611088E+04  0.12247611088E+04  0.25500000920E-02 0. -1.
        2   -1    0    0  501    0  0.00000000000E+00  0.00000000000E+00 -0.13678360707E+04  0.13678360707E+04  0.25500000920E-02 0.  1.
    10030    2    1    2    0    0  0.00000000000E+00  0.00000000000E+00 -0.14307496187E+03  0.25925971795E+04  0.25886463046E+04 0.  0.
        5    1    3    3  502    0  0.10042210689E+04  0.81271355473E+03  0.78744893426E+01  0.12919161640E+04  0.46999998093E+01 0.  1.
       -5    1    3    3    0  502 -0.10042210689E+04 -0.81271355473E+03 -0.15094945121E+03  0.13006810155E+04  0.46999998093E+01 0. -1.
</event>
<event>
 5   0  0.1497497E-05  0.2545358E+04  0.7818609E-02  0.8387002E-01
        1   -1    0    0  501    0  0.00000000000E+00  0.00000000000E+00  0.13820455315E+04  0.13820455315E+04  0.50400001928E-02 0. -1.
       -1   -1    0    0    0  501  0.00000000000E+00  0.00000000000E+00 -0.11719668644E+04  0.11719668644E+04  0.50400001928E-02 0.  1.
    10030    2    1    2    0    0  0.00000000000E+00  0.00000000000E+00  0.21007866715E+03  0.25540123959E+04  0.25453577886E+04 0.  0.
        3    1    3    3  502    0 -0.98868621060E+03  0.65942187450E+03 -0.35189231346E+03  0.12394215756E+04  0.10100000352E+00 0.  1.
       -3    1    3    3    0  502  0.98868621060E+03 -0.65942187450E+03  0.56197098061E+03  0.13145908203E+04  0.10100000352E+00 0. -1.
</event>
<event>
 5   0  0.3499642E-05  0.2331178E+04  0.7818609E-02  0.8465728E-01
       -2   -1    0    0    0  501  0.00000000000E+00  0.00000000000E+00  0.81409342331E+03  0.81409342331E+03  0.25500000920E-02 0. -1.
        2   -1    0    0  501    0  0.00000000000E+00  0.00000000000E+00 -0.16688479844E+04  0.16688479844E+04  0.25500000920E-02 0.  1.
    10030    2    1    2    0    0  0.00000000000E+00  0.00000000000E+00 -0.85475456111E+03  0.24829414077E+04  0.23311783875E+04 0.  0.
        2    1    3    3  502    0  0.97427577652E+03  0.43668580875E+03 -0.92546496892E+03  0.14129377881E+04  0.25500000920E-02 0.  1.
       -2    1    3    3    0  502 -0.97427577652E+03 -0.43668580875E+03  0.70710407808E+02  0.10700036196E+04  0.25500000920E-02 0. -1.
</event>
<event>
 5   0  0.3647623E-05  0.2620250E+04  0.7818609E-02  0.8361355E-01
       -2   -1    0    0    0  501  0.00000000000E+00  0.00000000000E+00  0.18406306347E+04  0.18406306347E+04  0.25500000920E-02 0. -1.
        2   -1    0    0  501    0  0.00000000000E+00  0.00000000000E+00 -0.93252140220E+03  0.93252140220E+03  0.25500000920E-02 0.  1.
    10030    2    1    2    0    0  0.00000000000E+00  0.00000000000E+00  0.90810923245E+03  0.27731520369E+04  0.26202499578E+04 0.  0.
        3    1    3    3  502    0 -0.55844403128E+03  0.99951055511E+03  0.11280411412E+04  0.16072827729E+04  0.10100000352E+00 0. -1.
       -3    1    3    3    0  502  0.55844403128E+03 -0.99951055511E+03 -0.21993190871E+03  0.11658692639E+04  0.10100000352E+00 0.  1.
</event>
<event>
 5   0  0.3849687E-05  0.2066769E+04  0.7818609E-02  0.8576025E-01
        2   -1    0    0  501    0  0.00000000000E+00  0.00000000000E+00  0.11317721464E+04  0.11317721464E+04  0.25500000920E-02 0. -1.
       -2   -1    0    0    0  501  0.00000000000E+00  0.00000000000E+00 -0.94354969180E+03  0.94354969180E+03  0.25500000920E-02 0.  1.
    10030    2    1    2    0    0  0.00000000000E+00  0.00000000000E+00  0.18822245461E+03  0.20753218382E+04  0.20667687437E+04 0.  0.
        1    1    3    3  502    0 -0.64224968715E+01 -0.74491368522E+03  0.81327736637E+03  0.11028860873E+04  0.50400001928E-02 0. -1.
       -1    1    3    3    0  502  0.64224968715E+01  0.74491368522E+03 -0.62505491176E+03  0.97243575091E+03  0.50400001928E-02 0.  1.
</event>
<event>
 5   0  0.1451052E-05  0.2578798E+04  0.7818609E-02  0.8375439E-01
       -1   -1    0    0    0  501  0.00000000000E+00  0.00000000000E+00  0.92808643949E+03  0.92808643950E+03  0.50400001928E-02 0.  1.
        1   -1    0    0  501    0  0.00000000000E+00  0.00000000000E+00 -0.17913741819E+04  0.17913741819E+04  0.50400001928E-02 0. -1.
    10030    2    1    2    0    0  0.00000000000E+00  0.00000000000E+00 -0.86328774239E+03  0.27194606214E+04  0.25787982366E+04 0.  0.
        1    1    3    3  502    0  0.98480464869E+03 -0.41793953956E+03  0.32736274466E+03  0.11187850649E+04  0.50400001928E-02 0.  1.
       -1    1    3    3    0  502 -0.98480464869E+03  0.41793953956E+03 -0.11906504871E+04  0.16006755565E+04  0.50400001928E-02 0. -1.
</event>
<event>
 5   0  0.3647623E-05  0.2548411E+04  0.7818609E-02  0.8385939E-01
        2   -1    0    0  501    0  0.00000000000E+00  0.00000000000E+00  0.17845851491E+04  0.17845851491E+04  0.25500000920E-02 0. -1.
       -2   -1    0    0    0  501  0.00000000000E+00  0.00000000000E+00 -0.90979090558E+03  0.90979090558E+03  0.25500000920E-02 0.  1.
    10030    2    1    2    0    0  0.00000000000E+00  0.00000000000E+00  0.87479424347E+03  0.26943760546E+04  0.25484107509E+04 0.  0.
        3    1    3    3  502    0  0.61594794306E+03 -0.27602831919E+03 -0.70525267173E+03  0.97619918190E+03  0.10100000352E+00 0.  1.
       -3    1    3    3    0  502 -0.61594794306E+03  0.27602831919E+03  0.15800469152E+04  0.17181768727E+04  0.10100000352E+00 0. -1.
</event>
<event>
 5   0  0.1533248E-05  0.2608343E+04  0.7818609E-02  0.8365373E-01
       -1   -1    0    0    0  501  0.00000000000E+00  0.00000000000E+00  0.15552032421E+04  0.15552032421E+04  0.50400001928E-02 0. -1.
        1   -1    0    0  501    0  0.00000000000E+00  0.00000000000E+00 -0.10936599599E+04  0.10936599599E+04  0.50400001928E-02 0.  1.
    10030    2    1    2    0    0  0.00000000000E+00  0.00000000000E+00  0.46154328220E+03  0.26488632019E+04  0.26083431640E+04 0.  0.
        4    1    3    3  502    0 -0.64542349615E+02 -0.43914252097E+03  0.14761378188E+04  0.15414267228E+04  0.12699999809E+01 0. -1.
       -4    1    3    3    0  502  0.64542349615E+02  0.43914252097E+03 -0.10145945366E+04  0.11074364791E+04  0.12699999809E+01 0.  1.
</event>
<event>
 5   0  0.3508470E-05  0.2588455E+04  0.7818609E-02  0.8372133E-01
       -2   -1    0    0    0  501  0.00000000000E+00  0.00000000000E+00  0.89352095846E+03  0.89352095846E+03  0.25500000920E-02 0. -1.
        2   -1    0    0  501    0  0.00000000000E+00  0.00000000000E+00 -0.18746337296E+04  0.18746337296E+04  0.25500000920E-02 0.  1.
    10030    2    1    2    0    0  0.00000000000E+00  0.00000000000E+00 -0.98111277116E+03  0.27681546881E+04  0.25884547721E+04 0.  0.
        5    1    3    3  502    0  0.38105214676E+01 -0.60056144978E+03 -0.17165813646E+04  0.18186154751E+04  0.46999998093E+01 0.  1.
       -5    1    3    3    0  502 -0.38105214676E+01  0.60056144978E+03  0.73546859344E+03  0.94953921297E+03  0.46999998093E+01 0. -1.
</event>
<event>
 5   0  0.1533248E-05  0.2593665E+04  0.7818609E-02  0.8370356E-01
        1   -1    0    0  501    0  0.00000000000E+00  0.00000000000E+00  0.11729657101E+04  0.11729657101E+04  0.50400001928E-02 0.  1.
       -1   -1    0    0    0  501  0.00000000000E+00  0.00000000000E+00 -0.14337796325E+04  0.14337796326E+04  0.50400001928E-02 0. -1.
    10030    2    1    2    0    0  0.00000000000E+00  0.00000000000E+00 -0.26081392248E+03  0.26067453426E+04  0.25936648548E+04 0.  0.
        4    1    3    3  502    0  0.33026405623E+03  0.84553641377E+03 -0.10612346729E+04  0.13965052158E+04  0.12699999809E+01 0. -1.
       -4    1    3    3    0  502 -0.33026405623E+03 -0.84553641377E+03  0.80042075047E+03  0.12102401268E+04  0.12699999809E+01 0.  1.
</event>
<event>
 5   0  0.1474554E-05  0.2163163E+04  0.7818609E-02  0.8533919E-01
       -1   -1    0    0    0  501  0.00000000000E+00  0.00000000000E+00  0.73752177127E+03  0.73752177128E+03  0.50400001928E-02 0.  1.
        1   -1    0    0  501    0  0.00000000000E+00  0.00000000000E+00 -0.15861482437E+04  0.15861482437E+04  0.50400001928E-02 0. -1.
    10030    2    1    2    0    0  0.00000000000E+00  0.00000000000E+00 -0.84862647242E+03  0.23236700150E+04  0.21631632968E+04 0.  0.
        5    1    3    3  502    0 -0.40889305904E+03  0.56834293511E+03 -0.13098538687E+04  0.14852429003E+04  0.46999998093E+01 0. -1.
       -5    1    3    3    0  502  0.40889305904E+03 -0.56834293511E+03  0.46122739623E+03  0.83842711469E+03  0.46999998093E+01 0.  1.
</event>
<event>
 5   0  0.3849687E-05  0.2015975E+04  0.7818609E-02  0.8599188E-01
        2   -1    0    0  501    0  0.00000000000E+00  0.00000000000E+00  0.95247258455E+03  0.95247258455E+03  0.25500000920E-02 0. -1.
       -2   -1    0    0    0  501  0.00000000000E+00  0.00000000000E+00 -0.10667376981E+04  0.10667376981E+04  0.25500000920E-02 0.  1.
    10030    2    1    2    0    0  0.00000000000E+00  0.00000000000E+00 -0.11426511351E+03  0.20192102826E+04  0.20159746152E+04 0.  0.
        1    1    3    3  502    0 -0.71503732036E+03 -0.70431654788E+03  0.36281506232E+02  0.10043189318E+04  0.50400001928E-02 0.  1.
       -1    1    3    3    0  502  0.71503732036E+03  0.70431654788E+03 -0.15054661974E+03  0.10148913508E+04  0.50400001928E-02 0. -1.
</event>
<event>
 5   0  0.3441646E-05  0.2658404E+04  0.7818609E-02  0.8348629E-01
       -2   -1    0    0    0  501  0.00000000000E+00  0.00000000000E+00  0.95190217368E+03  0.95190217368E+03  0.25500000920E-02 0.  1.
        2   -1    0    0  501    0  0.00000000000E+00  0.00000000000E+00 -0.18560505601E+04  0.18560505601E+04  0.25500000920E-02 0. -1.
    10030    2    1    2    0    0  0.00000000000E+00  0.00000000000E+00 -0.90414838641E+03  0.28079527338E+04  0.26584044558E+04 0.  0.
        4    1    3    3  502    0 -0.29809377298E+03 -0.99261962560E+03  0.42698333025E+03  0.11209237244E+04  0.12699999809E+01 0.  1.
       -4    1    3    3    0  502  0.29809377298E+03  0.99261962560E+03 -0.13311317167E+04  0.16870290094E+04  0.12699999809E+01 0. -1.
</event>
<event>
 5   0  0.3647623E-05  0.2610447E+04  0.7818609E-02  0.8364661E-01
        2   -1    0    0  501    0  0.00000000000E+00  0.00000000000E+00  0.13368390443E+04  0.13368390444E+04  0.25500000920E-02 0. -1.
       -2   -1    0    0    0  501  0.00000000000E+00  0.00000000000E+00 -0.12743557913E+04  0.12743557913E+04  0.25500000920E-02 0.  1.
    10030    2    1    2    0    0  0.00000000000E+00  0.00000000000E+00  0.62483253064E+02  0.26111948356E+04  0.26104471480E+04 0.  0.
        3    1    3    3  502    0  0.44567104070E+02 -0.33215761407E+03 -0.12305845706E+04  0.12754031924E+04  0.10100000352E+00 0.  1.
       -3    1    3    3    0  502 -0.44567104070E+02  0.33215761407E+03  0.12930678237E+04  0.13357916433E+04  0.10100000352E+00 0. -1.
</event>
<event>
 5   0  0.1533248E-05  0.2593531E+04  0.7818609E-02  0.8370402E-01
       -1   -1    0    0    0  501  0.00000000000E+00  0.00000000000E+00  0.91110997669E+03  0.91110997670E+03  0.50400001928E-02 0.  1.
        1   -1    0    0  501    0  0.00000000000E+00  0.00000000000E+00 -0.18456616896E+04  0.18456616896E+04  0.50400001928E-02 0. -1.
    10030    2    1    2    0    0  0.00000000000E+00  0.00000000000E+00 -0.93455171291E+03  0.27567716663E+04  0.25935310131E+04 0.  0.
        4    1    3    3  502    0  0.12307457354E+04  0.40567110957E+03 -0.41635383887E+03  0.13611231562E+04  0.12699999809E+01 0.  1.
       -4    1    3    3    0  502 -0.12307457354E+04 -0.40567110957E+03 -0.51819787404E+03  0.13956485101E+04  0.12699999809E+01 0. -1.
</event>
<event>
 5   0  0.1435062E-05  0.2479460E+04  0.7818609E-02  0.8410340E-01
       -1   -1    0    0    0  501  0.00000000000E+00  0.00000000000E+00  0.13020707614E+04  0.13020707614E+04  0.50400001928E-02 0. -1.
        1   -1    0    0  501    0  0.00000000000E+00  0.00000000000E+00 -0.11803741221E+04  0.11803741221E+04  0.50400001928E-02 0.  1.
    10030    2    1    2    0    0  0.00000000000E+00  0.00000000000E+00  0.12169663930E+03  0.24824448835E+04  0.24794601282E+04 0.  0.
        2    1    3    3  502    0  0.96332250995E+03 -0.75485237258E+03  0.25892041441E+03  0.12509325096E+04  0.25500000920E-02 0.  1.
       -2    1    3    3    0  502 -0.96332250995E+03  0.75485237258E+03 -0.13722377510E+03  0.12315123739E+04  0.25500000920E-02 0. -1.
</event>
<event>
 5   0  0.3508470E-05  0.2673135E+04  0.7818609E-02  0.8343775E-01
        2   -1    0    0  501    0  0.00000000000E+00  0.00000000000E+00  0.18938132094E+04  0.18938132094E+04  0.25500000920E-02 0.  1.
       -2   -1    0    0    0  501  0.00000000000E+00  0.00000000000E+00 -0.94328892056E+03  0.94328892056E+03  0.25500000920E-02 0. -1.
    10030    2    1    2    0    0  0.00000000000E+00  0.00000000000E+00  0.95052428879E+03  0.28371021299E+04  0.26731352513E+04 0.  0.
        5    1    3    3  502    0  0.76845537906E+03  0.10402737896E+04  0.83313592270E+03  0.15384507735E+04  0.46999998093E+01 0.  1.
       -5    1    3    3    0  502 -0.76845537906E+03 -0.10402737896E+04  0.11738836610E+03  0.12986513564E+04  0.46999998093E+01 0. -1.
</event>
<event>
 5   0  0.1451052E-05  0.2565579E+04  0.7818609E-02  0.8379988E-01
        1   -1    0    0  501    0  0.00000000000E+00  0.00000000000E+00  0.16323967538E+04  0.16323967538E+04  0.50400001928E-02 0. -1.
       -1   -1    0    0    0  501  0.00000000000E+00  0.00000000000E+00 -0.10080569603E+04  0.10080569604E+04  0.50400001928E-02 0.  1.
    10030    2    1    2    0    0  0.00000000000E+00  0.00000000000E+00  0.62433979349E+03  0.26404537142E+04  0.25655790066E+04 0.  0.
        1    1    3    3  502    0  0.46312383687E+02 -0.68264415806E+03  0.14289183785E+04  0.15842839442E+04  0.50400001928E-02 0. -1.
       -1    1    3    3    0  502 -0.46312383687E+02  0.68264415806E+03 -0.80457858505E+03  0.10561697700E+04  0.50400001928E-02 0.  1.
</event>
<event>
 5   0  0.3647623E-05  0.2510904E+04  0.7818609E-02  0.8399111E-01
        2   -1    0    0  501    0  0.00000000000E+00  0.00000000000E+00  0.12921779787E+04  0.12921779787E+04  0.25500000920E-02 0.  1.
       -2   -1    0    0    0  501  0.00000000000E+00  0.00000000000E+00 -0.12197701120E+04  0.12197701120E+04  0.25500000920E-02 0. -1.
    10030    2    1    2    0    0  0.00000000000E+00  0.00000000000E+00  0.72407866743E+02  0.25119480907E+04  0.25109042816E+04 0.  0.
        3    1    3    3  502    0  0.89036478679E+03  0.65871902017E+03  0.62763483250E+03  0.12730222678E+04  0.10100000352E+00 0.  1.
       -3    1    3    3    0  502 -0.89036478679E+03 -0.65871902017E+03 -0.55522696575E+03  0.12389258230E+04  0.10100000352E+00 0. -1.
</event>
<event>
 5   0  0.1435062E-05  0.2620649E+04  0.7818609E-02  0.8361221E-01
        1   -1    0    0  501    0  0.00000000000E+00  0.00000000000E+00  0.16043164863E+04  0.16043164863E+04  0.50400001928E-02 0.  1.
       -1   -1    0    0    0  501  0.00000000000E+00  0.00000000000E+00 -0.10702068571E+04  0.10702068571E+04  0.50400001928E-02 0. -1.
    10030    2    1    2    0    0  0.00000000000E+00  0.00000000000E+00  0.53410962925E+03  0.26745233434E+04  0.26206491598E+04 0.  0.
        2    1    3    3  502    0  0.10150046712E+04  0.70156288813E+03 -0.18306260420E+03  0.12473719916E+04  0.25500000920E-02 0.  1.
       -2    1    3    3    0  502 -0.10150046712E+04 -0.70156288813E+03  0.71717223345E+03  0.14271513518E+04  0.25500000920E-02 0. -1.
</event>
<event>
 5   0  0.1533248E-05  0.2508727E+04  0.7818609E-02  0.8399883E-01
        1   -1    0    0  501    0  0.00000000000E+00  0.00000000000E+00  0.11669809120E+04  0.11669809121E+04  0.50400001928E-02 0.  1.
       -1   -1    0    0    0  501  0.00000000000E+00  0.00000000000E+00 -0.13482892888E+04  0.13482892888E+04  0.50400001928E-02 0. -1.
    10030    2    1    2    0    0  0.00000000000E+00  0.00000000000E+00 -0.18130837677E+03  0.25152702009E+04  0.25087270589E+04 0.  0.
        4    1    3    3  502    0  0.36916414200E+03  0.11769817993E+04  0.13766311467E+03  0.12411772902E+04  0.12699999809E+01 0.  1.
       -4    1    3    3    0  502 -0.36916414200E+03 -0.11769817993E+04 -0.31897149144E+03  0.12740929107E+04  0.12699999809E+01 0. -1.
</event>
<event>
 5   0  0.1217200E-05  0.2630071E+04  0.7818609E-02  0.8358058E-01
        3   -1    0    0  501    0  0.00000000000E+00  0.00000000000E+00  0.11178549999E+04  0.11178550044E+04  0.10100000352E+00 0. -1.
       -3   -1    0    0    0  501  0.00000000000E+00  0.00000000000E+00 -0.15469969294E+04  0.15469969327E+04  0.10100000352E+00 0.  1.
    10030    2    1    2    0    0  0.00000000000E+00  0.00000000000E+00 -0.42914192954E+03  0.26648519371E+04  0.26300709213E+04 0.  0.
        1    1    3    3  502    0  0.84047173659E+03  0.18587403443E+02  0.81002886221E+03  0.11674266526E+04  0.50400001928E-02 0. -1.
       -1    1    3    3    0  502 -0.84047173659E+03 -0.18587403443E+02 -0.12391707918E+04  0.14974252845E+04  0.50400001928E-02 0.  1.
</event>
<event>
 5   0  0.3441646E-05  0.2643193E+04  0.7818609E-02  0.8353676E-01
        2   -1    0    0  501    0  0.00000000000E+00  0.00000000000E+00  0.12718819994E+04  0.12718819994E+04  0.25500000920E-02 0. -1.
       -2   -1    0    0    0  501  0.00000000000E+00  0.00000000000E+00 -0.13732537769E+04  0.13732537769E+04  0.25500000920E-02 0.  1.
    10030    2    1    2    0    0  0.00000000000E+00  0.00000000000E+00 -0.10137177754E+03  0.26451357763E+04  0.26431925843E+04 0.  0.
        4    1    3    3  502    0 -0.71039043592E+03  0.11144009048E+04 -0.42241763027E+02  0.13222442768E+04  0.12699999809E+01 0.  1.
       -4    1    3    3    0  502  0.71039043592E+03 -0.11144009048E+04 -0.59130014516E+02  0.13228914995E+04  0.12699999809E+01 0. -1.
</event>
<event>
 5   0  0.1474554E-05  0.2606650E+04  0.7818609E-02  0.8365946E-01
        1   -1    0    0  501    0  0.00000000000E+00  0.00000000000E+00  0.11272131679E+04  0.11272131680E+04  0.50400001928E-02 0. -1.
       -1   -1    0    0    0  501  0.00000000000E+00  0.00000000000E+00 -0.15069517928E+04  0.15069517928E+04  0.50400001928E-02 0.  1.
    10030    2    1    2    0    0  0.00000000000E+00  0.00000000000E+00 -0.37973862481E+03  0.26341649607E+04  0.26066498839E+04 0.  0.
        5    1    3    3  502    0  0.10277750751E+04 -0.60572407094E+03 -0.72020464227E+03  0.13935350989E+04  0.46999998093E+01 0.  1.
       -5    1    3    3    0  502 -0.10277750751E+04  0.60572407094E+03  0.34046601746E+03  0.12406298618E+04  0.46999998093E+01 0. -1.
</event>
<event>
 5   0  0.3499642E-05  0.2511191E+04  0.7818609E-02  0.8399010E-01
        2   -1    0    0  501    0  0.00000000000E+00  0.00000000000E+00  0.19424744202E+04  0.19424744202E+04  0.25500000920E-02 0. -1.
       -2   -1    0    0    0  501  0.00000000000E+00  0.00000000000E+00 -0.81160371473E+03  0.81160371473E+03  0.25500000920E-02 0.  1.
    10030    2    1    2    0    0  0.00000000000E+00  0.00000000000E+00  0.11308707055E+04  0.27540781349E+04  0.25111905186E+04 0.  0.
        2    1    3    3  502    0  0.20866143665E+03  0.83839641528E+02  0.19202093621E+04  0.19333320137E+04  0.25500000920E-02 0. -1.
       -2    1    3    3    0  502 -0.20866143665E+03 -0.83839641528E+02 -0.78933865667E+03  0.82074612126E+03  0.25500000920E-02 0.  1.
</event>
<event>
 5   0  0.1533248E-05  0.2565212E+04  0.7818609E-02  0.8380115E-01
        1   -1    0    0  501    0  0.00000000000E+00  0.00000000000E+00  0.16056772920E+04  0.16056772920E+04  0.50400001928E-02 0. -1.
       -1   -1    0    0    0  501  0.00000000000E+00  0.00000000000E+00 -0.10245384529E+04  0.10245384529E+04  0.50400001928E-02 0.  1.
    10030    2    1    2    0    0  0.00000000000E+00  0.00000000000E+00  0.58113883906E+03  0.26302157449E+04  0.25652119824E+04 0.  0.
        4    1    3    3  502    0 -0.27061637611E+03 -0.10735851041E+04 -0.37334019283E+03  0.11684188938E+04  0.12699999809E+01 0.  1.
       -4    1    3    3    0  502  0.27061637611E+03  0.10735851041E+04  0.95447903189E+03  0.14617968512E+04  0.12699999809E+01 0. -1.
</event>
<event>
 5   0  0.1451052E-05  0.2336330E+04  0.7818609E-02  0.8463733E-01
       -1   -1    0    0    0  501  0.00000000000E+00  0.00000000000E+00  0.47779201830E+03  0.47779201832E+03  0.50400001928E-02 0. -1.
        1   -1    0    0  501    0  0.00000000000E+00  0.00000000000E+00 -0.28560730982E+04  0.28560730982E+04  0.50400001928E-02 0.  1.
    10030    2    1    2    0    0  0.00000000000E+00  0.00000000000E+00 -0.23782810799E+04  0.33338651166E+04  0.23363295402E+04 0.  0.
        1    1    3    3  502    0  0.17135635887E+03 -0.11450082704E+04 -0.14111336292E+04  0.18252958830E+04  0.50400001928E-02 0. -1.
       -1    1    3    3    0  502 -0.17135635887E+03  0.11450082704E+04 -0.96714745074E+03  0.15085692336E+04  0.50400001928E-02 0.  1.
</event>
<event>
 5   0  0.3499642E-05  0.2590618E+04  0.7818609E-02  0.8371395E-01
       -2   -1    0    0    0  501  0.00000000000E+00  0.00000000000E+00  0.90392546754E+03  0.90392546755E+03  0.25500000920E-02 0.  1.
        2   -1    0    0  501    0  0.00000000000E+00  0.00000000000E+00 -0.18561551038E+04  0.18561551038E+04  0.25500000920E-02 0. -1.
    10030    2    1    2    0    0  0.00000000000E+00  0.00000000000E+00 -0.95222963623E+03  0.27600805713E+04  0.25906183586E+04 0.  0.
        2    1    3    3  502    0  0.74471392151E+03 -0.67794845899E+02  0.65072381406E+03  0.99128020671E+03  0.25500000920E-02 0.  1.
       -2    1    3    3    0  502 -0.74471392151E+03  0.67794845899E+02 -0.16029534503E+04  0.17688003646E+04  0.25500000920E-02 0. -1.
</event>
<event>
 5   0  0.3441646E-05  0.2602447E+04  0.7818609E-02  0.8367370E-01
        2   -1    0    0  501    0  0.00000000000E+00  0.00000000000E+00  0.83084377427E+03  0.83084377427E+03  0.25500000920E-02 0. -1.
       -2   -1    0    0    0  501  0.00000000000E+00  0.00000000000E+00 -0.20379079629E+04  0.20379079629E+04  0.25500000920E-02 0.  1.
    10030    2    1    2    0    0  0.00000000000E+00  0.00000000000E+00 -0.12070641886E+04  0.28687517372E+04  0.26024474200E+04 0.  0.
        4    1    3    3  502    0 -0.83072829858E+03  0.45270353366E+02  0.49935980707E+03  0.97031991671E+03  0.12699999809E+01 0. -1.
       -4    1    3    3    0  502  0.83072829858E+03 -0.45270353366E+02 -0.17064239957E+04  0.18984318204E+04  0.12699999809E+01 0.  1.
</event>
<event>
 5   0  0.1435062E-05  0.2589482E+04  0.7818609E-02  0.8371783E-01
        1   -1    0    0  501    0  0.00000000000E+00  0.00000000000E+00  0.11844725047E+04  0.11844725047E+04  0.50400001928E-02 0. -1.
       -1   -1    0    0    0  501  0.00000000000E+00  0.00000000000E+00 -0.14152745683E+04  0.14152745683E+04  0.50400001928E-02 0.  1.
    10030    2    1    2    0    0  0.00000000000E+00  0.00000000000E+00 -0.23080206359E+03  0.25997470730E+04  0.25894816569E+04 0.  0.
        2    1    3    3  502    0  0.54260719092E+03 -0.20493331729E+03 -0.12775449005E+04  0.14030471129E+04  0.25500000920E-02 0.  1.
       -2    1    3    3    0  502 -0.54260719092E+03  0.20493331729E+03  0.10467428369E+04  0.11966999602E+04  0.25500000920E-02 0. -1.
</event>
<event>
 5   0  0.1451052E-05  0.2697938E+04  0.7818609E-02  0.8335674E-01
       -1   -1    0    0    0  501  0.00000000000E+00  0.00000000000E+00  0.17679602657E+04  0.17679602657E+04  0.50400001928E-02 0.  1.
        1   -1    0    0  501    0  0.00000000000E+00  0.00000000000E+00 -0.10292747283E+04  0.10292747283E+04  0.50400001928E-02 0. -1.
    10030    2    1    2    0    0  0.00000000000E+00  0.00000000000E+00  0.73868553742E+03  0.27972349941E+04  0.26979375991E+04 0.  0.
        1    1    3    3  502    0 -0.60684541826E+03  0.11664445385E+04  0.56814267129E+02  0.13160858954E+04  0.50400001928E-02 0.  1.
       -1    1    3    3    0  502  0.60684541826E+03 -0.11664445385E+04  0.68187127029E+03  0.14811490986E+04  0.50400001928E-02 0. -1.
</event>
<event>
 5   0  0.1451052E-05  0.2591366E+04  0.7818609E-02  0.8371140E-01
       -1   -1    0    0    0  501  0.00000000000E+00  0.00000000000E+00  0.10984968204E+04  0.10984968204E+04  0.50400001928E-02 0.  1.
        1   -1    0    0  501    0  0.00000000000E+00  0.00000000000E+00 -0.15282651381E+04  0.15282651381E+04  0.50400001928E-02 0. -1.
    10030    2    1    2    0    0  0.00000000000E+00  0.00000000000E+00 -0.42976831764E+03  0.26267619585E+04  0.25913659679E+04 0.  0.
        1    1    3    3  502    0  0.56274366897E+03  0.11655772850E+04 -0.15454332773E+03  0.13035085287E+04  0.50400001928E-02 0.  1.
       -1    1    3    3    0  502 -0.56274366897E+03 -0.11655772850E+04 -0.27522498991E+03  0.13232534298E+04  0.50400001928E-02 0. -1.
</event>
<event>
 5   0  0.3441646E-05  0.2437167E+04  0.7818609E-02  0.8425718E-01
        2   -1    0    0  501    0  0.00000000000E+00  0.00000000000E+00  0.12400841527E+04  0.12400841527E+04  0.25500000920E-02 0.  1.
       -2   -1    0    0    0  501  0.00000000000E+00  0.00000000000E+00 -0.11974558591E+04  0.11974558591E+04  0.25500000920E-02 0. -1.
    10030    2    1    2    0    0  0.00000000000E+00  0.00000000000E+00  0.42628293678E+02  0.24375400118E+04  0.24371672363E+04 0.  0.
        4    1    3    3  502    0  0.11816892467E+04  0.24936708094E+03  0.18373050168E+03  0.12216103827E+04  0.12699999809E+01 0.  1.
       -4    1    3    3    0  502 -0.11816892467E+04 -0.24936708094E+03 -0.14110220801E+03  0.12159296291E+04  0.12699999809E+01 0. -1.
</event>
<event>
 5   0  0.1497497E-05  0.2444517E+04  0.7818609E-02  0.8423023E-01
       -1   -1    0    0    0  501  0.00000000000E+00  0.00000000000E+00  0.98833901475E+03  0.98833901476E+03  0.50400001928E-02 0.  1.
        1   -1    0    0  501    0  0.00000000000E+00  0.00000000000E+00 -0.15115418866E+04  0.15115418866E+04  0.50400001928E-02 0. -1.
    10030    2    1    2    0    0  0.00000000000E+00  0.00000000000E+00 -0.52320287183E+03  0.24998809013E+04  0.24445169821E+04 0.  0.
        3    1    3    3  502    0  0.73122547090E+03 -0.94301287200E+03  0.88727608158E+01  0.11933326033E+04  0.10100000352E+00 0. -1.
       -3    1    3    3    0  502 -0.73122547090E+03  0.94301287200E+03 -0.53207563265E+03  0.13065482980E+04  0.10100000352E+00 0.  1.
</event>
<event>
 5   0  0.1451052E-05  0.2538394E+04  0.7818609E-02  0.8389434E-01
        1   -1    0    0  501    0  0.00000000000E+00  0.00000000000E+00  0.14879784929E+04  0.14879784929E+04  0.50400001928E-02 0. -1.
       -1   -1    0    0    0  501  0.00000000000E+00  0.00000000000E+00 -0.10825837969E+04  0.10825837970E+04  0.50400001928E-02 0.  1.
    10030    2    1    2    0    0  0.00000000000E+00  0.00000000000E+00  0.40539469597E+03  0.25705622899E+04  0.25383943009E+04 0.  0.
        1    1    3    3  502    0  0.90842614999E+03 -0.46597077313E+03 -0.56084338505E+03  0.11648657150E+04  0.50400001928E-02 0.  1.
       -1    1    3    3    0  502 -0.90842614999E+03  0.46597077313E+03  0.96623808102E+03  0.14056965749E+04  0.50400001928E-02 0. -1.
</event>
<event>
 5   0  0.1451052E-05  0.2625752E+04  0.7818609E-02  0.8359506E-01
       -1   -1    0    0    0  501  0.00000000000E+00  0.00000000000E+00  0.12384862276E+04  0.12384862276E+04  0.50400001928E-02 0. -1.
        1   -1    0    0  501    0  0.00000000000E+00  0.00000000000E+00 -0.13917337184E+04  0.13917337184E+04  0.50400001928E-02 0.  1.
    10030    2    1    2    0    0  0.00000000000E+00  0.00000000000E+00 -0.15324749075E+03  0.26302199460E+04  0.26257517345E+04 0.  0.
        1    1    3    3  502    0  0.73049042202E+03  0.34126746092E+03  0.96126842420E+03  0.12546380832E+04  0.50400001928E-02 0. -1.
       -1    1    3    3    0  502 -0.73049042202E+03 -0.34126746092E+03 -0.11145159149E+04  0.13755818628E+04  0.50400001928E-02 0.  1.
</event>
<event>
 5   0  0.3441646E-05  0.2455100E+04  0.7818609E-02  0.8419158E-01
       -2   -1    0    0    0  501  0.00000000000E+00  0.00000000000E+00  0.10313324036E+04  0.10313324036E+04  0.25500000920E-02 0.  1.
        2   -1    0    0  501    0  0.00000000000E+00  0.00000000000E+00 -0.14610988845E+04  0.14610988845E+04  0.25500000920E-02 0. -1.
    10030    2    1    2    0    0  0.00000000000E+00  0.00000000000E+00 -0.42976648083E+03  0.24924312881E+04  0.24550996920E+04 0.  0.
        4    1    3    3  502    0  0.43559503080E+03  0.38768227232E+03  0.88174406081E+03  0.10571257148E+04  0.12699999809E+01 0.  1.
       -4    1    3    3    0  502 -0.43559503080E+03 -0.38768227232E+03 -0.13115105416E+04  0.14353055733E+04  0.12699999809E+01 0. -1.
</event>
<event>
 5   0  0.3647623E-05  0.2505017E+04  0.7818609E-02  0.8401201E-01
        2   -1    0    0  501    0  0.00000000000E+00  0.00000000000E+00  0.13437556977E+04  0.13437556977E+04  0.25500000920E-02 0. -1.
       -2   -1    0    0    0  501  0.00000000000E+00  0.00000000000E+00 -0.11674570583E+04  0.11674570583E+04  0.25500000920E-02 0.  1.
    10030    2    1    2    0    0  0.00000000000E+00  0.00000000000E+00  0.17629863946E+03  0.25112127560E+04  0.25050166258E+04 0.  0.
        3    1    3    3  502    0  0.21259459077E+03  0.77135813397E+03  0.10541651654E+04  0.13234251157E+04  0.10100000352E+00 0. -1.
       -3    1    3    3    0  502 -0.21259459077E+03 -0.77135813397E+03 -0.87786652591E+03  0.11877876403E+04  0.10100000352E+00 0.  1.
</event>
<event>
 5   0  0.3508470E-05  0.2558755E+04  0.7818609E-02  0.8382348E-01
       -2   -1    0    0    0  501  0.00000000000E+00  0.00000000000E+00  0.65775632811E+03  0.65775632812E+03  0.25500000920E-02 0. -1.
        2   -1    0    0  501    0  0.00000000000E+00  0.00000000000E+00 -0.24884703165E+04  0.24884703165E+04  0.25500000920E-02 0.  1.
    10030    2    1    2    0    0  0.00000000000E+00  0.00000000000E+00 -0.18307139884E+04  0.31462266446E+04  0.25587552427E+04 0.  0.
        5    1    3    3  502    0 -0.38348656924E+03  0.11151903883E+04 -0.30540782432E+03  0.12181984978E+04  0.46999998093E+01 0. -1.
       -5    1    3    3    0  502  0.38348656924E+03 -0.11151903883E+04 -0.15253061641E+04  0.19280281469E+04  0.46999998093E+01 0.  1.
</event>
<event>
 5   0  0.3647623E-05  0.2576430E+04  0.7818609E-02  0.8376252E-01
       -2   -1    0    0    0  501  0.00000000000E+00  0.00000000000E+00  0.13817500139E+04  0.13817500139E+04  0.25500000920E-02 0. -1.
        2   -1    0    0  501    0  0.00000000000E+00  0.00000000000E+00 -0.12010119905E+04  0.12010119905E+04  0.25500000920E-02 0.  1.
    10030    2    1    2    0    0  0.00000000000E+00  0.00000000000E+00  0.18073802342E+03  0.25827620044E+04  0.25764303480E+04 0.  0.
        3    1    3    3  502    0  0.12524395939E+04  0.42557216844E+02 -0.20883101186E+03  0.12704434087E+04  0.10100000352E+00 0.  1.
       -3    1    3    3    0  502 -0.12524395939E+04 -0.42557216844E+02  0.38956903528E+03  0.13123185957E+04  0.10100000352E+00 0. -1.
</event>
<event>
 5   0  0.1474554E-05  0.2586393E+04  0.7818609E-02  0.8372838E-01
        1   -1    0    0  501    0  0.00000000000E+00  0.00000000000E+00  0.27452985145E+04  0.27452985145E+04  0.50400001928E-02 0.  1.
       -1   -1    0    0    0  501  0.00000000000E+00  0.00000000000E+00 -0.60917126744E+03  0.60917126746E+03  0.50400001928E-02 0. -1.
    10030    2    1    2    0    0  0.00000000000E+00  0.00000000000E+00  0.21361272470E+04  0.33544697819E+04  0.25863928360E+04 0.  0.
        5    1    3    3  502    0  0.75349753092E+03 -0.42177696728E+03 -0.18045325626E+03  0.88217901071E+03  0.46999998093E+01 0. -1.
       -5    1    3    3    0  502 -0.75349753092E+03  0.42177696728E+03  0.23165805033E+04  0.24722907712E+04  0.46999998093E+01 0.  1.
</event>
<event>
 5   0  0.3508470E-05  0.2623855E+04  0.7818609E-02  0.8360143E-01
       -2   -1    0    0    0  501  0.00000000000E+00  0.00000000000E+00  0.87381761149E+03  0.87381761150E+03  0.25500000920E-02 0. -1.
        2   -1    0    0  501    0  0.00000000000E+00  0.00000000000E+00 -0.19696942936E+04  0.19696942936E+04  0.25500000920E-02 0.  1.
    10030    2    1    2    0    0  0.00000000000E+00  0.00000000000E+00 -0.10958766822E+04  0.28435119051E+04  0.26238548459E+04 0.  0.
        5    1    3    3  502    0  0.11312325865E+04  0.63587644458E+03 -0.75669201594E+03  0.15022086787E+04  0.46999998093E+01 0. -1.
       -5    1    3    3    0  502 -0.11312325865E+04 -0.63587644458E+03 -0.33918466621E+03  0.13413032264E+04  0.46999998093E+01 0.  1.
</event>
<event>
 5   0  0.3499642E-05  0.2586598E+04  0.7818609E-02  0.8372768E-01
        2   -1    0    0  501    0  0.00000000000E+00  0.00000000000E+00  0.28199619703E+04  0.28199619703E+04  0.25500000920E-02 0.  1.
       -2   -1    0    0    0  501  0.00000000000E+00  0.00000000000E+00 -0.59313655138E+03  0.59313655139E+03  0.25500000920E-02 0. -1.
    10030    2    1    2    0    0  0.00000000000E+00  0.00000000000E+00  0.22268254190E+04  0.34130985217E+04  0.25865981660E+04 0.  0.
        2    1    3    3  502    0  0.43131143994E+03 -0.95919348527E+03  0.21066098532E+04  0.23545459804E+04  0.25500000920E-02 0.  1.
       -2    1    3    3    0  502 -0.43131143994E+03  0.95919348527E+03  0.12021556577E+03  0.10585525413E+04  0.25500000920E-02 0. -1.
</event>
<event>
 5   0  0.3508470E-05  0.2619210E+04  0.7818609E-02  0.8361705E-01
       -2   -1    0    0    0  501  0.00000000000E+00  0.00000000000E+00  0.11551766277E+04  0.11551766277E+04  0.25500000920E-02 0.  1.
        2   -1    0    0  501    0  0.00000000000E+00  0.00000000000E+00 -0.14846778648E+04  0.14846778648E+04  0.25500000920E-02 0. -1.
    10030    2    1    2    0    0  0.00000000000E+00  0.00000000000E+00 -0.32950123707E+03  0.26398544925E+04  0.26192099337E+04 0.  0.
        5    1    3    3  502    0 -0.20690282876E+03 -0.67232238861E+03  0.94859037156E+03  0.11809623016E+04  0.46999998093E+01 0.  1.
       -5    1    3    3    0  502  0.20690282876E+03  0.67232238861E+03 -0.12780916086E+04  0.14588921910E+04  0.46999998093E+01 0. -1.
</event>
<event>
 5   0  0.1451052E-05  0.2598084E+04  0.7818609E-02  0.8368852E-01
       -1   -1    0    0    0  501  0.00000000000E+00  0.00000000000E+00  0.29930726078E+04  0.29930726078E+04  0.50400001928E-02 0. -1.
        1   -1    0    0  501    0  0.00000000000E+00  0.00000000000E+00 -0.56380536162E+03  0.56380536164E+03  0.50400001928E-02 0.  1.
    10030    2    1    2    0    0  0.00000000000E+00  0.00000000000E+00  0.24292672462E+04  0.35568779694E+04  0.25980842050E+04 0.  0.
        1    1    3    3  502    0  0.11185610739E+04 -0.57857475850E+03  0.16509743394E+04  0.20764498300E+04  0.50400001928E-02 0. -1.
       -1    1    3    3    0  502 -0.11185610739E+04  0.57857475850E+03  0.77829290680E+03  0.14804281394E+04  0.50400001928E-02 0.  1.
</event>
<event>
 5   0  0.3499642E-05  0.2609936E+04  0.7818609E-02  0.8364834E-01
       -2   -1    0    0    0  501  0.00000000000E+00  0.00000000000E+00  0.89896448827E+03  0.89896448827E+03  0.25500000920E-02 0.  1.
        2   -1    0    0  501    0  0.00000000000E+00  0.00000000000E+00 -0.18943364979E+04  0.18943364979E+04  0.25500000920E-02 0. -1.
    10030    2    1    2    0    0  0.00000000000E+00  0.00000000000E+00 -0.99537200966E+03  0.27933009862E+04  0.26099358157E+04 0.  0.
        2    1    3    3  502    0 -0.39327635937E+03  0.11366844740E+03  0.82846271593E+03  0.92408726994E+03  0.25500000920E-02 0.  1.
       -2    1    3    3    0  502  0.39327635937E+03 -0.11366844740E+03 -0.18238347256E+04  0.18692137163E+04  0.25500000920E-02 0. -1.
</event>
<event>
 5   0  0.1474554E-05  0.2500082E+04  0.7818609E-02  0.8402956E-01
       -1   -1    0    0    0  501  0.00000000000E+00  0.00000000000E+00  0.73088429777E+03  0.73088429778E+03  0.50400001928E-02 0.  1.
        1   -1    0    0  501    0  0.00000000000E+00  0.00000000000E+00 -0.21379609825E+04  0.21379609825E+04  0.50400001928E-02 0. -1.
    10030    2    1    2    0    0  0.00000000000E+00  0.00000000000E+00 -0.14070766848E+04  0.28688452803E+04  0.25000816878E+04 0.  0.
        5    1    3    3  502    0 -0.25353630334E+03 -0.26742944156E+03 -0.20742041054E+04  0.21066902772E+04  0.46999998093E+01 0. -1.
       -5    1    3    3    0  502  0.25353630334E+03  0.26742944156E+03  0.66712742065E+03  0.76215500307E+03  0.46999998093E+01 0.  1.
</event>
<event>
 5   0  0.1497497E-05  0.2606635E+04  0.7818609E-02  0.8365951E-01
       -1   -1    0    0    0  501  0.00000000000E+00  0.00000000000E+00  0.14420077607E+04  0.14420077607E+04  0.50400001928E-02 0. -1.
        1   -1    0    0  501    0  0.00000000000E+00  0.00000000000E+00 -0.11779660562E+04  0.11779660562E+04  0.50400001928E-02 0.  1.
    10030    2    1    2    0    0  0.00000000000E+00  0.00000000000E+00  0.26404170456E+03  0.26199738169E+04  0.26066347615E+04 0.  0.
        3    1    3    3  502    0 -0.64858620663E+03 -0.64885132548E+03 -0.79843993781E+03  0.12162148061E+04  0.10100000352E+00 0.  1.
       -3    1    3    3    0  502  0.64858620663E+03  0.64885132548E+03  0.10624816424E+04  0.14037590109E+04  0.10100000352E+00 0. -1.
</event>
<event>
 5   0  0.3441646E-05  0.2587143E+04  0.7818609E-02  0.8372582E-01
        2   -1    0    0  501    0  0.00000000000E+00  0.00000000000E+00  0.16243958962E+04  0.16243958962E+04  0.25500000920E-02 0. -1.
       -2   -1    0    0    0  501  0.00000000000E+00  0.00000000000E+00 -0.10301228309E+04  0.10301228309E+04  0.25500000920E-02 0.  1.
    10030    2    1    2    0    0  0.00000000000E+00  0.00000000000E+00  0.59427306527E+03  0.26545187272E+04  0.25871430569E+04 0.  0.
        4    1    3    3  502    0 -0.47950117596E+03  0.11113789032E+04  0.76535519765E+03  0.14320805270E+04  0.12699999809E+01 0.  1.
       -4    1    3    3    0  502  0.47950117596E+03 -0.11113789032E+04 -0.17108213237E+03  0.12224382002E+04  0.12699999809E+01 0. -1.
</event>
<event>
 5   0  0.1474554E-05  0.2831813E+04  0.7818609E-02  0.8293459E-01
        1   -1    0    0  501    0  0.00000000000E+00  0.00000000000E+00  0.24229833148E+04  0.24229833148E+04  0.50400001928E-02 0.  1.
       -1   -1    0    0    0  501  0.00000000000E+00  0.00000000000E+00 -0.82740635807E+03  0.82740635808E+03  0.50400001928E-02 0. -1.
    10030    2    1    2    0    0  0.00000000000E+00  0.00000000000E+00  0.15955769568E+04  0.32503896729E+04  0.28318134121E+04 0.  0.
        5    1    3    3  502    0 -0.34985027744E+02 -0.77748179414E+03  0.21554458391E+04  0.22916524056E+04  0.46999998093E+01 0.  1.
       -5    1    3    3    0  502  0.34985027744E+02  0.77748179414E+03 -0.55986888238E+03  0.95873726737E+03  0.46999998093E+01 0. -1.
</event>
<event>
 5   0  0.1451052E-05  0.2019907E+04  0.7818609E-02  0.8597370E-01
       -1   -1    0    0    0  501  0.00000000000E+00  0.00000000000E+00  0.82774726311E+03  0.82774726312E+03  0.50400001928E-02 0. -1.
        1   -1    0    0  501    0  0.00000000000E+00  0.00000000000E+00 -0.12322675073E+04  0.12322675073E+04  0.50400001928E-02 0.  1.
    10030    2    1    2    0    0  0.00000000000E+00  0.00000000000E+00 -0.40452024418E+03  0.20600147704E+04  0.20199069846E+04 0.  0.
        1    1    3    3  502    0  0.10744541397E+03  0.62136463886E+02  0.81993941478E+03  0.82928047189E+03  0.50400001928E-02 0. -1.
       -1    1    3    3    0  502 -0.10744541397E+03 -0.62136463886E+02 -0.12244596590E+04  0.12307342985E+04  0.50400001928E-02 0.  1.
</event>
<event>
 5   0  0.1474554E-05  0.2632180E+04  0.7818609E-02  0.8357352E-01
       -1   -1    0    0    0  501  0.00000000000E+00  0.00000000000E+00  0.97052707851E+03  0.97052707852E+03  0.50400001928E-02 0.  1.
        1   -1    0    0  501    0  0.00000000000E+00  0.00000000000E+00 -0.17846929277E+04  0.17846929277E+04  0.50400001928E-02 0. -1.
    10030    2    1    2    0    0  0.00000000000E+00  0.00000000000E+00 -0.81416584918E+03  0.27552200062E+04  0.26321799431E+04 0.  0.
        5    1    3    3  502    0  0.11817745077E+04  0.53561921918E+03 -0.63782253161E+03  0.14457934177E+04  0.46999998093E+01 0. -1.
       -5    1    3    3    0  502 -0.11817745077E+04 -0.53561921918E+03 -0.17634331758E+03  0.13094265885E+04  0.46999998093E+01 0.  1.
</event>
<event>
 5   0  0.3508470E-05  0.2608347E+04  0.7818609E-02  0.8365372E-01
        2   -1    0    0  501    0  0.00000000000E+00  0.00000000000E+00  0.28051146160E+04  0.28051146160E+04  0.25500000920E-02 0. -1.
       -2   -1    0    0    0  501  0.00000000000E+00  0.00000000000E+00 -0.60634534258E+03  0.60634534259E+03  0.25500000920E-02 0.  1.
    10030    2    1    2    0    0  0.00000000000E+00  0.00000000000E+00  0.21987692734E+04  0.34114599586E+04  0.26083467429E+04 0.  0.
        5    1    3    3  502    0  0.25731983177E+03 -0.12783482030E+04  0.10713800008E+04  0.16876803074E+04  0.46999998093E+01 0.  1.
       -5    1    3    3    0  502 -0.25731983177E+03  0.12783482030E+04  0.11273892726E+04  0.17237796512E+04  0.46999998093E+01 0. -1.
</event>
<event>
 5   0  0.1451052E-05  0.2602505E+04  0.7818609E-02  0.8367351E-01
       -1   -1    0    0    0  501  0.00000000000E+00  0.00000000000E+00  0.92651690287E+03  0.92651690288E+03  0.50400001928E-02 0.  1.
        1   -1    0    0  501    0  0.00000000000E+00  0.00000000000E+00 -0.18275522350E+04  0.18275522350E+04  0.50400001928E-02 0. -1.
    10030    2    1    2    0    0  0.00000000000E+00  0.00000000000E+00 -0.90103533210E+03  0.27540691379E+04  0.26025049753E+04 0.  0.
        1    1    3    3  502    0  0.27100352347E+03  0.25790545026E+03  0.86837947858E+03  0.94553743969E+03  0.50400001928E-02 0.  1.
       -1    1    3    3    0  502 -0.27100352347E+03 -0.25790545026E+03 -0.17694148107E+04  0.18085316982E+04  0.50400001928E-02 0. -1.
</event>
<event>
 5   0  0.1217200E-05  0.2607541E+04  0.7818609E-02  0.8365644E-01
        3   -1    0    0  501    0  0.00000000000E+00  0.00000000000E+00  0.17506135677E+04  0.17506135706E+04  0.10100000352E+00 0. -1.
       -3   -1    0    0    0  501  0.00000000000E+00  0.00000000000E+00 -0.97098401196E+03  0.97098401721E+03  0.10100000352E+00 0.  1.
    10030    2    1    2    0    0  0.00000000000E+00  0.00000000000E+00  0.77962955572E+03  0.27215975878E+04  0.26075412146E+04 0.  0.
        4    1    3    3  502    0  0.80907856316E+03 -0.82306070266E+03  0.10227893696E+04  0.15421208608E+04  0.12699999809E+01 0. -1.
       -4    1    3    3    0  502 -0.80907856316E+03  0.82306070266E+03 -0.24315981392E+03  0.11794767270E+04  0.12699999809E+01 0.  1.
</event>
<event>
 5   0  0.3508470E-05  0.2599579E+04  0.7818609E-02  0.8368344E-01
       -2   -1    0    0    0  501  0.00000000000E+00  0.00000000000E+00  0.91022802987E+03  0.91022802987E+03  0.25500000920E-02 0.  1.
        2   -1    0    0  501    0  0.00000000000E+00  0.00000000000E+00 -0.18560763228E+04  0.18560763228E+04  0.25500000920E-02 0. -1.
    10030    2    1    2    0    0  0.00000000000E+00  0.00000000000E+00 -0.94584829297E+03  0.27663043527E+04  0.25995789618E+04 0.  0.
        5    1    3    3  502    0  0.77463341297E+03 -0.10094336854E+04 -0.75530593008E+03  0.14797034932E+04  0.46999998093E+01 0. -1.
       -5    1    3    3    0  502 -0.77463341297E+03  0.10094336854E+04 -0.19054236289E+03  0.12866008595E+04  0.46999998093E+01 0.  1.
</event>
<event>
 5   0  0.1474554E-05  0.2570066E+04  0.7818609E-02  0.8378441E-01
       -1   -1    0    0    0  501  0.00000000000E+00  0.00000000000E+00  0.10071169952E+04  0.10071169952E+04  0.50400001928E-02 0. -1.
        1   -1    0    0  501    0  0.00000000000E+00  0.00000000000E+00 -0.16396406585E+04  0.16396406585E+04  0.50400001928E-02 0.  1.
    10030    2    1    2    0    0  0.00000000000E+00  0.00000000000E+00 -0.63252366328E+03  0.26467576536E+04  0.25700661261E+04 0.  0.
        5    1    3    3  502    0  0.97938999476E+03  0.79078050881E+03 -0.58233021107E+03  0.13869640009E+04  0.46999998093E+01 0.  1.
       -5    1    3    3    0  502 -0.97938999476E+03 -0.79078050881E+03 -0.50193452218E+02  0.12597936528E+04  0.46999998093E+01 0. -1.
</event>
<event>
 5   0  0.3441646E-05  0.2584518E+04  0.7818609E-02  0.8373479E-01
       -2   -1    0    0    0  501  0.00000000000E+00  0.00000000000E+00  0.19946849379E+04  0.19946849379E+04  0.25500000920E-02 0.  1.
        2   -1    0    0  501    0  0.00000000000E+00  0.00000000000E+00 -0.83719150903E+03  0.83719150904E+03  0.25500000920E-02 0. -1.
    10030    2    1    2    0    0  0.00000000000E+00  0.00000000000E+00  0.11574934289E+04  0.28318764469E+04  0.25845179769E+04 0.  0.
        4    1    3    3  502    0 -0.37839518268E+03 -0.11351054702E+04  0.11136096366E+04  0.16345566305E+04  0.12699999809E+01 0.  1.
       -4    1    3    3    0  502  0.37839518268E+03  0.11351054702E+04  0.43883792221E+02  0.11973198164E+04  0.12699999809E+01 0. -1.
</event>
<event>
 5   0  0.1533248E-05  0.2596945E+04  0.7818609E-02  0.8369240E-01
       -1   -1    0    0    0  501  0.00000000000E+00  0.00000000000E+00  0.17269429483E+04  0.17269429483E+04  0.50400001928E-02 0. -1.
        1   -1    0    0  501    0  0.00000000000E+00  0.00000000000E+00 -0.97630967766E+03  0.97630967768E+03  0.50400001928E-02 0.  1.
    10030    2    1    2    0    0  0.00000000000E+00  0.00000000000E+00  0.75063327067E+03  0.27032526260E+04  0.25969452156E+04 0.  0.
        4    1    3    3  502    0  0.45616191662E+03 -0.47248931832E+03 -0.79067043363E+03  0.10278575765E+04  0.12699999809E+01 0.  1.
       -4    1    3    3    0  502 -0.45616191662E+03  0.47248931832E+03  0.15413037043E+04  0.16753950495E+04  0.12699999809E+01 0. -1.
</event>
<event>
 5   0  0.1435062E-05  0.2593131E+04  0.7818609E-02  0.8370538E-01
       -1   -1    0    0    0  501  0.00000000000E+00  0.00000000000E+00  0.10099101964E+04  0.10099101964E+04  0.50400001928E-02 0.  1.
        1   -1    0    0  501    0  0.00000000000E+00  0.00000000000E+00 -0.16645855128E+04  0.16645855128E+04  0.50400001928E-02 0. -1.
    10030    2    1    2    0    0  0.00000000000E+00  0.00000000000E+00 -0.65467531643E+03  0.26744957092E+04  0.25931308352E+04 0.  0.
        2    1    3    3  502    0  0.13907730661E+03 -0.44331883551E+03  0.92110064936E+03  0.10316494043E+04  0.25500000920E-02 0.  1.
       -2    1    3    3    0  502 -0.13907730661E+03  0.44331883551E+03 -0.15757759658E+04  0.16428463049E+04  0.25500000920E-02 0. -1.
</event>
<event>
 5   0  0.1497497E-05  0.2582642E+04  0.7818609E-02  0.8374121E-01
       -1   -1    0    0    0  501  0.00000000000E+00  0.00000000000E+00  0.93986540718E+03  0.93986540720E+03  0.50400001928E-02 0.  1.
        1   -1    0    0  501    0  0.00000000000E+00  0.00000000000E+00 -0.17742004645E+04  0.17742004645E+04  0.50400001928E-02 0. -1.
    10030    2    1    2    0    0  0.00000000000E+00  0.00000000000E+00 -0.83433505734E+03  0.27140658717E+04  0.25826417808E+04 0.  0.
        3    1    3    3  502    0  0.12489908987E+03  0.36607638710E+03  0.87755735674E+03  0.95901961837E+03  0.10100000352E+00 0.  1.
       -3    1    3    3    0  502 -0.12489908987E+03 -0.36607638710E+03 -0.17118924141E+04  0.17550462534E+04  0.10100000352E+00 0. -1.
</event>
<event>
 5   0  0.3647623E-05  0.2593805E+04  0.7818609E-02  0.8370309E-01
        2   -1    0    0  501    0  0.00000000000E+00  0.00000000000E+00  0.16626872493E+04  0.16626872493E+04  0.25500000920E-02 0. -1.
       -2   -1    0    0    0  501  0.00000000000E+00  0.00000000000E+00 -0.10115886451E+04  0.10115886451E+04  0.25500000920E-02 0.  1.
    10030    2    1    2    0    0  0.00000000000E+00  0.00000000000E+00  0.65109860417E+03  0.26742758944E+04  0.25938045738E+04 0.  0.
        3    1    3    3  502    0 -0.72921829424E+03 -0.10337558127E+04  0.31128850585E+02  0.12654562088E+04  0.10100000352E+00 0.  1.
       -3    1    3    3    0  502  0.72921829424E+03  0.10337558127E+04  0.61996975359E+03  0.14088196856E+04  0.10100000352E+00 0. -1.
</event>
<event>
 5   0  0.1435062E-05  0.2617627E+04  0.7818609E-02  0.8362238E-01
        1   -1    0    0  501    0  0.00000000000E+00  0.00000000000E+00  0.14411495351E+04  0.14411495351E+04  0.50400001928E-02 0.  1.
       -1   -1    0    0    0  501  0.00000000000E+00  0.00000000000E+00 -0.11886299001E+04  0.11886299001E+04  0.50400001928E-02 0. -1.
    10030    2    1    2    0    0  0.00000000000E+00  0.00000000000E+00  0.25251963505E+03  0.26297794352E+04  0.26176274968E+04 0.  0.
        2    1    3    3  502    0 -0.75026019539E+03 -0.97195289214E+03  0.58158634320E+03  0.13586115927E+04  0.25500000920E-02 0.  1.
       -2    1    3    3    0  502  0.75026019539E+03  0.97195289214E+03 -0.32906670815E+03  0.12711678425E+04  0.25500000920E-02 0. -1.
</event>
<event>
 5   0  0.1435062E-05  0.2617198E+04  0.7818609E-02  0.8362383E-01
       -1   -1    0    0    0  501  0.00000000000E+00  0.00000000000E+00  0.96831870398E+03  0.96831870399E+03  0.50400001928E-02 0.  1.
        1   -1    0    0  501    0  0.00000000000E+00  0.00000000000E+00 -0.17684578653E+04  0.17684578653E+04  0.50400001928E-02 0. -1.
    10030    2    1    2    0    0  0.00000000000E+00  0.00000000000E+00 -0.80013916132E+03  0.27367765693E+04  0.26171976067E+04 0.  0.
        2    1    3    3  502    0 -0.10506845992E+04 -0.52125263380E+03 -0.10069196225E+04  0.15458103252E+04  0.25500000920E-02 0. -1.
       -2    1    3    3    0  502  0.10506845992E+04  0.52125263380E+03  0.20678046122E+03  0.11909662441E+04  0.25500000920E-02 0.  1.
</event>
<event>
 5   0  0.3508470E-05  0.2670283E+04  0.7818609E-02  0.8344712E-01
        2   -1    0    0  501    0  0.00000000000E+00  0.00000000000E+00  0.14122232098E+04  0.14122232098E+04  0.25500000920E-02 0. -1.
       -2   -1    0    0    0  501  0.00000000000E+00  0.00000000000E+00 -0.12622671227E+04  0.12622671227E+04  0.25500000920E-02 0.  1.
    10030    2    1    2    0    0  0.00000000000E+00  0.00000000000E+00  0.14995608713E+03  0.26744903324E+04  0.26702830768E+04 0.  0.
        5    1    3    3  502    0 -0.71593411528E+03  0.70083520738E+03  0.95889286444E+03  0.13868054156E+04  0.46999998093E+01 0. -1.
       -5    1    3    3    0  502  0.71593411528E+03 -0.70083520738E+03 -0.80893677731E+03  0.12876849168E+04  0.46999998093E+01 0.  1.
</event>
<event>
 5   0  0.3441646E-05  0.2526214E+04  0.7818609E-02  0.8393706E-01
        2   -1    0    0  501    0  0.00000000000E+00  0.00000000000E+00  0.20289739446E+04  0.20289739446E+04  0.25500000920E-02 0.  1.
       -2   -1    0    0    0  501  0.00000000000E+00  0.00000000000E+00 -0.78632828423E+03  0.78632828424E+03  0.25500000920E-02 0. -1.
    10030    2    1    2    0    0  0.00000000000E+00  0.00000000000E+00  0.12426456603E+04  0.28153022288E+04  0.25262142432E+04 0.  0.
        4    1    3    3  502    0 -0.57514808960E+03  0.10097230446E+04  0.11730549962E+04  0.16511800595E+04  0.12699999809E+01 0.  1.
       -4    1    3    3    0  502  0.57514808960E+03 -0.10097230446E+04  0.69590664115E+02  0.11641221693E+04  0.12699999809E+01 0. -1.
</event>
<event>
 5   0  0.1435062E-05  0.2602053E+04  0.7818609E-02  0.8367504E-01
       -1   -1    0    0    0  501  0.00000000000E+00  0.00000000000E+00  0.93877435364E+03  0.93877435365E+03  0.50400001928E-02 0. -1.
        1   -1    0    0  501    0  0.00000000000E+00  0.00000000000E+00 -0.18030639044E+04  0.18030639044E+04  0.50400001928E-02 0.  1.
    10030    2    1    2    0    0  0.00000000000E+00  0.00000000000E+00 -0.86428955074E+03  0.27418382580E+04  0.26020531520E+04 0.  0.
        2    1    3    3  502    0 -0.15258414039E+03 -0.11892355880E+04 -0.96435940906E+03  0.15386852419E+04  0.25500000920E-02 0.  1.
       -2    1    3    3    0  502  0.15258414039E+03  0.11892355880E+04  0.10006985832E+03  0.12031530162E+04  0.25500000920E-02 0. -1.
</event>
<event>
 5   0  0.1497497E-05  0.2458104E+04  0.7818609E-02  0.8418065E-01
       -1   -1    0    0    0  501  0.00000000000E+00  0.00000000000E+00  0.11477042412E+04  0.11477042412E+04  0.50400001928E-02 0. -1.
        1   -1    0    0  501    0  0.00000000000E+00  0.00000000000E+00 -0.13161659491E+04  0.13161659491E+04  0.50400001928E-02 0.  1.
    10030    2    1    2    0    0  0.00000000000E+00  0.00000000000E+00 -0.16846170797E+03  0.24638701903E+04  0.24581043443E+04 0.  0.
        3    1    3    3  502    0 -0.81405326863E+03  0.20285713669E+03 -0.98452223030E+03  0.12934905389E+04  0.10100000352E+00 0.  1.
       -3    1    3    3    0  502  0.81405326863E+03 -0.20285713669E+03  0.81606052233E+03  0.11703796514E+04  0.10100000352E+00 0. -1.
</event>
<event>
 5   0  0.1497497E-05  0.2658846E+04  0.7818609E-02  0.8348483E-01
       -1   -1    0    0    0  501  0.00000000000E+00  0.00000000000E+00  0.10380776921E+04  0.10380776921E+04  0.50400001928E-02 0.  1.
        1   -1    0    0  501    0  0.00000000000E+00  0.00000000000E+00 -0.17025369016E+04  0.17025369016E+04  0.50400001928E-02 0. -1.
    10030    2    1    2    0    0  0.00000000000E+00  0.00000000000E+00 -0.66445920952E+03  0.27406145937E+04  0.26588460485E+04 0.  0.
        3    1    3    3  502    0  0.11723845134E+04  0.60015377084E+03 -0.51860957550E+03  0.14154949304E+04  0.10100000352E+00 0.  1.
       -3    1    3    3    0  502 -0.11723845134E+04 -0.60015377084E+03 -0.14584963402E+03  0.13251196633E+04  0.10100000352E+00 0. -1.
</event>
<event>
 5   0  0.3499642E-05  0.1688525E+04  0.7818609E-02  0.8767936E-01
       -2   -1    0    0    0  501  0.00000000000E+00  0.00000000000E+00  0.60298735277E+03  0.60298735277E+03  0.25500000920E-02 0. -1.
        2   -1    0    0  501    0  0.00000000000E+00  0.00000000000E+00 -0.11820793554E+04  0.11820793554E+04  0.25500000920E-02 0.  1.
    10030    2    1    2    0    0  0.00000000000E+00  0.00000000000E+00 -0.57909200261E+03  0.17850667081E+04  0.16885246830E+04 0.  0.
        2    1    3    3  502    0 -0.46370659659E+03  0.27466450682E+02 -0.10348364089E+04  0.11343123939E+04  0.25500000920E-02 0.  1.
       -2    1    3    3    0  502  0.46370659659E+03 -0.27466450682E+02  0.45574440633E+03  0.65075431427E+03  0.25500000920E-02 0. -1.
</event>
<event>
 5   0  0.1451052E-05  0.2658794E+04  0.7818609E-02  0.8348500E-01
        1   -1    0    0  501    0  0.00000000000E+00  0.00000000000E+00  0.13418903234E+04  0.13418903234E+04  0.50400001928E-02 0.  1.
       -1   -1    0    0    0  501  0.00000000000E+00  0.00000000000E+00 -0.13170202812E+04  0.13170202812E+04  0.50400001928E-02 0. -1.
    10030    2    1    2    0    0  0.00000000000E+00  0.00000000000E+00  0.24870042198E+02  0.26589106046E+04  0.26587942915E+04 0.  0.
        1    1    3    3  502    0  0.26178185105E+03 -0.30965896485E+03 -0.12536686883E+04  0.13176128385E+04  0.50400001928E-02 0. -1.
       -1    1    3    3    0  502 -0.26178185105E+03  0.30965896485E+03  0.12785387305E+04  0.13412977661E+04  0.50400001928E-02 0.  1.
</event>
<event>
 5   0  0.3508470E-05  0.2607082E+04  0.7818609E-02  0.8365799E-01
       -2   -1    0    0    0  501  0.00000000000E+00  0.00000000000E+00  0.69274691576E+03  0.69274691576E+03  0.25500000920E-02 0.  1.
        2   -1    0    0  501    0  0.00000000000E+00  0.00000000000E+00 -0.24528723611E+04  0.24528723611E+04  0.25500000920E-02 0. -1.
    10030    2    1    2    0    0  0.00000000000E+00  0.00000000000E+00 -0.17601254454E+04  0.31456192769E+04  0.26070824789E+04 0.  0.
        5    1    3    3  502    0  0.96528857543E+03  0.86559590161E+03 -0.71746972971E+03  0.14818310301E+04  0.46999998093E+01 0. -1.
       -5    1    3    3    0  502 -0.96528857543E+03 -0.86559590161E+03 -0.10426557157E+04  0.16637882468E+04  0.46999998093E+01 0.  1.
</event>
<event>
 5   0  0.1497497E-05  0.2557812E+04  0.7818609E-02  0.8382674E-01
       -1   -1    0    0    0  501  0.00000000000E+00  0.00000000000E+00  0.11165874534E+04  0.11165874534E+04  0.50400001928E-02 0. -1.
        1   -1    0    0  501    0  0.00000000000E+00  0.00000000000E+00 -0.14648203612E+04  0.14648203612E+04  0.50400001928E-02 0.  1.
    10030    2    1    2    0    0  0.00000000000E+00  0.00000000000E+00 -0.34823290779E+03  0.25814078146E+04  0.25578115934E+04 0.  0.
        3    1    3    3  502    0  0.13046423028E+03  0.38448254419E+03 -0.13980499901E+04  0.14558130124E+04  0.10100000352E+00 0.  1.
       -3    1    3    3    0  502 -0.13046423028E+03 -0.38448254419E+03  0.10498170823E+04  0.11255948022E+04  0.10100000352E+00 0. -1.
</event>
<event>
 5   0  0.3499642E-05  0.2521856E+04  0.7818609E-02  0.8395240E-01
        2   -1    0    0  501    0  0.00000000000E+00  0.00000000000E+00  0.11054209661E+04  0.11054209661E+04  0.25500000920E-02 0. -1.
       -2   -1    0    0    0  501  0.00000000000E+00  0.00000000000E+00 -0.14383108885E+04  0.14383108885E+04  0.25500000920E-02 0.  1.
    10030    2    1    2    0    0  0.00000000000E+00  0.00000000000E+00 -0.33288992242E+03  0.25437318546E+04  0.25218556755E+04 0.  0.
        2    1    3    3  502    0 -0.80424789492E+03  0.88881805206E+03  0.22826375033E+03  0.12202116808E+04  0.25500000920E-02 0. -1.
       -2    1    3    3    0  502  0.80424789492E+03 -0.88881805206E+03 -0.56115367276E+03  0.13235201739E+04  0.25500000920E-02 0.  1.
</event>
<event>
 5   0  0.3508470E-05  0.2427340E+04  0.7818609E-02  0.8429338E-01
       -2   -1    0    0    0  501  0.00000000000E+00  0.00000000000E+00  0.89717049940E+03  0.89717049940E+03  0.25500000920E-02 0. -1.
        2   -1    0    0  501    0  0.00000000000E+00  0.00000000000E+00 -0.16418222741E+04  0.16418222741E+04  0.25500000920E-02 0.  1.
    10030    2    1    2    0    0  0.00000000000E+00  0.00000000000E+00 -0.74465177474E+03  0.25389927735E+04  0.24273397040E+04 0.  0.
        5    1    3    3  502    0 -0.61994001808E+02  0.10233642110E+04 -0.10517053761E+04  0.14687490776E+04  0.46999998093E+01 0.  1.
       -5    1    3    3    0  502  0.61994001808E+02 -0.10233642110E+04  0.30705360139E+03  0.10702436960E+04  0.46999998093E+01 0. -1.
</event>
<event>
 5   0  0.1451052E-05  0.2821639E+04  0.7818609E-02  0.8296582E-01
       -1   -1    0    0    0  501  0.00000000000E+00  0.00000000000E+00  0.12975992628E+04  0.12975992628E+04  0.50400001928E-02 0. -1.
        1   -1    0    0  501    0  0.00000000000E+00  0.00000000000E+00 -0.15339188376E+04  0.15339188376E+04  0.50400001928E-02 0.  1.
    10030    2    1    2    0    0  0.00000000000E+00  0.00000000000E+00 -0.23631957476E+03  0.28315181004E+04  0.28216392064E+04 0.  0.
        1    1    3    3  502    0 -0.45806623821E+03  0.13333063923E+04 -0.64293754650E+02  0.14112633707E+04  0.50400001928E-02 0.  1.
       -1    1    3    3    0  502  0.45806623821E+03 -0.13333063923E+04 -0.17202582011E+03  0.14202547297E+04  0.50400001928E-02 0. -1.
</event>
<event>
 5   0  0.1533248E-05  0.2621213E+04  0.7818609E-02  0.8361031E-01
       -1   -1    0    0    0  501  0.00000000000E+00  0.00000000000E+00  0.11798055925E+04  0.11798055925E+04  0.50400001928E-02 0.  1.
        1   -1    0    0  501    0  0.00000000000E+00  0.00000000000E+00 -0.14559083193E+04  0.14559083193E+04  0.50400001928E-02 0. -1.
    10030    2    1    2    0    0  0.00000000000E+00  0.00000000000E+00 -0.27610272684E+03  0.26357139118E+04  0.26212125265E+04 0.  0.
        4    1    3    3  502    0  0.58049179967E+03  0.70903219936E+03 -0.10802462941E+04  0.14165560554E+04  0.12699999809E+01 0. -1.
       -4    1    3    3    0  502 -0.58049179967E+03 -0.70903219936E+03  0.80414356725E+03  0.12191578564E+04  0.12699999809E+01 0.  1.
</event>
<event>
 5   0  0.3647623E-05  0.2561711E+04  0.7818609E-02  0.8381325E-01
        2   -1    0    0  501    0  0.00000000000E+00  0.00000000000E+00  0.12538044850E+04  0.12538044850E+04  0.25500000920E-02 0. -1.
       -2   -1    0    0    0  501  0.00000000000E+00  0.00000000000E+00 -0.13084897790E+04  0.13084897790E+04  0.25500000920E-02 0.  1.
    10030    2    1    2    0    0  0.00000000000E+00  0.00000000000E+00 -0.54685294006E+02  0.25622942640E+04  0.25617106421E+04 0.  0.
        3    1    3    3  502    0  0.11504854915E+04  0.53813473605E+03  0.13817762998E+03  0.12776145459E+04  0.10100000352E+00 0. -1.
       -3    1    3    3    0  502 -0.11504854915E+04 -0.53813473605E+03 -0.19286292399E+03  0.12846797181E+04  0.10100000352E+00 0.  1.
</event>
<event>
 5   0  0.1474554E-05  0.2650078E+04  0.7818609E-02  0.8351387E-01
        1   -1    0    0  501    0  0.00000000000E+00  0.00000000000E+00  0.92413974660E+03  0.92413974661E+03  0.50400001928E-02 0. -1.
       -1   -1    0    0    0  501  0.00000000000E+00  0.00000000000E+00 -0.18998522452E+04  0.18998522452E+04  0.50400001928E-02 0.  1.
    10030    2    1    2    0    0  0.00000000000E+00  0.00000000000E+00 -0.97571249858E+03  0.28239919918E+04  0.26500784686E+04 0.  0.
        5    1    3    3  502    0  0.62201265612E+03  0.11216227543E+03 -0.17288536796E+04  0.18407708320E+04  0.46999998093E+01 0.  1.
       -5    1    3    3    0  502 -0.62201265612E+03 -0.11216227543E+03  0.75314118107E+03  0.98322115977E+03  0.46999998093E+01 0. -1.
</event>
<event>
 5   0  0.3849687E-05  0.2259376E+04  0.7818609E-02  0.8494113E-01
        2   -1    0    0  501    0  0.00000000000E+00  0.00000000000E+00  0.11763253988E+04  0.11763253988E+04  0.25500000920E-02 0. -1.
       -2   -1    0    0    0  501  0.00000000000E+00  0.00000000000E+00 -0.10849000570E+04  0.10849000570E+04  0.25500000920E-02 0.  1.
    10030    2    1    2    0    0  0.00000000000E+00  0.00000000000E+00  0.91425341801E+02  0.22612254557E+04  0.22593764557E+04 0.  0.
        1    1    3    3  502    0 -0.74307442856E+03 -0.84167772576E+03 -0.79347550314E+02  0.11255563221E+04  0.50400001928E-02 0. -1.
       -1    1    3    3    0  502  0.74307442856E+03  0.84167772576E+03  0.17077289211E+03  0.11356691336E+04  0.50400001928E-02 0.  1.
</event>
<event>
 5   0  0.1451052E-05  0.2565804E+04  0.7818609E-02  0.8379910E-01
       -1   -1    0    0    0  501  0.00000000000E+00  0.00000000000E+00  0.14623697981E+04  0.14623697981E+04  0.50400001928E-02 0. -1.
        1   -1    0    0  501    0  0.00000000000E+00  0.00000000000E+00 -0.11254594212E+04  0.11254594212E+04  0.50400001928E-02 0.  1.
    10030    2    1    2    0    0  0.00000000000E+00  0.00000000000E+00  0.33691037690E+03  0.25878292192E+04  0.25658042532E+04 0.  0.
        1    1    3    3  502    0 -0.86661463793E+03 -0.94227714917E+03  0.25242070273E+03  0.13048461088E+04  0.50400001928E-02 0.  1.
       -1    1    3    3    0  502  0.86661463793E+03  0.94227714917E+03  0.84489674166E+02  0.12829831104E+04  0.50400001928E-02 0. -1.
</event>
<event>
 5   0  0.3499642E-05  0.2595069E+04  0.7818609E-02  0.8369878E-01
        2   -1    0    0  501    0  0.00000000000E+00  0.00000000000E+00  0.14319637637E+04  0.14319637637E+04  0.25500000920E-02 0.  1.
       -2   -1    0    0    0  501  0.00000000000E+00  0.00000000000E+00 -0.11757248625E+04  0.11757248625E+04  0.25500000920E-02 0. -1.
    10030    2    1    2    0    0  0.00000000000E+00  0.00000000000E+00  0.25623890118E+03  0.26076886262E+04  0.25950687076E+04 0.  0.
        2    1    3    3  502    0  0.18838839667E+03  0.30881811173E+03 -0.11240288398E+04  0.11808046608E+04  0.25500000920E-02 0. -1.
       -2    1    3    3    0  502 -0.18838839667E+03 -0.30881811173E+03  0.13802677410E+04  0.14268839655E+04  0.25500000920E-02 0.  1.
</event>
<event>
 5   0  0.1497497E-05  0.2510349E+04  0.7818609E-02  0.8399308E-01
        1   -1    0    0  501    0  0.00000000000E+00  0.00000000000E+00  0.17575918357E+04  0.17575918357E+04  0.50400001928E-02 0. -1.
       -1   -1    0    0    0  501  0.00000000000E+00  0.00000000000E+00 -0.89637611108E+03  0.89637611109E+03  0.50400001928E-02 0.  1.
    10030    2    1    2    0    0  0.00000000000E+00  0.00000000000E+00  0.86121572462E+03  0.26539679468E+04  0.25103492463E+04 0.  0.
        3    1    3    3  502    0  0.12888597751E+02  0.60135813184E+03  0.15952997481E+04  0.17049278621E+04  0.10100000352E+00 0. -1.
       -3    1    3    3    0  502 -0.12888597751E+02 -0.60135813184E+03 -0.73408402343E+03  0.94904008468E+03  0.10100000352E+00 0.  1.
</event>
<event>
 5   0  0.3441646E-05  0.2439609E+04  0.7818609E-02  0.8424822E-01
       -2   -1    0    0    0  501  0.00000000000E+00  0.00000000000E+00  0.11431322865E+04  0.11431322865E+04  0.25500000920E-02 0. -1.
        2   -1    0    0  501    0  0.00000000000E+00  0.00000000000E+00 -0.13016195732E+04  0.13016195732E+04  0.25500000920E-02 0.  1.
    10030    2    1    2    0    0  0.00000000000E+00  0.00000000000E+00 -0.15848728666E+03  0.24447518597E+04  0.24396092793E+04 0.  0.
        4    1    3    3  502    0  0.17027202522E+03 -0.54464774455E+03  0.10011235527E+04  0.11523383656E+04  0.12699999809E+01 0. -1.
       -4    1    3    3    0  502 -0.17027202522E+03  0.54464774455E+03 -0.11596108393E+04  0.12924134941E+04  0.12699999809E+01 0.  1.
</event>
<event>
 5   0  0.3849687E-05  0.2593212E+04  0.7818609E-02  0.8370511E-01
        2   -1    0    0  501    0  0.00000000000E+00  0.00000000000E+00  0.10204904587E+04  0.10204904587E+04  0.25500000920E-02 0.  1.
       -2   -1    0    0    0  501  0.00000000000E+00  0.00000000000E+00 -0.16474301289E+04  0.16474301289E+04  0.25500000920E-02 0. -1.
    10030    2    1    2    0    0  0.00000000000E+00  0.00000000000E+00 -0.62693967021E+03  0.26679205876E+04  0.25932116981E+04 0.  0.
        1    1    3    3  502    0  0.52318200449E+01  0.39261900556E+03  0.95785291968E+03  0.10352097716E+04  0.50400001928E-02 0.  1.
       -1    1    3    3    0  502 -0.52318200449E+01 -0.39261900556E+03 -0.15847925899E+04  0.16327108159E+04  0.50400001928E-02 0. -1.
</event>
<event>
 5   0  0.1497497E-05  0.2736657E+04  0.7818609E-02  0.8323208E-01
       -1   -1    0    0    0  501  0.00000000000E+00  0.00000000000E+00  0.11959129892E+04  0.11959129892E+04  0.50400001928E-02 0. -1.
        1   -1    0    0  501    0  0.00000000000E+00  0.00000000000E+00 -0.15656013012E+04  0.15656013012E+04  0.50400001928E-02 0.  1.
    10030    2    1    2    0    0  0.00000000000E+00  0.00000000000E+00 -0.36968831207E+03  0.27615142904E+04  0.27366570352E+04 0.  0.
        3    1    3    3  502    0 -0.64748785884E+03  0.99355123649E+03  0.50395267872E+03  0.12885468170E+04  0.10100000352E+00 0. -1.
       -3    1    3    3    0  502  0.64748785884E+03 -0.99355123649E+03 -0.87364099079E+03  0.14729674735E+04  0.10100000352E+00 0.  1.
</event>
<event>
 5   0  0.1474554E-05  0.2571920E+04  0.7818609E-02  0.8377802E-01
       -1   -1    0    0    0  501  0.00000000000E+00  0.00000000000E+00  0.15624891094E+04  0.15624891094E+04  0.50400001928E-02 0. -1.
        1   -1    0    0  501    0  0.00000000000E+00  0.00000000000E+00 -0.10583712284E+04  0.10583712284E+04  0.50400001928E-02 0.  1.
    10030    2    1    2    0    0  0.00000000000E+00  0.00000000000E+00  0.50411788097E+03  0.26208603378E+04  0.25719203083E+04 0.  0.
        5    1    3    3  502    0  0.45327233437E+03 -0.59980094795E+02 -0.97273458769E+03  0.10748432858E+04  0.46999998093E+01 0.  1.
       -5    1    3    3    0  502 -0.45327233437E+03  0.59980094795E+02  0.14768524687E+04  0.15460170520E+04  0.46999998093E+01 0. -1.
</event>
<event>
 5   0  0.1497497E-05  0.2469052E+04  0.7818609E-02  0.8414095E-01
       -1   -1    0    0    0  501  0.00000000000E+00  0.00000000000E+00  0.12447159127E+04  0.12447159127E+04  0.50400001928E-02 0. -1.
        1   -1    0    0  501    0  0.00000000000E+00  0.00000000000E+00 -0.12244194458E+04  0.12244194458E+04  0.50400001928E-02 0.  1.
    10030    2    1    2    0    0  0.00000000000E+00  0.00000000000E+00  0.20296466880E+02  0.24691353586E+04  0.24690519380E+04 0.  0.
        3    1    3    3  502    0 -0.65683442309E+03  0.92891230805E+03  0.48948146542E+03  0.12385078323E+04  0.10100000352E+00 0. -1.
       -3    1    3    3    0  502  0.65683442309E+03 -0.92891230805E+03 -0.46918499854E+03  0.12306275263E+04  0.10100000352E+00 0.  1.
</event>
<event>
 5   0  0.1217200E-05  0.2573469E+04  0.7818609E-02  0.8377270E-01
        3   -1    0    0  501    0  0.00000000000E+00  0.00000000000E+00  0.14699609928E+04  0.14699609963E+04  0.10100000352E+00 0.  1.
       -3   -1    0    0    0  501  0.00000000000E+00  0.00000000000E+00 -0.11263462849E+04  0.11263462894E+04  0.10100000352E+00 0. -1.
    10030    2    1    2    0    0  0.00000000000E+00  0.00000000000E+00  0.34361470793E+03  0.25963072857E+04  0.25734685648E+04 0.  0.
        2    1    3    3  502    0 -0.88314876483E+03 -0.40104538518E+03  0.10248262453E+04  0.14110485374E+04  0.25500000920E-02 0.  1.
       -2    1    3    3    0  502  0.88314876483E+03  0.40104538518E+03 -0.68121153737E+03  0.11852587483E+04  0.25500000920E-02 0. -1.
</event>
<event>
 5   0  0.3499642E-05  0.2526291E+04  0.7818609E-02  0.8393679E-01
        2   -1    0    0  501    0  0.00000000000E+00  0.00000000000E+00  0.11084291213E+04  0.11084291213E+04  0.25500000920E-02 0. -1.
       -2   -1    0    0    0  501  0.00000000000E+00  0.00000000000E+00 -0.14394575745E+04  0.14394575745E+04  0.25500000920E-02 0.  1.
    10030    2    1    2    0    0  0.00000000000E+00  0.00000000000E+00 -0.33102845318E+03  0.25478866959E+04  0.25262911111E+04 0.  0.
        2    1    3    3  502    0 -0.17106003624E+03  0.45329288364E+02 -0.14268935037E+04  0.14378252159E+04  0.25500000920E-02 0.  1.
       -2    1    3    3    0  502  0.17106003624E+03 -0.45329288364E+02  0.10958650505E+04  0.11100614800E+04  0.25500000920E-02 0. -1.
</event>
<event>
 5   0  0.1497497E-05  0.2539609E+04  0.7818609E-02  0.8389009E-01
        1   -1    0    0  501    0  0.00000000000E+00  0.00000000000E+00  0.15133851116E+04  0.15133851116E+04  0.50400001928E-02 0. -1.
       -1   -1    0    0    0  501  0.00000000000E+00  0.00000000000E+00 -0.10654287356E+04  0.10654287356E+04  0.50400001928E-02 0.  1.
    10030    2    1    2    0    0  0.00000000000E+00  0.00000000000E+00  0.44795637605E+03  0.25788138472E+04  0.25396094077E+04 0.  0.
        3    1    3    3  502    0 -0.10516894100E+04 -0.71156059368E+03  0.21798089887E+03  0.12883651563E+04  0.10100000352E+00 0.  1.
       -3    1    3    3    0  502  0.10516894100E+04  0.71156059368E+03  0.22997547718E+03  0.12904486909E+04  0.10100000352E+00 0. -1.
</event>
<event>
 5   0  0.3849687E-05  0.2627125E+04  0.7818609E-02  0.8359045E-01
       -2   -1    0    0    0  501  0.00000000000E+00  0.00000000000E+00  0.11252081493E+04  0.11252081493E+04  0.25500000920E-02 0. -1.
        2   -1    0    0  501    0  0.00000000000E+00  0.00000000000E+00 -0.15334466600E+04  0.15334466600E+04  0.25500000920E-02 0.  1.
    10030    2    1    2    0    0  0.00000000000E+00  0.00000000000E+00 -0.40823851075E+03  0.26586548093E+04  0.26271251804E+04 0.  0.
        1    1    3    3  502    0 -0.15302164763E+03 -0.12459954507E+04 -0.59544652383E+03  0.13894160106E+04  0.50400001928E-02 0.  1.
       -1    1    3    3    0  502  0.15302164763E+03  0.12459954507E+04  0.18720801308E+03  0.12692387987E+04  0.50400001928E-02 0. -1.
</event>
<event>
 5   0  0.3441646E-05  0.2569354E+04  0.7818609E-02  0.8378686E-01
        2   -1    0    0  501    0  0.00000000000E+00  0.00000000000E+00  0.22169426342E+04  0.22169426342E+04  0.25500000920E-02 0. -1.
       -2   -1    0    0    0  501  0.00000000000E+00  0.00000000000E+00 -0.74444658308E+03  0.74444658309E+03  0.25500000920E-02 0.  1.
    10030    2    1    2    0    0  0.00000000000E+00  0.00000000000E+00  0.14724960511E+04  0.29613892173E+04  0.25693542916E+04 0.  0.
        4    1    3    3  502    0  0.10338754448E+04  0.93104283154E+02  0.16085828375E+04  0.19144469700E+04  0.12699999809E+01 0. -1.
       -4    1    3    3    0  502 -0.10338754448E+04 -0.93104283154E+02 -0.13608678643E+03  0.10469422473E+04  0.12699999809E+01 0.  1.
</event>
<event>
 5   0  0.1474554E-05  0.2467611E+04  0.7818609E-02  0.8414616E-01
       -1   -1    0    0    0  501  0.00000000000E+00  0.00000000000E+00  0.94400078694E+03  0.94400078695E+03  0.50400001928E-02 0. -1.
        1   -1    0    0  501    0  0.00000000000E+00  0.00000000000E+00 -0.16125788055E+04  0.16125788055E+04  0.50400001928E-02 0.  1.
    10030    2    1    2    0    0  0.00000000000E+00  0.00000000000E+00 -0.66857801857E+03  0.25565795925E+04  0.24676107160E+04 0.  0.
        5    1    3    3  502    0  0.94882751425E+03 -0.65277807888E+03 -0.79280693684E+03  0.13981980551E+04  0.46999998093E+01 0.  1.
       -5    1    3    3    0  502 -0.94882751425E+03  0.65277807888E+03  0.12422891828E+03  0.11583815374E+04  0.46999998093E+01 0. -1.
</event>
<event>
 5   0  0.3647623E-05  0.2578408E+04  0.7818609E-02  0.8375573E-01
        2   -1    0    0  501    0  0.00000000000E+00  0.00000000000E+00  0.26943356605E+04  0.26943356605E+04  0.25500000920E-02 0.  1.
       -2   -1    0    0    0  501  0.00000000000E+00  0.00000000000E+00 -0.61686709122E+03  0.61686709123E+03  0.25500000920E-02 0. -1.
    10030    2    1    2    0    0  0.00000000000E+00  0.00000000000E+00  0.20774685693E+04  0.33112027517E+04  0.25784080373E+04 0.  0.
        3    1    3    3  502    0  0.11105028470E+04  0.20843946681E+03  0.18359587793E+04  0.21557848302E+04  0.10100000352E+00 0.  1.
       -3    1    3    3    0  502 -0.11105028470E+04 -0.20843946681E+03  0.24150979000E+03  0.11554179216E+04  0.10100000352E+00 0. -1.
</event>
<event>
 5   0  0.3647623E-05  0.2421125E+04  0.7818609E-02  0.8431637E-01
        2   -1    0    0  501    0  0.00000000000E+00  0.00000000000E+00  0.13881780665E+04  0.13881780665E+04  0.25500000920E-02 0. -1.
       -2   -1    0    0    0  501  0.00000000000E+00  0.00000000000E+00 -0.10556722554E+04  0.10556722554E+04  0.25500000920E-02 0.  1.
    10030    2    1    2    0    0  0.00000000000E+00  0.00000000000E+00  0.33250581108E+03  0.24438503218E+04  0.24211245902E+04 0.  0.
        3    1    3    3  502    0 -0.40368081003E+03  0.94537030368E+03  0.81161156752E+03  0.13097314817E+04  0.10100000352E+00 0. -1.
       -3    1    3    3    0  502  0.40368081003E+03 -0.94537030368E+03 -0.47910575644E+03  0.11341188401E+04  0.10100000352E+00 0.  1.
</event>
<event>
 5   0  0.1435062E-05  0.2559463E+04  0.7818609E-02  0.8382103E-01
       -1   -1    0    0    0  501  0.00000000000E+00  0.00000000000E+00  0.87545521910E+03  0.87545521912E+03  0.50400001928E-02 0.  1.
        1   -1    0    0  501    0  0.00000000000E+00  0.00000000000E+00 -0.18706983542E+04  0.18706983542E+04  0.50400001928E-02 0. -1.
    10030    2    1    2    0    0  0.00000000000E+00  0.00000000000E+00 -0.99524313514E+03  0.27461535734E+04  0.25594629418E+04 0.  0.
        2    1    3    3  502    0  0.87166668077E+01  0.45967500174E+03  0.78378465379E+03  0.90867786978E+03  0.25500000920E-02 0.  1.
       -2    1    3    3    0  502 -0.87166668077E+01 -0.45967500174E+03 -0.17790277889E+04  0.18374757036E+04  0.25500000920E-02 0. -1.
</event>
<event>
 5   0  0.1474554E-05  0.2612965E+04  0.7818609E-02  0.8363811E-01
       -1   -1    0    0    0  501  0.00000000000E+00  0.00000000000E+00  0.93985175373E+03  0.93985175375E+03  0.50400001928E-02 0. -1.
        1   -1    0    0  501    0  0.00000000000E+00  0.00000000000E+00 -0.18161332272E+04  0.18161332273E+04  0.50400001928E-02 0.  1.
    10030    2    1    2    0    0  0.00000000000E+00  0.00000000000E+00 -0.87628147352E+03  0.27559849810E+04  0.26129645988E+04 0.  0.
        5    1    3    3  502    0  0.93254192085E+03 -0.86153037354E+03 -0.76324023591E+03  0.14813597694E+04  0.46999998093E+01 0. -1.
       -5    1    3    3    0  502 -0.93254192085E+03  0.86153037354E+03 -0.11304123761E+03  0.12746252116E+04  0.46999998093E+01 0.  1.
</event>
<event>
 5   0  0.1451052E-05  0.1808260E+04  0.7818609E-02  0.8701919E-01
        1   -1    0    0  501    0  0.00000000000E+00  0.00000000000E+00  0.18037882572E+04  0.18037882573E+04  0.50400001928E-02 0.  1.
       -1   -1    0    0    0  501  0.00000000000E+00  0.00000000000E+00 -0.45318587519E+03  0.45318587521E+03  0.50400001928E-02 0. -1.
    10030    2    1    2    0    0  0.00000000000E+00  0.00000000000E+00  0.13506023821E+04  0.22569741325E+04  0.18082603353E+04 0.  0.
        1    1    3    3  502    0 -0.23843534296E+03  0.80736427676E+03  0.26367219593E+03  0.88216297536E+03  0.50400001928E-02 0.  1.
       -1    1    3    3    0  502  0.23843534296E+03 -0.80736427676E+03  0.10869301861E+04  0.13748111571E+04  0.50400001928E-02 0. -1.
</event>
<event>
 5   0  0.3508470E-05  0.2606747E+04  0.7818609E-02  0.8365913E-01
        2   -1    0    0  501    0  0.00000000000E+00  0.00000000000E+00  0.21883520536E+04  0.21883520536E+04  0.25500000920E-02 0.  1.
       -2   -1    0    0    0  501  0.00000000000E+00  0.00000000000E+00 -0.77628404402E+03  0.77628404403E+03  0.25500000920E-02 0. -1.
    10030    2    1    2    0    0  0.00000000000E+00  0.00000000000E+00  0.14120680095E+04  0.29646360976E+04  0.26067472312E+04 0.  0.
        5    1    3    3  502    0 -0.83601950488E+02  0.45403095110E+03 -0.68017082372E+03  0.82206315458E+03  0.46999998093E+01 0. -1.
       -5    1    3    3    0  502  0.83601950488E+02 -0.45403095110E+03  0.20922388333E+04  0.21425729430E+04  0.46999998093E+01 0.  1.
</event>
<event>
 5   0  0.3647623E-05  0.2597246E+04  0.7818609E-02  0.8369137E-01
       -2   -1    0    0    0  501  0.00000000000E+00  0.00000000000E+00  0.71383968496E+03  0.71383968497E+03  0.25500000920E-02 0.  1.
        2   -1    0    0  501    0  0.00000000000E+00  0.00000000000E+00 -0.23624650138E+04  0.23624650138E+04  0.25500000920E-02 0. -1.
    10030    2    1    2    0    0  0.00000000000E+00  0.00000000000E+00 -0.16486253288E+04  0.30763046987E+04  0.25972456805E+04 0.  0.
        3    1    3    3  502    0  0.44823353551E+03 -0.72223244048E+03  0.33855331181E+03  0.91495975626E+03  0.10100000352E+00 0.  1.
       -3    1    3    3    0  502 -0.44823353551E+03  0.72223244048E+03 -0.19871786406E+04  0.21613449425E+04  0.10100000352E+00 0. -1.
</event>
<event>
 5   0  0.3441646E-05  0.2560948E+04  0.7818609E-02  0.8381588E-01
       -2   -1    0    0    0  501  0.00000000000E+00  0.00000000000E+00  0.11975964079E+04  0.11975964079E+04  0.25500000920E-02 0. -1.
        2   -1    0    0  501    0  0.00000000000E+00  0.00000000000E+00 -0.13690874665E+04  0.13690874665E+04  0.25500000920E-02 0.  1.
    10030    2    1    2    0    0  0.00000000000E+00  0.00000000000E+00 -0.17149105855E+03  0.25666838744E+04  0.25609484430E+04 0.  0.
        4    1    3    3  502    0 -0.45728161648E+03  0.95122275338E+03  0.64091715475E+03  0.12347905148E+04  0.12699999809E+01 0. -1.
       -4    1    3    3    0  502  0.45728161648E+03 -0.95122275338E+03 -0.81240821329E+03  0.13318933596E+04  0.12699999809E+01 0.  1.
</event>
<event>
 5   0  0.3647623E-05  0.2347206E+04  0.7818609E-02  0.8459538E-01
       -2   -1    0    0    0  501  0.00000000000E+00  0.00000000000E+00  0.96016785740E+03  0.96016785740E+03  0.25500000920E-02 0.  1.
        2   -1    0    0  501    0  0.00000000000E+00  0.00000000000E+00 -0.14344819890E+04  0.14344819890E+04  0.25500000920E-02 0. -1.
    10030    2    1    2    0    0  0.00000000000E+00  0.00000000000E+00 -0.47431413165E+03  0.23946498464E+04  0.23472055708E+04 0.  0.
        3    1    3    3  502    0 -0.26738381181E+03 -0.11391286388E+04 -0.14457403945E+03  0.11789867775E+04  0.10100000352E+00 0.  1.
       -3    1    3    3    0  502  0.26738381181E+03  0.11391286388E+04 -0.32974009220E+03  0.12156630689E+04  0.10100000352E+00 0. -1.
</event>
<event>
 5   0  0.1474554E-05  0.2551635E+04  0.7818609E-02  0.8384818E-01
       -1   -1    0    0    0  501  0.00000000000E+00  0.00000000000E+00  0.10823293740E+04  0.10823293740E+04  0.50400001928E-02 0.  1.
        1   -1    0    0  501    0  0.00000000000E+00  0.00000000000E+00 -0.15038955919E+04  0.15038955919E+04  0.50400001928E-02 0. -1.
    10030    2    1    2    0    0  0.00000000000E+00  0.00000000000E+00 -0.42156621797E+03  0.25862249659E+04  0.25516350637E+04 0.  0.
        5    1    3    3  502    0 -0.17079280102E+03 -0.34034180292E+03 -0.14449453851E+04  0.14942864450E+04  0.46999998093E+01 0. -1.
       -5    1    3    3    0  502  0.17079280102E+03  0.34034180292E+03  0.10233791672E+04  0.10919385209E+04  0.46999998093E+01 0.  1.
</event>
<event>
 5   0  0.1533248E-05  0.2515191E+04  0.7818609E-02  0.8397594E-01
       -1   -1    0    0    0  501  0.00000000000E+00  0.00000000000E+00  0.94081789366E+03  0.94081789368E+03  0.50400001928E-02 0. -1.
        1   -1    0    0  501    0  0.00000000000E+00  0.00000000000E+00 -0.16810335376E+04  0.16810335376E+04  0.50400001928E-02 0.  1.
    10030    2    1    2    0    0  0.00000000000E+00  0.00000000000E+00 -0.74021564397E+03  0.26218514313E+04  0.25151909924E+04 0.  0.
        4    1    3    3  502    0  0.38535114212E+03  0.86565384772E+03 -0.12320290782E+04  0.15542681073E+04  0.12699999809E+01 0.  1.
       -4    1    3    3    0  502 -0.38535114212E+03 -0.86565384772E+03  0.49181343423E+03  0.10675833241E+04  0.12699999809E+01 0. -1.
</event>
<event>
 5   0  0.1474554E-05  0.2610350E+04  0.7818609E-02  0.8364694E-01
       -1   -1    0    0    0  501  0.00000000000E+00  0.00000000000E+00  0.81089273453E+03  0.81089273454E+03  0.50400001928E-02 0. -1.
        1   -1    0    0  501    0  0.00000000000E+00  0.00000000000E+00 -0.21007492314E+04  0.21007492314E+04  0.50400001928E-02 0.  1.
    10030    2    1    2    0    0  0.00000000000E+00  0.00000000000E+00 -0.12898564969E+04  0.29116419660E+04  0.26103503894E+04 0.  0.
        5    1    3    3  502    0 -0.54217482714E+03 -0.48559266160E+03  0.56349453252E+03  0.92049006206E+03  0.46999998093E+01 0. -1.
       -5    1    3    3    0  502  0.54217482714E+03  0.48559266160E+03 -0.18533510294E+04  0.19911519039E+04  0.46999998093E+01 0.  1.
</event>
<event>
 5   0  0.1533248E-05  0.2641154E+04  0.7818609E-02  0.8354355E-01
       -1   -1    0    0    0  501  0.00000000000E+00  0.00000000000E+00  0.95282323453E+03  0.95282323454E+03  0.50400001928E-02 0.  1.
        1   -1    0    0  501    0  0.00000000000E+00  0.00000000000E+00 -0.18302696264E+04  0.18302696264E+04  0.50400001928E-02 0. -1.
    10030    2    1    2    0    0  0.00000000000E+00  0.00000000000E+00 -0.87744639186E+03  0.27830928609E+04  0.26411538581E+04 0.  0.
        4    1    3    3  502    0  0.28767972586E+03 -0.39737753041E+03  0.85323980589E+03  0.98421964297E+03  0.12699999809E+01 0.  1.
       -4    1    3    3    0  502 -0.28767972586E+03  0.39737753041E+03 -0.17306861977E+04  0.17988732180E+04  0.12699999809E+01 0. -1.
</event>
<event>
 5   0  0.3647623E-05  0.1820896E+04  0.7818609E-02  0.8695266E-01
       -2   -1    0    0    0  501  0.00000000000E+00  0.00000000000E+00  0.64990658945E+03  0.64990658945E+03  0.25500000920E-02 0. -1.
        2   -1    0    0  501    0  0.00000000000E+00  0.00000000000E+00 -0.12754374236E+04  0.12754374236E+04  0.25500000920E-02 0.  1.
    10030    2    1    2    0    0  0.00000000000E+00  0.00000000000E+00 -0.62553083417E+03  0.19253440131E+04  0.18208955885E+04 0.  0.
        3    1    3    3  502    0  0.26394817242E+03  0.43594106106E+03 -0.11104964313E+04  0.12218492462E+04  0.10100000352E+00 0.  1.
       -3    1    3    3    0  502 -0.26394817242E+03 -0.43594106106E+03  0.48496559708E+03  0.70349476686E+03  0.10100000352E+00 0. -1.
</event>
<event>
 5   0  0.1497497E-05  0.1771945E+04  0.7818609E-02  0.8721363E-01
       -1   -1    0    0    0  501  0.00000000000E+00  0.00000000000E+00  0.49529257824E+03  0.49529257826E+03  0.50400001928E-02 0.  1.
        1   -1    0    0  501    0  0.00000000000E+00  0.00000000000E+00 -0.15848155291E+04  0.15848155291E+04  0.50400001928E-02 0. -1.
    10030    2    1    2    0    0  0.00000000000E+00  0.00000000000E+00 -0.10895229509E+04  0.20801081074E+04  0.17719451114E+04 0.  0.
        3    1    3    3  502    0 -0.15694442037E+03 -0.28210708518E+03  0.42379184408E+03  0.53274336777E+03  0.10100000352E+00 0.  1.
       -3    1    3    3    0  502  0.15694442037E+03  0.28210708518E+03 -0.15133147950E+04  0.15473647396E+04  0.10100000352E+00 0. -1.
</event>
<event>
 5   0  0.3508470E-05  0.2659532E+04  0.7818609E-02  0.8348256E-01
        2   -1    0    0  501    0  0.00000000000E+00  0.00000000000E+00  0.16716430385E+04  0.16716430385E+04  0.25500000920E-02 0. -1.
       -2   -1    0    0    0  501  0.00000000000E+00  0.00000000000E+00 -0.10578081906E+04  0.10578081906E+04  0.25500000920E-02 0.  1.
    10030    2    1    2    0    0  0.00000000000E+00  0.00000000000E+00  0.61383484789E+03  0.27294512292E+04  0.26595320626E+04 0.  0.
        5    1    3    3  502    0  0.11641746867E+04  0.36846621108E+03  0.84724285386E+03  0.14862410953E+04  0.46999998093E+01 0. -1.
       -5    1    3    3    0  502 -0.11641746867E+04 -0.36846621108E+03 -0.23340800598E+03  0.12432101339E+04  0.46999998093E+01 0.  1.
</event>
<event>
 5   0  0.3647623E-05  0.2846449E+04  0.7818609E-02  0.8288991E-01
        2   -1    0    0  501    0  0.00000000000E+00  0.00000000000E+00  0.20465052335E+04  0.20465052335E+04  0.25500000920E-02 0. -1.
       -2   -1    0    0    0  501  0.00000000000E+00  0.00000000000E+00 -0.98976939987E+03  0.98976939988E+03  0.25500000920E-02 0.  1.
    10030    2    1    2    0    0  0.00000000000E+00  0.00000000000E+00  0.10567358336E+04  0.30362746333E+04  0.28464491963E+04 0.  0.
        3    1    3    3  502    0  0.13728479520E+04  0.31470955014E+03  0.31024473326E+03  0.14422223841E+04  0.10100000352E+00 0. -1.
       -3    1    3    3    0  502 -0.13728479520E+04 -0.31470955014E+03  0.74649110033E+03  0.15940522493E+04  0.10100000352E+00 0.  1.
</event>
<event>
 5   0  0.1497497E-05  0.2663562E+04  0.7818609E-02  0.8346925E-01
        1   -1    0    0  501    0  0.00000000000E+00  0.00000000000E+00  0.19403682565E+04  0.19403682565E+04  0.50400001928E-02 0. -1.
       -1   -1    0    0    0  501  0.00000000000E+00  0.00000000000E+00 -0.91407450321E+03  0.91407450322E+03  0.50400001928E-02 0.  1.
    10030    2    1    2    0    0  0.00000000000E+00  0.00000000000E+00  0.10262937533E+04  0.28544427597E+04  0.26635623891E+04 0.  0.
        3    1    3    3  502    0  0.53915388325E+03 -0.12175969629E+04  0.53489573119E+03  0.14350410194E+04  0.10100000352E+00 0.  1.
       -3    1    3    3    0  502 -0.53915388325E+03  0.12175969629E+04  0.49139802208E+03  0.14194017403E+04  0.10100000352E+00 0. -1.
</event>
<event>
 5   0  0.3441646E-05  0.2588050E+04  0.7818609E-02  0.8372272E-01
       -2   -1    0    0    0  501  0.00000000000E+00  0.00000000000E+00  0.68570347250E+03  0.68570347251E+03  0.25500000920E-02 0.  1.
        2   -1    0    0  501    0  0.00000000000E+00  0.00000000000E+00 -0.24420188070E+04  0.24420188070E+04  0.25500000920E-02 0. -1.
    10030    2    1    2    0    0  0.00000000000E+00  0.00000000000E+00 -0.17563153345E+04  0.31277222795E+04  0.25880500582E+04 0.  0.
        4    1    3    3  502    0 -0.10116917495E+04 -0.73663919649E+03 -0.12759471134E+04  0.17872325397E+04  0.12699999809E+01 0. -1.
       -4    1    3    3    0  502  0.10116917495E+04  0.73663919649E+03 -0.48036822103E+03  0.13404897398E+04  0.12699999809E+01 0.  1.
</event>
<event>
 5   0  0.1217200E-05  0.2568923E+04  0.7818609E-02  0.8378835E-01
        4   -1    0    0  501    0  0.00000000000E+00  0.00000000000E+00  0.10109312466E+04  0.10109320444E+04  0.12699999809E+01 0.  1.
       -4   -1    0    0    0  501  0.00000000000E+00  0.00000000000E+00 -0.16319999382E+04  0.16320004324E+04  0.12699999809E+01 0. -1.
    10030    2    1    2    0    0  0.00000000000E+00  0.00000000000E+00 -0.62106869161E+03  0.26429324768E+04  0.25689230734E+04 0.  0.
        4    1    3    3  502    0 -0.46495375194E+03  0.21188628133E+02  0.92112246538E+03  0.10320364134E+04  0.12699999809E+01 0.  1.
       -4    1    3    3    0  502  0.46495375194E+03 -0.21188628133E+02 -0.15421911570E+04  0.16108960634E+04  0.12699999809E+01 0. -1.
</event>
<event>
 5   0  0.1435062E-05  0.2630951E+04  0.7818609E-02  0.8357763E-01
       -1   -1    0    0    0  501  0.00000000000E+00  0.00000000000E+00  0.14615145293E+04  0.14615145293E+04  0.50400001928E-02 0.  1.
        1   -1    0    0  501    0  0.00000000000E+00  0.00000000000E+00 -0.11840288118E+04  0.11840288118E+04  0.50400001928E-02 0. -1.
    10030    2    1    2    0    0  0.00000000000E+00  0.00000000000E+00  0.27748571758E+03  0.26455433411E+04  0.26309506355E+04 0.  0.
        2    1    3    3  502    0 -0.65834327000E+03 -0.12458617728E+03 -0.99958635232E+03  0.12033746102E+04  0.25500000920E-02 0. -1.
       -2    1    3    3    0  502  0.65834327000E+03  0.12458617728E+03  0.12770720699E+04  0.14421687309E+04  0.25500000920E-02 0.  1.
</event>
<event>
 5   0  0.1533248E-05  0.2560471E+04  0.7818609E-02  0.8381754E-01
        1   -1    0    0  501    0  0.00000000000E+00  0.00000000000E+00  0.19246912300E+04  0.19246912300E+04  0.50400001928E-02 0.  1.
       -1   -1    0    0    0  501  0.00000000000E+00  0.00000000000E+00 -0.85156654134E+03  0.85156654135E+03  0.50400001928E-02 0. -1.
    10030    2    1    2    0    0  0.00000000000E+00  0.00000000000E+00  0.10731246887E+04  0.27762577714E+04  0.25604707801E+04 0.  0.
        4    1    3    3  502    0 -0.91591918286E+03  0.22320826051E+03 -0.40261820725E+03  0.10251014149E+04  0.12699999809E+01 0. -1.
       -4    1    3    3    0  502  0.91591918286E+03 -0.22320826051E+03  0.14757428959E+04  0.17511563565E+04  0.12699999809E+01 0.  1.
</event>
<event>
 5   0  0.1497497E-05  0.2800131E+04  0.7818609E-02  0.8303228E-01
       -1   -1    0    0    0  501  0.00000000000E+00  0.00000000000E+00  0.85862353609E+03  0.85862353611E+03  0.50400001928E-02 0.  1.
        1   -1    0    0  501    0  0.00000000000E+00  0.00000000000E+00 -0.22829370768E+04  0.22829370768E+04  0.50400001928E-02 0. -1.
    10030    2    1    2    0    0  0.00000000000E+00  0.00000000000E+00 -0.14243135407E+04  0.31415606129E+04  0.28001310723E+04 0.  0.
        3    1    3    3  502    0 -0.61639670556E+03 -0.10238774066E+04 -0.15304098553E+04  0.19417580122E+04  0.10100000352E+00 0. -1.
       -3    1    3    3    0  502  0.61639670556E+03  0.10238774066E+04  0.10609631464E+03  0.11998026007E+04  0.10100000352E+00 0.  1.
</event>
<event>
 5   0  0.1474554E-05  0.2543584E+04  0.7818609E-02  0.8387621E-01
        1   -1    0    0  501    0  0.00000000000E+00  0.00000000000E+00  0.20820348976E+04  0.20820348976E+04  0.50400001928E-02 0.  1.
       -1   -1    0    0    0  501  0.00000000000E+00  0.00000000000E+00 -0.77686272516E+03  0.77686272518E+03  0.50400001928E-02 0. -1.
    10030    2    1    2    0    0  0.00000000000E+00  0.00000000000E+00  0.13051721725E+04  0.28588976228E+04  0.25435843249E+04 0.  0.
        5    1    3    3  502    0 -0.45819708546E+02 -0.73309678594E+03 -0.51433712372E+03  0.89671350502E+03  0.46999998093E+01 0. -1.
       -5    1    3    3    0  502  0.45819708546E+02  0.73309678594E+03  0.18195092962E+04  0.19621841178E+04  0.46999998093E+01 0.  1.
</event>
<event>
 5   0  0.3647623E-05  0.2569541E+04  0.7818609E-02  0.8378621E-01
       -2   -1    0    0    0  501  0.00000000000E+00  0.00000000000E+00  0.13335705809E+04  0.13335705809E+04  0.25500000920E-02 0. -1.
        2   -1    0    0  501    0  0.00000000000E+00  0.00000000000E+00 -0.12377565651E+04  0.12377565651E+04  0.25500000920E-02 0.  1.
    10030    2    1    2    0    0  0.00000000000E+00  0.00000000000E+00  0.95814015746E+02  0.25713271460E+04  0.25695413922E+04 0.  0.
        3    1    3    3  502    0  0.11063716130E+04 -0.86228601126E+02  0.69576887472E+03  0.13098045102E+04  0.10100000352E+00 0. -1.
       -3    1    3    3    0  502 -0.11063716130E+04  0.86228601126E+02 -0.59995485897E+03  0.12615226358E+04  0.10100000352E+00 0.  1.
</event>
<event>
 5   0  0.1451052E-05  0.2539441E+04  0.7818609E-02  0.8389068E-01
       -1   -1    0    0    0  501  0.00000000000E+00  0.00000000000E+00  0.75069935917E+03  0.75069935918E+03  0.50400001928E-02 0.  1.
        1   -1    0    0  501    0  0.00000000000E+00  0.00000000000E+00 -0.21475843131E+04  0.21475843131E+04  0.50400001928E-02 0. -1.
    10030    2    1    2    0    0  0.00000000000E+00  0.00000000000E+00 -0.13968849539E+04  0.28982836723E+04  0.25394410154E+04 0.  0.
        1    1    3    3  502    0  0.19805844772E+03 -0.62370148795E+03 -0.19402983021E+04  0.20476787336E+04  0.50400001928E-02 0. -1.
       -1    1    3    3    0  502 -0.19805844772E+03  0.62370148795E+03  0.54341334816E+03  0.85060493872E+03  0.50400001928E-02 0.  1.
</event>
<event>
 5   0  0.3849687E-05  0.2639720E+04  0.7818609E-02  0.8354833E-01
       -2   -1    0    0    0  501  0.00000000000E+00  0.00000000000E+00  0.99848503643E+03  0.99848503643E+03  0.25500000920E-02 0. -1.
        2   -1    0    0  501    0  0.00000000000E+00  0.00000000000E+00 -0.17446730773E+04  0.17446730773E+04  0.25500000920E-02 0.  1.
    10030    2    1    2    0    0  0.00000000000E+00  0.00000000000E+00 -0.74618804089E+03  0.27431581137E+04  0.26397196527E+04 0.  0.
        1    1    3    3  502    0  0.46494733849E+03 -0.10000416610E+04 -0.11266077812E+04  0.15765482689E+04  0.50400001928E-02 0.  1.
       -1    1    3    3    0  502 -0.46494733849E+03  0.10000416610E+04  0.38041974033E+03  0.11666098449E+04  0.50400001928E-02 0. -1.
</event>
<event>
 5   0  0.1497497E-05  0.2605404E+04  0.7818609E-02  0.8366368E-01
        1   -1    0    0  501    0  0.00000000000E+00  0.00000000000E+00  0.12090064750E+04  0.12090064750E+04  0.50400001928E-02 0.  1.
       -1   -1    0    0    0  501  0.00000000000E+00  0.00000000000E+00 -0.14036581983E+04  0.14036581983E+04  0.50400001928E-02 0. -1.
    10030    2    1    2    0    0  0.00000000000E+00  0.00000000000E+00 -0.19465172334E+03  0.26126646733E+04  0.26054035007E+04 0.  0.
        3    1    3    3  502    0 -0.47039767245E+03  0.78987929892E+02  0.11182896986E+04  0.12157651597E+04  0.10100000352E+00 0.  1.
       -3    1    3    3    0  502  0.47039767245E+03 -0.78987929892E+02 -0.13129414220E+04  0.13968995136E+04  0.10100000352E+00 0. -1.
</event>
<event>
 5   0  0.1435062E-05  0.2589058E+04  0.7818609E-02  0.8371928E-01
        1   -1    0    0  501    0  0.00000000000E+00  0.00000000000E+00  0.19283802468E+04  0.19283802468E+04  0.50400001928E-02 0.  1.
       -1   -1    0    0    0  501  0.00000000000E+00  0.00000000000E+00 -0.86902196580E+03  0.86902196582E+03  0.50400001928E-02 0. -1.
    10030    2    1    2    0    0  0.00000000000E+00  0.00000000000E+00  0.10593582810E+04  0.27974022126E+04  0.25890575837E+04 0.  0.
        2    1    3    3  502    0  0.11195985998E+04 -0.51610996751E+03  0.95634116485E+03  0.15602752792E+04  0.25500000920E-02 0.  1.
       -2    1    3    3    0  502 -0.11195985998E+04  0.51610996751E+03  0.10301711611E+03  0.12371269334E+04  0.25500000920E-02 0. -1.
</event>
<event>
 5   0  0.1474554E-05  0.2572474E+04  0.7818609E-02  0.8377612E-01
       -1   -1    0    0    0  501  0.00000000000E+00  0.00000000000E+00  0.83138754147E+03  0.83138754149E+03  0.50400001928E-02 0. -1.
        1   -1    0    0  501    0  0.00000000000E+00  0.00000000000E+00 -0.19899331121E+04  0.19899331121E+04  0.50400001928E-02 0.  1.
    10030    2    1    2    0    0  0.00000000000E+00  0.00000000000E+00 -0.11585455706E+04  0.28213206536E+04  0.25724739826E+04 0.  0.
        5    1    3    3  502    0  0.62997719275E+03 -0.72474041127E+03 -0.15177747249E+04  0.17960462501E+04  0.46999998093E+01 0.  1.
       -5    1    3    3    0  502 -0.62997719275E+03  0.72474041127E+03  0.35922915426E+03  0.10252744035E+04  0.46999998093E+01 0. -1.
</event>
<event>
 5   0  0.3508470E-05  0.2578828E+04  0.7818609E-02  0.8375429E-01
       -2   -1    0    0    0  501  0.00000000000E+00  0.00000000000E+00  0.14674926336E+04  0.14674926336E+04  0.25500000920E-02 0. -1.
        2   -1    0    0  501    0  0.00000000000E+00  0.00000000000E+00 -0.11329452265E+04  0.11329452265E+04  0.25500000920E-02 0.  1.
    10030    2    1    2    0    0  0.00000000000E+00  0.00000000000E+00  0.33454740715E+03  0.26004378601E+04  0.25788282410E+04 0.  0.
        5    1    3    3  502    0 -0.74641658213E+03 -0.55051615456E+03  0.10705257420E+04  0.14164226787E+04  0.46999998093E+01 0. -1.
       -5    1    3    3    0  502  0.74641658213E+03  0.55051615456E+03 -0.73597833482E+03  0.11840151814E+04  0.46999998093E+01 0.  1.
</event>
<event>
 5   0  0.3508470E-05  0.3192562E+04  0.7818609E-02  0.8190784E-01
        2   -1    0    0  501    0  0.00000000000E+00  0.00000000000E+00  0.19965993712E+04  0.19965993712E+04  0.25500000920E-02 0.  1.
       -2   -1    0    0    0  501  0.00000000000E+00  0.00000000000E+00 -0.12762266842E+04  0.12762266842E+04  0.25500000920E-02 0. -1.
    10030    2    1    2    0    0  0.00000000000E+00  0.00000000000E+00  0.72037268701E+03  0.32728260555E+04  0.31925622282E+04 0.  0.
        5    1    3    3  502    0 -0.13574023221E+04  0.14107759872E+03 -0.48866952317E+03  0.14495737117E+04  0.46999998093E+01 0. -1.
       -5    1    3    3    0  502  0.13574023221E+04 -0.14107759872E+03  0.12090422102E+04  0.18232523437E+04  0.46999998093E+01 0.  1.
</event>
<event>
 5   0  0.3508470E-05  0.2586219E+04  0.7818609E-02  0.8372897E-01
       -2   -1    0    0    0  501  0.00000000000E+00  0.00000000000E+00  0.84982329142E+03  0.84982329142E+03  0.25500000920E-02 0.  1.
        2   -1    0    0  501    0  0.00000000000E+00  0.00000000000E+00 -0.19676240028E+04  0.19676240028E+04  0.25500000920E-02 0. -1.
    10030    2    1    2    0    0  0.00000000000E+00  0.00000000000E+00 -0.11178007114E+04  0.28174472943E+04  0.25862194078E+04 0.  0.
        5    1    3    3  502    0 -0.10302153230E+03 -0.14849237577E+03  0.83598704159E+03  0.85531271794E+03  0.46999998093E+01 0.  1.
       -5    1    3    3    0  502  0.10302153230E+03  0.14849237577E+03 -0.19537877530E+04  0.19621345763E+04  0.46999998093E+01 0. -1.
</event>
<event>
 5   0  0.1533248E-05  0.2685182E+04  0.7818609E-02  0.8339829E-01
       -1   -1    0    0    0  501  0.00000000000E+00  0.00000000000E+00  0.76103682772E+03  0.76103682773E+03  0.50400001928E-02 0.  1.
        1   -1    0    0  501    0  0.00000000000E+00  0.00000000000E+00 -0.23685450708E+04  0.23685450708E+04  0.50400001928E-02 0. -1.
    10030    2    1    2    0    0  0.00000000000E+00  0.00000000000E+00 -0.16075082431E+04  0.31295818985E+04  0.26851815782E+04 0.  0.
        4    1    3    3  502    0  0.19099217617E+03 -0.39714549931E+03 -0.22818492452E+04  0.23240138015E+04  0.12699999809E+01 0. -1.
       -4    1    3    3    0  502 -0.19099217617E+03  0.39714549931E+03  0.67434100208E+03  0.80556809704E+03  0.12699999809E+01 0.  1.
</event>
<event>
 5   0  0.3499642E-05  0.2557730E+04  0.7818609E-02  0.8382703E-01
        2   -1    0    0  501    0  0.00000000000E+00  0.00000000000E+00  0.15709666054E+04  0.15709666054E+04  0.25500000920E-02 0.  1.
       -2   -1    0    0    0  501  0.00000000000E+00  0.00000000000E+00 -0.10410761737E+04  0.10410761737E+04  0.25500000920E-02 0. -1.
    10030    2    1    2    0    0  0.00000000000E+00  0.00000000000E+00  0.52989043176E+03  0.26120427791E+04  0.25577301676E+04 0.  0.
        2    1    3    3  502    0 -0.60369141493E+03 -0.94703854043E+03  0.88962921034E+03  0.14327475191E+04  0.25500000920E-02 0.  1.
       -2    1    3    3    0  502  0.60369141493E+03  0.94703854043E+03 -0.35973877858E+03  0.11792952600E+04  0.25500000920E-02 0. -1.
</event>
<event>
 5   0  0.3647623E-05  0.2212522E+04  0.7818609E-02  0.8513234E-01
        2   -1    0    0  501    0  0.00000000000E+00  0.00000000000E+00  0.30144409698E+04  0.30144409698E+04  0.25500000920E-02 0.  1.
       -2   -1    0    0    0  501  0.00000000000E+00  0.00000000000E+00 -0.40598340163E+03  0.40598340164E+03  0.25500000920E-02 0. -1.
    10030    2    1    2    0    0  0.00000000000E+00  0.00000000000E+00  0.26084575682E+04  0.34204243715E+04  0.22125216374E+04 0.  0.
        3    1    3    3  502    0 -0.31426624005E+03  0.22370242721E+03  0.29070980450E+04  0.29325799391E+04  0.10100000352E+00 0.  1.
       -3    1    3    3    0  502  0.31426624005E+03 -0.22370242721E+03 -0.29864047684E+03  0.48784443236E+03  0.10100000352E+00 0. -1.
</event>
<event>
 5   0  0.1497497E-05  0.2598813E+04  0.7818609E-02  0.8368604E-01
       -1   -1    0    0    0  501  0.00000000000E+00  0.00000000000E+00  0.14610349513E+04  0.14610349513E+04  0.50400001928E-02 0. -1.
        1   -1    0    0  501    0  0.00000000000E+00  0.00000000000E+00 -0.11556586140E+04  0.11556586140E+04  0.50400001928E-02 0.  1.
    10030    2    1    2    0    0  0.00000000000E+00  0.00000000000E+00  0.30537633732E+03  0.26166935653E+04  0.25988132882E+04 0.  0.
        3    1    3    3  502    0 -0.12440198790E+04  0.85015057799E+02  0.52077772086E+03  0.13513039866E+04  0.10100000352E+00 0. -1.
       -3    1    3    3    0  502  0.12440198790E+04 -0.85015057799E+02 -0.21540138354E+03  0.12653895786E+04  0.10100000352E+00 0.  1.
</event>
<event>
 5   0  0.3647623E-05  0.2623050E+04  0.7818609E-02  0.8360414E-01
       -2   -1    0    0    0  501  0.00000000000E+00  0.00000000000E+00  0.17254984091E+04  0.17254984091E+04  0.25500000920E-02 0. -1.
        2   -1    0    0  501    0  0.00000000000E+00  0.00000000000E+00 -0.99686976015E+03  0.99686976015E+03  0.25500000920E-02 0.  1.
    10030    2    1    2    0    0  0.00000000000E+00  0.00000000000E+00  0.72862864893E+03  0.27223681692E+04  0.26230495117E+04 0.  0.
        3    1    3    3  502    0 -0.52110917817E+03  0.87107880717E+03 -0.49765273028E+03  0.11304827792E+04  0.10100000352E+00 0.  1.
       -3    1    3    3    0  502  0.52110917817E+03 -0.87107880717E+03  0.12262813792E+04  0.15918853901E+04  0.10100000352E+00 0. -1.
</event>
<event>
 5   0  0.1533248E-05  0.2746052E+04  0.7818609E-02  0.8320216E-01
        1   -1    0    0  501    0  0.00000000000E+00  0.00000000000E+00  0.17102156936E+04  0.17102156936E+04  0.50400001928E-02 0. -1.
       -1   -1    0    0    0  501  0.00000000000E+00  0.00000000000E+00 -0.11023169499E+04  0.11023169499E+04  0.50400001928E-02 0.  1.
    10030    2    1    2    0    0  0.00000000000E+00  0.00000000000E+00  0.60789874373E+03  0.28125326435E+04  0.27460515268E+04 0.  0.
        4    1    3    3  502    0  0.91349501291E+03  0.10224753008E+04  0.22960236586E+03  0.13901970144E+04  0.12699999809E+01 0. -1.
       -4    1    3    3    0  502 -0.91349501291E+03 -0.10224753008E+04  0.37829637788E+03  0.14223356291E+04  0.12699999809E+01 0.  1.
</event>
<event>
 5   0  0.3508470E-05  0.2617899E+04  0.7818609E-02  0.8362147E-01
        2   -1    0    0  501    0  0.00000000000E+00  0.00000000000E+00  0.21128968394E+04  0.21128968394E+04  0.25500000920E-02 0.  1.
       -2   -1    0    0    0  501  0.00000000000E+00  0.00000000000E+00 -0.81090014220E+03  0.81090014221E+03  0.25500000920E-02 0. -1.
    10030    2    1    2    0    0  0.00000000000E+00  0.00000000000E+00  0.13019966972E+04  0.29237969816E+04  0.26178986593E+04 0.  0.
        5    1    3    3  502    0 -0.38487908252E+03  0.11164531046E+04  0.12815253420E+04  0.17426786093E+04  0.46999998093E+01 0. -1.
       -5    1    3    3    0  502  0.38487908252E+03 -0.11164531046E+04  0.20471355135E+02  0.11811183723E+04  0.46999998093E+01 0.  1.
</event>
<event>
 5   0  0.1497497E-05  0.2488851E+04  0.7818609E-02  0.8406968E-01
        1   -1    0    0  501    0  0.00000000000E+00  0.00000000000E+00  0.13754013856E+04  0.13754013856E+04  0.50400001928E-02 0.  1.
       -1   -1    0    0    0  501  0.00000000000E+00  0.00000000000E+00 -0.11259216608E+04  0.11259216608E+04  0.50400001928E-02 0. -1.
    10030    2    1    2    0    0  0.00000000000E+00  0.00000000000E+00  0.24947972479E+03  0.25013230464E+04  0.24888505076E+04 0.  0.
        3    1    3    3  502    0 -0.38781074495E+03  0.11614978227E+04 -0.98000759066E+02  0.12284455727E+04  0.10100000352E+00 0. -1.
       -3    1    3    3    0  502  0.38781074495E+03 -0.11614978227E+04  0.34748048386E+03  0.12728774737E+04  0.10100000352E+00 0.  1.
</event>
<event>
 5   0  0.3499642E-05  0.2088538E+04  0.7818609E-02  0.8566309E-01
       -2   -1    0    0    0  501  0.00000000000E+00  0.00000000000E+00  0.45755194734E+03  0.45755194735E+03  0.25500000920E-02 0. -1.
        2   -1    0    0  501    0  0.00000000000E+00  0.00000000000E+00 -0.23833319464E+04  0.23833319464E+04  0.25500000920E-02 0.  1.
    10030    2    1    2    0    0  0.00000000000E+00  0.00000000000E+00 -0.19257799991E+04  0.28408838938E+04  0.20885384107E+04 0.  0.
        2    1    3    3  502    0 -0.76311782626E+03 -0.28609896841E+03 -0.18510005346E+04  0.20224748244E+04  0.25500000920E-02 0.  1.
       -2    1    3    3    0  502  0.76311782626E+03  0.28609896841E+03 -0.74779464527E+02  0.81840906936E+03  0.25500000920E-02 0. -1.
</event>
<event>
 5   0  0.1474554E-05  0.2581993E+04  0.7818609E-02  0.8374344E-01
        1   -1    0    0  501    0  0.00000000000E+00  0.00000000000E+00  0.12073772883E+04  0.12073772883E+04  0.50400001928E-02 0. -1.
       -1   -1    0    0    0  501  0.00000000000E+00  0.00000000000E+00 -0.13804064517E+04  0.13804064517E+04  0.50400001928E-02 0.  1.
    10030    2    1    2    0    0  0.00000000000E+00  0.00000000000E+00 -0.17302916341E+03  0.25877837400E+04  0.25819925626E+04 0.  0.
        5    1    3    3  502    0  0.89550958002E+03 -0.12293070168E+03  0.83729025145E+03  0.12321227295E+04  0.46999998093E+01 0. -1.
       -5    1    3    3    0  502 -0.89550958002E+03  0.12293070168E+03 -0.10103194149E+04  0.13556610105E+04  0.46999998093E+01 0.  1.
</event>
<event>
 5   0  0.1435062E-05  0.2563889E+04  0.7818609E-02  0.8380572E-01
       -1   -1    0    0    0  501  0.00000000000E+00  0.00000000000E+00  0.71322353411E+03  0.71322353413E+03  0.50400001928E-02 0.  1.
        1   -1    0    0  501    0  0.00000000000E+00  0.00000000000E+00 -0.23041613102E+04  0.23041613102E+04  0.50400001928E-02 0. -1.
    10030    2    1    2    0    0  0.00000000000E+00  0.00000000000E+00 -0.15909377761E+04  0.30173848443E+04  0.25638892900E+04 0.  0.
        2    1    3    3  502    0 -0.12070880465E+02 -0.63326604943E+02 -0.23022524290E+04  0.23031548389E+04  0.25500000920E-02 0. -1.
       -2    1    3    3    0  502  0.12070880465E+02  0.63326604943E+02  0.71131465297E+03  0.71423000538E+03  0.25500000920E-02 0.  1.
</event>
<event>
 5   0  0.1474554E-05  0.2609422E+04  0.7818609E-02  0.8365008E-01
        1   -1    0    0  501    0  0.00000000000E+00  0.00000000000E+00  0.11606394982E+04  0.11606394982E+04  0.50400001928E-02 0.  1.
       -1   -1    0    0    0  501  0.00000000000E+00  0.00000000000E+00 -0.14666660366E+04  0.14666660366E+04  0.50400001928E-02 0. -1.
    10030    2    1    2    0    0  0.00000000000E+00  0.00000000000E+00 -0.30602653836E+03  0.26273055348E+04  0.26094218001E+04 0.  0.
        5    1    3    3  502    0  0.10158535765E+04  0.62682076203E+03  0.37727047934E+03  0.12518857221E+04  0.46999998093E+01 0.  1.
       -5    1    3    3    0  502 -0.10158535765E+04 -0.62682076203E+03 -0.68329701770E+03  0.13754198127E+04  0.46999998093E+01 0. -1.
</event>
<event>
 5   0  0.3508470E-05  0.2636304E+04  0.7818609E-02  0.8355973E-01
       -2   -1    0    0    0  501  0.00000000000E+00  0.00000000000E+00  0.20175421750E+04  0.20175421750E+04  0.25500000920E-02 0. -1.
        2   -1    0    0  501    0  0.00000000000E+00  0.00000000000E+00 -0.86120844419E+03  0.86120844420E+03  0.25500000920E-02 0.  1.
    10030    2    1    2    0    0  0.00000000000E+00  0.00000000000E+00  0.11563337308E+04  0.28787506192E+04  0.26363037440E+04 0.  0.
        5    1    3    3  502    0 -0.66794602654E+03  0.47580690703E+02  0.18179611213E+04  0.19373746527E+04  0.46999998093E+01 0. -1.
       -5    1    3    3    0  502  0.66794602654E+03 -0.47580690703E+02 -0.66162739046E+03  0.94137596650E+03  0.46999998093E+01 0.  1.
</event>
<event>
 5   0  0.1474554E-05  0.2552205E+04  0.7818609E-02  0.8384620E-01
        1   -1    0    0  501    0  0.00000000000E+00  0.00000000000E+00  0.11669945038E+04  0.11669945039E+04  0.50400001928E-02 0. -1.
       -1   -1    0    0    0  501  0.00000000000E+00  0.00000000000E+00 -0.13954112110E+04  0.13954112110E+04  0.50400001928E-02 0.  1.
    10030    2    1    2    0    0  0.00000000000E+00  0.00000000000E+00 -0.22841670716E+03  0.25624057149E+04  0.25522047049E+04 0.  0.
        5    1    3    3  502    0  0.20264802024E+02 -0.30301513259E+03 -0.13585921057E+04  0.13921291005E+04  0.46999998093E+01 0.  1.
       -5    1    3    3    0  502 -0.20264802024E+02  0.30301513259E+03  0.11301753985E+04  0.11702766144E+04  0.46999998093E+01 0. -1.
</event>
<event>
 5   0  0.3849687E-05  0.1807708E+04  0.7818609E-02  0.8702211E-01
       -2   -1    0    0    0  501  0.00000000000E+00  0.00000000000E+00  0.13861546536E+04  0.13861546536E+04  0.25500000920E-02 0.  1.
        2   -1    0    0  501    0  0.00000000000E+00  0.00000000000E+00 -0.58936604475E+03  0.58936604475E+03  0.25500000920E-02 0. -1.
    10030    2    1    2    0    0  0.00000000000E+00  0.00000000000E+00  0.79678860890E+03  0.19755206984E+04  0.18077084783E+04 0.  0.
        1    1    3    3  502    0  0.24469154348E+03 -0.69078875352E+03  0.97655217210E+03  0.12209493021E+04  0.50400001928E-02 0.  1.
       -1    1    3    3    0  502 -0.24469154348E+03  0.69078875352E+03 -0.17976356321E+03  0.75457139630E+03  0.50400001928E-02 0. -1.
</event>
<event>
 5   0  0.3508470E-05  0.2599039E+04  0.7818609E-02  0.8368528E-01
       -2   -1    0    0    0  501  0.00000000000E+00  0.00000000000E+00  0.12718016056E+04  0.12718016056E+04  0.25500000920E-02 0.  1.
        2   -1    0    0  501    0  0.00000000000E+00  0.00000000000E+00 -0.13278418954E+04  0.13278418954E+04  0.25500000920E-02 0. -1.
    10030    2    1    2    0    0  0.00000000000E+00  0.00000000000E+00 -0.56040289807E+02  0.25996435010E+04  0.25990394029E+04 0.  0.
        5    1    3    3  502    0  0.94498764047E+03 -0.72980753207E+03  0.48504029364E+03  0.12887617510E+04  0.46999998093E+01 0.  1.
       -5    1    3    3    0  502 -0.94498764047E+03  0.72980753207E+03 -0.54108058344E+03  0.13108817499E+04  0.46999998093E+01 0. -1.
</event>
<event>
 5   0  0.3508470E-05  0.2594170E+04  0.7818609E-02  0.8370184E-01
       -2   -1    0    0    0  501  0.00000000000E+00  0.00000000000E+00  0.14563080206E+04  0.14563080206E+04  0.25500000920E-02 0. -1.
        2   -1    0    0  501    0  0.00000000000E+00  0.00000000000E+00 -0.11552702758E+04  0.11552702758E+04  0.25500000920E-02 0.  1.
    10030    2    1    2    0    0  0.00000000000E+00  0.00000000000E+00  0.30103774485E+03  0.26115782964E+04  0.25941699009E+04 0.  0.
        5    1    3    3  502    0 -0.23653645712E+03  0.10483685506E+04 -0.58056456029E+03  0.12215168489E+04  0.46999998093E+01 0.  1.
       -5    1    3    3    0  502  0.23653645712E+03 -0.10483685506E+04  0.88160230514E+03  0.13900614475E+04  0.46999998093E+01 0. -1.
</event>
<event>
 5   0  0.1474554E-05  0.2605038E+04  0.7818609E-02  0.8366492E-01
        1   -1    0    0  501    0  0.00000000000E+00  0.00000000000E+00  0.21139186955E+04  0.21139186955E+04  0.50400001928E-02 0.  1.
       -1   -1    0    0    0  501  0.00000000000E+00  0.00000000000E+00 -0.80256441580E+03  0.80256441582E+03  0.50400001928E-02 0. -1.
    10030    2    1    2    0    0  0.00000000000E+00  0.00000000000E+00  0.13113542797E+04  0.29164831113E+04  0.26050381363E+04 0.  0.
        5    1    3    3  502    0  0.10206218924E+04  0.73362886578E+03  0.10380563017E+04  0.16301727931E+04  0.46999998093E+01 0.  1.
       -5    1    3    3    0  502 -0.10206218924E+04 -0.73362886578E+03  0.27329797800E+03  0.12863103182E+04  0.46999998093E+01 0. -1.
</event>
<event>
 5   0  0.1474554E-05  0.2561609E+04  0.7818609E-02  0.8381360E-01
        1   -1    0    0  501    0  0.00000000000E+00  0.00000000000E+00  0.16074545400E+04  0.16074545400E+04  0.50400001928E-02 0. -1.
       -1   -1    0    0    0  501  0.00000000000E+00  0.00000000000E+00 -0.10205325487E+04  0.10205325487E+04  0.50400001928E-02 0.  1.
    10030    2    1    2    0    0  0.00000000000E+00  0.00000000000E+00  0.58692199130E+03  0.26279870887E+04  0.25616086185E+04 0.  0.
        5    1    3    3  502    0 -0.12209543021E+04  0.38434520012E+03  0.33919125876E+03  0.13242067213E+04  0.46999998093E+01 0.  1.
       -5    1    3    3    0  502  0.12209543021E+04 -0.38434520012E+03  0.24773073255E+03  0.13037803674E+04  0.46999998093E+01 0. -1.
</event>
<event>
 5   0  0.3508470E-05  0.2693098E+04  0.7818609E-02  0.8337248E-01
        2   -1    0    0  501    0  0.00000000000E+00  0.00000000000E+00  0.12048879879E+04  0.12048879879E+04  0.25500000920E-02 0.  1.
       -2   -1    0    0    0  501  0.00000000000E+00  0.00000000000E+00 -0.15048648333E+04  0.15048648333E+04  0.25500000920E-02 0. -1.
    10030    2    1    2    0    0  0.00000000000E+00  0.00000000000E+00 -0.29997684536E+03  0.27097528212E+04  0.26930975185E+04 0.  0.
        5    1    3    3  502    0  0.32037482996E+03 -0.66005436471E+03  0.98609125049E+03  0.12291093687E+04  0.46999998093E+01 0.  1.
       -5    1    3    3    0  502 -0.32037482996E+03  0.66005436471E+03 -0.12860680958E+04  0.14806434524E+04  0.46999998093E+01 0. -1.
</event>
<event>
 5   0  0.1533248E-05  0.2640176E+04  0.7818609E-02  0.8354681E-01
        1   -1    0    0  501    0  0.00000000000E+00  0.00000000000E+00  0.10165967189E+04  0.10165967189E+04  0.50400001928E-02 0. -1.
       -1   -1    0    0    0  501  0.00000000000E+00  0.00000000000E+00 -0.17141821307E+04  0.17141821307E+04  0.50400001928E-02 0.  1.
    10030    2    1    2    0    0  0.00000000000E+00  0.00000000000E+00 -0.69758541180E+03  0.27307788496E+04  0.26401756985E+04 0.  0.
        4    1    3    3  502    0  0.13719179327E+03  0.28160795943E+03  0.97759775824E+03  0.10265591170E+04  0.12699999809E+01 0. -1.
       -4    1    3    3    0  502 -0.13719179327E+03 -0.28160795943E+03 -0.16751831700E+04  0.17042197326E+04  0.12699999809E+01 0.  1.
</event>
<event>
 5   0  0.3849687E-05  0.2558367E+04  0.7818609E-02  0.8382482E-01
        2   -1    0    0  501    0  0.00000000000E+00  0.00000000000E+00  0.20204421413E+04  0.20204421413E+04  0.25500000920E-02 0.  1.
       -2   -1    0    0    0  501  0.00000000000E+00  0.00000000000E+00 -0.80987715605E+03  0.80987715606E+03  0.25500000920E-02 0. -1.
    10030    2    1    2    0    0  0.00000000000E+00  0.00000000000E+00  0.12105649853E+04  0.28303192974E+04  0.25583666159E+04 0.  0.
        1    1    3    3  502    0 -0.51501058831E+03 -0.43610372829E+03  0.18074830591E+04  0.19293567261E+04  0.50400001928E-02 0.  1.
       -1    1    3    3    0  502  0.51501058831E+03  0.43610372829E+03 -0.59691807380E+03  0.90096257123E+03  0.50400001928E-02 0. -1.
</event>
<event>
 5   0  0.1474554E-05  0.2520793E+04  0.7818609E-02  0.8395615E-01
        1   -1    0    0  501    0  0.00000000000E+00  0.00000000000E+00  0.20305176298E+04  0.20305176298E+04  0.50400001928E-02 0. -1.
       -1   -1    0    0    0  501  0.00000000000E+00  0.00000000000E+00 -0.78236155492E+03  0.78236155494E+03  0.50400001928E-02 0.  1.
    10030    2    1    2    0    0  0.00000000000E+00  0.00000000000E+00  0.12481560748E+04  0.28128791847E+04  0.25207926770E+04 0.  0.
        5    1    3    3  502    0 -0.35625479719E+03  0.54850963019E+02  0.19717668022E+04  0.20044481837E+04  0.46999998093E+01 0. -1.
       -5    1    3    3    0  502  0.35625479719E+03 -0.54850963019E+02 -0.72361072738E+03  0.80843100104E+03  0.46999998093E+01 0.  1.
</event>
<event>
 5   0  0.1451052E-05  0.2082819E+04  0.7818609E-02  0.8568850E-01
        1   -1    0    0  501    0  0.00000000000E+00  0.00000000000E+00  0.13317435615E+04  0.13317435615E+04  0.50400001928E-02 0. -1.
       -1   -1    0    0    0  501  0.00000000000E+00  0.00000000000E+00 -0.81437104212E+03  0.81437104213E+03  0.50400001928E-02 0.  1.
    10030    2    1    2    0    0  0.00000000000E+00  0.00000000000E+00  0.51737251937E+03  0.21461146036E+04  0.20828186594E+04 0.  0.
        1    1    3    3  502    0 -0.49789855614E+03 -0.64786658173E+03 -0.40661299863E+03  0.91267092132E+03  0.50400001928E-02 0. -1.
       -1    1    3    3    0  502  0.49789855614E+03  0.64786658173E+03  0.92398551800E+03  0.12334436823E+04  0.50400001928E-02 0.  1.
</event>
<event>
 5   0  0.1451052E-05  0.2584134E+04  0.7818609E-02  0.8373610E-01
        1   -1    0    0  501    0  0.00000000000E+00  0.00000000000E+00  0.18973472836E+04  0.18973472836E+04  0.50400001928E-02 0.  1.
       -1   -1    0    0    0  501  0.00000000000E+00  0.00000000000E+00 -0.87987982796E+03  0.87987982798E+03  0.50400001928E-02 0. -1.
    10030    2    1    2    0    0  0.00000000000E+00  0.00000000000E+00  0.10174674557E+04  0.27772271116E+04  0.25841343630E+04 0.  0.
        1    1    3    3  502    0 -0.89231191024E+02  0.23088711218E+03 -0.85415944366E+03  0.88930277141E+03  0.50400001928E-02 0. -1.
       -1    1    3    3    0  502  0.89231191024E+02 -0.23088711218E+03  0.18716268993E+04  0.18879243402E+04  0.50400001928E-02 0.  1.
</event>
<event>
 5   0  0.1533248E-05  0.2606587E+04  0.7818609E-02  0.8365967E-01
       -1   -1    0    0    0  501  0.00000000000E+00  0.00000000000E+00  0.69336612850E+03  0.69336612852E+03  0.50400001928E-02 0.  1.
        1   -1    0    0  501    0  0.00000000000E+00  0.00000000000E+00 -0.24497508915E+04  0.24497508916E+04  0.50400001928E-02 0. -1.
    10030    2    1    2    0    0  0.00000000000E+00  0.00000000000E+00 -0.17563847630E+04  0.31431170201E+04  0.26065872642E+04 0.  0.
        4    1    3    3  502    0  0.74499632097E+03 -0.10303554552E+04 -0.12233244892E+04  0.17644195366E+04  0.12699999809E+01 0.  1.
       -4    1    3    3    0  502 -0.74499632097E+03  0.10303554552E+04 -0.53306027384E+03  0.13786974834E+04  0.12699999809E+01 0. -1.
</event>
<event>
 5   0  0.3441646E-05  0.2643376E+04  0.7818609E-02  0.8353615E-01
       -2   -1    0    0    0  501  0.00000000000E+00  0.00000000000E+00  0.14759037826E+04  0.14759037826E+04  0.25500000920E-02 0.  1.
        2   -1    0    0  501    0  0.00000000000E+00  0.00000000000E+00 -0.11835858687E+04  0.11835858687E+04  0.25500000920E-02 0. -1.
    10030    2    1    2    0    0  0.00000000000E+00  0.00000000000E+00  0.29231791391E+03  0.26594896512E+04  0.26433757664E+04 0.  0.
        4    1    3    3  502    0 -0.22862728825E+03 -0.73738302024E+03  0.12254767706E+04  0.14483780873E+04  0.12699999809E+01 0.  1.
       -4    1    3    3    0  502  0.22862728825E+03  0.73738302024E+03 -0.93315885674E+03  0.12111115639E+04  0.12699999809E+01 0. -1.
</event>
<event>
 5   0  0.3647623E-05  0.2580137E+04  0.7818609E-02  0.8374980E-01
        2   -1    0    0  501    0  0.00000000000E+00  0.00000000000E+00  0.18058500642E+04  0.18058500642E+04  0.25500000920E-02 0. -1.
       -2   -1    0    0    0  501  0.00000000000E+00  0.00000000000E+00 -0.92160265186E+03  0.92160265187E+03  0.25500000920E-02 0.  1.
    10030    2    1    2    0    0  0.00000000000E+00  0.00000000000E+00  0.88424741233E+03  0.27274527161E+04  0.25801365918E+04 0.  0.
        3    1    3    3  502    0  0.60574320250E+03 -0.49247209249E+03 -0.64356231757E+03  0.10117440665E+04  0.10100000352E+00 0.  1.
       -3    1    3    3    0  502 -0.60574320250E+03  0.49247209249E+03  0.15278097299E+04  0.17157086496E+04  0.10100000352E+00 0. -1.
</event>
<event>
 5   0  0.1533248E-05  0.2584858E+04  0.7818609E-02  0.8373363E-01
        1   -1    0    0  501    0  0.00000000000E+00  0.00000000000E+00  0.11573068377E+04  0.11573068378E+04  0.50400001928E-02 0. -1.
       -1   -1    0    0    0  501  0.00000000000E+00  0.00000000000E+00 -0.14433279191E+04  0.14433279191E+04  0.50400001928E-02 0.  1.
    10030    2    1    2    0    0  0.00000000000E+00  0.00000000000E+00 -0.28602108134E+03  0.26006347569E+04  0.25848584254E+04 0.  0.
        4    1    3    3  502    0 -0.20062912567E+03 -0.27288558244E+03  0.11118601510E+04  0.11623051215E+04  0.12699999809E+01 0. -1.
       -4    1    3    3    0  502  0.20062912567E+03  0.27288558244E+03 -0.13978812324E+04  0.14383296353E+04  0.12699999809E+01 0.  1.
</event>
<event>
 5   0  0.3508470E-05  0.2565403E+04  0.7818609E-02  0.8380049E-01
       -2   -1    0    0    0  501  0.00000000000E+00  0.00000000000E+00  0.10755800388E+04  0.10755800388E+04  0.25500000920E-02 0. -1.
        2   -1    0    0  501    0  0.00000000000E+00  0.00000000000E+00 -0.15297074192E+04  0.15297074192E+04  0.25500000920E-02 0.  1.
    10030    2    1    2    0    0  0.00000000000E+00  0.00000000000E+00 -0.45412738049E+03  0.26052874580E+04  0.25654027094E+04 0.  0.
        5    1    3    3  502    0 -0.82475309084E+03  0.15697520786E+03  0.75777717584E+03  0.11309762221E+04  0.46999998093E+01 0. -1.
       -5    1    3    3    0  502  0.82475309084E+03 -0.15697520786E+03 -0.12119045563E+04  0.14743112359E+04  0.46999998093E+01 0.  1.
</event>
<event>
 5   0  0.3647623E-05  0.2805463E+04  0.7818609E-02  0.8301574E-01
        2   -1    0    0  501    0  0.00000000000E+00  0.00000000000E+00  0.14212066767E+04  0.14212066767E+04  0.25500000920E-02 0. -1.
       -2   -1    0    0    0  501  0.00000000000E+00  0.00000000000E+00 -0.13844967310E+04  0.13844967310E+04  0.25500000920E-02 0.  1.
    10030    2    1    2    0    0  0.00000000000E+00  0.00000000000E+00  0.36709945739E+02  0.28057034077E+04  0.28054632401E+04 0.  0.
        3    1    3    3  502    0  0.48593188655E+03 -0.12601875752E+04 -0.36042996227E+03  0.13978956652E+04  0.10100000352E+00 0.  1.
       -3    1    3    3    0  502 -0.48593188655E+03  0.12601875752E+04  0.39713990801E+03  0.14078077424E+04  0.10100000352E+00 0. -1.
</event>
<event>
 5   0  0.3441646E-05  0.2066169E+04  0.7818609E-02  0.8576295E-01
       -2   -1    0    0    0  501  0.00000000000E+00  0.00000000000E+00  0.71207262217E+03  0.71207262218E+03  0.25500000920E-02 0.  1.
        2   -1    0    0  501    0  0.00000000000E+00  0.00000000000E+00 -0.14988122935E+04  0.14988122935E+04  0.25500000920E-02 0. -1.
    10030    2    1    2    0    0  0.00000000000E+00  0.00000000000E+00 -0.78673967136E+03  0.22108849157E+04  0.20661686282E+04 0.  0.
        4    1    3    3  502    0 -0.68038706139E+03  0.62115739988E+03  0.10680820584E+03  0.92745494471E+03  0.12699999809E+01 0.  1.
       -4    1    3    3    0  502  0.68038706139E+03 -0.62115739988E+03 -0.89354787720E+03  0.12834299710E+04  0.12699999809E+01 0. -1.
</event>
<event>
 5   0  0.3499642E-05  0.2361740E+04  0.7818609E-02  0.8453968E-01
        2   -1    0    0  501    0  0.00000000000E+00  0.00000000000E+00  0.12200715010E+04  0.12200715010E+04  0.25500000920E-02 0. -1.
       -2   -1    0    0    0  501  0.00000000000E+00  0.00000000000E+00 -0.11429279469E+04  0.11429279469E+04  0.25500000920E-02 0.  1.
    10030    2    1    2    0    0  0.00000000000E+00  0.00000000000E+00  0.77143554149E+02  0.23629994479E+04  0.23617398804E+04 0.  0.
        2    1    3    3  502    0  0.63086486456E+03 -0.50738201187E+02 -0.95889971695E+03  0.11489358161E+04  0.25500000920E-02 0.  1.
       -2    1    3    3    0  502 -0.63086486456E+03  0.50738201187E+02  0.10360432711E+04  0.12140636318E+04  0.25500000920E-02 0. -1.
</event>
<event>
 5   0  0.3499642E-05  0.2600149E+04  0.7818609E-02  0.8368151E-01
       -2   -1    0    0    0  501  0.00000000000E+00  0.00000000000E+00  0.10855228013E+04  0.10855228013E+04  0.25500000920E-02 0.  1.
        2   -1    0    0  501    0  0.00000000000E+00  0.00000000000E+00 -0.15570321298E+04  0.15570321298E+04  0.25500000920E-02 0. -1.
    10030    2    1    2    0    0  0.00000000000E+00  0.00000000000E+00 -0.47150932845E+03  0.26425549311E+04  0.26001491336E+04 0.  0.
        2    1    3    3  502    0  0.59703543672E+03  0.11281182832E+04 -0.48695307703E+03  0.13660986322E+04  0.25500000920E-02 0. -1.
       -2    1    3    3    0  502 -0.59703543672E+03 -0.11281182832E+04  0.15443748575E+02  0.12764562989E+04  0.25500000920E-02 0.  1.
</event>
<event>
 5   0  0.3499642E-05  0.2389904E+04  0.7818609E-02  0.8443293E-01
       -2   -1    0    0    0  501  0.00000000000E+00  0.00000000000E+00  0.12043437689E+04  0.12043437689E+04  0.25500000920E-02 0.  1.
        2   -1    0    0  501    0  0.00000000000E+00  0.00000000000E+00 -0.11856332967E+04  0.11856332968E+04  0.25500000920E-02 0. -1.
    10030    2    1    2    0    0  0.00000000000E+00  0.00000000000E+00  0.18710472132E+02  0.23899770656E+04  0.23899038249E+04 0.  0.
        2    1    3    3  502    0 -0.61900922573E+03 -0.22345786795E+03  0.10067845353E+04  0.12027971321E+04  0.25500000920E-02 0.  1.
       -2    1    3    3    0  502  0.61900922573E+03  0.22345786795E+03 -0.98807406321E+03  0.11871799336E+04  0.25500000920E-02 0. -1.
</event>
<event>
 5   0  0.3647623E-05  0.2577144E+04  0.7818609E-02  0.8376007E-01
       -2   -1    0    0    0  501  0.00000000000E+00  0.00000000000E+00  0.10092190930E+04  0.10092190930E+04  0.25500000920E-02 0.  1.
        2   -1    0    0  501    0  0.00000000000E+00  0.00000000000E+00 -0.16452496576E+04  0.16452496576E+04  0.25500000920E-02 0. -1.
    10030    2    1    2    0    0  0.00000000000E+00  0.00000000000E+00 -0.63603056458E+03  0.26544687505E+04  0.25771436647E+04 0.  0.
        3    1    3    3  502    0 -0.55419886000E+02  0.12005881242E+04 -0.79664499182E+03  0.14419176332E+04  0.10100000352E+00 0. -1.
       -3    1    3    3    0  502  0.55419886000E+02 -0.12005881242E+04  0.16061442724E+03  0.12125511173E+04  0.10100000352E+00 0.  1.
</event>
<event>
 5   0  0.3441646E-05  0.2601517E+04  0.7818609E-02  0.8367686E-01
       -2   -1    0    0    0  501  0.00000000000E+00  0.00000000000E+00  0.11655507113E+04  0.11655507113E+04  0.25500000920E-02 0. -1.
        2   -1    0    0  501    0  0.00000000000E+00  0.00000000000E+00 -0.14516503543E+04  0.14516503543E+04  0.25500000920E-02 0.  1.
    10030    2    1    2    0    0  0.00000000000E+00  0.00000000000E+00 -0.28609964301E+03  0.26172010656E+04  0.26015165600E+04 0.  0.
        4    1    3    3  502    0  0.10409362171E+04  0.57623441444E+03  0.38583463046E+03  0.12507854666E+04  0.12699999809E+01 0. -1.
       -4    1    3    3    0  502 -0.10409362171E+04 -0.57623441444E+03 -0.67193427347E+03  0.13664155990E+04  0.12699999809E+01 0.  1.
</event>
<event>
 5   0  0.3849687E-05  0.2508747E+04  0.7818609E-02  0.8399876E-01
        2   -1    0    0  501    0  0.00000000000E+00  0.00000000000E+00  0.86963380465E+03  0.86963380465E+03  0.25500000920E-02 0.  1.
       -2   -1    0    0    0  501  0.00000000000E+00  0.00000000000E+00 -0.18093284809E+04  0.18093284809E+04  0.25500000920E-02 0. -1.
    10030    2    1    2    0    0  0.00000000000E+00  0.00000000000E+00 -0.93969467626E+03  0.26789622856E+04  0.25087472656E+04 0.  0.
        1    1    3    3  502    0 -0.11398625280E+04 -0.32409196896E+02 -0.10279106540E+04  0.15352319862E+04  0.50400001928E-02 0. -1.
       -1    1    3    3    0  502  0.11398625280E+04  0.32409196896E+02  0.88215977748E+02  0.11437302993E+04  0.50400001928E-02 0.  1.
</event>
<event>
 5   0  0.1451052E-05  0.2536789E+04  0.7818609E-02  0.8389995E-01
       -1   -1    0    0    0  501  0.00000000000E+00  0.00000000000E+00  0.13874843122E+04  0.13874843122E+04  0.50400001928E-02 0. -1.
        1   -1    0    0  501    0  0.00000000000E+00  0.00000000000E+00 -0.11595267393E+04  0.11595267393E+04  0.50400001928E-02 0.  1.
    10030    2    1    2    0    0  0.00000000000E+00  0.00000000000E+00  0.22795757292E+03  0.25470110515E+04  0.25367894357E+04 0.  0.
        1    1    3    3  502    0  0.87552875957E+03  0.54590355379E+03 -0.62673624542E+03  0.12072115060E+04  0.50400001928E-02 0.  1.
       -1    1    3    3    0  502 -0.87552875957E+03 -0.54590355379E+03  0.85469381834E+03  0.13397995455E+04  0.50400001928E-02 0. -1.
</event>
<event>
 5   0  0.1497497E-05  0.2553814E+04  0.7818609E-02  0.8384061E-01
        1   -1    0    0  501    0  0.00000000000E+00  0.00000000000E+00  0.14212338207E+04  0.14212338207E+04  0.50400001928E-02 0. -1.
       -1   -1    0    0    0  501  0.00000000000E+00  0.00000000000E+00 -0.11472369833E+04  0.11472369834E+04  0.50400001928E-02 0.  1.
    10030    2    1    2    0    0  0.00000000000E+00  0.00000000000E+00  0.27399683732E+03  0.25684708040E+04  0.25538144029E+04 0.  0.
        3    1    3    3  502    0  0.96879518562E+03  0.21673943378E+03  0.94469633729E+03  0.13703982172E+04  0.10100000352E+00 0. -1.
       -3    1    3    3    0  502 -0.96879518562E+03 -0.21673943378E+03 -0.67069949997E+03  0.11980725868E+04  0.10100000352E+00 0.  1.
</event>
<event>
 5   0  0.1451052E-05  0.1992760E+04  0.7818609E-02  0.8610013E-01
        1   -1    0    0  501    0  0.00000000000E+00  0.00000000000E+00  0.19860566349E+04  0.19860566349E+04  0.50400001928E-02 0. -1.
       -1   -1    0    0    0  501  0.00000000000E+00  0.00000000000E+00 -0.49987141105E+03  0.49987141108E+03  0.50400001928E-02 0.  1.
    10030    2    1    2    0    0  0.00000000000E+00  0.00000000000E+00  0.14861852238E+04  0.24859280460E+04  0.19927598275E+04 0.  0.
        1    1    3    3  502    0  0.61777171327E+03 -0.64680348439E+03  0.12908148947E+04  0.15704138720E+04  0.50400001928E-02 0. -1.
       -1    1    3    3    0  502 -0.61777171327E+03  0.64680348439E+03  0.19537032915E+03  0.91551417393E+03  0.50400001928E-02 0.  1.
</event>
<event>
 5   0  0.3441646E-05  0.1609061E+04  0.7818609E-02  0.8815001E-01
        2   -1    0    0  501    0  0.00000000000E+00  0.00000000000E+00  0.18063273656E+04  0.18063273656E+04  0.25500000920E-02 0. -1.
       -2   -1    0    0    0  501  0.00000000000E+00  0.00000000000E+00 -0.35833442939E+03  0.35833442940E+03  0.25500000920E-02 0.  1.
    10030    2    1    2    0    0  0.00000000000E+00  0.00000000000E+00  0.14479929362E+04  0.21646617950E+04  0.16090609508E+04 0.  0.
        4    1    3    3  502    0  0.12934426640E+03 -0.52497862263E+02  0.17899097787E+04  0.17953452575E+04  0.12699999809E+01 0. -1.
       -4    1    3    3    0  502 -0.12934426640E+03  0.52497862263E+02 -0.34191684250E+03  0.36931653751E+03  0.12699999809E+01 0.  1.
</event>
<event>
 5   0  0.3499642E-05  0.2640275E+04  0.7818609E-02  0.8354648E-01
       -2   -1    0    0    0  501  0.00000000000E+00  0.00000000000E+00  0.13744823429E+04  0.13744823429E+04  0.25500000920E-02 0.  1.
        2   -1    0    0  501    0  0.00000000000E+00  0.00000000000E+00 -0.12679409674E+04  0.12679409674E+04  0.25500000920E-02 0. -1.
    10030    2    1    2    0    0  0.00000000000E+00  0.00000000000E+00  0.10654137548E+03  0.26424233103E+04  0.26402745853E+04 0.  0.
        2    1    3    3  502    0 -0.69495642423E+03  0.98153224106E+03  0.59813316579E+03  0.13431802767E+04  0.25500000920E-02 0.  1.
       -2    1    3    3    0  502  0.69495642423E+03 -0.98153224106E+03 -0.49159179031E+03  0.12992430335E+04  0.25500000920E-02 0. -1.
</event>
<event>
 5   0  0.3499642E-05  0.2561356E+04  0.7818609E-02  0.8381447E-01
        2   -1    0    0  501    0  0.00000000000E+00  0.00000000000E+00  0.18098834130E+04  0.18098834130E+04  0.25500000920E-02 0.  1.
       -2   -1    0    0    0  501  0.00000000000E+00  0.00000000000E+00 -0.90621092366E+03  0.90621092366E+03  0.25500000920E-02 0. -1.
    10030    2    1    2    0    0  0.00000000000E+00  0.00000000000E+00  0.90367248936E+03  0.27160943367E+04  0.25613559842E+04 0.  0.
        2    1    3    3  502    0 -0.24065178317E+03  0.11900866005E+04  0.88377282655E+03  0.15017569066E+04  0.25500000920E-02 0.  1.
       -2    1    3    3    0  502  0.24065178317E+03 -0.11900866005E+04  0.19899662814E+02  0.12143374301E+04  0.25500000920E-02 0. -1.
</event>
<event>
 5   0  0.3849687E-05  0.2600341E+04  0.7818609E-02  0.8368085E-01
       -2   -1    0    0    0  501  0.00000000000E+00  0.00000000000E+00  0.90420410373E+03  0.90420410373E+03  0.25500000920E-02 0.  1.
        2   -1    0    0  501    0  0.00000000000E+00  0.00000000000E+00 -0.18695378197E+04  0.18695378197E+04  0.25500000920E-02 0. -1.
    10030    2    1    2    0    0  0.00000000000E+00  0.00000000000E+00 -0.96533371597E+03  0.27737419234E+04  0.26003413381E+04 0.  0.
        1    1    3    3  502    0 -0.87438960391E+03  0.62754144819E+03  0.29541174482E+03  0.11160795436E+04  0.50400001928E-02 0.  1.
       -1    1    3    3    0  502  0.87438960391E+03 -0.62754144819E+03 -0.12607454608E+04  0.16576623798E+04  0.50400001928E-02 0. -1.
</event>
<event>
 5   0  0.3508470E-05  0.2615873E+04  0.7818609E-02  0.8362829E-01
       -2   -1    0    0    0  501  0.00000000000E+00  0.00000000000E+00  0.93465003097E+03  0.93465003097E+03  0.25500000920E-02 0. -1.
        2   -1    0    0  501    0  0.00000000000E+00  0.00000000000E+00 -0.18303089995E+04  0.18303089995E+04  0.25500000920E-02 0.  1.
    10030    2    1    2    0    0  0.00000000000E+00  0.00000000000E+00 -0.89565896858E+03  0.27649590305E+04  0.26158733632E+04 0.  0.
        5    1    3    3  502    0  0.25689292953E+03  0.39077442392E+03  0.84325048444E+03  0.96425727747E+03  0.46999998093E+01 0. -1.
       -5    1    3    3    0  502 -0.25689292953E+03 -0.39077442392E+03 -0.17389094530E+04  0.18007017531E+04  0.46999998093E+01 0.  1.
</event>
<event>
 5   0  0.1435062E-05  0.2540106E+04  0.7818609E-02  0.8388835E-01
        1   -1    0    0  501    0  0.00000000000E+00  0.00000000000E+00  0.12519370073E+04  0.12519370073E+04  0.50400001928E-02 0.  1.
       -1   -1    0    0    0  501  0.00000000000E+00  0.00000000000E+00 -0.12884306980E+04  0.12884306980E+04  0.50400001928E-02 0. -1.
    10030    2    1    2    0    0  0.00000000000E+00  0.00000000000E+00 -0.36493690645E+02  0.25403677053E+04  0.25401055664E+04 0.  0.
        2    1    3    3  502    0 -0.10978314600E+04 -0.63448756977E+03 -0.90543180405E+02  0.12712224267E+04  0.25500000920E-02 0.  1.
       -2    1    3    3    0  502  0.10978314600E+04  0.63448756977E+03  0.54049489759E+02  0.12691452786E+04  0.25500000920E-02 0. -1.
</event>
<event>
 5   0  0.1497497E-05  0.2594689E+04  0.7818609E-02  0.8370007E-01
        1   -1    0    0  501    0  0.00000000000E+00  0.00000000000E+00  0.13208347007E+04  0.13208347007E+04  0.50400001928E-02 0.  1.
       -1   -1    0    0    0  501  0.00000000000E+00  0.00000000000E+00 -0.12742722219E+04  0.12742722219E+04  0.50400001928E-02 0. -1.
    10030    2    1    2    0    0  0.00000000000E+00  0.00000000000E+00  0.46562478809E+02  0.25951069226E+04  0.25946891674E+04 0.  0.
        3    1    3    3  502    0 -0.22754611031E+03 -0.61051910043E+03 -0.10987693226E+04  0.12774211673E+04  0.10100000352E+00 0. -1.
       -3    1    3    3    0  502  0.22754611031E+03  0.61051910043E+03  0.11453318014E+04  0.13176857553E+04  0.10100000352E+00 0.  1.
</event>
<event>
 5   0  0.1451052E-05  0.2512868E+04  0.7818609E-02  0.8398416E-01
       -1   -1    0    0    0  501  0.00000000000E+00  0.00000000000E+00  0.11015076745E+04  0.11015076745E+04  0.50400001928E-02 0. -1.
        1   -1    0    0  501    0  0.00000000000E+00  0.00000000000E+00 -0.14331500697E+04  0.14331500697E+04  0.50400001928E-02 0.  1.
    10030    2    1    2    0    0  0.00000000000E+00  0.00000000000E+00 -0.33164239519E+03  0.25346577442E+04  0.25128675257E+04 0.  0.
        1    1    3    3  502    0 -0.94620991976E+03 -0.47321853985E+03 -0.84947189418E+03  0.13567798266E+04  0.50400001928E-02 0.  1.
       -1    1    3    3    0  502  0.94620991976E+03  0.47321853985E+03  0.51782949899E+03  0.11778779176E+04  0.50400001928E-02 0. -1.
</event>
<event>
 5   0  0.1435062E-05  0.2654538E+04  0.7818609E-02  0.8349908E-01
        1   -1    0    0  501    0  0.00000000000E+00  0.00000000000E+00  0.20523219685E+04  0.20523219685E+04  0.50400001928E-02 0. -1.
       -1   -1    0    0    0  501  0.00000000000E+00  0.00000000000E+00 -0.85836598851E+03  0.85836598853E+03  0.50400001928E-02 0.  1.
    10030    2    1    2    0    0  0.00000000000E+00  0.00000000000E+00  0.11939559800E+04  0.29106879571E+04  0.26545382840E+04 0.  0.
        2    1    3    3  502    0 -0.11138427312E+04 -0.35511295243E+02 -0.19351558666E+03  0.11310857458E+04  0.25500000920E-02 0.  1.
       -2    1    3    3    0  502  0.11138427312E+04  0.35511295243E+02  0.13874715667E+04  0.17796022113E+04  0.25500000920E-02 0. -1.
</event>
<event>
 5   0  0.3647623E-05  0.2613387E+04  0.7818609E-02  0.8363668E-01
        2   -1    0    0  501    0  0.00000000000E+00  0.00000000000E+00  0.17477088664E+04  0.17477088664E+04  0.25500000920E-02 0.  1.
       -2   -1    0    0    0  501  0.00000000000E+00  0.00000000000E+00 -0.97696369030E+03  0.97696369031E+03  0.25500000920E-02 0. -1.
    10030    2    1    2    0    0  0.00000000000E+00  0.00000000000E+00  0.77074517612E+03  0.27246725567E+04  0.26133871537E+04 0.  0.
        3    1    3    3  502    0 -0.12491011248E+04 -0.36860471928E+03  0.27442181490E+03  0.13309509389E+04  0.10100000352E+00 0.  1.
       -3    1    3    3    0  502  0.12491011248E+04  0.36860471928E+03  0.49632336122E+03  0.13937216179E+04  0.10100000352E+00 0. -1.
</event>
<event>
 5   0  0.1435062E-05  0.2586857E+04  0.7818609E-02  0.8372679E-01
        1   -1    0    0  501    0  0.00000000000E+00  0.00000000000E+00  0.12170670451E+04  0.12170670451E+04  0.50400001928E-02 0.  1.
       -1   -1    0    0    0  501  0.00000000000E+00  0.00000000000E+00 -0.13745813728E+04  0.13745813728E+04  0.50400001928E-02 0. -1.
    10030    2    1    2    0    0  0.00000000000E+00  0.00000000000E+00 -0.15751432772E+03  0.25916484180E+04  0.25868573132E+04 0.  0.
        2    1    3    3  502    0 -0.97587941903E+03  0.77538846660E+03  0.26741104233E+03  0.12747849153E+04  0.25500000920E-02 0.  1.
       -2    1    3    3    0  502  0.97587941903E+03 -0.77538846660E+03 -0.42492537005E+03  0.13168635027E+04  0.25500000920E-02 0. -1.
</event>
<event>
 5   0  0.3508470E-05  0.2589967E+04  0.7818609E-02  0.8371617E-01
       -2   -1    0    0    0  501  0.00000000000E+00  0.00000000000E+00  0.12086650597E+04  0.12086650597E+04  0.25500000920E-02 0.  1.
        2   -1    0    0  501    0  0.00000000000E+00  0.00000000000E+00 -0.13874668859E+04  0.13874668859E+04  0.25500000920E-02 0. -1.
    10030    2    1    2    0    0  0.00000000000E+00  0.00000000000E+00 -0.17880182619E+03  0.25961319456E+04  0.25899673716E+04 0.  0.
        5    1    3    3  502    0  0.29750357258E+03 -0.36315727863E+02 -0.13522143391E+04  0.13850389585E+04  0.46999998093E+01 0. -1.
       -5    1    3    3    0  502 -0.29750357258E+03  0.36315727863E+02  0.11734125129E+04  0.12110929870E+04  0.46999998093E+01 0.  1.
</event>
<event>
 5   0  0.3441646E-05  0.2526244E+04  0.7818609E-02  0.8393695E-01
       -2   -1    0    0    0  501  0.00000000000E+00  0.00000000000E+00  0.16012433507E+04  0.16012433507E+04  0.25500000920E-02 0. -1.
        2   -1    0    0  501    0  0.00000000000E+00  0.00000000000E+00 -0.99639887502E+03  0.99639887503E+03  0.25500000920E-02 0.  1.
    10030    2    1    2    0    0  0.00000000000E+00  0.00000000000E+00  0.60484447570E+03  0.25976422258E+04  0.25262439101E+04 0.  0.
        4    1    3    3  502    0  0.59301660616E+03 -0.43941355915E+03  0.13564403399E+04  0.15442425262E+04  0.12699999809E+01 0. -1.
       -4    1    3    3    0  502 -0.59301660616E+03  0.43941355915E+03 -0.75159586416E+03  0.10533996996E+04  0.12699999809E+01 0.  1.
</event>
<event>
 5   0  0.1474554E-05  0.2610892E+04  0.7818609E-02  0.8364511E-01
       -1   -1    0    0    0  501  0.00000000000E+00  0.00000000000E+00  0.11145019791E+04  0.11145019791E+04  0.50400001928E-02 0. -1.
        1   -1    0    0  501    0  0.00000000000E+00  0.00000000000E+00 -0.15291037815E+04  0.15291037815E+04  0.50400001928E-02 0.  1.
    10030    2    1    2    0    0  0.00000000000E+00  0.00000000000E+00 -0.41460180234E+03  0.26436057606E+04  0.26108919478E+04 0.  0.
        5    1    3    3  502    0 -0.18650884687E+03 -0.11410443078E+04 -0.82103045194E+03  0.14180552723E+04  0.46999998093E+01 0.  1.
       -5    1    3    3    0  502  0.18650884687E+03  0.11410443078E+04  0.40642864960E+03  0.12255504883E+04  0.46999998093E+01 0. -1.
</event>
<event>
 5   0  0.1497497E-05  0.1773794E+04  0.7818609E-02  0.8720361E-01
        1   -1    0    0  501    0  0.00000000000E+00  0.00000000000E+00  0.12621766984E+04  0.12621766984E+04  0.50400001928E-02 0. -1.
       -1   -1    0    0    0  501  0.00000000000E+00  0.00000000000E+00 -0.62319849407E+03  0.62319849409E+03  0.50400001928E-02 0.  1.
    10030    2    1    2    0    0  0.00000000000E+00  0.00000000000E+00  0.63897820433E+03  0.18853751925E+04  0.17737943711E+04 0.  0.
        3    1    3    3  502    0 -0.55720929318E+03 -0.36150855470E+03  0.94418078856E+03  0.11544037436E+04  0.10100000352E+00 0. -1.
       -3    1    3    3    0  502  0.55720929318E+03  0.36150855470E+03 -0.30520258422E+03  0.73097144893E+03  0.10100000352E+00 0.  1.
</event>
<event>
 5   0  0.1451052E-05  0.2607668E+04  0.7818609E-02  0.8365601E-01
        1   -1    0    0  501    0  0.00000000000E+00  0.00000000000E+00  0.23108043128E+04  0.23108043128E+04  0.50400001928E-02 0.  1.
       -1   -1    0    0    0  501  0.00000000000E+00  0.00000000000E+00 -0.73566720012E+03  0.73566720014E+03  0.50400001928E-02 0. -1.
    10030    2    1    2    0    0  0.00000000000E+00  0.00000000000E+00  0.15751371127E+04  0.30464715129E+04  0.26076678767E+04 0.  0.
        1    1    3    3  502    0 -0.31131742961E+03 -0.10974055752E+04  0.49828136055E+02  0.11417969967E+04  0.50400001928E-02 0. -1.
       -1    1    3    3    0  502  0.31131742961E+03  0.10974055752E+04  0.15253089766E+04  0.19046745162E+04  0.50400001928E-02 0.  1.
</event>
<event>
 5   0  0.1474554E-05  0.2605235E+04  0.7818609E-02  0.8366425E-01
        1   -1    0    0  501    0  0.00000000000E+00  0.00000000000E+00  0.13726013674E+04  0.13726013674E+04  0.50400001928E-02 0.  1.
       -1   -1    0    0    0  501  0.00000000000E+00  0.00000000000E+00 -0.12362019884E+04  0.12362019885E+04  0.50400001928E-02 0. -1.
    10030    2    1    2    0    0  0.00000000000E+00  0.00000000000E+00  0.13639937893E+03  0.26088033558E+04  0.26052351446E+04 0.  0.
        5    1    3    3  502    0 -0.12379372049E+03  0.10936682095E+03 -0.12256630565E+04  0.12367530088E+04  0.46999998093E+01 0. -1.
       -5    1    3    3    0  502  0.12379372049E+03 -0.10936682095E+03  0.13620624354E+04  0.13720503470E+04  0.46999998093E+01 0.  1.
</event>
<event>
 5   0  0.3499642E-05  0.2677915E+04  0.7818609E-02  0.8342207E-01
        2   -1    0    0  501    0  0.00000000000E+00  0.00000000000E+00  0.13325559637E+04  0.13325559637E+04  0.25500000920E-02 0. -1.
       -2   -1    0    0    0  501  0.00000000000E+00  0.00000000000E+00 -0.13453894203E+04  0.13453894204E+04  0.25500000920E-02 0.  1.
    10030    2    1    2    0    0  0.00000000000E+00  0.00000000000E+00 -0.12833456685E+02  0.26779453840E+04  0.26779146331E+04 0.  0.
        2    1    3    3  502    0 -0.22268727865E+03 -0.13199637977E+04  0.23793621254E+02  0.13388279156E+04  0.25500000920E-02 0. -1.
       -2    1    3    3    0  502  0.22268727865E+03  0.13199637977E+04 -0.36627077940E+02  0.13391174684E+04  0.25500000920E-02 0.  1.
</event>
<event>
 5   0  0.1435062E-05  0.2572122E+04  0.7818609E-02  0.8377733E-01
        1   -1    0    0  501    0  0.00000000000E+00  0.00000000000E+00  0.14450382640E+04  0.14450382640E+04  0.50400001928E-02 0.  1.
       -1   -1    0    0    0  501  0.00000000000E+00  0.00000000000E+00 -0.11445738330E+04  0.11445738330E+04  0.50400001928E-02 0. -1.
    10030    2    1    2    0    0  0.00000000000E+00  0.00000000000E+00  0.30046443094E+03  0.25896120970E+04  0.25721220692E+04 0.  0.
        2    1    3    3  502    0 -0.20953881988E+03  0.93599149602E+03 -0.71231171814E+03  0.11947278274E+04  0.25500000920E-02 0. -1.
       -2    1    3    3    0  502  0.20953881988E+03 -0.93599149602E+03  0.10127761491E+04  0.13948842697E+04  0.25500000920E-02 0.  1.
</event>
<event>
 5   0  0.3508470E-05  0.2544179E+04  0.7818609E-02  0.8387414E-01
        2   -1    0    0  501    0  0.00000000000E+00  0.00000000000E+00  0.24312395810E+04  0.24312395810E+04  0.25500000920E-02 0. -1.
       -2   -1    0    0    0  501  0.00000000000E+00  0.00000000000E+00 -0.66559111601E+03  0.66559111602E+03  0.25500000920E-02 0.  1.
    10030    2    1    2    0    0  0.00000000000E+00  0.00000000000E+00  0.17656484650E+04  0.30968306970E+04  0.25441788192E+04 0.  0.
        5    1    3    3  502    0  0.96519660922E+03 -0.23374730357E+03 -0.84807687082E+02  0.99672299570E+03  0.46999998093E+01 0.  1.
       -5    1    3    3    0  502 -0.96519660922E+03  0.23374730357E+03  0.18504561521E+04  0.21001077013E+04  0.46999998093E+01 0. -1.
</event>
<event>
 5   0  0.1451052E-05  0.2617854E+04  0.7818609E-02  0.8362162E-01
        1   -1    0    0  501    0  0.00000000000E+00  0.00000000000E+00  0.86090019479E+03  0.86090019480E+03  0.50400001928E-02 0.  1.
       -1   -1    0    0    0  501  0.00000000000E+00  0.00000000000E+00 -0.19901140775E+04  0.19901140775E+04  0.50400001928E-02 0. -1.
    10030    2    1    2    0    0  0.00000000000E+00  0.00000000000E+00 -0.11292138827E+04  0.28510142723E+04  0.26178537751E+04 0.  0.
        1    1    3    3  502    0 -0.12260852635E+04  0.27751125470E+03 -0.96176813712E+03  0.15828125345E+04  0.50400001928E-02 0. -1.
       -1    1    3    3    0  502  0.12260852635E+04 -0.27751125470E+03 -0.16744574556E+03  0.12682017377E+04  0.50400001928E-02 0.  1.
</event>
<event>
 5   0  0.3647623E-05  0.2700156E+04  0.7818609E-02  0.8334954E-01
       -2   -1    0    0    0  501  0.00000000000E+00  0.00000000000E+00  0.73065093135E+03  0.73065093136E+03  0.25500000920E-02 0. -1.
        2   -1    0    0  501    0  0.00000000000E+00  0.00000000000E+00 -0.24946402512E+04  0.24946402512E+04  0.25500000920E-02 0.  1.
    10030    2    1    2    0    0  0.00000000000E+00  0.00000000000E+00 -0.17639893198E+04  0.32252911825E+04  0.27001564569E+04 0.  0.
        3    1    3    3  502    0 -0.72091217568E+03 -0.15014535990E+03 -0.22336372188E+04  0.23518914153E+04  0.10100000352E+00 0.  1.
       -3    1    3    3    0  502  0.72091217568E+03  0.15014535990E+03  0.46964789897E+03  0.87339976720E+03  0.10100000352E+00 0. -1.
</event>
<event>
 5   0  0.3508470E-05  0.2634170E+04  0.7818609E-02  0.8356686E-01
        2   -1    0    0  501    0  0.00000000000E+00  0.00000000000E+00  0.17388362911E+04  0.17388362911E+04  0.25500000920E-02 0.  1.
       -2   -1    0    0    0  501  0.00000000000E+00  0.00000000000E+00 -0.99762882099E+03  0.99762882100E+03  0.25500000920E-02 0. -1.
    10030    2    1    2    0    0  0.00000000000E+00  0.00000000000E+00  0.74120747008E+03  0.27364651121E+04  0.26341702291E+04 0.  0.
        5    1    3    3  502    0 -0.20413218084E+03 -0.47080082932E+03 -0.88950114503E+03  0.10269166204E+04  0.46999998093E+01 0. -1.
       -5    1    3    3    0  502  0.20413218084E+03  0.47080082932E+03  0.16307086151E+04  0.17095484917E+04  0.46999998093E+01 0.  1.
</event>
<event>
 5   0  0.3508470E-05  0.2609050E+04  0.7818609E-02  0.8365134E-01
        2   -1    0    0  501    0  0.00000000000E+00  0.00000000000E+00  0.88469038644E+03  0.88469038644E+03  0.25500000920E-02 0. -1.
       -2   -1    0    0    0  501  0.00000000000E+00  0.00000000000E+00 -0.19235948010E+04  0.19235948010E+04  0.25500000920E-02 0.  1.
    10030    2    1    2    0    0  0.00000000000E+00  0.00000000000E+00 -0.10389044146E+04  0.28082851875E+04  0.26090502700E+04 0.  0.
        5    1    3    3  502    0  0.99848228852E+03  0.69755093398E+03 -0.16640255716E+02  0.12181310168E+04  0.46999998093E+01 0. -1.
       -5    1    3    3    0  502 -0.99848228852E+03 -0.69755093398E+03 -0.10222641589E+04  0.15901541707E+04  0.46999998093E+01 0.  1.
</event>
<event>
 5   0  0.3647623E-05  0.2602343E+04  0.7818609E-02  0.8367406E-01
        2   -1    0    0  501    0  0.00000000000E+00  0.00000000000E+00  0.24551607009E+04  0.24551607009E+04  0.25500000920E-02 0. -1.
       -2   -1    0    0    0  501  0.00000000000E+00  0.00000000000E+00 -0.68958704915E+03  0.68958704915E+03  0.25500000920E-02 0.  1.
    10030    2    1    2    0    0  0.00000000000E+00  0.00000000000E+00  0.17655736518E+04  0.31447477501E+04  0.26023428083E+04 0.  0.
        3    1    3    3  502    0  0.92271206841E+03 -0.20473888247E+03 -0.19788391854E+03  0.96564674007E+03  0.10100000352E+00 0.  1.
       -3    1    3    3    0  502 -0.92271206841E+03  0.20473888247E+03  0.19634575703E+04  0.21791010100E+04  0.10100000352E+00 0. -1.
</event>
<event>
 5   0  0.1451052E-05  0.2660720E+04  0.7818609E-02  0.8347864E-01
        1   -1    0    0  501    0  0.00000000000E+00  0.00000000000E+00  0.11123167996E+04  0.11123167996E+04  0.50400001928E-02 0. -1.
       -1   -1    0    0    0  501  0.00000000000E+00  0.00000000000E+00 -0.15911451312E+04  0.15911451312E+04  0.50400001928E-02 0.  1.
    10030    2    1    2    0    0  0.00000000000E+00  0.00000000000E+00 -0.47882833168E+03  0.27034619308E+04  0.26607197974E+04 0.  0.
        1    1    3    3  502    0  0.70626982303E+03  0.42258086493E+02 -0.13841242247E+04  0.15544782656E+04  0.50400001928E-02 0.  1.
       -1    1    3    3    0  502 -0.70626982303E+03 -0.42258086493E+02  0.90529589306E+03  0.11489836652E+04  0.50400001928E-02 0. -1.
</event>
<event>
 5   0  0.1533248E-05  0.2577600E+04  0.7818609E-02  0.8375850E-01
       -1   -1    0    0    0  501  0.00000000000E+00  0.00000000000E+00  0.13145126225E+04  0.13145126225E+04  0.50400001928E-02 0.  1.
        1   -1    0    0  501    0  0.00000000000E+00  0.00000000000E+00 -0.12635902142E+04  0.12635902142E+04  0.50400001928E-02 0. -1.
    10030    2    1    2    0    0  0.00000000000E+00  0.00000000000E+00  0.50922408311E+02  0.25781028367E+04  0.25775998807E+04 0.  0.
        4    1    3    3  502    0 -0.85997716462E+03 -0.46310585709E+03  0.86644386751E+03  0.13056624169E+04  0.12699999809E+01 0.  1.
       -4    1    3    3    0  502  0.85997716462E+03  0.46310585709E+03 -0.81552145920E+03  0.12724404198E+04  0.12699999809E+01 0. -1.
</event>
<event>
 5   0  0.1474554E-05  0.2580868E+04  0.7818609E-02  0.8374729E-01
        1   -1    0    0  501    0  0.00000000000E+00  0.00000000000E+00  0.14360506477E+04  0.14360506477E+04  0.50400001928E-02 0. -1.
       -1   -1    0    0    0  501  0.00000000000E+00  0.00000000000E+00 -0.11595834157E+04  0.11595834157E+04  0.50400001928E-02 0.  1.
    10030    2    1    2    0    0  0.00000000000E+00  0.00000000000E+00  0.27646723198E+03  0.25956340634E+04  0.25808684702E+04 0.  0.
        5    1    3    3  502    0 -0.66205638775E+03  0.57771041769E+03  0.10886962286E+04  0.13990530924E+04  0.46999998093E+01 0. -1.
       -5    1    3    3    0  502  0.66205638775E+03 -0.57771041769E+03 -0.81222899658E+03  0.11965809710E+04  0.46999998093E+01 0.  1.
</event>
<event>
 5   0  0.3499642E-05  0.2632207E+04  0.7818609E-02  0.8357343E-01
        2   -1    0    0  501    0  0.00000000000E+00  0.00000000000E+00  0.24733980450E+04  0.24733980450E+04  0.25500000920E-02 0. -1.
       -2   -1    0    0    0  501  0.00000000000E+00  0.00000000000E+00 -0.70030291001E+03  0.70030291002E+03  0.25500000920E-02 0.  1.
    10030    2    1    2    0    0  0.00000000000E+00  0.00000000000E+00  0.17730951350E+04  0.31737009551E+04  0.26322065638E+04 0.  0.
        2    1    3    3  502    0  0.78413171682E+02  0.12151380755E+04  0.14887056547E+04  0.19232664128E+04  0.25500000920E-02 0.  1.
       -2    1    3    3    0  502 -0.78413171682E+02 -0.12151380755E+04  0.28438948029E+03  0.12504345423E+04  0.25500000920E-02 0. -1.
</event>
<event>
 5   0  0.1497497E-05  0.2618456E+04  0.7818609E-02  0.8361959E-01
        1   -1    0    0  501    0  0.00000000000E+00  0.00000000000E+00  0.30594836429E+04  0.30594836429E+04  0.50400001928E-02 0. -1.
       -1   -1    0    0    0  501  0.00000000000E+00  0.00000000000E+00 -0.56025062216E+03  0.56025062218E+03  0.50400001928E-02 0.  1.
    10030    2    1    2    0    0  0.00000000000E+00  0.00000000000E+00  0.24992330207E+04  0.36197342651E+04  0.26184557391E+04 0.  0.
        3    1    3    3  502    0  0.17522167115E+03 -0.64976910223E+03  0.28020719477E+04  0.28817546271E+04  0.10100000352E+00 0. -1.
       -3    1    3    3    0  502 -0.17522167115E+03  0.64976910223E+03 -0.30283892697E+03  0.73797963803E+03  0.10100000352E+00 0.  1.
</event>
<event>
 5   0  0.1533248E-05  0.2572021E+04  0.7818609E-02  0.8377768E-01
       -1   -1    0    0    0  501  0.00000000000E+00  0.00000000000E+00  0.78714751885E+03  0.78714751886E+03  0.50400001928E-02 0.  1.
        1   -1    0    0  501    0  0.00000000000E+00  0.00000000000E+00 -0.21010332602E+04  0.21010332602E+04  0.50400001928E-02 0. -1.
    10030    2    1    2    0    0  0.00000000000E+00  0.00000000000E+00 -0.13138857413E+04  0.28881807790E+04  0.25720210868E+04 0.  0.
        4    1    3    3  502    0 -0.86953747008E+03 -0.94206573166E+03 -0.77056494635E+03  0.14957791294E+04  0.12699999809E+01 0.  1.
       -4    1    3    3    0  502  0.86953747008E+03  0.94206573166E+03 -0.54332079498E+03  0.13924016496E+04  0.12699999809E+01 0. -1.
</event>
<event>
 5   0  0.3441646E-05  0.2420977E+04  0.7818609E-02  0.8431692E-01
       -2   -1    0    0    0  501  0.00000000000E+00  0.00000000000E+00  0.14729134875E+04  0.14729134875E+04  0.25500000920E-02 0.  1.
        2   -1    0    0  501    0  0.00000000000E+00  0.00000000000E+00 -0.99481919894E+03  0.99481919895E+03  0.25500000920E-02 0. -1.
    10030    2    1    2    0    0  0.00000000000E+00  0.00000000000E+00  0.47809428856E+03  0.24677326865E+04  0.24209771711E+04 0.  0.
        4    1    3    3  502    0 -0.80444217873E+03  0.73627910646E+03  0.77459566757E+03  0.13376225935E+04  0.12699999809E+01 0.  1.
       -4    1    3    3    0  502  0.80444217873E+03 -0.73627910646E+03 -0.29650137901E+03  0.11301100929E+04  0.12699999809E+01 0. -1.
</event>
<event>
 5   0  0.1533248E-05  0.1855825E+04  0.7818609E-02  0.8677163E-01
       -1   -1    0    0    0  501  0.00000000000E+00  0.00000000000E+00  0.45386243031E+03  0.45386243033E+03  0.50400001928E-02 0.  1.
        1   -1    0    0  501    0  0.00000000000E+00  0.00000000000E+00 -0.18970972912E+04  0.18970972912E+04  0.50400001928E-02 0. -1.
    10030    2    1    2    0    0  0.00000000000E+00  0.00000000000E+00 -0.14432348609E+04  0.23509597215E+04  0.18558245468E+04 0.  0.
        4    1    3    3  502    0 -0.40375712675E+03 -0.34248178312E+03 -0.16869710400E+04  0.17681025117E+04  0.12699999809E+01 0. -1.
       -4    1    3    3    0  502  0.40375712675E+03  0.34248178312E+03  0.24373617910E+03  0.58285720985E+03  0.12699999809E+01 0.  1.
</event>
<event>
 5   0  0.1533248E-05  0.2638791E+04  0.7818609E-02  0.8355143E-01
       -1   -1    0    0    0  501  0.00000000000E+00  0.00000000000E+00  0.12216270295E+04  0.12216270295E+04  0.50400001928E-02 0.  1.
        1   -1    0    0  501    0  0.00000000000E+00  0.00000000000E+00 -0.14249890134E+04  0.14249890134E+04  0.50400001928E-02 0. -1.
    10030    2    1    2    0    0  0.00000000000E+00  0.00000000000E+00 -0.20336198389E+03  0.26466160429E+04  0.26387914624E+04 0.  0.
        4    1    3    3  502    0 -0.67220643821E+03 -0.10828961642E+04 -0.44368754832E+03  0.13495872893E+04  0.12699999809E+01 0. -1.
       -4    1    3    3    0  502  0.67220643821E+03  0.10828961642E+04  0.24032556442E+03  0.12970287536E+04  0.12699999809E+01 0.  1.
</event>
<event>
 5   0  0.1451052E-05  0.2604651E+04  0.7818609E-02  0.8366623E-01
        1   -1    0    0  501    0  0.00000000000E+00  0.00000000000E+00  0.18321966408E+04  0.18321966408E+04  0.50400001928E-02 0. -1.
       -1   -1    0    0    0  501  0.00000000000E+00  0.00000000000E+00 -0.92569338704E+03  0.92569338705E+03  0.50400001928E-02 0.  1.
    10030    2    1    2    0    0  0.00000000000E+00  0.00000000000E+00  0.90650325374E+03  0.27578900278E+04  0.26046514655E+04 0.  0.
        1    1    3    3  502    0 -0.75700945109E+02 -0.13001091112E+04  0.45977698981E+03  0.13810898648E+04  0.50400001928E-02 0. -1.
       -1    1    3    3    0  502  0.75700945109E+02  0.13001091112E+04  0.44672626392E+03  0.13768001631E+04  0.50400001928E-02 0.  1.
</event>
<event>
 5   0  0.3849687E-05  0.2582223E+04  0.7818609E-02  0.8374265E-01
        2   -1    0    0  501    0  0.00000000000E+00  0.00000000000E+00  0.15094203528E+04  0.15094203528E+04  0.25500000920E-02 0. -1.
       -2   -1    0    0    0  501  0.00000000000E+00  0.00000000000E+00 -0.11043764447E+04  0.11043764447E+04  0.25500000920E-02 0.  1.
    10030    2    1    2    0    0  0.00000000000E+00  0.00000000000E+00  0.40504390808E+03  0.26137967975E+04  0.25822225177E+04 0.  0.
        1    1    3    3  502    0 -0.11850074236E+03 -0.95745169027E+03  0.10710415831E+04  0.14414875088E+04  0.50400001928E-02 0. -1.
       -1    1    3    3    0  502  0.11850074236E+03  0.95745169027E+03 -0.66599767506E+03  0.11723092887E+04  0.50400001928E-02 0.  1.
</event>
<event>
 5   0  0.1497497E-05  0.2758816E+04  0.7818609E-02  0.8316170E-01
       -1   -1    0    0    0  501  0.00000000000E+00  0.00000000000E+00  0.11043083136E+04  0.11043083136E+04  0.50400001928E-02 0.  1.
        1   -1    0    0  501    0  0.00000000000E+00  0.00000000000E+00 -0.17230391828E+04  0.17230391828E+04  0.50400001928E-02 0. -1.
    10030    2    1    2    0    0  0.00000000000E+00  0.00000000000E+00 -0.61873086919E+03  0.28273474965E+04  0.27588160463E+04 0.  0.
        3    1    3    3  502    0  0.13184023570E+04  0.39536475047E+03 -0.40255510978E+03  0.14340671837E+04  0.10100000352E+00 0.  1.
       -3    1    3    3    0  502 -0.13184023570E+04 -0.39536475047E+03 -0.21617575941E+03  0.13932803128E+04  0.10100000352E+00 0. -1.
</event>
<event>
 5   0  0.3499642E-05  0.2618764E+04  0.7818609E-02  0.8361855E-01
       -2   -1    0    0    0  501  0.00000000000E+00  0.00000000000E+00  0.16044469248E+04  0.16044469248E+04  0.25500000920E-02 0.  1.
        2   -1    0    0  501    0  0.00000000000E+00  0.00000000000E+00 -0.10685805945E+04  0.10685805945E+04  0.25500000920E-02 0. -1.
    10030    2    1    2    0    0  0.00000000000E+00  0.00000000000E+00  0.53586633023E+03  0.26730275193E+04  0.26187637150E+04 0.  0.
        2    1    3    3  502    0 -0.13044144892E+04 -0.60278834791E+01  0.38407739104E+03  0.13597973883E+04  0.25500000920E-02 0. -1.
       -2    1    3    3    0  502  0.13044144892E+04  0.60278834791E+01  0.15178893920E+03  0.13132301310E+04  0.25500000920E-02 0.  1.
</event>
<event>
 5   0  0.3647623E-05  0.2605203E+04  0.7818609E-02  0.8366436E-01
        2   -1    0    0  501    0  0.00000000000E+00  0.00000000000E+00  0.21993234068E+04  0.21993234068E+04  0.25500000920E-02 0.  1.
       -2   -1    0    0    0  501  0.00000000000E+00  0.00000000000E+00 -0.77149639373E+03  0.77149639373E+03  0.25500000920E-02 0. -1.
    10030    2    1    2    0    0  0.00000000000E+00  0.00000000000E+00  0.14278270130E+04  0.29708198005E+04  0.26052025464E+04 0.  0.
        3    1    3    3  502    0 -0.63791881308E+03  0.67691460852E+03 -0.32599780895E+03  0.98561066398E+03  0.10100000352E+00 0. -1.
       -3    1    3    3    0  502  0.63791881308E+03 -0.67691460852E+03  0.17538248220E+04  0.19852091365E+04  0.10100000352E+00 0.  1.
</event>
<event>
 5   0  0.1474554E-05  0.2543469E+04  0.7818609E-02  0.8387661E-01
       -1   -1    0    0    0  501  0.00000000000E+00  0.00000000000E+00  0.10978477828E+04  0.10978477828E+04  0.50400001928E-02 0. -1.
        1   -1    0    0  501    0  0.00000000000E+00  0.00000000000E+00 -0.14731627369E+04  0.14731627369E+04  0.50400001928E-02 0.  1.
    10030    2    1    2    0    0  0.00000000000E+00  0.00000000000E+00 -0.37531495411E+03  0.25710105197E+04  0.25434688474E+04 0.  0.
        5    1    3    3  502    0 -0.49790050541E+03 -0.56515371544E+03 -0.12234398278E+04  0.14367082994E+04  0.46999998093E+01 0.  1.
       -5    1    3    3    0  502  0.49790050541E+03  0.56515371544E+03  0.84812487373E+03  0.11343022202E+04  0.46999998093E+01 0. -1.
</event>
<event>
 5   0  0.3441646E-05  0.2588099E+04  0.7818609E-02  0.8372255E-01
        2   -1    0    0  501    0  0.00000000000E+00  0.00000000000E+00  0.15769648088E+04  0.15769648088E+04  0.25500000920E-02 0. -1.
       -2   -1    0    0    0  501  0.00000000000E+00  0.00000000000E+00 -0.10618902210E+04  0.10618902211E+04  0.25500000920E-02 0.  1.
    10030    2    1    2    0    0  0.00000000000E+00  0.00000000000E+00  0.51507458770E+03  0.26388550298E+04  0.25880985370E+04 0.  0.
        4    1    3    3  502    0  0.25098324204E+03 -0.11106403857E+04  0.88445099595E+03  0.14417939628E+04  0.12699999809E+01 0. -1.
       -4    1    3    3    0  502 -0.25098324204E+03  0.11106403857E+04 -0.36937640824E+03  0.11970610670E+04  0.12699999809E+01 0.  1.
</event>
<event>
 5   0  0.3441646E-05  0.2567033E+04  0.7818609E-02  0.8379486E-01
       -2   -1    0    0    0  501  0.00000000000E+00  0.00000000000E+00  0.85551265474E+03  0.85551265474E+03  0.25500000920E-02 0. -1.
        2   -1    0    0  501    0  0.00000000000E+00  0.00000000000E+00 -0.19256464090E+04  0.19256464090E+04  0.25500000920E-02 0.  1.
    10030    2    1    2    0    0  0.00000000000E+00  0.00000000000E+00 -0.10701337542E+04  0.27811590637E+04  0.25670332070E+04 0.  0.
        4    1    3    3  502    0  0.12769501882E+04 -0.39750981515E+02 -0.66877670353E+03  0.14420283686E+04  0.12699999809E+01 0. -1.
       -4    1    3    3    0  502 -0.12769501882E+04  0.39750981515E+02 -0.40135705070E+03  0.13391306952E+04  0.12699999809E+01 0.  1.
</event>
<event>
 5   0  0.3499642E-05  0.2593216E+04  0.7818609E-02  0.8370509E-01
        2   -1    0    0  501    0  0.00000000000E+00  0.00000000000E+00  0.87904822531E+03  0.87904822532E+03  0.25500000920E-02 0.  1.
       -2   -1    0    0    0  501  0.00000000000E+00  0.00000000000E+00 -0.19125148052E+04  0.19125148052E+04  0.25500000920E-02 0. -1.
    10030    2    1    2    0    0  0.00000000000E+00  0.00000000000E+00 -0.10334665799E+04  0.27915630306E+04  0.25932163392E+04 0.  0.
        2    1    3    3  502    0  0.10458260665E+04 -0.17344940302E+03  0.28693158214E+03  0.10982561584E+04  0.25500000920E-02 0.  1.
       -2    1    3    3    0  502 -0.10458260665E+04  0.17344940302E+03 -0.13203981621E+04  0.16933068721E+04  0.25500000920E-02 0. -1.
</event>
<event>
 5   0  0.1474554E-05  0.2732149E+04  0.7818609E-02  0.8324649E-01
        1   -1    0    0  501    0  0.00000000000E+00  0.00000000000E+00  0.67090732937E+03  0.67090732939E+03  0.50400001928E-02 0. -1.
       -1   -1    0    0    0  501  0.00000000000E+00  0.00000000000E+00 -0.27815449665E+04  0.27815449665E+04  0.50400001928E-02 0.  1.
    10030    2    1    2    0    0  0.00000000000E+00  0.00000000000E+00 -0.21106376371E+04  0.34524522959E+04  0.27321485355E+04 0.  0.
        5    1    3    3  502    0  0.72951978901E+03 -0.54003485318E+03  0.23477044006E+03  0.93753720712E+03  0.46999998093E+01 0. -1.
       -5    1    3    3    0  502 -0.72951978901E+03  0.54003485318E+03 -0.23454080771E+04  0.25149150887E+04  0.46999998093E+01 0.  1.
</event>
<event>
 5   0  0.3647623E-05  0.2372045E+04  0.7818609E-02  0.8450044E-01
        2   -1    0    0  501    0  0.00000000000E+00  0.00000000000E+00  0.20259484059E+04  0.20259484059E+04  0.25500000920E-02 0.  1.
       -2   -1    0    0    0  501  0.00000000000E+00  0.00000000000E+00 -0.69431658348E+03  0.69431658349E+03  0.25500000920E-02 0. -1.
    10030    2    1    2    0    0  0.00000000000E+00  0.00000000000E+00  0.13316318224E+04  0.27202649894E+04  0.23720451728E+04 0.  0.
        3    1    3    3  502    0 -0.45922738656E+03 -0.41256242877E+03 -0.49554472786E+03  0.79161994525E+03  0.10100000352E+00 0. -1.
       -3    1    3    3    0  502  0.45922738656E+03  0.41256242877E+03  0.18271765502E+04  0.19286450441E+04  0.10100000352E+00 0.  1.
</event>
<event>
 5   0  0.1217200E-05  0.2500635E+04  0.7818609E-02  0.8402759E-01
       -3   -1    0    0    0  501  0.00000000000E+00  0.00000000000E+00  0.69712925919E+03  0.69712926650E+03  0.10100000352E+00 0. -1.
        3   -1    0    0  501    0  0.00000000000E+00  0.00000000000E+00 -0.22424735665E+04  0.22424735688E+04  0.10100000352E+00 0.  1.
    10030    2    1    2    0    0  0.00000000000E+00  0.00000000000E+00 -0.15453443073E+04  0.29396028353E+04  0.25006350796E+04 0.  0.
        3    1    3    3  502    0  0.10291682251E+04  0.10965277461E+03 -0.15972990722E+04  0.19033064133E+04  0.10100000352E+00 0.  1.
       -3    1    3    3    0  502 -0.10291682251E+04 -0.10965277461E+03  0.51954764909E+02  0.10362964220E+04  0.10100000352E+00 0. -1.
</event>
<event>
 5   0  0.1497497E-05  0.2495037E+04  0.7818609E-02  0.8404756E-01
       -1   -1    0    0    0  501  0.00000000000E+00  0.00000000000E+00  0.16023977823E+04  0.16023977823E+04  0.50400001928E-02 0.  1.
        1   -1    0    0  501    0  0.00000000000E+00  0.00000000000E+00 -0.97123388618E+03  0.97123388619E+03  0.50400001928E-02 0. -1.
    10030    2    1    2    0    0  0.00000000000E+00  0.00000000000E+00  0.63116389609E+03  0.25736316685E+04  0.24950374950E+04 0.  0.
        3    1    3    3  502    0  0.63258116904E+03 -0.18189988103E+02 -0.79337105462E+03  0.10148534138E+04  0.10100000352E+00 0. -1.
       -3    1    3    3    0  502 -0.63258116904E+03  0.18189988103E+02  0.14245349507E+04  0.15587782546E+04  0.10100000352E+00 0.  1.
</event>
<event>
 5   0  0.1217200E-05  0.2621195E+04  0.7818609E-02  0.8361037E-01
       -3   -1    0    0    0  501  0.00000000000E+00  0.00000000000E+00  0.18386581062E+04  0.18386581089E+04  0.10100000352E+00 0.  1.
        3   -1    0    0  501    0  0.00000000000E+00  0.00000000000E+00 -0.93419517943E+03  0.93419518489E+03  0.10100000352E+00 0. -1.
    10030    2    1    2    0    0  0.00000000000E+00  0.00000000000E+00  0.90446292672E+03  0.27728532938E+04  0.26211948045E+04 0.  0.
        5    1    3    3  502    0  0.77008899884E+03 -0.10426236521E+04  0.24726249411E+03  0.13195688603E+04  0.46999998093E+01 0. -1.
       -5    1    3    3    0  502 -0.77008899884E+03  0.10426236521E+04  0.65720043262E+03  0.14532844335E+04  0.46999998093E+01 0.  1.
</event>
<event>
 5   0  0.3441646E-05  0.2420882E+04  0.7818609E-02  0.8431727E-01
        2   -1    0    0  501    0  0.00000000000E+00  0.00000000000E+00  0.32897102469E+04  0.32897102469E+04  0.25500000920E-02 0.  1.
       -2   -1    0    0    0  501  0.00000000000E+00  0.00000000000E+00 -0.44537873612E+03  0.44537873612E+03  0.25500000920E-02 0. -1.
    10030    2    1    2    0    0  0.00000000000E+00  0.00000000000E+00  0.28443315108E+04  0.37350889830E+04  0.24208816509E+04 0.  0.
        4    1    3    3  502    0  0.34998321294E+03 -0.62168948893E+03 -0.86514007475E+02  0.71866011186E+03  0.12699999809E+01 0. -1.
       -4    1    3    3    0  502 -0.34998321294E+03  0.62168948893E+03  0.29308455182E+04  0.30164288711E+04  0.12699999809E+01 0.  1.
</event>
<event>
 5   0  0.1533248E-05  0.2489448E+04  0.7818609E-02  0.8406755E-01
        1   -1    0    0  501    0  0.00000000000E+00  0.00000000000E+00  0.13252844303E+04  0.13252844303E+04  0.50400001928E-02 0.  1.
       -1   -1    0    0    0  501  0.00000000000E+00  0.00000000000E+00 -0.11690602725E+04  0.11690602725E+04  0.50400001928E-02 0. -1.
    10030    2    1    2    0    0  0.00000000000E+00  0.00000000000E+00  0.15622415784E+03  0.24943447028E+04  0.24894476313E+04 0.  0.
        4    1    3    3  502    0  0.82947967661E+02  0.11342589684E+04 -0.42876049598E+03  0.12154262415E+04  0.12699999809E+01 0. -1.
       -4    1    3    3    0  502 -0.82947967661E+02 -0.11342589684E+04  0.58498465382E+03  0.12789184613E+04  0.12699999809E+01 0.  1.
</event>
<event>
 5   0  0.1497497E-05  0.2581004E+04  0.7818609E-02  0.8374682E-01
        1   -1    0    0  501    0  0.00000000000E+00  0.00000000000E+00  0.18885488093E+04  0.18885488093E+04  0.50400001928E-02 0.  1.
       -1   -1    0    0    0  501  0.00000000000E+00  0.00000000000E+00 -0.88183871733E+03  0.88183871734E+03  0.50400001928E-02 0. -1.
    10030    2    1    2    0    0  0.00000000000E+00  0.00000000000E+00  0.10067100920E+04  0.27703875266E+04  0.25810040369E+04 0.  0.
        3    1    3    3  502    0  0.75891554951E+03  0.11483415588E+03  0.16169046881E+04  0.17898381143E+04  0.10100000352E+00 0.  1.
       -3    1    3    3    0  502 -0.75891554951E+03 -0.11483415588E+03 -0.61019459618E+03  0.98054941234E+03  0.10100000352E+00 0. -1.
</event>
<event>
 5   0  0.3499642E-05  0.2606726E+04  0.7818609E-02  0.8365920E-01
       -2   -1    0    0    0  501  0.00000000000E+00  0.00000000000E+00  0.10638372200E+04  0.10638372200E+04  0.25500000920E-02 0. -1.
        2   -1    0    0  501    0  0.00000000000E+00  0.00000000000E+00 -0.15968180497E+04  0.15968180498E+04  0.25500000920E-02 0.  1.
    10030    2    1    2    0    0  0.00000000000E+00  0.00000000000E+00 -0.53298082970E+03  0.26606552698E+04  0.26067255130E+04 0.  0.
        2    1    3    3  502    0 -0.12021911920E+04 -0.34897679767E+03 -0.63691184001E+03  0.14045302273E+04  0.25500000920E-02 0. -1.
       -2    1    3    3    0  502  0.12021911920E+04  0.34897679767E+03  0.10393101030E+03  0.12561250425E+04  0.25500000920E-02 0.  1.
</event>
<event>
 5   0  0.1497497E-05  0.2637137E+04  0.7818609E-02  0.8355695E-01
        1   -1    0    0  501    0  0.00000000000E+00  0.00000000000E+00  0.13718699034E+04  0.13718699034E+04  0.50400001928E-02 0. -1.
       -1   -1    0    0    0  501  0.00000000000E+00  0.00000000000E+00 -0.12673377477E+04  0.12673377477E+04  0.50400001928E-02 0.  1.
    10030    2    1    2    0    0  0.00000000000E+00  0.00000000000E+00  0.10453215573E+03  0.26392076511E+04  0.26371367151E+04 0.  0.
        3    1    3    3  502    0  0.18867906439E+03  0.43381439933E+03 -0.11794838542E+04  0.12708174121E+04  0.10100000352E+00 0.  1.
       -3    1    3    3    0  502 -0.18867906439E+03 -0.43381439933E+03  0.12840160099E+04  0.13683902390E+04  0.10100000352E+00 0. -1.
</event>
<event>
 5   0  0.3441646E-05  0.2563634E+04  0.7818609E-02  0.8380660E-01
       -2   -1    0    0    0  501  0.00000000000E+00  0.00000000000E+00  0.86801014936E+03  0.86801014937E+03  0.25500000920E-02 0.  1.
        2   -1    0    0  501    0  0.00000000000E+00  0.00000000000E+00 -0.18928984454E+04  0.18928984454E+04  0.25500000920E-02 0. -1.
    10030    2    1    2    0    0  0.00000000000E+00  0.00000000000E+00 -0.10248882960E+04  0.27609085948E+04  0.25636341879E+04 0.  0.
        4    1    3    3  502    0  0.10799511338E+04 -0.17463848085E+03 -0.12318768069E+04  0.16475178696E+04  0.12699999809E+01 0. -1.
       -4    1    3    3    0  502 -0.10799511338E+04  0.17463848085E+03  0.20698851087E+03  0.11133907252E+04  0.12699999809E+01 0.  1.
</event>
<event>
 5   0  0.3849687E-05  0.2464732E+04  0.7818609E-02  0.8415659E-01
        2   -1    0    0  501    0  0.00000000000E+00  0.00000000000E+00  0.10143168798E+04  0.10143168798E+04  0.25500000920E-02 0.  1.
       -2   -1    0    0    0  501  0.00000000000E+00  0.00000000000E+00 -0.14972888592E+04  0.14972888592E+04  0.25500000920E-02 0. -1.
    10030    2    1    2    0    0  0.00000000000E+00  0.00000000000E+00 -0.48297197940E+03  0.25116057390E+04  0.24647315179E+04 0.  0.
        1    1    3    3  502    0 -0.19685201391E+03 -0.14843804274E+03  0.98892950705E+03  0.10191987725E+04  0.50400001928E-02 0.  1.
       -1    1    3    3    0  502  0.19685201391E+03  0.14843804274E+03 -0.14719014865E+04  0.14924069665E+04  0.50400001928E-02 0. -1.
</event>
<event>
 5   0  0.3647623E-05  0.1641943E+04  0.7818609E-02  0.8795187E-01
        2   -1    0    0  501    0  0.00000000000E+00  0.00000000000E+00  0.11967489114E+04  0.11967489114E+04  0.25500000920E-02 0.  1.
       -2   -1    0    0    0  501  0.00000000000E+00  0.00000000000E+00 -0.56318790637E+03  0.56318790637E+03  0.25500000920E-02 0. -1.
    10030    2    1    2    0    0  0.00000000000E+00  0.00000000000E+00  0.63356100504E+03  0.17599368178E+04  0.16419433777E+04 0.  0.
        3    1    3    3  502    0 -0.35886322583E+03 -0.27870120455E+03 -0.41612341881E+03  0.61612976406E+03  0.10100000352E+00 0. -1.
       -3    1    3    3    0  502  0.35886322583E+03  0.27870120455E+03  0.10496844238E+04  0.11438070537E+04  0.10100000352E+00 0.  1.
</event>
<event>
 5   0  0.3647623E-05  0.2587329E+04  0.7818609E-02  0.8372518E-01
       -2   -1    0    0    0  501  0.00000000000E+00  0.00000000000E+00  0.91916762310E+03  0.91916762310E+03  0.25500000920E-02 0. -1.
        2   -1    0    0  501    0  0.00000000000E+00  0.00000000000E+00 -0.18207427061E+04  0.18207427061E+04  0.25500000920E-02 0.  1.
    10030    2    1    2    0    0  0.00000000000E+00  0.00000000000E+00 -0.90157508300E+03  0.27399103292E+04  0.25873289280E+04 0.  0.
        3    1    3    3  502    0  0.32169476587E+03 -0.52863883061E+03  0.75226363636E+03  0.97408784224E+03  0.10100000352E+00 0. -1.
       -3    1    3    3    0  502 -0.32169476587E+03  0.52863883061E+03 -0.16538387194E+04  0.17658224870E+04  0.10100000352E+00 0.  1.
</event>
<event>
 5   0  0.3508470E-05  0.2638229E+04  0.7818609E-02  0.8355330E-01
       -2   -1    0    0    0  501  0.00000000000E+00  0.00000000000E+00  0.90204661117E+03  0.90204661117E+03  0.25500000920E-02 0.  1.
        2   -1    0    0  501    0  0.00000000000E+00  0.00000000000E+00 -0.19290173556E+04  0.19290173556E+04  0.25500000920E-02 0. -1.
    10030    2    1    2    0    0  0.00000000000E+00  0.00000000000E+00 -0.10269707444E+04  0.28310639668E+04  0.26382293824E+04 0.  0.
        5    1    3    3  502    0 -0.10511913714E+04  0.55109722406E+02  0.33960697422E+03  0.11060720445E+04  0.46999998093E+01 0. -1.
       -5    1    3    3    0  502  0.10511913714E+04 -0.55109722406E+02 -0.13665777187E+04  0.17249919223E+04  0.46999998093E+01 0.  1.
</event>
<event>
 5   0  0.1497497E-05  0.2616737E+04  0.7818609E-02  0.8362538E-01
        1   -1    0    0  501    0  0.00000000000E+00  0.00000000000E+00  0.21452855380E+04  0.21452855380E+04  0.50400001928E-02 0.  1.
       -1   -1    0    0    0  501  0.00000000000E+00  0.00000000000E+00 -0.79794912748E+03  0.79794912750E+03  0.50400001928E-02 0. -1.
    10030    2    1    2    0    0  0.00000000000E+00  0.00000000000E+00  0.13473364105E+04  0.29432346655E+04  0.26167374521E+04 0.  0.
        3    1    3    3  502    0 -0.12312012807E+04 -0.33656150697E+03  0.35021349417E+03  0.13235481643E+04  0.10100000352E+00 0. -1.
       -3    1    3    3    0  502  0.12312012807E+04  0.33656150697E+03  0.99712291637E+03  0.16196865012E+04  0.10100000352E+00 0.  1.
</event>
<event>
 5   0  0.1533248E-05  0.2631937E+04  0.7818609E-02  0.8357433E-01
       -1   -1    0    0    0  501  0.00000000000E+00  0.00000000000E+00  0.98815489594E+03  0.98815489596E+03  0.50400001928E-02 0.  1.
        1   -1    0    0  501    0  0.00000000000E+00  0.00000000000E+00 -0.17525315780E+04  0.17525315781E+04  0.50400001928E-02 0. -1.
    10030    2    1    2    0    0  0.00000000000E+00  0.00000000000E+00 -0.76437668210E+03  0.27406864740E+04  0.26319366703E+04 0.  0.
        4    1    3    3  502    0 -0.81103709318E+03  0.65190178010E+03  0.45671309307E+03  0.11363738644E+04  0.12699999809E+01 0.  1.
       -4    1    3    3    0  502  0.81103709318E+03 -0.65190178010E+03 -0.12210897752E+04  0.16043126096E+04  0.12699999809E+01 0. -1.
</event>
<event>
 5   0  0.3441646E-05  0.2599850E+04  0.7818609E-02  0.8368252E-01
        2   -1    0    0  501    0  0.00000000000E+00  0.00000000000E+00  0.14567962224E+04  0.14567962224E+04  0.25500000920E-02 0.  1.
       -2   -1    0    0    0  501  0.00000000000E+00  0.00000000000E+00 -0.11599457287E+04  0.11599457287E+04  0.25500000920E-02 0. -1.
    10030    2    1    2    0    0  0.00000000000E+00  0.00000000000E+00  0.29685049372E+03  0.26167419511E+04  0.25998496539E+04 0.  0.
        4    1    3    3  502    0  0.21184050656E+03  0.14064809177E+03  0.14315198408E+04  0.14539287993E+04  0.12699999809E+01 0.  1.
       -4    1    3    3    0  502 -0.21184050656E+03 -0.14064809177E+03 -0.11346693471E+04  0.11628131518E+04  0.12699999809E+01 0. -1.
</event>
<event>
 5   0  0.1497497E-05  0.2598478E+04  0.7818609E-02  0.8368718E-01
       -1   -1    0    0    0  501  0.00000000000E+00  0.00000000000E+00  0.87547336562E+03  0.87547336563E+03  0.50400001928E-02 0. -1.
        1   -1    0    0  501    0  0.00000000000E+00  0.00000000000E+00 -0.19281247869E+04  0.19281247869E+04  0.50400001928E-02 0.  1.
    10030    2    1    2    0    0  0.00000000000E+00  0.00000000000E+00 -0.10526514213E+04  0.28035981525E+04  0.25984779364E+04 0.  0.
        3    1    3    3  502    0  0.76268065510E+03  0.22097486409E+03  0.58320420639E+03  0.98521004297E+03  0.10100000352E+00 0. -1.
       -3    1    3    3    0  502 -0.76268065510E+03 -0.22097486409E+03 -0.16358556277E+04  0.18183881096E+04  0.10100000352E+00 0.  1.
</event>
<event>
 5   0  0.1435062E-05  0.2556610E+04  0.7818609E-02  0.8383091E-01
        1   -1    0    0  501    0  0.00000000000E+00  0.00000000000E+00  0.13686044409E+04  0.13686044409E+04  0.50400001928E-02 0.  1.
       -1   -1    0    0    0  501  0.00000000000E+00  0.00000000000E+00 -0.11939635912E+04  0.11939635912E+04  0.50400001928E-02 0. -1.
    10030    2    1    2    0    0  0.00000000000E+00  0.00000000000E+00  0.17464084970E+03  0.25625680320E+04  0.25566101565E+04 0.  0.
        2    1    3    3  502    0  0.11911190517E+04  0.25261661857E+03 -0.30279619360E+03  0.12546972886E+04  0.25500000920E-02 0. -1.
       -2    1    3    3    0  502 -0.11911190517E+04 -0.25261661857E+03  0.47743704330E+03  0.13078707434E+04  0.25500000920E-02 0.  1.
</event>
<event>
 5   0  0.1474554E-05  0.2610378E+04  0.7818609E-02  0.8364685E-01
        1   -1    0    0  501    0  0.00000000000E+00  0.00000000000E+00  0.15013343979E+04  0.15013343979E+04  0.50400001928E-02 0. -1.
       -1   -1    0    0    0  501  0.00000000000E+00  0.00000000000E+00 -0.11346693943E+04  0.11346693943E+04  0.50400001928E-02 0.  1.
    10030    2    1    2    0    0  0.00000000000E+00  0.00000000000E+00  0.36666500355E+03  0.26360037922E+04  0.26103778975E+04 0.  0.
        5    1    3    3  502    0  0.17820726834E+03  0.11963800376E+04 -0.31180029102E+03  0.12491295114E+04  0.46999998093E+01 0.  1.
       -5    1    3    3    0  502 -0.17820726834E+03 -0.11963800376E+04  0.67846529458E+03  0.13868742808E+04  0.46999998093E+01 0. -1.
</event>
<event>
 5   0  0.1497497E-05  0.2577185E+04  0.7818609E-02  0.8375992E-01
        1   -1    0    0  501    0  0.00000000000E+00  0.00000000000E+00  0.87567084922E+03  0.87567084923E+03  0.50400001928E-02 0. -1.
       -1   -1    0    0    0  501  0.00000000000E+00  0.00000000000E+00 -0.18962267893E+04  0.18962267893E+04  0.50400001928E-02 0.  1.
    10030    2    1    2    0    0  0.00000000000E+00  0.00000000000E+00 -0.10205559401E+04  0.27718976385E+04  0.25771849161E+04 0.  0.
        3    1    3    3  502    0 -0.89733104744E+03  0.22751619867E+03  0.45382983266E+03  0.10309840719E+04  0.10100000352E+00 0. -1.
       -3    1    3    3    0  502  0.89733104744E+03 -0.22751619867E+03 -0.14743857727E+04  0.17409135666E+04  0.10100000352E+00 0.  1.
</event>
<event>
 5   0  0.1474554E-05  0.2726964E+04  0.7818609E-02  0.8326309E-01
       -1   -1    0    0    0  501  0.00000000000E+00  0.00000000000E+00  0.83349104211E+03  0.83349104212E+03  0.50400001928E-02 0. -1.
        1   -1    0    0  501    0  0.00000000000E+00  0.00000000000E+00 -0.22304777373E+04  0.22304777373E+04  0.50400001928E-02 0.  1.
    10030    2    1    2    0    0  0.00000000000E+00  0.00000000000E+00 -0.13969866952E+04  0.30639687794E+04  0.27269640362E+04 0.  0.
        5    1    3    3  502    0 -0.23484527875E+03  0.42165336860E+03  0.73429108588E+03  0.87872029509E+03  0.46999998093E+01 0. -1.
       -5    1    3    3    0  502  0.23484527875E+03 -0.42165336860E+03 -0.21312777810E+04  0.21852484843E+04  0.46999998093E+01 0.  1.
</event>
<event>
 5   0  0.1435062E-05  0.2584465E+04  0.7818609E-02  0.8373497E-01
       -1   -1    0    0    0  501  0.00000000000E+00  0.00000000000E+00  0.74979194115E+03  0.74979194117E+03  0.50400001928E-02 0.  1.
        1   -1    0    0  501    0  0.00000000000E+00  0.00000000000E+00 -0.22271046762E+04  0.22271046762E+04  0.50400001928E-02 0. -1.
    10030    2    1    2    0    0  0.00000000000E+00  0.00000000000E+00 -0.14773127350E+04  0.29768966174E+04  0.25844652355E+04 0.  0.
        2    1    3    3  502    0  0.31703026837E+03  0.38454410949E+02 -0.21809351662E+04  0.22041926259E+04  0.25500000920E-02 0. -1.
       -2    1    3    3    0  502 -0.31703026837E+03 -0.38454410949E+02  0.70362243118E+03  0.77270399148E+03  0.25500000920E-02 0.  1.
</event>
<event>
 5   0  0.1435062E-05  0.2566141E+04  0.7818609E-02  0.8379794E-01
       -1   -1    0    0    0  501  0.00000000000E+00  0.00000000000E+00  0.76920060864E+03  0.76920060865E+03  0.50400001928E-02 0. -1.
        1   -1    0    0  501    0  0.00000000000E+00  0.00000000000E+00 -0.21402342775E+04  0.21402342775E+04  0.50400001928E-02 0.  1.
    10030    2    1    2    0    0  0.00000000000E+00  0.00000000000E+00 -0.13710336688E+04  0.29094348861E+04  0.25661406890E+04 0.  0.
        2    1    3    3  502    0  0.49940931841E+03 -0.89199410576E+02  0.65066075993E+03  0.82506098361E+03  0.25500000920E-02 0. -1.
       -2    1    3    3    0  502 -0.49940931841E+03  0.89199410576E+02 -0.20216944288E+04  0.20843739025E+04  0.25500000920E-02 0.  1.
</event>
<event>
 5   0  0.3508470E-05  0.2655852E+04  0.7818609E-02  0.8349473E-01
        2   -1    0    0  501    0  0.00000000000E+00  0.00000000000E+00  0.11906435021E+04  0.11906435021E+04  0.25500000920E-02 0. -1.
       -2   -1    0    0    0  501  0.00000000000E+00  0.00000000000E+00 -0.14810371037E+04  0.14810371037E+04  0.25500000920E-02 0.  1.
    10030    2    1    2    0    0  0.00000000000E+00  0.00000000000E+00 -0.29039360155E+03  0.26716806058E+04  0.26558518061E+04 0.  0.
        5    1    3    3  502    0 -0.69478738616E+03 -0.11167351910E+04 -0.32942242021E+03  0.13558643810E+04  0.46999998093E+01 0.  1.
       -5    1    3    3    0  502  0.69478738616E+03  0.11167351910E+04  0.39028818659E+02  0.13158162248E+04  0.46999998093E+01 0. -1.
</event>
<event>
 5   0  0.1497497E-05  0.2628618E+04  0.7818609E-02  0.8358545E-01
       -1   -1    0    0    0  501  0.00000000000E+00  0.00000000000E+00  0.13045603995E+04  0.13045603995E+04  0.50400001928E-02 0.  1.
        1   -1    0    0  501    0  0.00000000000E+00  0.00000000000E+00 -0.13241301500E+04  0.13241301501E+04  0.50400001928E-02 0. -1.
    10030    2    1    2    0    0  0.00000000000E+00  0.00000000000E+00 -0.19569750559E+02  0.26286905495E+04  0.26286177033E+04 0.  0.
        3    1    3    3  502    0 -0.12294747391E+04 -0.27100222449E+03  0.36752838699E+03  0.13115362996E+04  0.10100000352E+00 0.  1.
       -3    1    3    3    0  502  0.12294747391E+04  0.27100222449E+03 -0.38709813755E+03  0.13171542499E+04  0.10100000352E+00 0. -1.
</event>
<event>
 5   0  0.3508470E-05  0.2570289E+04  0.7818609E-02  0.8378364E-01
       -2   -1    0    0    0  501  0.00000000000E+00  0.00000000000E+00  0.11148530687E+04  0.11148530687E+04  0.25500000920E-02 0. -1.
        2   -1    0    0  501    0  0.00000000000E+00  0.00000000000E+00 -0.14814473100E+04  0.14814473100E+04  0.25500000920E-02 0.  1.
    10030    2    1    2    0    0  0.00000000000E+00  0.00000000000E+00 -0.36659424124E+03  0.25963003787E+04  0.25702887617E+04 0.  0.
        5    1    3    3  502    0 -0.52958864693E+03 -0.53710604890E+03  0.86772640132E+03  0.11497470332E+04  0.46999998093E+01 0. -1.
       -5    1    3    3    0  502  0.52958864693E+03  0.53710604890E+03 -0.12343206426E+04  0.14465533455E+04  0.46999998093E+01 0.  1.
</event>
<event>
 5   0  0.1497497E-05  0.2678469E+04  0.7818609E-02  0.8342025E-01
        1   -1    0    0  501    0  0.00000000000E+00  0.00000000000E+00  0.14642464064E+04  0.14642464064E+04  0.50400001928E-02 0. -1.
       -1   -1    0    0    0  501  0.00000000000E+00  0.00000000000E+00 -0.12248956354E+04  0.12248956355E+04  0.50400001928E-02 0.  1.
    10030    2    1    2    0    0  0.00000000000E+00  0.00000000000E+00  0.23935077092E+03  0.26891420418E+04  0.26784689898E+04 0.  0.
        3    1    3    3  502    0 -0.58268823788E+03 -0.73858040721E+03 -0.83728716988E+03  0.12593952579E+04  0.10100000352E+00 0.  1.
       -3    1    3    3    0  502  0.58268823788E+03  0.73858040721E+03  0.10766379408E+04  0.14297467840E+04  0.10100000352E+00 0. -1.
</event>
<event>
 5   0  0.3441646E-05  0.2632932E+04  0.7818609E-02  0.8357100E-01
       -2   -1    0    0    0  501  0.00000000000E+00  0.00000000000E+00  0.11151220032E+04  0.11151220032E+04  0.25500000920E-02 0. -1.
        2   -1    0    0  501    0  0.00000000000E+00  0.00000000000E+00 -0.15541645150E+04  0.15541645150E+04  0.25500000920E-02 0.  1.
    10030    2    1    2    0    0  0.00000000000E+00  0.00000000000E+00 -0.43904251180E+03  0.26692865182E+04  0.26329322417E+04 0.  0.
        4    1    3    3  502    0  0.53086102488E+03  0.70219042518E+03  0.77286976483E+03  0.11714154290E+04  0.12699999809E+01 0. -1.
       -4    1    3    3    0  502 -0.53086102488E+03 -0.70219042518E+03 -0.12119122766E+04  0.14978710893E+04  0.12699999809E+01 0.  1.
</event>
<event>
 5   0  0.1533248E-05  0.2585204E+04  0.7818609E-02  0.8373244E-01
        1   -1    0    0  501    0  0.00000000000E+00  0.00000000000E+00  0.17101789513E+04  0.17101789514E+04  0.50400001928E-02 0. -1.
       -1   -1    0    0    0  501  0.00000000000E+00  0.00000000000E+00 -0.97698548330E+03  0.97698548331E+03  0.50400001928E-02 0.  1.
    10030    2    1    2    0    0  0.00000000000E+00  0.00000000000E+00  0.73319346805E+03  0.26871644347E+04  0.25852040611E+04 0.  0.
        4    1    3    3  502    0  0.21549330700E+03 -0.45410640765E+03 -0.87123985467E+03  0.10058382037E+04  0.12699999809E+01 0.  1.
       -4    1    3    3    0  502 -0.21549330700E+03  0.45410640765E+03  0.16044333227E+04  0.16813262309E+04  0.12699999809E+01 0. -1.
</event>
<event>
 5   0  0.3441646E-05  0.2607154E+04  0.7818609E-02  0.8365775E-01
       -2   -1    0    0    0  501  0.00000000000E+00  0.00000000000E+00  0.84152333848E+03  0.84152333849E+03  0.25500000920E-02 0. -1.
        2   -1    0    0  501    0  0.00000000000E+00  0.00000000000E+00 -0.20193290713E+04  0.20193290713E+04  0.25500000920E-02 0.  1.
    10030    2    1    2    0    0  0.00000000000E+00  0.00000000000E+00 -0.11778057329E+04  0.28608524098E+04  0.26071536523E+04 0.  0.
        4    1    3    3  502    0 -0.12779111364E+04 -0.25613873226E+03 -0.61681435563E+03  0.14419172947E+04  0.12699999809E+01 0. -1.
       -4    1    3    3    0  502  0.12779111364E+04  0.25613873226E+03 -0.56099137723E+03  0.14189351151E+04  0.12699999809E+01 0.  1.
</event>
<event>
 5   0  0.3499642E-05  0.2625002E+04  0.7818609E-02  0.8359758E-01
        2   -1    0    0  501    0  0.00000000000E+00  0.00000000000E+00  0.13892007333E+04  0.13892007333E+04  0.25500000920E-02 0.  1.
       -2   -1    0    0    0  501  0.00000000000E+00  0.00000000000E+00 -0.12400362492E+04  0.12400362492E+04  0.25500000920E-02 0. -1.
    10030    2    1    2    0    0  0.00000000000E+00  0.00000000000E+00  0.14916448414E+03  0.26292369825E+04  0.26250022984E+04 0.  0.
        2    1    3    3  502    0  0.52825936865E+02 -0.96075117110E+03  0.96867331430E+03  0.13653429541E+04  0.25500000920E-02 0.  1.
       -2    1    3    3    0  502 -0.52825936865E+02  0.96075117110E+03 -0.81950883016E+03  0.12638940284E+04  0.25500000920E-02 0. -1.
</event>
<event>
 5   0  0.1451052E-05  0.2586130E+04  0.7818609E-02  0.8372928E-01
        1   -1    0    0  501    0  0.00000000000E+00  0.00000000000E+00  0.14804931884E+04  0.14804931884E+04  0.50400001928E-02 0.  1.
       -1   -1    0    0    0  501  0.00000000000E+00  0.00000000000E+00 -0.11293645837E+04  0.11293645837E+04  0.50400001928E-02 0. -1.
    10030    2    1    2    0    0  0.00000000000E+00  0.00000000000E+00  0.35112860471E+03  0.26098577721E+04  0.25861295972E+04 0.  0.
        1    1    3    3  502    0  0.31749742670E+03  0.22469372884E+03  0.14200555705E+04  0.14723619497E+04  0.50400001928E-02 0.  1.
       -1    1    3    3    0  502 -0.31749742670E+03 -0.22469372884E+03 -0.10689269658E+04  0.11374958224E+04  0.50400001928E-02 0. -1.
</event>
<event>
 5   0  0.1217200E-05  0.2628226E+04  0.7818609E-02  0.8358676E-01
       -3   -1    0    0    0  501  0.00000000000E+00  0.00000000000E+00  0.13413422132E+04  0.13413422170E+04  0.10100000352E+00 0. -1.
        3   -1    0    0  501    0  0.00000000000E+00  0.00000000000E+00 -0.12874367649E+04  0.12874367689E+04  0.10100000352E+00 0.  1.
    10030    2    1    2    0    0  0.00000000000E+00  0.00000000000E+00  0.53905448266E+02  0.26287789858E+04  0.26282262382E+04 0.  0.
        5    1    3    3  502    0 -0.99833937122E+02  0.23576708253E+03  0.13161451580E+04  0.13408255290E+04  0.46999998093E+01 0. -1.
       -5    1    3    3    0  502  0.99833937122E+02 -0.23576708253E+03 -0.12622397097E+04  0.12879534569E+04  0.46999998093E+01 0.  1.
</event>
<event>
 5   0  0.1451052E-05  0.2702569E+04  0.7818609E-02  0.8334172E-01
        1   -1    0    0  501    0  0.00000000000E+00  0.00000000000E+00  0.10184886140E+04  0.10184886140E+04  0.50400001928E-02 0. -1.
       -1   -1    0    0    0  501  0.00000000000E+00  0.00000000000E+00 -0.17928225333E+04  0.17928225333E+04  0.50400001928E-02 0.  1.
    10030    2    1    2    0    0  0.00000000000E+00  0.00000000000E+00 -0.77433391934E+03  0.28113111473E+04  0.27025686575E+04 0.  0.
        1    1    3    3  502    0  0.88826829332E+03  0.43104469373E+03 -0.13468659519E+04  0.16699904136E+04  0.50400001928E-02 0.  1.
       -1    1    3    3    0  502 -0.88826829332E+03 -0.43104469373E+03  0.57253203258E+03  0.11413207337E+04  0.50400001928E-02 0. -1.
</event>
<event>
 5   0  0.3508470E-05  0.2585406E+04  0.7818609E-02  0.8373176E-01
        2   -1    0    0  501    0  0.00000000000E+00  0.00000000000E+00  0.11991616848E+04  0.11991616848E+04  0.25500000920E-02 0.  1.
       -2   -1    0    0    0  501  0.00000000000E+00  0.00000000000E+00 -0.13935406564E+04  0.13935406564E+04  0.25500000920E-02 0. -1.
    10030    2    1    2    0    0  0.00000000000E+00  0.00000000000E+00 -0.19437897163E+03  0.25927023412E+04  0.25854056249E+04 0.  0.
        5    1    3    3  502    0  0.10941079418E+03 -0.68643983421E+03 -0.11901682827E+04  0.13782935097E+04  0.46999998093E+01 0. -1.
       -5    1    3    3    0  502 -0.10941079418E+03  0.68643983421E+03  0.99578931106E+03  0.12144088314E+04  0.46999998093E+01 0.  1.
</event>
<event>
 5   0  0.3647623E-05  0.2626485E+04  0.7818609E-02  0.8359260E-01
        2   -1    0    0  501    0  0.00000000000E+00  0.00000000000E+00  0.93292466076E+03  0.93292466076E+03  0.25500000920E-02 0.  1.
       -2   -1    0    0    0  501  0.00000000000E+00  0.00000000000E+00 -0.18486017474E+04  0.18486017474E+04  0.25500000920E-02 0. -1.
    10030    2    1    2    0    0  0.00000000000E+00  0.00000000000E+00 -0.91567708664E+03  0.27815264082E+04  0.26264852241E+04 0.  0.
        3    1    3    3  502    0  0.10939929745E+04  0.35723985749E+03 -0.11277661683E+04  0.16113030394E+04  0.10100000352E+00 0. -1.
       -3    1    3    3    0  502 -0.10939929745E+04 -0.35723985749E+03  0.21208908165E+03  0.11702233688E+04  0.10100000352E+00 0.  1.
</event>
<event>
 5   0  0.3508470E-05  0.1658087E+04  0.7818609E-02  0.8785637E-01
       -2   -1    0    0    0  501  0.00000000000E+00  0.00000000000E+00  0.11272734166E+04  0.11272734166E+04  0.25500000920E-02 0.  1.
        2   -1    0    0  501    0  0.00000000000E+00  0.00000000000E+00 -0.60971290887E+03  0.60971290887E+03  0.25500000920E-02 0. -1.
    10030    2    1    2    0    0  0.00000000000E+00  0.00000000000E+00  0.51756050769E+03  0.17369863254E+04  0.16580870350E+04 0.  0.
        5    1    3    3  502    0 -0.77183745258E+03 -0.76987223021E+02 -0.47772010626E+02  0.77715142714E+03  0.46999998093E+01 0. -1.
       -5    1    3    3    0  502  0.77183745258E+03  0.76987223021E+02  0.56533251832E+03  0.95983489829E+03  0.46999998093E+01 0.  1.
</event>
<event>
 5   0  0.1435062E-05  0.2055047E+04  0.7818609E-02  0.8581308E-01
        1   -1    0    0  501    0  0.00000000000E+00  0.00000000000E+00  0.16056684200E+04  0.16056684201E+04  0.50400001928E-02 0. -1.
       -1   -1    0    0    0  501  0.00000000000E+00  0.00000000000E+00 -0.65754808795E+03  0.65754808797E+03  0.50400001928E-02 0.  1.
    10030    2    1    2    0    0  0.00000000000E+00  0.00000000000E+00  0.94812033210E+03  0.22632165080E+04  0.20550466657E+04 0.  0.
        2    1    3    3  502    0  0.68614261798E+03  0.42549103151E+03  0.11740293356E+04  0.14248435672E+04  0.25500000920E-02 0. -1.
       -2    1    3    3    0  502 -0.68614261798E+03 -0.42549103151E+03 -0.22590900347E+03  0.83837294086E+03  0.25500000920E-02 0.  1.
</event>
<event>
 5   0  0.3441646E-05  0.2586615E+04  0.7818609E-02  0.8372762E-01
       -2   -1    0    0    0  501  0.00000000000E+00  0.00000000000E+00  0.93850234485E+03  0.93850234486E+03  0.25500000920E-02 0. -1.
        2   -1    0    0  501    0  0.00000000000E+00  0.00000000000E+00 -0.17822483831E+04  0.17822483831E+04  0.25500000920E-02 0.  1.
    10030    2    1    2    0    0  0.00000000000E+00  0.00000000000E+00 -0.84374603821E+03  0.27207507279E+04  0.25866149977E+04 0.  0.
        4    1    3    3  502    0 -0.49137242989E+03  0.11661280054E+04 -0.70282197546E+03  0.14475018936E+04  0.12699999809E+01 0.  1.
       -4    1    3    3    0  502  0.49137242989E+03 -0.11661280054E+04 -0.14092406275E+03  0.12732488344E+04  0.12699999809E+01 0. -1.
</event>
<event>
 5   0  0.1451052E-05  0.2317275E+04  0.7818609E-02  0.8471141E-01
        1   -1    0    0  501    0  0.00000000000E+00  0.00000000000E+00  0.16397652173E+04  0.16397652173E+04  0.50400001928E-02 0. -1.
       -1   -1    0    0    0  501  0.00000000000E+00  0.00000000000E+00 -0.81867862859E+03  0.81867862861E+03  0.50400001928E-02 0.  1.
    10030    2    1    2    0    0  0.00000000000E+00  0.00000000000E+00  0.82108658871E+03  0.24584438459E+04  0.23172748990E+04 0.  0.
        1    1    3    3  502    0  0.64998300911E+03 -0.95903302582E+03  0.42622492211E+03  0.12344593720E+04  0.50400001928E-02 0. -1.
       -1    1    3    3    0  502 -0.64998300911E+03  0.95903302582E+03  0.39486166660E+03  0.12239844740E+04  0.50400001928E-02 0.  1.
</event>
<event>
 5   0  0.3647623E-05  0.2516764E+04  0.7818609E-02  0.8397037E-01
        2   -1    0    0  501    0  0.00000000000E+00  0.00000000000E+00  0.18486868863E+04  0.18486868863E+04  0.25500000920E-02 0.  1.
       -2   -1    0    0    0  501  0.00000000000E+00  0.00000000000E+00 -0.85656782213E+03  0.85656782213E+03  0.25500000920E-02 0. -1.
    10030    2    1    2    0    0  0.00000000000E+00  0.00000000000E+00  0.99211906417E+03  0.27052547084E+04  0.25167643513E+04 0.  0.
        3    1    3    3  502    0  0.12706594559E+03  0.11789249731E+04  0.94894060175E+03  0.15187159453E+04  0.10100000352E+00 0.  1.
       -3    1    3    3    0  502 -0.12706594559E+03 -0.11789249731E+04  0.43178462420E+02  0.11865387631E+04  0.10100000352E+00 0. -1.
</event>
<event>
 5   0  0.1451052E-05  0.2604590E+04  0.7818609E-02  0.8366644E-01
       -1   -1    0    0    0  501  0.00000000000E+00  0.00000000000E+00  0.75164058817E+03  0.75164058819E+03  0.50400001928E-02 0.  1.
        1   -1    0    0  501    0  0.00000000000E+00  0.00000000000E+00 -0.22563598692E+04  0.22563598693E+04  0.50400001928E-02 0. -1.
    10030    2    1    2    0    0  0.00000000000E+00  0.00000000000E+00 -0.15047192811E+04  0.30080004574E+04  0.26045895333E+04 0.  0.
        1    1    3    3  502    0  0.85186679620E+02  0.87045130315E+03 -0.18667062827E+04  0.20614399306E+04  0.50400001928E-02 0. -1.
       -1    1    3    3    0  502 -0.85186679620E+02 -0.87045130315E+03  0.36198700166E+03  0.94656052682E+03  0.50400001928E-02 0.  1.
</event>
<event>
 5   0  0.3508470E-05  0.2047216E+04  0.7818609E-02  0.8584858E-01
       -2   -1    0    0    0  501  0.00000000000E+00  0.00000000000E+00  0.14005991647E+04  0.14005991647E+04  0.25500000920E-02 0.  1.
        2   -1    0    0  501    0  0.00000000000E+00  0.00000000000E+00 -0.74808971916E+03  0.74808971916E+03  0.25500000920E-02 0. -1.
    10030    2    1    2    0    0  0.00000000000E+00  0.00000000000E+00  0.65250944559E+03  0.21486888839E+04  0.20472164867E+04 0.  0.
        5    1    3    3  502    0 -0.54666295156E+03 -0.46457338511E+03  0.10925694217E+04  0.13070573224E+04  0.46999998093E+01 0.  1.
       -5    1    3    3    0  502  0.54666295156E+03  0.46457338511E+03 -0.44005997612E+03  0.84163156152E+03  0.46999998093E+01 0. -1.
</event>
<event>
 5   0  0.1533248E-05  0.2562490E+04  0.7818609E-02  0.8381055E-01
        1   -1    0    0  501    0  0.00000000000E+00  0.00000000000E+00  0.10471377917E+04  0.10471377917E+04  0.50400001928E-02 0.  1.
       -1   -1    0    0    0  501  0.00000000000E+00  0.00000000000E+00 -0.15676913771E+04  0.15676913771E+04  0.50400001928E-02 0. -1.
    10030    2    1    2    0    0  0.00000000000E+00  0.00000000000E+00 -0.52055358541E+03  0.26148291688E+04  0.25624901067E+04 0.  0.
        4    1    3    3  502    0  0.84175009958E+03  0.95931218809E+03 -0.14499057145E+03  0.12844636947E+04  0.12699999809E+01 0.  1.
       -4    1    3    3    0  502 -0.84175009958E+03 -0.95931218809E+03 -0.37556301396E+03  0.13303654741E+04  0.12699999809E+01 0. -1.
</event>
<event>
 5   0  0.3499642E-05  0.2652507E+04  0.7818609E-02  0.8350581E-01
        2   -1    0    0  501    0  0.00000000000E+00  0.00000000000E+00  0.17575773308E+04  0.17575773308E+04  0.25500000920E-02 0. -1.
       -2   -1    0    0    0  501  0.00000000000E+00  0.00000000000E+00 -0.10007800874E+04  0.10007800874E+04  0.25500000920E-02 0.  1.
    10030    2    1    2    0    0  0.00000000000E+00  0.00000000000E+00  0.75679724343E+03  0.27583574182E+04  0.26525070365E+04 0.  0.
        2    1    3    3  502    0 -0.26905450191E+03  0.12907976257E+04  0.22987197177E+03  0.13384281673E+04  0.25500000920E-02 0.  1.
       -2    1    3    3    0  502  0.26905450191E+03 -0.12907976257E+04  0.52692527166E+03  0.14199292509E+04  0.25500000920E-02 0. -1.
</event>
<event>
 5   0  0.3647623E-05  0.2577871E+04  0.7818609E-02  0.8375757E-01
        2   -1    0    0  501    0  0.00000000000E+00  0.00000000000E+00  0.13789919996E+04  0.13789919996E+04  0.25500000920E-02 0.  1.
       -2   -1    0    0    0  501  0.00000000000E+00  0.00000000000E+00 -0.12047603466E+04  0.12047603466E+04  0.25500000920E-02 0. -1.
    10030    2    1    2    0    0  0.00000000000E+00  0.00000000000E+00  0.17423165301E+03  0.25837523462E+04  0.25778711212E+04 0.  0.
        3    1    3    3  502    0  0.10440637323E+04 -0.82971878936E+02 -0.66586470345E+03  0.12411000054E+04  0.10100000352E+00 0. -1.
       -3    1    3    3    0  502 -0.10440637323E+04  0.82971878936E+02  0.84009635646E+03  0.13426523408E+04  0.10100000352E+00 0.  1.
</event>
<event>
 5   0  0.1474554E-05  0.2676722E+04  0.7818609E-02  0.8342598E-01
        1   -1    0    0  501    0  0.00000000000E+00  0.00000000000E+00  0.17437742011E+04  0.17437742011E+04  0.50400001928E-02 0.  1.
       -1   -1    0    0    0  501  0.00000000000E+00  0.00000000000E+00 -0.10272029997E+04  0.10272029997E+04  0.50400001928E-02 0. -1.
    10030    2    1    2    0    0  0.00000000000E+00  0.00000000000E+00  0.71657120135E+03  0.27709772008E+04  0.26767219431E+04 0.  0.
        5    1    3    3  502    0 -0.76653465392E+03 -0.38864506480E+03 -0.70378821018E+03  0.11108376555E+04  0.46999998093E+01 0. -1.
       -5    1    3    3    0  502  0.76653465392E+03  0.38864506480E+03  0.14203594115E+04  0.16601395453E+04  0.46999998093E+01 0.  1.
</event>
<event>
 5   0  0.1217200E-05  0.2587175E+04  0.7818609E-02  0.8372571E-01
        4   -1    0    0  501    0  0.00000000000E+00  0.00000000000E+00  0.10350500071E+04  0.10350507863E+04  0.12699999809E+01 0.  1.
       -4   -1    0    0    0  501  0.00000000000E+00  0.00000000000E+00 -0.16167017210E+04  0.16167022198E+04  0.12699999809E+01 0. -1.
    10030    2    1    2    0    0  0.00000000000E+00  0.00000000000E+00 -0.58165171383E+03  0.26517530060E+04  0.25871751562E+04 0.  0.
        3    1    3    3  502    0 -0.15810579264E+03  0.46461011013E+03  0.93592364222E+03  0.10567937691E+04  0.10100000352E+00 0.  1.
       -3    1    3    3    0  502  0.15810579264E+03 -0.46461011013E+03 -0.15175753560E+04  0.15949592370E+04  0.10100000352E+00 0. -1.
</event>
<event>
 5   0  0.3441646E-05  0.2602750E+04  0.7818609E-02  0.8367268E-01
       -2   -1    0    0    0  501  0.00000000000E+00  0.00000000000E+00  0.80358448623E+03  0.80358448624E+03  0.25500000920E-02 0.  1.
        2   -1    0    0  501    0  0.00000000000E+00  0.00000000000E+00 -0.21075276251E+04  0.21075276251E+04  0.25500000920E-02 0. -1.
    10030    2    1    2    0    0  0.00000000000E+00  0.00000000000E+00 -0.13039431388E+04  0.29111121113E+04  0.26027497028E+04 0.  0.
        4    1    3    3  502    0  0.10877734807E+03  0.74762924252E+03 -0.18371298452E+04  0.19864112557E+04  0.12699999809E+01 0. -1.
       -4    1    3    3    0  502 -0.10877734807E+03 -0.74762924252E+03  0.53318670633E+03  0.92470085565E+03  0.12699999809E+01 0.  1.
</event>
<event>
 5   0  0.3499642E-05  0.2565543E+04  0.7818609E-02  0.8380001E-01
       -2   -1    0    0    0  501  0.00000000000E+00  0.00000000000E+00  0.74483742025E+03  0.74483742025E+03  0.25500000920E-02 0.  1.
        2   -1    0    0  501    0  0.00000000000E+00  0.00000000000E+00 -0.22092106794E+04  0.22092106794E+04  0.25500000920E-02 0. -1.
    10030    2    1    2    0    0  0.00000000000E+00  0.00000000000E+00 -0.14643732591E+04  0.29540480996E+04  0.25655430483E+04 0.  0.
        2    1    3    3  502    0 -0.42997700702E+03 -0.27824282416E+02  0.65902157510E+03  0.78737783415E+03  0.25500000920E-02 0.  1.
       -2    1    3    3    0  502  0.42997700702E+03  0.27824282416E+02 -0.21233948342E+04  0.21666702655E+04  0.25500000920E-02 0. -1.
</event>
<event>
 5   0  0.1435062E-05  0.2617274E+04  0.7818609E-02  0.8362357E-01
       -1   -1    0    0    0  501  0.00000000000E+00  0.00000000000E+00  0.64109993040E+03  0.64109993042E+03  0.50400001928E-02 0.  1.
        1   -1    0    0  501    0  0.00000000000E+00  0.00000000000E+00 -0.26712393073E+04  0.26712393073E+04  0.50400001928E-02 0. -1.
    10030    2    1    2    0    0  0.00000000000E+00  0.00000000000E+00 -0.20301393769E+04  0.33123392377E+04  0.26172744098E+04 0.  0.
        2    1    3    3  502    0  0.80796607884E+03 -0.22401967986E+03  0.25651925253E+03  0.87681020093E+03  0.25500000920E-02 0.  1.
       -2    1    3    3    0  502 -0.80796607884E+03  0.22401967986E+03 -0.22866586295E+04  0.24355290368E+04  0.25500000920E-02 0. -1.
</event>
<event>
 5   0  0.3499642E-05  0.2410944E+04  0.7818609E-02  0.8435418E-01
       -2   -1    0    0    0  501  0.00000000000E+00  0.00000000000E+00  0.11064620762E+04  0.11064620762E+04  0.25500000920E-02 0.  1.
        2   -1    0    0  501    0  0.00000000000E+00  0.00000000000E+00 -0.13133414581E+04  0.13133414581E+04  0.25500000920E-02 0. -1.
    10030    2    1    2    0    0  0.00000000000E+00  0.00000000000E+00 -0.20687938181E+03  0.24198035343E+04  0.24109438123E+04 0.  0.
        2    1    3    3  502    0  0.74258531642E+03  0.77332713026E+03  0.44967046641E+03  0.11626140077E+04  0.25500000920E-02 0.  1.
       -2    1    3    3    0  502 -0.74258531642E+03 -0.77332713026E+03 -0.65654984822E+03  0.12571895266E+04  0.25500000920E-02 0. -1.
</event>
<event>
 5   0  0.3508470E-05  0.2006504E+04  0.7818609E-02  0.8603586E-01
        2   -1    0    0  501    0  0.00000000000E+00  0.00000000000E+00  0.12748155563E+04  0.12748155563E+04  0.25500000920E-02 0. -1.
       -2   -1    0    0    0  501  0.00000000000E+00  0.00000000000E+00 -0.78953735443E+03  0.78953735443E+03  0.25500000920E-02 0.  1.
    10030    2    1    2    0    0  0.00000000000E+00  0.00000000000E+00  0.48527820186E+03  0.20643529107E+04  0.20065039264E+04 0.  0.
        5    1    3    3  502    0 -0.92176048946E+03 -0.34613117941E+03  0.44065419030E+03  0.10787248948E+04  0.46999998093E+01 0.  1.
       -5    1    3    3    0  502  0.92176048946E+03  0.34613117941E+03  0.44624011557E+02  0.98562801589E+03  0.46999998093E+01 0. -1.
</event>
<event>
 5   0  0.3441646E-05  0.2634985E+04  0.7818609E-02  0.8356414E-01
       -2   -1    0    0    0  501  0.00000000000E+00  0.00000000000E+00  0.10449054053E+04  0.10449054053E+04  0.25500000920E-02 0.  1.
        2   -1    0    0  501    0  0.00000000000E+00  0.00000000000E+00 -0.16611894851E+04  0.16611894851E+04  0.25500000920E-02 0. -1.
    10030    2    1    2    0    0  0.00000000000E+00  0.00000000000E+00 -0.61628407982E+03  0.27060948904E+04  0.26349845329E+04 0.  0.
        4    1    3    3  502    0 -0.44346564352E+03 -0.11146218024E+04  0.25129797135E+03  0.12256409844E+04  0.12699999809E+01 0.  1.
       -4    1    3    3    0  502  0.44346564352E+03  0.11146218024E+04 -0.86758205117E+03  0.14804539060E+04  0.12699999809E+01 0. -1.
</event>
<event>
 5   0  0.3499642E-05  0.2641903E+04  0.7818609E-02  0.8354105E-01
        2   -1    0    0  501    0  0.00000000000E+00  0.00000000000E+00  0.15936319900E+04  0.15936319900E+04  0.25500000920E-02 0.  1.
       -2   -1    0    0    0  501  0.00000000000E+00  0.00000000000E+00 -0.10949285970E+04  0.10949285970E+04  0.25500000920E-02 0. -1.
    10030    2    1    2    0    0  0.00000000000E+00  0.00000000000E+00  0.49870339293E+03  0.26885605870E+04  0.26419032828E+04 0.  0.
        2    1    3    3  502    0 -0.82158432965E+03 -0.60233589992E+03  0.11050970054E+04  0.15030132196E+04  0.25500000920E-02 0.  1.
       -2    1    3    3    0  502  0.82158432965E+03  0.60233589992E+03 -0.60639361246E+03  0.11855473674E+04  0.25500000920E-02 0. -1.
</event>
<event>
 5   0  0.3508470E-05  0.2632130E+04  0.7818609E-02  0.8357369E-01
        2   -1    0    0  501    0  0.00000000000E+00  0.00000000000E+00  0.10850220720E+04  0.10850220720E+04  0.25500000920E-02 0.  1.
       -2   -1    0    0    0  501  0.00000000000E+00  0.00000000000E+00 -0.15963052665E+04  0.15963052665E+04  0.25500000920E-02 0. -1.
    10030    2    1    2    0    0  0.00000000000E+00  0.00000000000E+00 -0.51128319452E+03  0.26813273385E+04  0.26321295165E+04 0.  0.
        5    1    3    3  502    0 -0.65322160582E+03 -0.42907846905E+02  0.90739193411E+03  0.11188930966E+04  0.46999998093E+01 0.  1.
       -5    1    3    3    0  502  0.65322160582E+03  0.42907846905E+02 -0.14186751286E+04  0.15624342419E+04  0.46999998093E+01 0. -1.
</event>
<event>
 5   0  0.1451052E-05  0.2624130E+04  0.7818609E-02  0.8360051E-01
        1   -1    0    0  501    0  0.00000000000E+00  0.00000000000E+00  0.23461848756E+04  0.23461848756E+04  0.50400001928E-02 0.  1.
       -1   -1    0    0    0  501  0.00000000000E+00  0.00000000000E+00 -0.73375056326E+03  0.73375056328E+03  0.50400001928E-02 0. -1.
    10030    2    1    2    0    0  0.00000000000E+00  0.00000000000E+00  0.16124343123E+04  0.30799354388E+04  0.26241299312E+04 0.  0.
        1    1    3    3  502    0  0.10129357845E+03 -0.38080455387E+03  0.22750950934E+04  0.23089673409E+04  0.50400001928E-02 0.  1.
       -1    1    3    3    0  502 -0.10129357845E+03  0.38080455387E+03 -0.66266078108E+03  0.77096809797E+03  0.50400001928E-02 0. -1.
</event>
<event>
 5   0  0.3647623E-05  0.2807905E+04  0.7818609E-02  0.8300818E-01
       -2   -1    0    0    0  501  0.00000000000E+00  0.00000000000E+00  0.13229494346E+04  0.13229494346E+04  0.25500000920E-02 0. -1.
        2   -1    0    0  501    0  0.00000000000E+00  0.00000000000E+00 -0.14899154345E+04  0.14899154345E+04  0.25500000920E-02 0.  1.
    10030    2    1    2    0    0  0.00000000000E+00  0.00000000000E+00 -0.16696599981E+03  0.28128648691E+04  0.28079051136E+04 0.  0.
        3    1    3    3  502    0 -0.11753554486E+04  0.48494126728E+03 -0.67989527176E+03  0.14418342672E+04  0.10100000352E+00 0.  1.
       -3    1    3    3    0  502  0.11753554486E+04 -0.48494126728E+03  0.51292927195E+03  0.13710306019E+04  0.10100000352E+00 0. -1.
</event>
<event>
 5   0  0.1451052E-05  0.2728270E+04  0.7818609E-02  0.8325890E-01
       -1   -1    0    0    0  501  0.00000000000E+00  0.00000000000E+00  0.11368639423E+04  0.11368639423E+04  0.50400001928E-02 0. -1.
        1   -1    0    0  501    0  0.00000000000E+00  0.00000000000E+00 -0.16368396744E+04  0.16368396744E+04  0.50400001928E-02 0.  1.
    10030    2    1    2    0    0  0.00000000000E+00  0.00000000000E+00 -0.49997573213E+03  0.27737036167E+04  0.27282697851E+04 0.  0.
        1    1    3    3  502    0 -0.36151750420E+03  0.42540176305E+03 -0.15153849390E+04  0.16149467728E+04  0.50400001928E-02 0.  1.
       -1    1    3    3    0  502  0.36151750420E+03 -0.42540176305E+03  0.10154092068E+04  0.11587568439E+04  0.50400001928E-02 0. -1.
</event>
<event>
 5   0  0.3499642E-05  0.2623891E+04  0.7818609E-02  0.8360131E-01
       -2   -1    0    0    0  501  0.00000000000E+00  0.00000000000E+00  0.12953575032E+04  0.12953575032E+04  0.25500000920E-02 0. -1.
        2   -1    0    0  501    0  0.00000000000E+00  0.00000000000E+00 -0.13287454240E+04  0.13287454240E+04  0.25500000920E-02 0.  1.
    10030    2    1    2    0    0  0.00000000000E+00  0.00000000000E+00 -0.33387920828E+02  0.26241029273E+04  0.26238905121E+04 0.  0.
        2    1    3    3  502    0  0.10454654981E+04 -0.21082326971E+03 -0.78079494524E+03  0.13217735454E+04  0.25500000920E-02 0.  1.
       -2    1    3    3    0  502 -0.10454654981E+04  0.21082326971E+03  0.74740702441E+03  0.13023293819E+04  0.25500000920E-02 0. -1.
</event>
<event>
 5   0  0.3508470E-05  0.2480610E+04  0.7818609E-02  0.8409926E-01
       -2   -1    0    0    0  501  0.00000000000E+00  0.00000000000E+00  0.90926929232E+03  0.90926929232E+03  0.25500000920E-02 0.  1.
        2   -1    0    0  501    0  0.00000000000E+00  0.00000000000E+00 -0.16918605590E+04  0.16918605590E+04  0.25500000920E-02 0. -1.
    10030    2    1    2    0    0  0.00000000000E+00  0.00000000000E+00 -0.78259126670E+03  0.26011298513E+04  0.24806102904E+04 0.  0.
        5    1    3    3  502    0 -0.53488757840E+03 -0.16696828635E+03  0.76896771810E+03  0.95148125134E+03  0.46999998093E+01 0.  1.
       -5    1    3    3    0  502  0.53488757840E+03  0.16696828635E+03 -0.15515589848E+04  0.16496486000E+04  0.46999998093E+01 0. -1.
</event>
<event>
 5   0  0.1497497E-05  0.2560066E+04  0.7818609E-02  0.8381894E-01
        1   -1    0    0  501    0  0.00000000000E+00  0.00000000000E+00  0.67827875811E+03  0.67827875813E+03  0.50400001928E-02 0.  1.
       -1   -1    0    0    0  501  0.00000000000E+00  0.00000000000E+00 -0.24156500924E+04  0.24156500924E+04  0.50400001928E-02 0. -1.
    10030    2    1    2    0    0  0.00000000000E+00  0.00000000000E+00 -0.17373713342E+04  0.30939288505E+04  0.25600657372E+04 0.  0.
        3    1    3    3  502    0 -0.22772085795E+03 -0.68537095798E+03 -0.21459041157E+04  0.22641763675E+04  0.10100000352E+00 0. -1.
       -3    1    3    3    0  502  0.22772085795E+03  0.68537095798E+03  0.40853278150E+03  0.82975248294E+03  0.10100000352E+00 0.  1.
</event>
<event>
 5   0  0.1451052E-05  0.2888751E+04  0.7818609E-02  0.8276232E-01
        1   -1    0    0  501    0  0.00000000000E+00  0.00000000000E+00  0.16184909166E+04  0.16184909166E+04  0.50400001928E-02 0.  1.
       -1   -1    0    0    0  501  0.00000000000E+00  0.00000000000E+00 -0.12889908795E+04  0.12889908795E+04  0.50400001928E-02 0. -1.
    10030    2    1    2    0    0  0.00000000000E+00  0.00000000000E+00  0.32950003712E+03  0.29074817961E+04  0.28887506158E+04 0.  0.
        1    1    3    3  502    0  0.63231361656E+03  0.51379388360E+03 -0.10356339060E+04  0.13177034005E+04  0.50400001928E-02 0. -1.
       -1    1    3    3    0  502 -0.63231361656E+03 -0.51379388360E+03  0.13651339431E+04  0.15897783956E+04  0.50400001928E-02 0.  1.
</event>
<event>
 5   0  0.1474554E-05  0.1934837E+04  0.7818609E-02  0.8637707E-01
        1   -1    0    0  501    0  0.00000000000E+00  0.00000000000E+00  0.17321927657E+04  0.17321927657E+04  0.50400001928E-02 0. -1.
       -1   -1    0    0    0  501  0.00000000000E+00  0.00000000000E+00 -0.54029704590E+03  0.54029704592E+03  0.50400001928E-02 0.  1.
    10030    2    1    2    0    0  0.00000000000E+00  0.00000000000E+00  0.11918957198E+04  0.22724898116E+04  0.19348370828E+04 0.  0.
        5    1    3    3  502    0 -0.45746329742E+03 -0.61936320528E+03 -0.91912418879E+02  0.77546981327E+03  0.46999998093E+01 0.  1.
       -5    1    3    3    0  502  0.45746329742E+03  0.61936320528E+03  0.12838081387E+04  0.14970199983E+04  0.46999998093E+01 0. -1.
</event>
<event>
 5   0  0.1217200E-05  0.2571605E+04  0.7818609E-02  0.8377911E-01
        3   -1    0    0  501    0  0.00000000000E+00  0.00000000000E+00  0.97509121643E+03  0.97509122166E+03  0.10100000352E+00 0.  1.
       -3   -1    0    0    0  501  0.00000000000E+00  0.00000000000E+00 -0.16955216986E+04  0.16955217016E+04  0.10100000352E+00 0. -1.
    10030    2    1    2    0    0  0.00000000000E+00  0.00000000000E+00 -0.72043048212E+03  0.26706129232E+04  0.25716052003E+04 0.  0.
        3    1    3    3  502    0 -0.48316498654E+03  0.87146626159E+03  0.48371341409E+03  0.11076463905E+04  0.10100000352E+00 0.  1.
       -3    1    3    3    0  502  0.48316498654E+03 -0.87146626159E+03 -0.12041438962E+04  0.15629665327E+04  0.10100000352E+00 0. -1.
</event>
<event>
 5   0  0.1497497E-05  0.1886449E+04  0.7818609E-02  0.8661631E-01
        1   -1    0    0  501    0  0.00000000000E+00  0.00000000000E+00  0.97453072286E+03  0.97453072287E+03  0.50400001928E-02 0. -1.
       -1   -1    0    0    0  501  0.00000000000E+00  0.00000000000E+00 -0.91292428601E+03  0.91292428603E+03  0.50400001928E-02 0.  1.
    10030    2    1    2    0    0  0.00000000000E+00  0.00000000000E+00  0.61606436846E+02  0.18874550089E+04  0.18864493255E+04 0.  0.
        3    1    3    3  502    0 -0.82536412123E+03 -0.44549384450E+03  0.13076672168E+03  0.94699030818E+03  0.10100000352E+00 0.  1.
       -3    1    3    3    0  502  0.82536412123E+03  0.44549384450E+03 -0.69160284830E+02  0.94046470072E+03  0.10100000352E+00 0. -1.
</event>
<event>
 5   0  0.3508470E-05  0.2647429E+04  0.7818609E-02  0.8352267E-01
       -2   -1    0    0    0  501  0.00000000000E+00  0.00000000000E+00  0.11674883892E+04  0.11674883892E+04  0.25500000920E-02 0.  1.
        2   -1    0    0  501    0  0.00000000000E+00  0.00000000000E+00 -0.15008461180E+04  0.15008461180E+04  0.25500000920E-02 0. -1.
    10030    2    1    2    0    0  0.00000000000E+00  0.00000000000E+00 -0.33335772879E+03  0.26683345072E+04  0.26474292563E+04 0.  0.
        5    1    3    3  502    0 -0.33911101625E+03 -0.35082567237E+03 -0.14068926184E+04  0.14891084123E+04  0.46999998093E+01 0. -1.
       -5    1    3    3    0  502  0.33911101625E+03  0.35082567237E+03  0.10735348896E+04  0.11792260950E+04  0.46999998093E+01 0.  1.
</event>
<event>
 5   0  0.1217200E-05  0.2579846E+04  0.7818609E-02  0.8375079E-01
        3   -1    0    0  501    0  0.00000000000E+00  0.00000000000E+00  0.67667374340E+03  0.67667375094E+03  0.10100000352E+00 0. -1.
       -3   -1    0    0    0  501  0.00000000000E+00  0.00000000000E+00 -0.24589426910E+04  0.24589426931E+04  0.10100000352E+00 0.  1.
    10030    2    1    2    0    0  0.00000000000E+00  0.00000000000E+00 -0.17822689476E+04  0.31356164440E+04  0.25798464843E+04 0.  0.
        3    1    3    3  502    0 -0.53894156937E+03  0.33637354348E+03 -0.22556091622E+04  0.23433689165E+04  0.10100000352E+00 0.  1.
       -3    1    3    3    0  502  0.53894156937E+03 -0.33637354348E+03  0.47334021459E+03  0.79224752755E+03  0.10100000352E+00 0. -1.
</event>
<event>
 5   0  0.3508470E-05  0.2626946E+04  0.7818609E-02  0.8359105E-01
       -2   -1    0    0    0  501  0.00000000000E+00  0.00000000000E+00  0.81183298689E+03  0.81183298690E+03  0.25500000920E-02 0. -1.
        2   -1    0    0  501    0  0.00000000000E+00  0.00000000000E+00 -0.21250821879E+04  0.21250821879E+04  0.25500000920E-02 0.  1.
    10030    2    1    2    0    0  0.00000000000E+00  0.00000000000E+00 -0.13132492010E+04  0.29369151747E+04  0.26269463793E+04 0.  0.
        5    1    3    3  502    0  0.47969819922E+03  0.71344487683E+03 -0.17668095616E+04  0.19648796583E+04  0.46999998093E+01 0.  1.
       -5    1    3    3    0  502 -0.47969819922E+03 -0.71344487683E+03  0.45356036061E+03  0.97203551649E+03  0.46999998093E+01 0. -1.
</event>
<event>
 5   0  0.1451052E-05  0.1637110E+04  0.7818609E-02  0.8798069E-01
       -1   -1    0    0    0  501  0.00000000000E+00  0.00000000000E+00  0.85265623220E+03  0.85265623221E+03  0.50400001928E-02 0. -1.
        1   -1    0    0  501    0  0.00000000000E+00  0.00000000000E+00 -0.78581719193E+03  0.78581719194E+03  0.50400001928E-02 0.  1.
    10030    2    1    2    0    0  0.00000000000E+00  0.00000000000E+00  0.66839040270E+02  0.16384734242E+04  0.16371095578E+04 0.  0.
        1    1    3    3  502    0  0.30392029238E+03  0.27665056197E+03  0.74191381884E+03  0.84813866329E+03  0.50400001928E-02 0. -1.
       -1    1    3    3    0  502 -0.30392029238E+03 -0.27665056197E+03 -0.67507477857E+03  0.79033476087E+03  0.50400001928E-02 0.  1.
</event>
<event>
 5   0  0.1474554E-05  0.2509700E+04  0.7818609E-02  0.8399538E-01
       -1   -1    0    0    0  501  0.00000000000E+00  0.00000000000E+00  0.61454193957E+03  0.61454193959E+03  0.50400001928E-02 0. -1.
        1   -1    0    0  501    0  0.00000000000E+00  0.00000000000E+00 -0.25623134443E+04  0.25623134443E+04  0.50400001928E-02 0.  1.
    10030    2    1    2    0    0  0.00000000000E+00  0.00000000000E+00 -0.19477715047E+04  0.31768553839E+04  0.25097004394E+04 0.  0.
        5    1    3    3  502    0 -0.11442602208E+04 -0.39176182156E+03 -0.13971697197E+04  0.18479486176E+04  0.46999998093E+01 0. -1.
       -5    1    3    3    0  502  0.11442602208E+04  0.39176182156E+03 -0.55060178498E+03  0.13289067662E+04  0.46999998093E+01 0.  1.
</event>
<event>
 5   0  0.3647623E-05  0.2633628E+04  0.7818609E-02  0.8356867E-01
       -2   -1    0    0    0  501  0.00000000000E+00  0.00000000000E+00  0.20912911831E+04  0.20912911831E+04  0.25500000920E-02 0. -1.
        2   -1    0    0  501    0  0.00000000000E+00  0.00000000000E+00 -0.82915240005E+03  0.82915240005E+03  0.25500000920E-02 0.  1.
    10030    2    1    2    0    0  0.00000000000E+00  0.00000000000E+00  0.12621387831E+04  0.29204435832E+04  0.26336279947E+04 0.  0.
        3    1    3    3  502    0  0.72909102192E+03 -0.10881137227E+04  0.78162710998E+03  0.15252888713E+04  0.10100000352E+00 0.  1.
       -3    1    3    3    0  502 -0.72909102192E+03  0.10881137227E+04  0.48051167309E+03  0.13951547118E+04  0.10100000352E+00 0. -1.
</event>
<event>
 5   0  0.3508470E-05  0.2535630E+04  0.7818609E-02  0.8390401E-01
       -2   -1    0    0    0  501  0.00000000000E+00  0.00000000000E+00  0.17414975298E+04  0.17414975298E+04  0.25500000920E-02 0.  1.
        2   -1    0    0  501    0  0.00000000000E+00  0.00000000000E+00 -0.92297267236E+03  0.92297267237E+03  0.25500000920E-02 0. -1.
    10030    2    1    2    0    0  0.00000000000E+00  0.00000000000E+00  0.81852485747E+03  0.26644702022E+04  0.25356298066E+04 0.  0.
        5    1    3    3  502    0 -0.24656970547E+03 -0.60969937079E+03  0.15482197964E+04  0.16821226383E+04  0.46999998093E+01 0.  1.
       -5    1    3    3    0  502  0.24656970547E+03  0.60969937079E+03 -0.72969493892E+03  0.98234756389E+03  0.46999998093E+01 0. -1.
</event>
<event>
 5   0  0.1217200E-05  0.2594249E+04  0.7818609E-02  0.8370157E-01
       -3   -1    0    0    0  501  0.00000000000E+00  0.00000000000E+00  0.17663574601E+04  0.17663574630E+04  0.10100000352E+00 0. -1.
        3   -1    0    0  501    0  0.00000000000E+00  0.00000000000E+00 -0.95254359780E+03  0.95254360315E+03  0.10100000352E+00 0.  1.
    10030    2    1    2    0    0  0.00000000000E+00  0.00000000000E+00  0.81381386234E+03  0.27189010662E+04  0.25942494107E+04 0.  0.
        5    1    3    3  502    0  0.89692037828E+03 -0.52754975334E+03  0.12185434100E+04  0.16023872938E+04  0.46999998093E+01 0. -1.
       -5    1    3    3    0  502 -0.89692037828E+03  0.52754975334E+03 -0.40472954765E+03  0.11165137724E+04  0.46999998093E+01 0.  1.
</event>
<event>
 5   0  0.3441646E-05  0.2538683E+04  0.7818609E-02  0.8389333E-01
       -2   -1    0    0    0  501  0.00000000000E+00  0.00000000000E+00  0.61944739554E+03  0.61944739555E+03  0.25500000920E-02 0.  1.
        2   -1    0    0  501    0  0.00000000000E+00  0.00000000000E+00 -0.26010724642E+04  0.26010724642E+04  0.25500000920E-02 0. -1.
    10030    2    1    2    0    0  0.00000000000E+00  0.00000000000E+00 -0.19816250687E+04  0.32205198598E+04  0.25386827794E+04 0.  0.
        4    1    3    3  502    0  0.11764248688E+04 -0.46321406343E+03 -0.11336796050E+04  0.16981677774E+04  0.12699999809E+01 0. -1.
       -4    1    3    3    0  502 -0.11764248688E+04  0.46321406343E+03 -0.84794546374E+03  0.15223520824E+04  0.12699999809E+01 0.  1.
</event>
<event>
 5   0  0.1497497E-05  0.2621673E+04  0.7818609E-02  0.8360877E-01
       -1   -1    0    0    0  501  0.00000000000E+00  0.00000000000E+00  0.25245585523E+04  0.25245585523E+04  0.50400001928E-02 0. -1.
        1   -1    0    0  501    0  0.00000000000E+00  0.00000000000E+00 -0.68063068276E+03  0.68063068278E+03  0.50400001928E-02 0.  1.
    10030    2    1    2    0    0  0.00000000000E+00  0.00000000000E+00  0.18439278696E+04  0.32051892351E+04  0.26216727570E+04 0.  0.
        3    1    3    3  502    0  0.10623194119E+04 -0.67624527049E+03  0.47700439321E+03  0.13466118224E+04  0.10100000352E+00 0.  1.
       -3    1    3    3    0  502 -0.10623194119E+04  0.67624527049E+03  0.13669234764E+04  0.18585774128E+04  0.10100000352E+00 0. -1.
</event>
<event>
 5   0  0.1533248E-05  0.2460157E+04  0.7818609E-02  0.8417319E-01
       -1   -1    0    0    0  501  0.00000000000E+00  0.00000000000E+00  0.82379564145E+03  0.82379564147E+03  0.50400001928E-02 0.  1.
        1   -1    0    0  501    0  0.00000000000E+00  0.00000000000E+00 -0.18367329863E+04  0.18367329863E+04  0.50400001928E-02 0. -1.
    10030    2    1    2    0    0  0.00000000000E+00  0.00000000000E+00 -0.10129373449E+04  0.26605286278E+04  0.24601566037E+04 0.  0.
        4    1    3    3  502    0  0.79056915572E+03  0.92833564372E+03 -0.33113962506E+03  0.12635116626E+04  0.12699999809E+01 0.  1.
       -4    1    3    3    0  502 -0.79056915572E+03 -0.92833564372E+03 -0.68179771981E+03  0.13970169652E+04  0.12699999809E+01 0. -1.
</event>
<event>
 5   0  0.1533248E-05  0.2616864E+04  0.7818609E-02  0.8362495E-01
        1   -1    0    0  501    0  0.00000000000E+00  0.00000000000E+00  0.15304661645E+04  0.15304661645E+04  0.50400001928E-02 0. -1.
       -1   -1    0    0    0  501  0.00000000000E+00  0.00000000000E+00 -0.11186100018E+04  0.11186100018E+04  0.50400001928E-02 0.  1.
    10030    2    1    2    0    0  0.00000000000E+00  0.00000000000E+00  0.41185616267E+03  0.26490761663E+04  0.26168643519E+04 0.  0.
        4    1    3    3  502    0 -0.69299340634E+02 -0.53126429818E+03 -0.10024779761E+04  0.11366652360E+04  0.12699999809E+01 0.  1.
       -4    1    3    3    0  502  0.69299340634E+02  0.53126429818E+03  0.14143341388E+04  0.15124109304E+04  0.12699999809E+01 0. -1.
</event>
<event>
 5   0  0.1533248E-05  0.2626733E+04  0.7818609E-02  0.8359177E-01
        1   -1    0    0  501    0  0.00000000000E+00  0.00000000000E+00  0.17189234905E+04  0.17189234905E+04  0.50400001928E-02 0. -1.
       -1   -1    0    0    0  501  0.00000000000E+00  0.00000000000E+00 -0.10034950013E+04  0.10034950013E+04  0.50400001928E-02 0.  1.
    10030    2    1    2    0    0  0.00000000000E+00  0.00000000000E+00  0.71542848918E+03  0.27224184918E+04  0.26267326704E+04 0.  0.
        4    1    3    3  502    0  0.64623927830E+02  0.49641206597E+02 -0.10008717001E+04  0.10041843826E+04  0.12699999809E+01 0.  1.
       -4    1    3    3    0  502 -0.64623927830E+02 -0.49641206597E+02  0.17163001893E+04  0.17182341092E+04  0.12699999809E+01 0. -1.
</event>
<event>
 5   0  0.1451052E-05  0.2539529E+04  0.7818609E-02  0.8389037E-01
        1   -1    0    0  501    0  0.00000000000E+00  0.00000000000E+00  0.84045628352E+03  0.84045628354E+03  0.50400001928E-02 0.  1.
       -1   -1    0    0    0  501  0.00000000000E+00  0.00000000000E+00 -0.19183643143E+04  0.19183643143E+04  0.50400001928E-02 0. -1.
    10030    2    1    2    0    0  0.00000000000E+00  0.00000000000E+00 -0.10779080308E+04  0.27588205979E+04  0.25395285721E+04 0.  0.
        1    1    3    3  502    0 -0.74228087520E+03 -0.86752170086E+03  0.64657256621E+02  0.11435713183E+04  0.50400001928E-02 0.  1.
       -1    1    3    3    0  502  0.74228087520E+03  0.86752170086E+03 -0.11425652874E+04  0.16152492796E+04  0.50400001928E-02 0. -1.
</event>
<event>
 5   0  0.1474554E-05  0.2625682E+04  0.7818609E-02  0.8359530E-01
       -1   -1    0    0    0  501  0.00000000000E+00  0.00000000000E+00  0.75553749116E+03  0.75553749117E+03  0.50400001928E-02 0. -1.
        1   -1    0    0  501    0  0.00000000000E+00  0.00000000000E+00 -0.22812256806E+04  0.22812256806E+04  0.50400001928E-02 0.  1.
    10030    2    1    2    0    0  0.00000000000E+00  0.00000000000E+00 -0.15256881894E+04  0.30367631718E+04  0.26256820276E+04 0.  0.
        5    1    3    3  502    0  0.77754368017E+03 -0.67999819539E+03  0.17429757182E+03  0.10475559431E+04  0.46999998093E+01 0. -1.
       -5    1    3    3    0  502 -0.77754368017E+03  0.67999819539E+03 -0.16999857613E+04  0.19892072287E+04  0.46999998093E+01 0.  1.
</event>
<event>
 5   0  0.3441646E-05  0.2664098E+04  0.7818609E-02  0.8346749E-01
       -2   -1    0    0    0  501  0.00000000000E+00  0.00000000000E+00  0.29296803079E+04  0.29296803079E+04  0.25500000920E-02 0. -1.
        2   -1    0    0  501    0  0.00000000000E+00  0.00000000000E+00 -0.60564798046E+03  0.60564798046E+03  0.25500000920E-02 0.  1.
    10030    2    1    2    0    0  0.00000000000E+00  0.00000000000E+00  0.23240323275E+04  0.35353282884E+04  0.26640983179E+04 0.  0.
        4    1    3    3  502    0 -0.29249265937E+03 -0.11613960156E+04  0.19357540271E+04  0.22762991735E+04  0.12699999809E+01 0. -1.
       -4    1    3    3    0  502  0.29249265937E+03  0.11613960156E+04  0.38827830037E+03  0.12590291149E+04  0.12699999809E+01 0.  1.
</event>
<event>
 5   0  0.1474554E-05  0.2576834E+04  0.7818609E-02  0.8376113E-01
       -1   -1    0    0    0  501  0.00000000000E+00  0.00000000000E+00  0.12716947197E+04  0.12716947197E+04  0.50400001928E-02 0. -1.
        1   -1    0    0  501    0  0.00000000000E+00  0.00000000000E+00 -0.13053592633E+04  0.13053592633E+04  0.50400001928E-02 0.  1.
    10030    2    1    2    0    0  0.00000000000E+00  0.00000000000E+00 -0.33664543568E+02  0.25770539830E+04  0.25768340905E+04 0.  0.
        5    1    3    3  502    0  0.58577368396E+03  0.30962634780E+03  0.10882494009E+04  0.12740911006E+04  0.46999998093E+01 0. -1.
       -5    1    3    3    0  502 -0.58577368396E+03 -0.30962634780E+03 -0.11219139445E+04  0.13029628824E+04  0.46999998093E+01 0.  1.
</event>
<event>
 5   0  0.3441646E-05  0.2659369E+04  0.7818609E-02  0.8348310E-01
       -2   -1    0    0    0  501  0.00000000000E+00  0.00000000000E+00  0.93406023057E+03  0.93406023057E+03  0.25500000920E-02 0. -1.
        2   -1    0    0  501    0  0.00000000000E+00  0.00000000000E+00 -0.18928767113E+04  0.18928767113E+04  0.25500000920E-02 0.  1.
    10030    2    1    2    0    0  0.00000000000E+00  0.00000000000E+00 -0.95881648070E+03  0.28269369418E+04  0.26593689908E+04 0.  0.
        4    1    3    3  502    0 -0.23139945820E+03 -0.25350952738E+03  0.88615533788E+03  0.95030820552E+03  0.12699999809E+01 0. -1.
       -4    1    3    3    0  502  0.23139945820E+03  0.25350952738E+03 -0.18449718186E+04  0.18766287363E+04  0.12699999809E+01 0.  1.
</event>
<event>
 5   0  0.1451052E-05  0.1739817E+04  0.7818609E-02  0.8738975E-01
        1   -1    0    0  501    0  0.00000000000E+00  0.00000000000E+00  0.17204106981E+04  0.17204106982E+04  0.50400001928E-02 0.  1.
       -1   -1    0    0    0  501  0.00000000000E+00  0.00000000000E+00 -0.43986066817E+03  0.43986066820E+03  0.50400001928E-02 0. -1.
    10030    2    1    2    0    0  0.00000000000E+00  0.00000000000E+00  0.12805500300E+04  0.21602713664E+04  0.17398172309E+04 0.  0.
        1    1    3    3  502    0  0.12693012105E+03 -0.94741465515E+01 -0.42823583814E+03  0.44675155084E+03  0.50400001928E-02 0. -1.
       -1    1    3    3    0  502 -0.12693012105E+03  0.94741465515E+01  0.17087858681E+04  0.17135198155E+04  0.50400001928E-02 0.  1.
</event>
<event>
 5   0  0.3849687E-05  0.2608426E+04  0.7818609E-02  0.8365345E-01
       -2   -1    0    0    0  501  0.00000000000E+00  0.00000000000E+00  0.56180920107E+03  0.56180920107E+03  0.25500000920E-02 0. -1.
        2   -1    0    0  501    0  0.00000000000E+00  0.00000000000E+00 -0.30276685143E+04  0.30276685143E+04  0.25500000920E-02 0.  1.
    10030    2    1    2    0    0  0.00000000000E+00  0.00000000000E+00 -0.24658593132E+04  0.35894777154E+04  0.26084263678E+04 0.  0.
        1    1    3    3  502    0  0.48757613477E+03  0.11076467700E+04 -0.19019507812E+04  0.22543355181E+04  0.50400001928E-02 0.  1.
       -1    1    3    3    0  502 -0.48757613477E+03 -0.11076467700E+04 -0.56390853206E+03  0.13351421972E+04  0.50400001928E-02 0. -1.
</event>
<event>
 5   0  0.1497497E-05  0.2554613E+04  0.7818609E-02  0.8383784E-01
        1   -1    0    0  501    0  0.00000000000E+00  0.00000000000E+00  0.11723859971E+04  0.11723859971E+04  0.50400001928E-02 0.  1.
       -1   -1    0    0    0  501  0.00000000000E+00  0.00000000000E+00 -0.13916164586E+04  0.13916164586E+04  0.50400001928E-02 0. -1.
    10030    2    1    2    0    0  0.00000000000E+00  0.00000000000E+00 -0.21923046147E+03  0.25640024557E+04  0.25546128078E+04 0.  0.
        3    1    3    3  502    0  0.68326910530E+03 -0.32573791562E+03 -0.11422553516E+04  0.13702952815E+04  0.10100000352E+00 0. -1.
       -3    1    3    3    0  502 -0.68326910530E+03  0.32573791562E+03  0.92302489011E+03  0.11937071743E+04  0.10100000352E+00 0.  1.
</event>
<event>
 5   0  0.3499642E-05  0.2604204E+04  0.7818609E-02  0.8366775E-01
        2   -1    0    0  501    0  0.00000000000E+00  0.00000000000E+00  0.11937132099E+04  0.11937132099E+04  0.25500000920E-02 0. -1.
       -2   -1    0    0    0  501  0.00000000000E+00  0.00000000000E+00 -0.14203321234E+04  0.14203321234E+04  0.25500000920E-02 0.  1.
    10030    2    1    2    0    0  0.00000000000E+00  0.00000000000E+00 -0.22661891351E+03  0.26140453332E+04  0.26042036925E+04 0.  0.
        2    1    3    3  502    0 -0.67439206888E+03 -0.87318562986E+03  0.58083223861E+03  0.12468455783E+04  0.25500000920E-02 0. -1.
       -2    1    3    3    0  502  0.67439206888E+03  0.87318562986E+03 -0.80745115212E+03  0.13671997549E+04  0.25500000920E-02 0.  1.
</event>
<event>
 5   0  0.1451052E-05  0.2611903E+04  0.7818609E-02  0.8364169E-01
        1   -1    0    0  501    0  0.00000000000E+00  0.00000000000E+00  0.99339667989E+03  0.99339667991E+03  0.50400001928E-02 0. -1.
       -1   -1    0    0    0  501  0.00000000000E+00  0.00000000000E+00 -0.17168458909E+04  0.17168458909E+04  0.50400001928E-02 0.  1.
    10030    2    1    2    0    0  0.00000000000E+00  0.00000000000E+00 -0.72344921099E+03  0.27102425708E+04  0.26119027608E+04 0.  0.
        1    1    3    3  502    0 -0.20913608089E+03  0.12202229229E+04 -0.79310173095E+03  0.14702694439E+04  0.50400001928E-02 0.  1.
       -1    1    3    3    0  502  0.20913608089E+03 -0.12202229229E+04  0.69652519969E+02  0.12399731269E+04  0.50400001928E-02 0. -1.
</event>
<event>
 5   0  0.1497497E-05  0.2658941E+04  0.7818609E-02  0.8348451E-01
       -1   -1    0    0    0  501  0.00000000000E+00  0.00000000000E+00  0.13048913273E+04  0.13048913273E+04  0.50400001928E-02 0. -1.
        1   -1    0    0  501    0  0.00000000000E+00  0.00000000000E+00 -0.13545129294E+04  0.13545129294E+04  0.50400001928E-02 0.  1.
    10030    2    1    2    0    0  0.00000000000E+00  0.00000000000E+00 -0.49621602153E+02  0.26594042567E+04  0.26589412738E+04 0.  0.
        3    1    3    3  502    0  0.13084476842E+04  0.21806885964E+03  0.64102340218E+02  0.13280431055E+04  0.10100000352E+00 0. -1.
       -3    1    3    3    0  502 -0.13084476842E+04 -0.21806885964E+03 -0.11372394237E+03  0.13313611512E+04  0.10100000352E+00 0.  1.
</event>
<event>
 5   0  0.1451052E-05  0.2604792E+04  0.7818609E-02  0.8366575E-01
        1   -1    0    0  501    0  0.00000000000E+00  0.00000000000E+00  0.11023349407E+04  0.11023349407E+04  0.50400001928E-02 0.  1.
       -1   -1    0    0    0  501  0.00000000000E+00  0.00000000000E+00 -0.15387658987E+04  0.15387658987E+04  0.50400001928E-02 0. -1.
    10030    2    1    2    0    0  0.00000000000E+00  0.00000000000E+00 -0.43643095806E+03  0.26411008394E+04  0.26047920575E+04 0.  0.
        1    1    3    3  502    0  0.12107118244E+04 -0.19419324564E+03  0.22688106361E+03  0.12470000624E+04  0.50400001928E-02 0.  1.
       -1    1    3    3    0  502 -0.12107118244E+04  0.19419324564E+03 -0.66331202167E+03  0.13941007771E+04  0.50400001928E-02 0. -1.
</event>
<event>
 5   0  0.3508470E-05  0.2614166E+04  0.7818609E-02  0.8363405E-01
        2   -1    0    0  501    0  0.00000000000E+00  0.00000000000E+00  0.20416895783E+04  0.20416895783E+04  0.25500000920E-02 0.  1.
       -2   -1    0    0    0  501  0.00000000000E+00  0.00000000000E+00 -0.83678998201E+03  0.83678998201E+03  0.25500000920E-02 0. -1.
    10030    2    1    2    0    0  0.00000000000E+00  0.00000000000E+00  0.12048995963E+04  0.28784795603E+04  0.26141655537E+04 0.  0.
        5    1    3    3  502    0  0.20699603210E+03 -0.20536781826E+03 -0.80051090896E+03  0.85197599934E+03  0.46999998093E+01 0. -1.
       -5    1    3    3    0  502 -0.20699603210E+03  0.20536781826E+03  0.20054105053E+04  0.20265035610E+04  0.46999998093E+01 0.  1.
</event>
<event>
 5   0  0.3647623E-05  0.2589880E+04  0.7818609E-02  0.8371647E-01
        2   -1    0    0  501    0  0.00000000000E+00  0.00000000000E+00  0.16803496007E+04  0.16803496007E+04  0.25500000920E-02 0. -1.
       -2   -1    0    0    0  501  0.00000000000E+00  0.00000000000E+00 -0.99792862431E+03  0.99792862431E+03  0.25500000920E-02 0.  1.
    10030    2    1    2    0    0  0.00000000000E+00  0.00000000000E+00  0.68242097640E+03  0.26782782250E+04  0.25898795072E+04 0.  0.
        3    1    3    3  502    0  0.21830419543E+03 -0.83960602469E+03 -0.65299576244E+03  0.10858169617E+04  0.10100000352E+00 0.  1.
       -3    1    3    3    0  502 -0.21830419543E+03  0.83960602469E+03  0.13354167388E+04  0.15924612633E+04  0.10100000352E+00 0. -1.
</event>
<event>
 5   0  0.3849687E-05  0.2531750E+04  0.7818609E-02  0.8391761E-01
       -2   -1    0    0    0  501  0.00000000000E+00  0.00000000000E+00  0.60624704433E+03  0.60624704434E+03  0.25500000920E-02 0.  1.
        2   -1    0    0  501    0  0.00000000000E+00  0.00000000000E+00 -0.26432119545E+04  0.26432119545E+04  0.25500000920E-02 0. -1.
    10030    2    1    2    0    0  0.00000000000E+00  0.00000000000E+00 -0.20369649102E+04  0.32494589989E+04  0.25317499363E+04 0.  0.
        1    1    3    3  502    0  0.10825511171E+04 -0.63437811729E+03 -0.12335833901E+04  0.17595682701E+04  0.50400001928E-02 0. -1.
       -1    1    3    3    0  502 -0.10825511171E+04  0.63437811729E+03 -0.80338152010E+03  0.14898907288E+04  0.50400001928E-02 0.  1.
</event>
<event>
 5   0  0.1435062E-05  0.2522702E+04  0.7818609E-02  0.8394942E-01
       -1   -1    0    0    0  501  0.00000000000E+00  0.00000000000E+00  0.15672376662E+04  0.15672376662E+04  0.50400001928E-02 0.  1.
        1   -1    0    0  501    0  0.00000000000E+00  0.00000000000E+00 -0.10151662135E+04  0.10151662135E+04  0.50400001928E-02 0. -1.
    10030    2    1    2    0    0  0.00000000000E+00  0.00000000000E+00  0.55207145277E+03  0.25824038797E+04  0.25227023029E+04 0.  0.
        2    1    3    3  502    0 -0.12494730957E+03 -0.19354644106E+03  0.15455193589E+04  0.15625946832E+04  0.25500000920E-02 0.  1.
       -2    1    3    3    0  502  0.12494730957E+03  0.19354644106E+03 -0.99344790618E+03  0.10198091965E+04  0.25500000920E-02 0. -1.
</event>
<event>
 5   0  0.1451052E-05  0.2254369E+04  0.7818609E-02  0.8496133E-01
        1   -1    0    0  501    0  0.00000000000E+00  0.00000000000E+00  0.16956385768E+04  0.16956385768E+04  0.50400001928E-02 0.  1.
       -1   -1    0    0    0  501  0.00000000000E+00  0.00000000000E+00 -0.74930161165E+03  0.74930161167E+03  0.50400001928E-02 0. -1.
    10030    2    1    2    0    0  0.00000000000E+00  0.00000000000E+00  0.94633696517E+03  0.24449401885E+04  0.22543688415E+04 0.  0.
        1    1    3    3  502    0 -0.84867383002E+03 -0.68595986003E+03  0.77945392927E+03  0.13410207408E+04  0.50400001928E-02 0.  1.
       -1    1    3    3    0  502  0.84867383002E+03  0.68595986003E+03  0.16688303590E+03  0.11039194477E+04  0.50400001928E-02 0. -1.
</event>
<event>
 5   0  0.3508470E-05  0.2576372E+04  0.7818609E-02  0.8376272E-01
       -2   -1    0    0    0  501  0.00000000000E+00  0.00000000000E+00  0.89704641187E+03  0.89704641188E+03  0.25500000920E-02 0.  1.
        2   -1    0    0  501    0  0.00000000000E+00  0.00000000000E+00 -0.18498747543E+04  0.18498747543E+04  0.25500000920E-02 0. -1.
    10030    2    1    2    0    0  0.00000000000E+00  0.00000000000E+00 -0.95282834245E+03  0.27469211662E+04  0.25763722641E+04 0.  0.
        5    1    3    3  502    0  0.84577060419E+03 -0.86429007822E+03 -0.30944133460E+01  0.12092795043E+04  0.46999998093E+01 0.  1.
       -5    1    3    3    0  502 -0.84577060419E+03  0.86429007822E+03 -0.94973392910E+03  0.15376416619E+04  0.46999998093E+01 0. -1.
</event>
<event>
 5   0  0.1474554E-05  0.2638818E+04  0.7818609E-02  0.8355134E-01
        1   -1    0    0  501    0  0.00000000000E+00  0.00000000000E+00  0.19256325069E+04  0.19256325069E+04  0.50400001928E-02 0.  1.
       -1   -1    0    0    0  501  0.00000000000E+00  0.00000000000E+00 -0.90403529049E+03  0.90403529050E+03  0.50400001928E-02 0. -1.
    10030    2    1    2    0    0  0.00000000000E+00  0.00000000000E+00  0.10215972164E+04  0.28296677974E+04  0.26388177222E+04 0.  0.
        5    1    3    3  502    0  0.97352759303E+03 -0.27919319017E+03 -0.39600522762E+03  0.10874497883E+04  0.46999998093E+01 0. -1.
       -5    1    3    3    0  502 -0.97352759303E+03  0.27919319017E+03  0.14176024440E+04  0.17422180091E+04  0.46999998093E+01 0.  1.
</event>
<event>
 5   0  0.1533248E-05  0.2582842E+04  0.7818609E-02  0.8374053E-01
        1   -1    0    0  501    0  0.00000000000E+00  0.00000000000E+00  0.14654927356E+04  0.14654927356E+04  0.50400001928E-02 0.  1.
       -1   -1    0    0    0  501  0.00000000000E+00  0.00000000000E+00 -0.11380257448E+04  0.11380257448E+04  0.50400001928E-02 0. -1.
    10030    2    1    2    0    0  0.00000000000E+00  0.00000000000E+00  0.32746699084E+03  0.26035184804E+04  0.25828422034E+04 0.  0.
        4    1    3    3  502    0  0.52613146345E+03 -0.11477187110E+03  0.13469186742E+04  0.14505786525E+04  0.12699999809E+01 0.  1.
       -4    1    3    3    0  502 -0.52613146345E+03  0.11477187110E+03 -0.10194516833E+04  0.11529398279E+04  0.12699999809E+01 0. -1.
</event>
<event>
 5   0  0.3508470E-05  0.2202639E+04  0.7818609E-02  0.8517331E-01
        2   -1    0    0  501    0  0.00000000000E+00  0.00000000000E+00  0.59889860330E+03  0.59889860331E+03  0.25500000920E-02 0.  1.
       -2   -1    0    0    0  501  0.00000000000E+00  0.00000000000E+00 -0.20252247157E+04  0.20252247157E+04  0.25500000920E-02 0. -1.
    10030    2    1    2    0    0  0.00000000000E+00  0.00000000000E+00 -0.14263261124E+04  0.26241233190E+04  0.22026386482E+04 0.  0.
        5    1    3    3  502    0  0.93299070598E+03  0.54109195267E+03 -0.44775558469E+03  0.11678010585E+04  0.46999998093E+01 0.  1.
       -5    1    3    3    0  502 -0.93299070598E+03 -0.54109195267E+03 -0.97857052775E+03  0.14563222605E+04  0.46999998093E+01 0. -1.
</event>
<event>
 5   0  0.1217200E-05  0.2747072E+04  0.7818609E-02  0.8319891E-01
       -3   -1    0    0    0  501  0.00000000000E+00  0.00000000000E+00  0.17625580112E+04  0.17625580141E+04  0.10100000352E+00 0.  1.
        3   -1    0    0  501    0  0.00000000000E+00  0.00000000000E+00 -0.10703765389E+04  0.10703765437E+04  0.10100000352E+00 0. -1.
    10030    2    1    2    0    0  0.00000000000E+00  0.00000000000E+00  0.69218147232E+03  0.28329345578E+04  0.27470717169E+04 0.  0.
        4    1    3    3  502    0 -0.10224708229E+03  0.10815762304E+04  0.12127985000E+04  0.16282332212E+04  0.12699999809E+01 0.  1.
       -4    1    3    3    0  502  0.10224708229E+03 -0.10815762304E+04 -0.52061702767E+03  0.12047013366E+04  0.12699999809E+01 0. -1.
</event>
<event>
 5   0  0.3508470E-05  0.2568317E+04  0.7818609E-02  0.8379044E-01
       -2   -1    0    0    0  501  0.00000000000E+00  0.00000000000E+00  0.10828942112E+04  0.10828942112E+04  0.25500000920E-02 0.  1.
        2   -1    0    0  501    0  0.00000000000E+00  0.00000000000E+00 -0.15228292995E+04  0.15228292995E+04  0.25500000920E-02 0. -1.
    10030    2    1    2    0    0  0.00000000000E+00  0.00000000000E+00 -0.43993508834E+03  0.26057235107E+04  0.25683169843E+04 0.  0.
        5    1    3    3  502    0 -0.23629181563E+03  0.25668207272E+03 -0.14738156583E+04  0.15145541235E+04  0.46999998093E+01 0. -1.
       -5    1    3    3    0  502  0.23629181563E+03 -0.25668207272E+03  0.10338805699E+04  0.10911693871E+04  0.46999998093E+01 0.  1.
</event>
<event>
 5   0  0.3441646E-05  0.2541330E+04  0.7818609E-02  0.8388408E-01
       -2   -1    0    0    0  501  0.00000000000E+00  0.00000000000E+00  0.58591726472E+03  0.58591726473E+03  0.25500000920E-02 0.  1.
        2   -1    0    0  501    0  0.00000000000E+00  0.00000000000E+00 -0.27556623197E+04  0.27556623197E+04  0.25500000920E-02 0. -1.
    10030    2    1    2    0    0  0.00000000000E+00  0.00000000000E+00 -0.21697450549E+04  0.33415795844E+04  0.25413304617E+04 0.  0.
        4    1    3    3  502    0 -0.12104759756E+04  0.71121865582E+01 -0.57683010013E+03  0.13409091125E+04  0.12699999809E+01 0.  1.
       -4    1    3    3    0  502  0.12104759756E+04 -0.71121865582E+01 -0.15929149548E+04  0.20006704718E+04  0.12699999809E+01 0. -1.
</event>
<event>
 5   0  0.3849687E-05  0.2032344E+04  0.7818609E-02  0.8591646E-01
        2   -1    0    0  501    0  0.00000000000E+00  0.00000000000E+00  0.82208308066E+03  0.82208308067E+03  0.25500000920E-02 0.  1.
       -2   -1    0    0    0  501  0.00000000000E+00  0.00000000000E+00 -0.12560841843E+04  0.12560841843E+04  0.25500000920E-02 0. -1.
    10030    2    1    2    0    0  0.00000000000E+00  0.00000000000E+00 -0.43400110366E+03  0.20781672650E+04  0.20323440219E+04 0.  0.
        1    1    3    3  502    0  0.16861323558E+03 -0.59799584357E+03  0.60522903481E+03  0.86737053025E+03  0.50400001928E-02 0.  1.
       -1    1    3    3    0  502 -0.16861323558E+03  0.59799584357E+03 -0.10392301385E+04  0.12107967347E+04  0.50400001928E-02 0. -1.
</event>
<event>
 5   0  0.3849687E-05  0.2611627E+04  0.7818609E-02  0.8364262E-01
       -2   -1    0    0    0  501  0.00000000000E+00  0.00000000000E+00  0.87221826367E+03  0.87221826368E+03  0.25500000920E-02 0. -1.
        2   -1    0    0  501    0  0.00000000000E+00  0.00000000000E+00 -0.19549572309E+04  0.19549572309E+04  0.25500000920E-02 0.  1.
    10030    2    1    2    0    0  0.00000000000E+00  0.00000000000E+00 -0.10827389672E+04  0.28271754945E+04  0.26116273865E+04 0.  0.
        1    1    3    3  502    0 -0.10877945934E+04  0.58610194368E+03 -0.99852301802E+03  0.15886663537E+04  0.50400001928E-02 0.  1.
       -1    1    3    3    0  502  0.10877945934E+04 -0.58610194368E+03 -0.84215949163E+02  0.12385091408E+04  0.50400001928E-02 0. -1.
</event>
<event>
 5   0  0.1435062E-05  0.2600577E+04  0.7818609E-02  0.8368005E-01
        1   -1    0    0  501    0  0.00000000000E+00  0.00000000000E+00  0.81757185317E+03  0.81757185319E+03  0.50400001928E-02 0.  1.
       -1   -1    0    0    0  501  0.00000000000E+00  0.00000000000E+00 -0.20680140111E+04  0.20680140111E+04  0.50400001928E-02 0. -1.
    10030    2    1    2    0    0  0.00000000000E+00  0.00000000000E+00 -0.12504421579E+04  0.28855858642E+04  0.26005768956E+04 0.  0.
        2    1    3    3  502    0  0.78888290745E+03  0.10210354834E+04 -0.80379461440E+03  0.15201761352E+04  0.25500000920E-02 0. -1.
       -2    1    3    3    0  502 -0.78888290745E+03 -0.10210354834E+04 -0.44664754349E+03  0.13654097290E+04  0.25500000920E-02 0.  1.
</event>
<event>
 5   0  0.3849687E-05  0.2620959E+04  0.7818609E-02  0.8361117E-01
       -2   -1    0    0    0  501  0.00000000000E+00  0.00000000000E+00  0.89543501812E+03  0.89543501813E+03  0.25500000920E-02 0.  1.
        2   -1    0    0  501    0  0.00000000000E+00  0.00000000000E+00 -0.19179017942E+04  0.19179017942E+04  0.25500000920E-02 0. -1.
    10030    2    1    2    0    0  0.00000000000E+00  0.00000000000E+00 -0.10224667760E+04  0.28133368123E+04  0.26209589297E+04 0.  0.
        1    1    3    3  502    0 -0.16546734808E+03  0.72154959912E+03  0.64950007030E+03  0.98481653552E+03  0.50400001928E-02 0.  1.
       -1    1    3    3    0  502  0.16546734808E+03 -0.72154959912E+03 -0.16719668463E+04  0.18285202768E+04  0.50400001928E-02 0. -1.
</event>
<event>
 5   0  0.1474554E-05  0.2595266E+04  0.7818609E-02  0.8369811E-01
       -1   -1    0    0    0  501  0.00000000000E+00  0.00000000000E+00  0.68974960437E+03  0.68974960439E+03  0.50400001928E-02 0.  1.
        1   -1    0    0  501    0  0.00000000000E+00  0.00000000000E+00 -0.24412497364E+04  0.24412497364E+04  0.50400001928E-02 0. -1.
    10030    2    1    2    0    0  0.00000000000E+00  0.00000000000E+00 -0.17515001320E+04  0.31309993408E+04  0.25952657204E+04 0.  0.
        5    1    3    3  502    0 -0.89738617854E+03 -0.86252022661E+03 -0.13183393097E+04  0.18130867933E+04  0.46999998093E+01 0. -1.
       -5    1    3    3    0  502  0.89738617854E+03  0.86252022661E+03 -0.43316082239E+03  0.13179125475E+04  0.46999998093E+01 0.  1.
</event>
<event>
 5   0  0.1497497E-05  0.2674788E+04  0.7818609E-02  0.8343232E-01
        1   -1    0    0  501    0  0.00000000000E+00  0.00000000000E+00  0.18557864261E+04  0.18557864261E+04  0.50400001928E-02 0.  1.
       -1   -1    0    0    0  501  0.00000000000E+00  0.00000000000E+00 -0.96380838225E+03  0.96380838227E+03  0.50400001928E-02 0. -1.
    10030    2    1    2    0    0  0.00000000000E+00  0.00000000000E+00  0.89197804389E+03  0.28195948084E+04  0.26747878519E+04 0.  0.
        3    1    3    3  502    0 -0.89365021758E+03 -0.61259895185E+03 -0.38050761108E+03  0.11483354212E+04  0.10100000352E+00 0. -1.
       -3    1    3    3    0  502  0.89365021758E+03  0.61259895185E+03  0.12724856550E+04  0.16712593873E+04  0.10100000352E+00 0.  1.
</event>
<event>
 5   0  0.3441646E-05  0.2311495E+04  0.7818609E-02  0.8473403E-01
        2   -1    0    0  501    0  0.00000000000E+00  0.00000000000E+00  0.98213131235E+03  0.98213131236E+03  0.25500000920E-02 0. -1.
       -2   -1    0    0    0  501  0.00000000000E+00  0.00000000000E+00 -0.13600543313E+04  0.13600543313E+04  0.25500000920E-02 0.  1.
    10030    2    1    2    0    0  0.00000000000E+00  0.00000000000E+00 -0.37792301899E+03  0.23421856437E+04  0.23114947072E+04 0.  0.
        4    1    3    3  502    0  0.40501443247E+03  0.73854281976E+03  0.61291699624E+03  0.10417058339E+04  0.12699999809E+01 0. -1.
       -4    1    3    3    0  502 -0.40501443247E+03 -0.73854281976E+03 -0.99084001523E+03  0.13004798098E+04  0.12699999809E+01 0.  1.
</event>
<event>
 5   0  0.1451052E-05  0.2609214E+04  0.7818609E-02  0.8365078E-01
       -1   -1    0    0    0  501  0.00000000000E+00  0.00000000000E+00  0.15093171775E+04  0.15093171775E+04  0.50400001928E-02 0.  1.
        1   -1    0    0  501    0  0.00000000000E+00  0.00000000000E+00 -0.11276616102E+04  0.11276616102E+04  0.50400001928E-02 0. -1.
    10030    2    1    2    0    0  0.00000000000E+00  0.00000000000E+00  0.38165556727E+03  0.26369787877E+04  0.26092137043E+04 0.  0.
        1    1    3    3  502    0  0.21999993192E+03 -0.11391548006E+04  0.79377109495E+03  0.14057546660E+04  0.50400001928E-02 0.  1.
       -1    1    3    3    0  502 -0.21999993192E+03  0.11391548006E+04 -0.41211552769E+03  0.12312241217E+04  0.50400001928E-02 0. -1.
</event>
<event>
 5   0  0.3647623E-05  0.2604013E+04  0.7818609E-02  0.8366839E-01
        2   -1    0    0  501    0  0.00000000000E+00  0.00000000000E+00  0.15840631081E+04  0.15840631081E+04  0.25500000920E-02 0. -1.
       -2   -1    0    0    0  501  0.00000000000E+00  0.00000000000E+00 -0.10701728736E+04  0.10701728736E+04  0.25500000920E-02 0.  1.
    10030    2    1    2    0    0  0.00000000000E+00  0.00000000000E+00  0.51389023453E+03  0.26542359818E+04  0.26040133398E+04 0.  0.
        3    1    3    3  502    0  0.57339910108E+03  0.83083160616E+03 -0.58119964018E+03  0.11648436457E+04  0.10100000352E+00 0.  1.
       -3    1    3    3    0  502 -0.57339910108E+03 -0.83083160616E+03  0.10950898747E+04  0.14893923361E+04  0.10100000352E+00 0. -1.
</event>
<event>
 5   0  0.3647623E-05  0.2508550E+04  0.7818609E-02  0.8399946E-01
        2   -1    0    0  501    0  0.00000000000E+00  0.00000000000E+00  0.23705437685E+04  0.23705437685E+04  0.25500000920E-02 0.  1.
       -2   -1    0    0    0  501  0.00000000000E+00  0.00000000000E+00 -0.66364754194E+03  0.66364754194E+03  0.25500000920E-02 0. -1.
    10030    2    1    2    0    0  0.00000000000E+00  0.00000000000E+00  0.17068962266E+04  0.30341913105E+04  0.25085498162E+04 0.  0.
        3    1    3    3  502    0 -0.31665256589E+03  0.64615226248E+03 -0.38915861561E+03  0.81806236443E+03  0.10100000352E+00 0. -1.
       -3    1    3    3    0  502  0.31665256589E+03 -0.64615226248E+03  0.20960548422E+04  0.22161289460E+04  0.10100000352E+00 0.  1.
</event>
<event>
 5   0  0.3647623E-05  0.2556740E+04  0.7818609E-02  0.8383046E-01
        2   -1    0    0  501    0  0.00000000000E+00  0.00000000000E+00  0.13441354224E+04  0.13441354224E+04  0.25500000920E-02 0.  1.
       -2   -1    0    0    0  501  0.00000000000E+00  0.00000000000E+00 -0.12158224473E+04  0.12158224473E+04  0.25500000920E-02 0. -1.
    10030    2    1    2    0    0  0.00000000000E+00  0.00000000000E+00  0.12831297512E+03  0.25599578698E+04  0.25567401267E+04 0.  0.
        3    1    3    3  502    0 -0.24961220997E+03  0.99500537830E+02 -0.11872257833E+04  0.12172558002E+04  0.10100000352E+00 0. -1.
       -3    1    3    3    0  502  0.24961220997E+03 -0.99500537830E+02  0.13155387584E+04  0.13427020695E+04  0.10100000352E+00 0.  1.
</event>
<event>
 5   0  0.1435062E-05  0.2652425E+04  0.7818609E-02  0.8350609E-01
       -1   -1    0    0    0  501  0.00000000000E+00  0.00000000000E+00  0.62477542018E+03  0.62477542020E+03  0.50400001928E-02 0. -1.
        1   -1    0    0  501    0  0.00000000000E+00  0.00000000000E+00 -0.28151541813E+04  0.28151541813E+04  0.50400001928E-02 0.  1.
    10030    2    1    2    0    0  0.00000000000E+00  0.00000000000E+00 -0.21903787612E+04  0.34399296015E+04  0.26524246542E+04 0.  0.
        2    1    3    3  502    0  0.47779754798E+03 -0.12182782571E+04 -0.81598897918E+03  0.15421836540E+04  0.25500000920E-02 0. -1.
       -2    1    3    3    0  502 -0.47779754798E+03  0.12182782571E+04 -0.13743897820E+04  0.18977459475E+04  0.25500000920E-02 0.  1.
</event>
<event>
 5   0  0.3508470E-05  0.2522461E+04  0.7818609E-02  0.8395027E-01
       -2   -1    0    0    0  501  0.00000000000E+00  0.00000000000E+00  0.14684621962E+04  0.14684621962E+04  0.25500000920E-02 0.  1.
        2   -1    0    0  501    0  0.00000000000E+00  0.00000000000E+00 -0.10832435683E+04  0.10832435683E+04  0.25500000920E-02 0. -1.
    10030    2    1    2    0    0  0.00000000000E+00  0.00000000000E+00  0.38521862785E+03  0.25517057645E+04  0.25224608852E+04 0.  0.
        5    1    3    3  502    0 -0.10766659899E+04  0.38934849597E+03  0.72777802828E+03  0.13566447042E+04  0.46999998093E+01 0.  1.
       -5    1    3    3    0  502  0.10766659899E+04 -0.38934849597E+03 -0.34255940043E+03  0.11950610603E+04  0.46999998093E+01 0. -1.
</event>
<event>
 5   0  0.3508470E-05  0.2512177E+04  0.7818609E-02  0.8398660E-01
       -2   -1    0    0    0  501  0.00000000000E+00  0.00000000000E+00  0.88781812693E+03  0.88781812693E+03  0.25500000920E-02 0.  1.
        2   -1    0    0  501    0  0.00000000000E+00  0.00000000000E+00 -0.17771181774E+04  0.17771181774E+04  0.25500000920E-02 0. -1.
    10030    2    1    2    0    0  0.00000000000E+00  0.00000000000E+00 -0.88930005043E+03  0.26649363043E+04  0.25121765317E+04 0.  0.
        5    1    3    3  502    0  0.92436268619E+03  0.24075679364E+02  0.45716735127E+03  0.10315280370E+04  0.46999998093E+01 0.  1.
       -5    1    3    3    0  502 -0.92436268619E+03 -0.24075679364E+02 -0.13464674017E+04  0.16334082673E+04  0.46999998093E+01 0. -1.
</event>
<event>
 5   0  0.3441646E-05  0.2358434E+04  0.7818609E-02  0.8455231E-01
        2   -1    0    0  501    0  0.00000000000E+00  0.00000000000E+00  0.12006835587E+04  0.12006835587E+04  0.25500000920E-02 0.  1.
       -2   -1    0    0    0  501  0.00000000000E+00  0.00000000000E+00 -0.11581338475E+04  0.11581338475E+04  0.25500000920E-02 0. -1.
    10030    2    1    2    0    0  0.00000000000E+00  0.00000000000E+00  0.42549711204E+02  0.23588174063E+04  0.23584336069E+04 0.  0.
        4    1    3    3  502    0  0.16396447544E+03 -0.83318150054E+02 -0.11436998231E+04  0.11583942168E+04  0.12699999809E+01 0. -1.
       -4    1    3    3    0  502 -0.16396447544E+03  0.83318150054E+02  0.11862495343E+04  0.12004231895E+04  0.12699999809E+01 0.  1.
</event>
<event>
 5   0  0.3441646E-05  0.2601501E+04  0.7818609E-02  0.8367692E-01
       -2   -1    0    0    0  501  0.00000000000E+00  0.00000000000E+00  0.14642365668E+04  0.14642365668E+04  0.25500000920E-02 0. -1.
        2   -1    0    0  501    0  0.00000000000E+00  0.00000000000E+00 -0.11555180574E+04  0.11555180574E+04  0.25500000920E-02 0.  1.
    10030    2    1    2    0    0  0.00000000000E+00  0.00000000000E+00  0.30871850940E+03  0.26197546243E+04  0.26015009462E+04 0.  0.
        4    1    3    3  502    0 -0.10526098670E+04  0.15139302883E+03 -0.59992427340E+03  0.12209906338E+04  0.12699999809E+01 0.  1.
       -4    1    3    3    0  502  0.10526098670E+04 -0.15139302883E+03  0.90864278280E+03  0.13987639904E+04  0.12699999809E+01 0. -1.
</event>
<event>
 5   0  0.1435062E-05  0.2586249E+04  0.7818609E-02  0.8372887E-01
        1   -1    0    0  501    0  0.00000000000E+00  0.00000000000E+00  0.11623917164E+04  0.11623917164E+04  0.50400001928E-02 0. -1.
       -1   -1    0    0    0  501  0.00000000000E+00  0.00000000000E+00 -0.14385605812E+04  0.14385605812E+04  0.50400001928E-02 0.  1.
    10030    2    1    2    0    0  0.00000000000E+00  0.00000000000E+00 -0.27616886480E+03  0.26009522977E+04  0.25862489464E+04 0.  0.
        2    1    3    3  502    0 -0.31308562359E+02 -0.10193621685E+04 -0.93764619582E+03  0.13853735400E+04  0.25500000920E-02 0.  1.
       -2    1    3    3    0  502  0.31308562359E+02  0.10193621685E+04  0.66147733102E+03  0.12155787577E+04  0.25500000920E-02 0. -1.
</event>
<event>
 5   0  0.3647623E-05  0.2501174E+04  0.7818609E-02  0.8402567E-01
        2   -1    0    0  501    0  0.00000000000E+00  0.00000000000E+00  0.24328585033E+04  0.24328585033E+04  0.25500000920E-02 0. -1.
       -2   -1    0    0    0  501  0.00000000000E+00  0.00000000000E+00 -0.64285200444E+03  0.64285200445E+03  0.25500000920E-02 0.  1.
    10030    2    1    2    0    0  0.00000000000E+00  0.00000000000E+00  0.17900064989E+04  0.30757105078E+04  0.25011740966E+04 0.  0.
        3    1    3    3  502    0 -0.43641250046E+03 -0.11246319592E+04  0.48954480410E+03  0.13018859550E+04  0.10100000352E+00 0.  1.
       -3    1    3    3    0  502  0.43641250046E+03  0.11246319592E+04  0.13004616948E+04  0.17738245528E+04  0.10100000352E+00 0. -1.
</event>
<event>
 5   0  0.1533248E-05  0.2696868E+04  0.7818609E-02  0.8336022E-01
       -1   -1    0    0    0  501  0.00000000000E+00  0.00000000000E+00  0.13547504249E+04  0.13547504250E+04  0.50400001928E-02 0. -1.
        1   -1    0    0  501    0  0.00000000000E+00  0.00000000000E+00 -0.13421470794E+04  0.13421470794E+04  0.50400001928E-02 0.  1.
    10030    2    1    2    0    0  0.00000000000E+00  0.00000000000E+00  0.12603345538E+02  0.26968975044E+04  0.26968680548E+04 0.  0.
        4    1    3    3  502    0 -0.86612658543E+02  0.76763284152E+03 -0.10989301848E+04  0.13432836990E+04  0.12699999809E+01 0.  1.
       -4    1    3    3    0  502  0.86612658543E+02 -0.76763284152E+03  0.11115335304E+04  0.13536138054E+04  0.12699999809E+01 0. -1.
</event>
<event>
 5   0  0.3849687E-05  0.2357973E+04  0.7818609E-02  0.8455407E-01
       -2   -1    0    0    0  501  0.00000000000E+00  0.00000000000E+00  0.10867756447E+04  0.10867756447E+04  0.25500000920E-02 0. -1.
        2   -1    0    0  501    0  0.00000000000E+00  0.00000000000E+00 -0.12790216967E+04  0.12790216967E+04  0.25500000920E-02 0.  1.
    10030    2    1    2    0    0  0.00000000000E+00  0.00000000000E+00 -0.19224605199E+03  0.23657973414E+04  0.23579733917E+04 0.  0.
        1    1    3    3  502    0 -0.56232278185E+03 -0.27614973376E+03 -0.10982082976E+04  0.12643286960E+04  0.50400001928E-02 0.  1.
       -1    1    3    3    0  502  0.56232278185E+03  0.27614973376E+03  0.90596224562E+03  0.11014686455E+04  0.50400001928E-02 0. -1.
</event>
<event>
 5   0  0.3499642E-05  0.2596727E+04  0.7818609E-02  0.8369314E-01
        2   -1    0    0  501    0  0.00000000000E+00  0.00000000000E+00  0.24701333843E+04  0.24701333843E+04  0.25500000920E-02 0. -1.
       -2   -1    0    0    0  501  0.00000000000E+00  0.00000000000E+00 -0.68245231824E+03  0.68245231825E+03  0.25500000920E-02 0.  1.
    10030    2    1    2    0    0  0.00000000000E+00  0.00000000000E+00  0.17876810660E+04  0.31525857025E+04  0.25967273669E+04 0.  0.
        2    1    3    3  502    0  0.20680156982E+03 -0.96910320561E+03  0.19123649718E+04  0.21538495067E+04  0.25500000920E-02 0. -1.
       -2    1    3    3    0  502 -0.20680156982E+03  0.96910320561E+03 -0.12468390574E+03  0.99873619578E+03  0.25500000920E-02 0.  1.
</event>
<event>
 5   0  0.1451052E-05  0.2569381E+04  0.7818609E-02  0.8378677E-01
        1   -1    0    0  501    0  0.00000000000E+00  0.00000000000E+00  0.91190545149E+03  0.91190545150E+03  0.50400001928E-02 0.  1.
       -1   -1    0    0    0  501  0.00000000000E+00  0.00000000000E+00 -0.18098691567E+04  0.18098691567E+04  0.50400001928E-02 0. -1.
    10030    2    1    2    0    0  0.00000000000E+00  0.00000000000E+00 -0.89796370523E+03  0.27217746082E+04  0.25693808986E+04 0.  0.
        1    1    3    3  502    0  0.70190281792E+03 -0.80069982954E+03  0.31242788001E+03  0.11096841727E+04  0.50400001928E-02 0.  1.
       -1    1    3    3    0  502 -0.70190281792E+03  0.80069982954E+03 -0.12103915852E+04  0.16120904356E+04  0.50400001928E-02 0. -1.
</event>
<event>
 5   0  0.1435062E-05  0.2604629E+04  0.7818609E-02  0.8366631E-01
       -1   -1    0    0    0  501  0.00000000000E+00  0.00000000000E+00  0.11178898120E+04  0.11178898120E+04  0.50400001928E-02 0. -1.
        1   -1    0    0  501    0  0.00000000000E+00  0.00000000000E+00 -0.15171648525E+04  0.15171648525E+04  0.50400001928E-02 0.  1.
    10030    2    1    2    0    0  0.00000000000E+00  0.00000000000E+00 -0.39927504045E+03  0.26350546645E+04  0.26046290575E+04 0.  0.
        2    1    3    3  502    0  0.98261575344E+03  0.11901384799E+02 -0.10642243220E+04  0.14485333167E+04  0.25500000920E-02 0.  1.
       -2    1    3    3    0  502 -0.98261575344E+03 -0.11901384799E+02  0.66494928159E+03  0.11865213479E+04  0.25500000920E-02 0. -1.
</event>
<event>
 5   0  0.3441646E-05  0.2698037E+04  0.7818609E-02  0.8335642E-01
        2   -1    0    0  501    0  0.00000000000E+00  0.00000000000E+00  0.26477365822E+04  0.26477365822E+04  0.25500000920E-02 0. -1.
       -2   -1    0    0    0  501  0.00000000000E+00  0.00000000000E+00 -0.68732310138E+03  0.68732310138E+03  0.25500000920E-02 0.  1.
    10030    2    1    2    0    0  0.00000000000E+00  0.00000000000E+00  0.19604134808E+04  0.33350596836E+04  0.26980367079E+04 0.  0.
        4    1    3    3  502    0 -0.56282732205E+02 -0.84491524869E+03  0.22782943766E+04  0.24305712092E+04  0.12699999809E+01 0. -1.
       -4    1    3    3    0  502  0.56282732205E+02  0.84491524869E+03 -0.31788089585E+03  0.90448847437E+03  0.12699999809E+01 0.  1.
</event>
<event>
 5   0  0.3441646E-05  0.2620975E+04  0.7818609E-02  0.8361111E-01
        2   -1    0    0  501    0  0.00000000000E+00  0.00000000000E+00  0.98318266587E+03  0.98318266587E+03  0.25500000920E-02 0.  1.
       -2   -1    0    0    0  501  0.00000000000E+00  0.00000000000E+00 -0.17467537465E+04  0.17467537465E+04  0.25500000920E-02 0. -1.
    10030    2    1    2    0    0  0.00000000000E+00  0.00000000000E+00 -0.76357108065E+03  0.27299364124E+04  0.26209753949E+04 0.  0.
        4    1    3    3  502    0 -0.79397586091E+03 -0.51825679550E+03 -0.13240425518E+04  0.16285202074E+04  0.12699999809E+01 0. -1.
       -4    1    3    3    0  502  0.79397586091E+03  0.51825679550E+03  0.56047147118E+03  0.11014162050E+04  0.12699999809E+01 0.  1.
</event>
<event>
 5   0  0.1533248E-05  0.2542001E+04  0.7818609E-02  0.8388173E-01
       -1   -1    0    0    0  501  0.00000000000E+00  0.00000000000E+00  0.12585789868E+04  0.12585789868E+04  0.50400001928E-02 0. -1.
        1   -1    0    0  501    0  0.00000000000E+00  0.00000000000E+00 -0.12835450872E+04  0.12835450872E+04  0.50400001928E-02 0.  1.
    10030    2    1    2    0    0  0.00000000000E+00  0.00000000000E+00 -0.24966100368E+02  0.25421240740E+04  0.25420014755E+04 0.  0.
        4    1    3    3  502    0  0.22475444790E+03 -0.98342747521E+03  0.76072763619E+03  0.12634683653E+04  0.12699999809E+01 0. -1.
       -4    1    3    3    0  502 -0.22475444790E+03  0.98342747521E+03 -0.78569373655E+03  0.12786557087E+04  0.12699999809E+01 0.  1.
</event>
<event>
 5   0  0.1435062E-05  0.2613860E+04  0.7818609E-02  0.8363508E-01
       -1   -1    0    0    0  501  0.00000000000E+00  0.00000000000E+00  0.72345168905E+03  0.72345168907E+03  0.50400001928E-02 0. -1.
        1   -1    0    0  501    0  0.00000000000E+00  0.00000000000E+00 -0.23609953097E+04  0.23609953098E+04  0.50400001928E-02 0.  1.
    10030    2    1    2    0    0  0.00000000000E+00  0.00000000000E+00 -0.16375436207E+04  0.30844469988E+04  0.26138600152E+04 0.  0.
        2    1    3    3  502    0  0.76600749424E+03 -0.62156907178E+03 -0.18304072089E+04  0.20793042448E+04  0.25500000920E-02 0.  1.
       -2    1    3    3    0  502 -0.76600749424E+03  0.62156907178E+03  0.19286358820E+03  0.10051427540E+04  0.25500000920E-02 0. -1.
</event>
<event>
 5   0  0.3508470E-05  0.2584196E+04  0.7818609E-02  0.8373589E-01
       -2   -1    0    0    0  501  0.00000000000E+00  0.00000000000E+00  0.20810468465E+04  0.20810468465E+04  0.25500000920E-02 0.  1.
        2   -1    0    0  501    0  0.00000000000E+00  0.00000000000E+00 -0.80224874347E+03  0.80224874348E+03  0.25500000920E-02 0. -1.
    10030    2    1    2    0    0  0.00000000000E+00  0.00000000000E+00  0.12787981030E+04  0.28832955900E+04  0.25841959815E+04 0.  0.
        5    1    3    3  502    0 -0.76704270928E+03 -0.10266591261E+04  0.82311281102E+03  0.15231284479E+04  0.46999998093E+01 0.  1.
       -5    1    3    3    0  502  0.76704270928E+03  0.10266591261E+04  0.45568529201E+03  0.13601671421E+04  0.46999998093E+01 0. -1.
</event>
<event>
 5   0  0.3508470E-05  0.2732391E+04  0.7818609E-02  0.8324571E-01
        2   -1    0    0  501    0  0.00000000000E+00  0.00000000000E+00  0.20240355378E+04  0.20240355378E+04  0.25500000920E-02 0.  1.
       -2   -1    0    0    0  501  0.00000000000E+00  0.00000000000E+00 -0.92216257835E+03  0.92216257835E+03  0.25500000920E-02 0. -1.
    10030    2    1    2    0    0  0.00000000000E+00  0.00000000000E+00  0.11018729595E+04  0.29461981162E+04  0.27323907702E+04 0.  0.
        5    1    3    3  502    0 -0.11207379437E+04 -0.35410727050E+03 -0.19999440321E+03  0.11922522169E+04  0.46999998093E+01 0. -1.
       -5    1    3    3    0  502  0.11207379437E+04  0.35410727050E+03  0.13018673627E+04  0.17539458992E+04  0.46999998093E+01 0.  1.
</event>
<event>
 5   0  0.1474554E-05  0.2622530E+04  0.7818609E-02  0.8360588E-01
       -1   -1    0    0    0  501  0.00000000000E+00  0.00000000000E+00  0.77935606687E+03  0.77935606689E+03  0.50400001928E-02 0. -1.
        1   -1    0    0  501    0  0.00000000000E+00  0.00000000000E+00 -0.22062000796E+04  0.22062000796E+04  0.50400001928E-02 0.  1.
    10030    2    1    2    0    0  0.00000000000E+00  0.00000000000E+00 -0.14268440128E+04  0.29855561465E+04  0.26225296314E+04 0.  0.
        5    1    3    3  502    0 -0.11333559681E+04 -0.37922906915E+03 -0.13276267663E+04  0.17863161417E+04  0.46999998093E+01 0.  1.
       -5    1    3    3    0  502  0.11333559681E+04  0.37922906915E+03 -0.99217246425E+02  0.11992400049E+04  0.46999998093E+01 0. -1.
</event>
<event>
 5   0  0.3499642E-05  0.2553735E+04  0.7818609E-02  0.8384088E-01
        2   -1    0    0  501    0  0.00000000000E+00  0.00000000000E+00  0.15842759222E+04  0.15842759222E+04  0.25500000920E-02 0. -1.
       -2   -1    0    0    0  501  0.00000000000E+00  0.00000000000E+00 -0.10291075238E+04  0.10291075238E+04  0.25500000920E-02 0.  1.
    10030    2    1    2    0    0  0.00000000000E+00  0.00000000000E+00  0.55516839834E+03  0.26133834460E+04  0.25537347328E+04 0.  0.
        2    1    3    3  502    0 -0.71484298513E+02  0.99282379958E+03 -0.54083382792E+03  0.11328328788E+04  0.25500000920E-02 0.  1.
       -2    1    3    3    0  502  0.71484298513E+02 -0.99282379958E+03  0.10960022263E+04  0.14805505672E+04  0.25500000920E-02 0. -1.
</event>
<event>
 5   0  0.1533248E-05  0.1976787E+04  0.7818609E-02  0.8617551E-01
       -1   -1    0    0    0  501  0.00000000000E+00  0.00000000000E+00  0.44092052733E+03  0.44092052736E+03  0.50400001928E-02 0. -1.
        1   -1    0    0  501    0  0.00000000000E+00  0.00000000000E+00 -0.22156418027E+04  0.22156418028E+04  0.50400001928E-02 0.  1.
    10030    2    1    2    0    0  0.00000000000E+00  0.00000000000E+00 -0.17747212754E+04  0.26565623301E+04  0.19767872441E+04 0.  0.
        4    1    3    3  502    0  0.46278684445E+03  0.52496689327E+03  0.50622852394E+02  0.70165959589E+03  0.12699999809E+01 0. -1.
       -4    1    3    3    0  502 -0.46278684445E+03 -0.52496689327E+03 -0.18253441278E+04  0.19549027342E+04  0.12699999809E+01 0.  1.
</event>
<event>
 5   0  0.3647623E-05  0.2654045E+04  0.7818609E-02  0.8350072E-01
       -2   -1    0    0    0  501  0.00000000000E+00  0.00000000000E+00  0.69407204978E+03  0.69407204978E+03  0.25500000920E-02 0.  1.
        2   -1    0    0  501    0  0.00000000000E+00  0.00000000000E+00 -0.25371848842E+04  0.25371848842E+04  0.25500000920E-02 0. -1.
    10030    2    1    2    0    0  0.00000000000E+00  0.00000000000E+00 -0.18431128344E+04  0.32312569340E+04  0.26540452997E+04 0.  0.
        3    1    3    3  502    0  0.11671636789E+04 -0.51934423626E+03 -0.48427868052E+03  0.13662047210E+04  0.10100000352E+00 0. -1.
       -3    1    3    3    0  502 -0.11671636789E+04  0.51934423626E+03 -0.13588341539E+04  0.18650522130E+04  0.10100000352E+00 0.  1.
</event>
<event>
 5   0  0.1217200E-05  0.2555581E+04  0.7818609E-02  0.8383448E-01
       -4   -1    0    0    0  501  0.00000000000E+00  0.00000000000E+00  0.11092366681E+04  0.11092373952E+04  0.12699999809E+01 0. -1.
        4   -1    0    0  501    0  0.00000000000E+00  0.00000000000E+00 -0.14719549809E+04  0.14719555288E+04  0.12699999809E+01 0.  1.
    10030    2    1    2    0    0  0.00000000000E+00  0.00000000000E+00 -0.36271831278E+03  0.25811929240E+04  0.25555806260E+04 0.  0.
        1    1    3    3  502    0 -0.71133946727E+03 -0.62874980829E+03 -0.10451601087E+04  0.14119808115E+04  0.50400001928E-02 0.  1.
       -1    1    3    3    0  502  0.71133946727E+03  0.62874980829E+03  0.68244179591E+03  0.11692121125E+04  0.50400001928E-02 0. -1.
</event>
<event>
 5   0  0.3499642E-05  0.2519485E+04  0.7818609E-02  0.8396076E-01
        2   -1    0    0  501    0  0.00000000000E+00  0.00000000000E+00  0.10143970427E+04  0.10143970428E+04  0.25500000920E-02 0. -1.
       -2   -1    0    0    0  501  0.00000000000E+00  0.00000000000E+00 -0.15644285708E+04  0.15644285708E+04  0.25500000920E-02 0.  1.
    10030    2    1    2    0    0  0.00000000000E+00  0.00000000000E+00 -0.55003152807E+03  0.25788256136E+04  0.25194854362E+04 0.  0.
        2    1    3    3  502    0  0.30634253057E+03 -0.12208788651E+04 -0.32681163103E+03  0.13004602230E+04  0.25500000920E-02 0. -1.
       -2    1    3    3    0  502 -0.30634253057E+03  0.12208788651E+04 -0.22321989704E+03  0.12783653906E+04  0.25500000920E-02 0.  1.
</event>
<event>
 5   0  0.1497497E-05  0.1589420E+04  0.7818609E-02  0.8827074E-01
        1   -1    0    0  501    0  0.00000000000E+00  0.00000000000E+00  0.11387224200E+04  0.11387224200E+04  0.50400001928E-02 0.  1.
       -1   -1    0    0    0  501  0.00000000000E+00  0.00000000000E+00 -0.55462521357E+03  0.55462521360E+03  0.50400001928E-02 0. -1.
    10030    2    1    2    0    0  0.00000000000E+00  0.00000000000E+00  0.58409720639E+03  0.16933476336E+04  0.15894202281E+04 0.  0.
        3    1    3    3  502    0  0.85549593495E+02 -0.51760787826E+03  0.92801191717E+03  0.10660407015E+04  0.10100000352E+00 0.  1.
       -3    1    3    3    0  502 -0.85549593495E+02  0.51760787826E+03 -0.34391471077E+03  0.62730693211E+03  0.10100000352E+00 0. -1.
</event>
<event>
 5   0  0.3499642E-05  0.2449698E+04  0.7818609E-02  0.8421128E-01
        2   -1    0    0  501    0  0.00000000000E+00  0.00000000000E+00  0.16747633053E+04  0.16747633053E+04  0.25500000920E-02 0. -1.
       -2   -1    0    0    0  501  0.00000000000E+00  0.00000000000E+00 -0.89580119177E+03  0.89580119177E+03  0.25500000920E-02 0.  1.
    10030    2    1    2    0    0  0.00000000000E+00  0.00000000000E+00  0.77896211351E+03  0.25705644971E+04  0.24496979118E+04 0.  0.
        2    1    3    3  502    0 -0.54772024719E+03  0.17217786277E+03  0.15248120944E+04  0.16293233592E+04  0.25500000920E-02 0. -1.
       -2    1    3    3    0  502  0.54772024719E+03 -0.17217786277E+03 -0.74584998088E+03  0.94124113786E+03  0.25500000920E-02 0.  1.
</event>
<event>
 5   0  0.1474554E-05  0.2666530E+04  0.7818609E-02  0.8345947E-01
        1   -1    0    0  501    0  0.00000000000E+00  0.00000000000E+00  0.19125937451E+04  0.19125937452E+04  0.50400001928E-02 0.  1.
       -1   -1    0    0    0  501  0.00000000000E+00  0.00000000000E+00 -0.92941645201E+03  0.92941645202E+03  0.50400001928E-02 0. -1.
    10030    2    1    2    0    0  0.00000000000E+00  0.00000000000E+00  0.98317729314E+03  0.28420101972E+04  0.26665303994E+04 0.  0.
        5    1    3    3  502    0  0.46880599451E+03 -0.46940206143E+03  0.17241795248E+04  0.18474129153E+04  0.46999998093E+01 0.  1.
       -5    1    3    3    0  502 -0.46880599451E+03  0.46940206143E+03 -0.74100223169E+03  0.99459728188E+03  0.46999998093E+01 0. -1.
</event>
<event>
 5   0  0.1533248E-05  0.2611316E+04  0.7818609E-02  0.8364367E-01
        1   -1    0    0  501    0  0.00000000000E+00  0.00000000000E+00  0.76351142436E+03  0.76351142438E+03  0.50400001928E-02 0.  1.
       -1   -1    0    0    0  501  0.00000000000E+00  0.00000000000E+00 -0.22327672911E+04  0.22327672911E+04  0.50400001928E-02 0. -1.
    10030    2    1    2    0    0  0.00000000000E+00  0.00000000000E+00 -0.14692558667E+04  0.29962787155E+04  0.26113163996E+04 0.  0.
        4    1    3    3  502    0 -0.32347441792E+03 -0.13879322205E+03 -0.21772979627E+04  0.22055673395E+04  0.12699999809E+01 0. -1.
       -4    1    3    3    0  502  0.32347441792E+03  0.13879322205E+03  0.70804209600E+03  0.79071137600E+03  0.12699999809E+01 0.  1.
</event>
<event>
 5   0  0.3647623E-05  0.2546083E+04  0.7818609E-02  0.8386750E-01
        2   -1    0    0  501    0  0.00000000000E+00  0.00000000000E+00  0.12272302871E+04  0.12272302871E+04  0.25500000920E-02 0. -1.
       -2   -1    0    0    0  501  0.00000000000E+00  0.00000000000E+00 -0.13205631826E+04  0.13205631826E+04  0.25500000920E-02 0.  1.
    10030    2    1    2    0    0  0.00000000000E+00  0.00000000000E+00 -0.93332895465E+02  0.25477934697E+04  0.25460833716E+04 0.  0.
        3    1    3    3  502    0  0.48101843431E+03 -0.30759496177E+03  0.10919210222E+04  0.12321870490E+04  0.10100000352E+00 0. -1.
       -3    1    3    3    0  502 -0.48101843431E+03  0.30759496177E+03 -0.11852539177E+04  0.13156064207E+04  0.10100000352E+00 0.  1.
</event>
<event>
 5   0  0.1497497E-05  0.2585011E+04  0.7818609E-02  0.8373310E-01
       -1   -1    0    0    0  501  0.00000000000E+00  0.00000000000E+00  0.10146463676E+04  0.10146463676E+04  0.50400001928E-02 0. -1.
        1   -1    0    0  501    0  0.00000000000E+00  0.00000000000E+00 -0.16464560685E+04  0.16464560685E+04  0.50400001928E-02 0.  1.
    10030    2    1    2    0    0  0.00000000000E+00  0.00000000000E+00 -0.63180970086E+03  0.26611024361E+04  0.25850111562E+04 0.  0.
        3    1    3    3  502    0  0.77361087149E+03  0.69253785911E+03  0.47648521274E+03  0.11424187651E+04  0.10100000352E+00 0. -1.
       -3    1    3    3    0  502 -0.77361087149E+03 -0.69253785911E+03 -0.11082949136E+04  0.15186836710E+04  0.10100000352E+00 0.  1.
</event>
<event>
 5   0  0.1435062E-05  0.2592444E+04  0.7818609E-02  0.8370772E-01
       -1   -1    0    0    0  501  0.00000000000E+00  0.00000000000E+00  0.10591123815E+04  0.10591123815E+04  0.50400001928E-02 0. -1.
        1   -1    0    0  501    0  0.00000000000E+00  0.00000000000E+00 -0.15864142930E+04  0.15864142930E+04  0.50400001928E-02 0.  1.
    10030    2    1    2    0    0  0.00000000000E+00  0.00000000000E+00 -0.52730191148E+03  0.26455266745E+04  0.25924436502E+04 0.  0.
        2    1    3    3  502    0  0.38888583946E+03  0.24620870379E+02  0.99792849043E+03  0.10713074514E+04  0.25500000920E-02 0. -1.
       -2    1    3    3    0  502 -0.38888583946E+03 -0.24620870379E+02 -0.15252304019E+04  0.15742192231E+04  0.25500000920E-02 0.  1.
</event>
<event>
 5   0  0.1435062E-05  0.2590951E+04  0.7818609E-02  0.8371282E-01
        1   -1    0    0  501    0  0.00000000000E+00  0.00000000000E+00  0.16380831624E+04  0.16380831624E+04  0.50400001928E-02 0.  1.
       -1   -1    0    0    0  501  0.00000000000E+00  0.00000000000E+00 -0.10245244027E+04  0.10245244027E+04  0.50400001928E-02 0. -1.
    10030    2    1    2    0    0  0.00000000000E+00  0.00000000000E+00  0.61355875974E+03  0.26626075651E+04  0.25909505387E+04 0.  0.
        2    1    3    3  502    0  0.94396552744E+03  0.87094335304E+03  0.48070228347E+03  0.13713817581E+04  0.25500000920E-02 0. -1.
       -2    1    3    3    0  502 -0.94396552744E+03 -0.87094335304E+03  0.13285647627E+03  0.12912258069E+04  0.25500000920E-02 0.  1.
</event>
<event>
 5   0  0.3441646E-05  0.2609693E+04  0.7818609E-02  0.8364916E-01
       -2   -1    0    0    0  501  0.00000000000E+00  0.00000000000E+00  0.84972790389E+03  0.84972790389E+03  0.25500000920E-02 0. -1.
        2   -1    0    0  501    0  0.00000000000E+00  0.00000000000E+00 -0.20037281879E+04  0.20037281879E+04  0.25500000920E-02 0.  1.
    10030    2    1    2    0    0  0.00000000000E+00  0.00000000000E+00 -0.11540002840E+04  0.28534560918E+04  0.26096925130E+04 0.  0.
        4    1    3    3  502    0 -0.11218261629E+04 -0.49123992124E+02 -0.13036964352E+04  0.17206199796E+04  0.12699999809E+01 0.  1.
       -4    1    3    3    0  502  0.11218261629E+04  0.49123992124E+02  0.14969615115E+03  0.11328361121E+04  0.12699999809E+01 0. -1.
</event>
<event>
 5   0  0.1451052E-05  0.2557273E+04  0.7818609E-02  0.8382861E-01
        1   -1    0    0  501    0  0.00000000000E+00  0.00000000000E+00  0.13887282000E+04  0.13887282000E+04  0.50400001928E-02 0. -1.
       -1   -1    0    0    0  501  0.00000000000E+00  0.00000000000E+00 -0.11772726935E+04  0.11772726935E+04  0.50400001928E-02 0.  1.
    10030    2    1    2    0    0  0.00000000000E+00  0.00000000000E+00  0.21145550655E+03  0.25660008935E+04  0.25572733828E+04 0.  0.
        1    1    3    3  502    0  0.70281531495E+03 -0.10562775090E+04 -0.53686237027E+02  0.12698636758E+04  0.50400001928E-02 0.  1.
       -1    1    3    3    0  502 -0.70281531495E+03  0.10562775090E+04  0.26514174358E+03  0.12961372177E+04  0.50400001928E-02 0. -1.
</event>
<event>
 5   0  0.1451052E-05  0.2095043E+04  0.7818609E-02  0.8563430E-01
       -1   -1    0    0    0  501  0.00000000000E+00  0.00000000000E+00  0.76771217741E+03  0.76771217743E+03  0.50400001928E-02 0.  1.
        1   -1    0    0  501    0  0.00000000000E+00  0.00000000000E+00 -0.14293133601E+04  0.14293133601E+04  0.50400001928E-02 0. -1.
    10030    2    1    2    0    0  0.00000000000E+00  0.00000000000E+00 -0.66160118270E+03  0.21970255375E+04  0.20950429799E+04 0.  0.
        1    1    3    3  502    0 -0.85888200221E+03  0.33765902022E+03 -0.85051484577E+03  0.12550168965E+04  0.50400001928E-02 0.  1.
       -1    1    3    3    0  502  0.85888200221E+03 -0.33765902022E+03  0.18891366307E+03  0.94200864103E+03  0.50400001928E-02 0. -1.
</event>
<event>
 5   0  0.3508470E-05  0.2705592E+04  0.7818609E-02  0.8333193E-01
        2   -1    0    0  501    0  0.00000000000E+00  0.00000000000E+00  0.15201020863E+04  0.15201020863E+04  0.25500000920E-02 0.  1.
       -2   -1    0    0    0  501  0.00000000000E+00  0.00000000000E+00 -0.12039041074E+04  0.12039041074E+04  0.25500000920E-02 0. -1.
    10030    2    1    2    0    0  0.00000000000E+00  0.00000000000E+00  0.31619797887E+03  0.27240061938E+04  0.27055920945E+04 0.  0.
        5    1    3    3  502    0  0.24809040432E+03 -0.13586957261E+03  0.14899878250E+04  0.15166064744E+04  0.46999998093E+01 0.  1.
       -5    1    3    3    0  502 -0.24809040432E+03  0.13586957261E+03 -0.11737898461E+04  0.12073997194E+04  0.46999998093E+01 0. -1.
</event>
<event>
 5   0  0.3849687E-05  0.2598041E+04  0.7818609E-02  0.8368867E-01
       -2   -1    0    0    0  501  0.00000000000E+00  0.00000000000E+00  0.19343530314E+04  0.19343530314E+04  0.25500000920E-02 0.  1.
        2   -1    0    0  501    0  0.00000000000E+00  0.00000000000E+00 -0.87236116313E+03  0.87236116314E+03  0.25500000920E-02 0. -1.
    10030    2    1    2    0    0  0.00000000000E+00  0.00000000000E+00  0.10619918683E+04  0.28067141946E+04  0.25980411547E+04 0.  0.
        1    1    3    3  502    0 -0.55165855094E+03 -0.11627472452E+04  0.72165362617E+03  0.14754972956E+04  0.50400001928E-02 0. -1.
       -1    1    3    3    0  502  0.55165855094E+03  0.11627472452E+04  0.34033824211E+03  0.13312168990E+04  0.50400001928E-02 0.  1.
</event>
<event>
 5   0  0.3849687E-05  0.2517155E+04  0.7818609E-02  0.8396899E-01
       -2   -1    0    0    0  501  0.00000000000E+00  0.00000000000E+00  0.10018142599E+04  0.10018142599E+04  0.25500000920E-02 0.  1.
        2   -1    0    0  501    0  0.00000000000E+00  0.00000000000E+00 -0.15811485670E+04  0.15811485670E+04  0.25500000920E-02 0. -1.
    10030    2    1    2    0    0  0.00000000000E+00  0.00000000000E+00 -0.57933430714E+03  0.25829628269E+04  0.25171548871E+04 0.  0.
        1    1    3    3  502    0 -0.30145141673E+02  0.25954152051E+03  0.97367656405E+03  0.10081252808E+04  0.50400001928E-02 0.  1.
       -1    1    3    3    0  502  0.30145141673E+02 -0.25954152051E+03 -0.15530108712E+04  0.15748375461E+04  0.50400001928E-02 0. -1.
</event>
<event>
 5   0  0.1497497E-05  0.2158493E+04  0.7818609E-02  0.8535906E-01
       -1   -1    0    0    0  501  0.00000000000E+00  0.00000000000E+00  0.42442978535E+03  0.42442978538E+03  0.50400001928E-02 0.  1.
        1   -1    0    0  501    0  0.00000000000E+00  0.00000000000E+00 -0.27443245031E+04  0.27443245031E+04  0.50400001928E-02 0. -1.
    10030    2    1    2    0    0  0.00000000000E+00  0.00000000000E+00 -0.23198947177E+04  0.31687542884E+04  0.21584930482E+04 0.  0.
        3    1    3    3  502    0 -0.53877803488E+03  0.22630611161E+03  0.17207297532E+03  0.60918416432E+03  0.10100000352E+00 0.  1.
       -3    1    3    3    0  502  0.53877803488E+03 -0.22630611161E+03 -0.24919676930E+04  0.25595701241E+04  0.10100000352E+00 0. -1.
</event>
<event>
 5   0  0.3508470E-05  0.2621466E+04  0.7818609E-02  0.8360946E-01
        2   -1    0    0  501    0  0.00000000000E+00  0.00000000000E+00  0.19525842246E+04  0.19525842246E+04  0.25500000920E-02 0.  1.
       -2   -1    0    0    0  501  0.00000000000E+00  0.00000000000E+00 -0.87987049251E+03  0.87987049252E+03  0.25500000920E-02 0. -1.
    10030    2    1    2    0    0  0.00000000000E+00  0.00000000000E+00  0.10727137321E+04  0.28324547171E+04  0.26214661878E+04 0.  0.
        5    1    3    3  502    0  0.10184656400E+04 -0.59091830460E+03  0.11584970979E+04  0.16518457308E+04  0.46999998093E+01 0.  1.
       -5    1    3    3    0  502 -0.10184656400E+04  0.59091830460E+03 -0.85783365809E+02  0.11806089863E+04  0.46999998093E+01 0. -1.
</event>
<event>
 5   0  0.3499642E-05  0.2645744E+04  0.7818609E-02  0.8352827E-01
        2   -1    0    0  501    0  0.00000000000E+00  0.00000000000E+00  0.92561170433E+03  0.92561170433E+03  0.25500000920E-02 0. -1.
       -2   -1    0    0    0  501  0.00000000000E+00  0.00000000000E+00 -0.18906313883E+04  0.18906313883E+04  0.25500000920E-02 0.  1.
    10030    2    1    2    0    0  0.00000000000E+00  0.00000000000E+00 -0.96501968395E+03  0.28162430926E+04  0.26457441611E+04 0.  0.
        2    1    3    3  502    0 -0.36774962933E+03  0.44959157256E+03 -0.17476384813E+04  0.18416331430E+04  0.25500000920E-02 0.  1.
       -2    1    3    3    0  502  0.36774962933E+03 -0.44959157256E+03  0.78261879733E+03  0.97460994964E+03  0.25500000920E-02 0. -1.
</event>
<event>
 5   0  0.1474554E-05  0.2554899E+04  0.7818609E-02  0.8383684E-01
        1   -1    0    0  501    0  0.00000000000E+00  0.00000000000E+00  0.19809336008E+04  0.19809336008E+04  0.50400001928E-02 0. -1.
       -1   -1    0    0    0  501  0.00000000000E+00  0.00000000000E+00 -0.82379226952E+03  0.82379226953E+03  0.50400001928E-02 0.  1.
    10030    2    1    2    0    0  0.00000000000E+00  0.00000000000E+00  0.11571413313E+04  0.28047258704E+04  0.25548994398E+04 0.  0.
        5    1    3    3  502    0  0.61293224969E+03 -0.10884887269E+04  0.87182892617E+03  0.15233520335E+04  0.46999998093E+01 0. -1.
       -5    1    3    3    0  502 -0.61293224969E+03  0.10884887269E+04  0.28531240514E+03  0.12813738369E+04  0.46999998093E+01 0.  1.
</event>
<event>
 5   0  0.3849687E-05  0.2629803E+04  0.7818609E-02  0.8358148E-01
       -2   -1    0    0    0  501  0.00000000000E+00  0.00000000000E+00  0.97224585972E+03  0.97224585973E+03  0.25500000920E-02 0.  1.
        2   -1    0    0  501    0  0.00000000000E+00  0.00000000000E+00 -0.17783217602E+04  0.17783217602E+04  0.25500000920E-02 0. -1.
    10030    2    1    2    0    0  0.00000000000E+00  0.00000000000E+00 -0.80607590046E+03  0.27505676199E+04  0.26298030106E+04 0.  0.
        1    1    3    3  502    0  0.83722740973E+03 -0.89149373199E+03 -0.90818141264E+03  0.15233201528E+04  0.50400001928E-02 0. -1.
       -1    1    3    3    0  502 -0.83722740973E+03  0.89149373199E+03  0.10210551218E+03  0.12272474671E+04  0.50400001928E-02 0.  1.
</event>
<event>
 5   0  0.3441646E-05  0.2560218E+04  0.7818609E-02  0.8381841E-01
       -2   -1    0    0    0  501  0.00000000000E+00  0.00000000000E+00  0.13767544568E+04  0.13767544568E+04  0.25500000920E-02 0. -1.
        2   -1    0    0  501    0  0.00000000000E+00  0.00000000000E+00 -0.11902480930E+04  0.11902480930E+04  0.25500000920E-02 0.  1.
    10030    2    1    2    0    0  0.00000000000E+00  0.00000000000E+00  0.18650636387E+03  0.25670025498E+04  0.25602182460E+04 0.  0.
        4    1    3    3  502    0  0.33109203093E+02  0.67368606836E+02 -0.11880388418E+04  0.11904086068E+04  0.12699999809E+01 0.  1.
       -4    1    3    3    0  502 -0.33109203093E+02 -0.67368606836E+02  0.13745452057E+04  0.13765939430E+04  0.12699999809E+01 0. -1.
</event>
<event>
 5   0  0.3849687E-05  0.2600435E+04  0.7818609E-02  0.8368054E-01
        2   -1    0    0  501    0  0.00000000000E+00  0.00000000000E+00  0.89156668454E+03  0.89156668454E+03  0.25500000920E-02 0.  1.
       -2   -1    0    0    0  501  0.00000000000E+00  0.00000000000E+00 -0.18961734168E+04  0.18961734168E+04  0.25500000920E-02 0. -1.
    10030    2    1    2    0    0  0.00000000000E+00  0.00000000000E+00 -0.10046067323E+04  0.27877401014E+04  0.26004346149E+04 0.  0.
        1    1    3    3  502    0 -0.29543977063E+02 -0.10038669040E+04  0.38297636647E+03  0.10748453400E+04  0.50400001928E-02 0.  1.
       -1    1    3    3    0  502  0.29543977063E+02  0.10038669040E+04 -0.13875830988E+04  0.17128947614E+04  0.50400001928E-02 0. -1.
</event>
<event>
 5   0  0.3499642E-05  0.1774122E+04  0.7818609E-02  0.8720183E-01
        2   -1    0    0  501    0  0.00000000000E+00  0.00000000000E+00  0.15130931141E+04  0.15130931141E+04  0.25500000920E-02 0. -1.
       -2   -1    0    0    0  501  0.00000000000E+00  0.00000000000E+00 -0.52004575033E+03  0.52004575033E+03  0.25500000920E-02 0.  1.
    10030    2    1    2    0    0  0.00000000000E+00  0.00000000000E+00  0.99304736380E+03  0.20331388645E+04  0.17741224804E+04 0.  0.
        2    1    3    3  502    0  0.60439617420E+03  0.25073410879E+03  0.11828938553E+04  0.13518136712E+04  0.25500000920E-02 0. -1.
       -2    1    3    3    0  502 -0.60439617420E+03 -0.25073410879E+03 -0.18984649147E+03  0.68132519330E+03  0.25500000920E-02 0.  1.
</event>
<event>
 5   0  0.1435062E-05  0.2618292E+04  0.7818609E-02  0.8362014E-01
        1   -1    0    0  501    0  0.00000000000E+00  0.00000000000E+00  0.13174129523E+04  0.13174129523E+04  0.50400001928E-02 0. -1.
       -1   -1    0    0    0  501  0.00000000000E+00  0.00000000000E+00 -0.13009308883E+04  0.13009308883E+04  0.50400001928E-02 0.  1.
    10030    2    1    2    0    0  0.00000000000E+00  0.00000000000E+00  0.16482064032E+02  0.26183438406E+04  0.26182919641E+04 0.  0.
        2    1    3    3  502    0 -0.81888577791E+03  0.20739726940E+03  0.10083986672E+04  0.13154677558E+04  0.25500000920E-02 0. -1.
       -2    1    3    3    0  502  0.81888577791E+03 -0.20739726940E+03 -0.99191660317E+03  0.13028760848E+04  0.25500000920E-02 0.  1.
</event>
<event>
 5   0  0.1435062E-05  0.2724340E+04  0.7818609E-02  0.8327150E-01
        1   -1    0    0  501    0  0.00000000000E+00  0.00000000000E+00  0.19738621902E+04  0.19738621902E+04  0.50400001928E-02 0.  1.
       -1   -1    0    0    0  501  0.00000000000E+00  0.00000000000E+00 -0.94003914842E+03  0.94003914843E+03  0.50400001928E-02 0. -1.
    10030    2    1    2    0    0  0.00000000000E+00  0.00000000000E+00  0.10338230418E+04  0.29139013386E+04  0.27243404577E+04 0.  0.
        2    1    3    3  502    0 -0.12309889354E+04  0.38217524752E+03  0.45669304898E+02  0.12897586458E+04  0.25500000920E-02 0. -1.
       -2    1    3    3    0  502  0.12309889354E+04 -0.38217524752E+03  0.98815373689E+03  0.16241426928E+04  0.25500000920E-02 0.  1.
</event>
<event>
 5   0  0.3849687E-05  0.2603269E+04  0.7818609E-02  0.8367092E-01
       -2   -1    0    0    0  501  0.00000000000E+00  0.00000000000E+00  0.88420978969E+03  0.88420978969E+03  0.25500000920E-02 0.  1.
        2   -1    0    0  501    0  0.00000000000E+00  0.00000000000E+00 -0.19161206680E+04  0.19161206680E+04  0.25500000920E-02 0. -1.
    10030    2    1    2    0    0  0.00000000000E+00  0.00000000000E+00 -0.10319108784E+04  0.28003304577E+04  0.26032692161E+04 0.  0.
        1    1    3    3  502    0  0.28166419801E+03  0.12526063515E+03 -0.18762888153E+04  0.19014427853E+04  0.50400001928E-02 0. -1.
       -1    1    3    3    0  502 -0.28166419801E+03 -0.12526063515E+03  0.84437793698E+03  0.89888767243E+03  0.50400001928E-02 0.  1.
</event>
<event>
 5   0  0.1451052E-05  0.2581488E+04  0.7818609E-02  0.8374517E-01
        1   -1    0    0  501    0  0.00000000000E+00  0.00000000000E+00  0.15087792870E+04  0.15087792870E+04  0.50400001928E-02 0. -1.
       -1   -1    0    0    0  501  0.00000000000E+00  0.00000000000E+00 -0.11042170036E+04  0.11042170036E+04  0.50400001928E-02 0.  1.
    10030    2    1    2    0    0  0.00000000000E+00  0.00000000000E+00  0.40456228341E+03  0.26129962906E+04  0.25814877442E+04 0.  0.
        1    1    3    3  502    0  0.95121877663E+02 -0.10976811704E+04 -0.47828513656E+03  0.12011281344E+04  0.50400001928E-02 0.  1.
       -1    1    3    3    0  502 -0.95121877663E+02  0.10976811704E+04  0.88284741998E+03  0.14118681562E+04  0.50400001928E-02 0. -1.
</event>
<event>
 5   0  0.1474554E-05  0.2564066E+04  0.7818609E-02  0.8380510E-01
       -1   -1    0    0    0  501  0.00000000000E+00  0.00000000000E+00  0.97362874299E+03  0.97362874300E+03  0.50400001928E-02 0.  1.
        1   -1    0    0  501    0  0.00000000000E+00  0.00000000000E+00 -0.16881271415E+04  0.16881271415E+04  0.50400001928E-02 0. -1.
    10030    2    1    2    0    0  0.00000000000E+00  0.00000000000E+00 -0.71449839848E+03  0.26617558845E+04  0.25640663851E+04 0.  0.
        5    1    3    3  502    0  0.37991447639E+03  0.10360445142E+03 -0.16237807743E+04  0.16708545672E+04  0.46999998093E+01 0. -1.
       -5    1    3    3    0  502 -0.37991447639E+03 -0.10360445142E+03  0.90928237579E+03  0.99090131731E+03  0.46999998093E+01 0.  1.
</event>
<event>
 5   0  0.3849687E-05  0.2592157E+04  0.7818609E-02  0.8370870E-01
       -2   -1    0    0    0  501  0.00000000000E+00  0.00000000000E+00  0.12741607134E+04  0.12741607134E+04  0.25500000920E-02 0.  1.
        2   -1    0    0  501    0  0.00000000000E+00  0.00000000000E+00 -0.13183728467E+04  0.13183728467E+04  0.25500000920E-02 0. -1.
    10030    2    1    2    0    0  0.00000000000E+00  0.00000000000E+00 -0.44212133288E+02  0.25925335601E+04  0.25921565438E+04 0.  0.
        1    1    3    3  502    0  0.86137868131E+03  0.84020928238E+03 -0.50372985820E+03  0.13044802187E+04  0.50400001928E-02 0.  1.
       -1    1    3    3    0  502 -0.86137868131E+03 -0.84020928238E+03  0.45951772491E+03  0.12880533414E+04  0.50400001928E-02 0. -1.
</event>
<event>
 5   0  0.1533248E-05  0.2570226E+04  0.7818609E-02  0.8378386E-01
       -1   -1    0    0    0  501  0.00000000000E+00  0.00000000000E+00  0.10330032122E+04  0.10330032122E+04  0.50400001928E-02 0. -1.
        1   -1    0    0  501    0  0.00000000000E+00  0.00000000000E+00 -0.15987513605E+04  0.15987513605E+04  0.50400001928E-02 0.  1.
    10030    2    1    2    0    0  0.00000000000E+00  0.00000000000E+00 -0.56574814826E+03  0.26317545727E+04  0.25702258974E+04 0.  0.
        4    1    3    3  502    0  0.68251626242E+03  0.10886894365E+04 -0.26138256276E+03  0.13112572573E+04  0.12699999809E+01 0. -1.
       -4    1    3    3    0  502 -0.68251626242E+03 -0.10886894365E+04 -0.30436558550E+03  0.13204973155E+04  0.12699999809E+01 0.  1.
</event>
<event>
 5   0  0.3499642E-05  0.2570021E+04  0.7818609E-02  0.8378456E-01
       -2   -1    0    0    0  501  0.00000000000E+00  0.00000000000E+00  0.11608937201E+04  0.11608937201E+04  0.25500000920E-02 0.  1.
        2   -1    0    0  501    0  0.00000000000E+00  0.00000000000E+00 -0.14223977505E+04  0.14223977505E+04  0.25500000920E-02 0. -1.
    10030    2    1    2    0    0  0.00000000000E+00  0.00000000000E+00 -0.26150403037E+03  0.25832914706E+04  0.25700214909E+04 0.  0.
        2    1    3    3  502    0 -0.94550258969E+03 -0.64164432429E+03 -0.72163936226E+03  0.13514606747E+04  0.25500000920E-02 0. -1.
       -2    1    3    3    0  502  0.94550258969E+03  0.64164432429E+03  0.46013533190E+03  0.12318307959E+04  0.25500000920E-02 0.  1.
</event>
<event>
 5   0  0.1533248E-05  0.2613252E+04  0.7818609E-02  0.8363714E-01
       -1   -1    0    0    0  501  0.00000000000E+00  0.00000000000E+00  0.87382248492E+03  0.87382248494E+03  0.50400001928E-02 0.  1.
        1   -1    0    0  501    0  0.00000000000E+00  0.00000000000E+00 -0.19537962859E+04  0.19537962859E+04  0.50400001928E-02 0. -1.
    10030    2    1    2    0    0  0.00000000000E+00  0.00000000000E+00 -0.10799738010E+04  0.28276187709E+04  0.26132517105E+04 0.  0.
        4    1    3    3  502    0  0.11855444469E+04  0.54921051099E+03 -0.55192321412E+03  0.14183683119E+04  0.12699999809E+01 0.  1.
       -4    1    3    3    0  502 -0.11855444469E+04 -0.54921051099E+03 -0.52805058690E+03  0.14092504590E+04  0.12699999809E+01 0. -1.
</event>
<event>
 5   0  0.1451052E-05  0.2587432E+04  0.7818609E-02  0.8372483E-01
        1   -1    0    0  501    0  0.00000000000E+00  0.00000000000E+00  0.75411477424E+03  0.75411477426E+03  0.50400001928E-02 0. -1.
       -1   -1    0    0    0  501  0.00000000000E+00  0.00000000000E+00 -0.22194250538E+04  0.22194250538E+04  0.50400001928E-02 0.  1.
    10030    2    1    2    0    0  0.00000000000E+00  0.00000000000E+00 -0.14653102796E+04  0.29735398281E+04  0.25874321042E+04 0.  0.
        1    1    3    3  502    0  0.93229269780E+03 -0.89693758579E+03 -0.73940689086E+03  0.14900970631E+04  0.50400001928E-02 0.  1.
       -1    1    3    3    0  502 -0.93229269780E+03  0.89693758579E+03 -0.72590338870E+03  0.14834427650E+04  0.50400001928E-02 0. -1.
</event>
<event>
 5   0  0.3508470E-05  0.2595735E+04  0.7818609E-02  0.8369651E-01
        2   -1    0    0  501    0  0.00000000000E+00  0.00000000000E+00  0.24712403268E+04  0.24712403269E+04  0.25500000920E-02 0. -1.
       -2   -1    0    0    0  501  0.00000000000E+00  0.00000000000E+00 -0.68162536121E+03  0.68162536122E+03  0.25500000920E-02 0.  1.
    10030    2    1    2    0    0  0.00000000000E+00  0.00000000000E+00  0.17896149656E+04  0.31528656881E+04  0.25957350253E+04 0.  0.
        5    1    3    3  502    0  0.88029172900E+03 -0.84303284018E+03  0.35321173132E+03  0.12690147812E+04  0.46999998093E+01 0. -1.
       -5    1    3    3    0  502 -0.88029172900E+03  0.84303284018E+03  0.14364032343E+04  0.18838509069E+04  0.46999998093E+01 0.  1.
</event>
<event>
 5   0  0.1497497E-05  0.2444052E+04  0.7818609E-02  0.8423193E-01
       -1   -1    0    0    0  501  0.00000000000E+00  0.00000000000E+00  0.13759544433E+04  0.13759544433E+04  0.50400001928E-02 0.  1.
        1   -1    0    0  501    0  0.00000000000E+00  0.00000000000E+00 -0.10853176965E+04  0.10853176965E+04  0.50400001928E-02 0. -1.
    10030    2    1    2    0    0  0.00000000000E+00  0.00000000000E+00  0.29063674680E+03  0.24612721398E+04  0.24440521328E+04 0.  0.
        3    1    3    3  502    0  0.10655496006E+04 -0.57649087637E+03  0.30647719573E+03  0.12496663409E+04  0.10100000352E+00 0.  1.
       -3    1    3    3    0  502 -0.10655496006E+04  0.57649087637E+03 -0.15840448930E+02  0.12116057989E+04  0.10100000352E+00 0. -1.
</event>
<event>
 5   0  0.1474554E-05  0.2607967E+04  0.7818609E-02  0.8365500E-01
       -1   -1    0    0    0  501  0.00000000000E+00  0.00000000000E+00  0.59326434553E+03  0.59326434555E+03  0.50400001928E-02 0.  1.
        1   -1    0    0  501    0  0.00000000000E+00  0.00000000000E+00 -0.28661297895E+04  0.28661297895E+04  0.50400001928E-02 0. -1.
    10030    2    1    2    0    0  0.00000000000E+00  0.00000000000E+00 -0.22728654440E+04  0.34593941350E+04  0.26079667282E+04 0.  0.
        5    1    3    3  502    0  0.81807900422E+03 -0.47043356071E+03 -0.23301021678E+04  0.25139529022E+04  0.46999998093E+01 0. -1.
       -5    1    3    3    0  502 -0.81807900422E+03  0.47043356071E+03  0.57236723829E+02  0.94544123284E+03  0.46999998093E+01 0.  1.
</event>
<event>
 5   0  0.3499642E-05  0.2659848E+04  0.7818609E-02  0.8348152E-01
       -2   -1    0    0    0  501  0.00000000000E+00  0.00000000000E+00  0.97687276859E+03  0.97687276860E+03  0.25500000920E-02 0.  1.
        2   -1    0    0  501    0  0.00000000000E+00  0.00000000000E+00 -0.18105717033E+04  0.18105717033E+04  0.25500000920E-02 0. -1.
    10030    2    1    2    0    0  0.00000000000E+00  0.00000000000E+00 -0.83369893467E+03  0.27874444719E+04  0.26598482607E+04 0.  0.
        2    1    3    3  502    0 -0.11892943325E+04  0.56454514496E+02  0.20410339991E+03  0.12080009600E+04  0.25500000920E-02 0.  1.
       -2    1    3    3    0  502  0.11892943325E+04 -0.56454514496E+02 -0.10378023346E+04  0.15794435119E+04  0.25500000920E-02 0. -1.
</event>
<event>
 5   0  0.3441646E-05  0.2464928E+04  0.7818609E-02  0.8415588E-01
        2   -1    0    0  501    0  0.00000000000E+00  0.00000000000E+00  0.16825425149E+04  0.16825425149E+04  0.25500000920E-02 0.  1.
       -2   -1    0    0    0  501  0.00000000000E+00  0.00000000000E+00 -0.90278076369E+03  0.90278076369E+03  0.25500000920E-02 0. -1.
    10030    2    1    2    0    0  0.00000000000E+00  0.00000000000E+00  0.77976175118E+03  0.25853232786E+04  0.24649275986E+04 0.  0.
        4    1    3    3  502    0 -0.34103620927E+03  0.16669215892E+03  0.16197022846E+04  0.16635892147E+04  0.12699999809E+01 0.  1.
       -4    1    3    3    0  502  0.34103620927E+03 -0.16669215892E+03 -0.83994053339E+03  0.92173406382E+03  0.12699999809E+01 0. -1.
</event>
<event>
 5   0  0.1497497E-05  0.2645320E+04  0.7818609E-02  0.8352968E-01
       -1   -1    0    0    0  501  0.00000000000E+00  0.00000000000E+00  0.11554817228E+04  0.11554817228E+04  0.50400001928E-02 0.  1.
        1   -1    0    0  501    0  0.00000000000E+00  0.00000000000E+00 -0.15140262351E+04  0.15140262351E+04  0.50400001928E-02 0. -1.
    10030    2    1    2    0    0  0.00000000000E+00  0.00000000000E+00 -0.35854451235E+03  0.26695079579E+04  0.26453201262E+04 0.  0.
        3    1    3    3  502    0 -0.92924580882E+03 -0.63136350135E+03 -0.88373256927E+03  0.14293708085E+04  0.10100000352E+00 0. -1.
       -3    1    3    3    0  502  0.92924580882E+03  0.63136350135E+03  0.52518805692E+03  0.12401371494E+04  0.10100000352E+00 0.  1.
</event>
<event>
 5   0  0.3499642E-05  0.2621236E+04  0.7818609E-02  0.8361023E-01
        2   -1    0    0  501    0  0.00000000000E+00  0.00000000000E+00  0.10919330265E+04  0.10919330265E+04  0.25500000920E-02 0. -1.
       -2   -1    0    0    0  501  0.00000000000E+00  0.00000000000E+00 -0.15731002298E+04  0.15731002298E+04  0.25500000920E-02 0.  1.
    10030    2    1    2    0    0  0.00000000000E+00  0.00000000000E+00 -0.48116720332E+03  0.26650332562E+04  0.26212364219E+04 0.  0.
        2    1    3    3  502    0  0.46276041774E+03 -0.95256350858E+03 -0.10256218947E+04  0.14742539513E+04  0.25500000920E-02 0.  1.
       -2    1    3    3    0  502 -0.46276041774E+03  0.95256350858E+03  0.54445469135E+03  0.11907793049E+04  0.25500000920E-02 0. -1.
</event>
<event>
 5   0  0.3441646E-05  0.2642919E+04  0.7818609E-02  0.8353767E-01
        2   -1    0    0  501    0  0.00000000000E+00  0.00000000000E+00  0.18732574544E+04  0.18732574544E+04  0.25500000920E-02 0.  1.
       -2   -1    0    0    0  501  0.00000000000E+00  0.00000000000E+00 -0.93220258363E+03  0.93220258364E+03  0.25500000920E-02 0. -1.
    10030    2    1    2    0    0  0.00000000000E+00  0.00000000000E+00  0.94105487073E+03  0.28054600380E+04  0.26429191730E+04 0.  0.
        4    1    3    3  502    0  0.25817291474E+03 -0.65708605004E+03  0.16562945313E+04  0.18004800800E+04  0.12699999809E+01 0.  1.
       -4    1    3    3    0  502 -0.25817291474E+03  0.65708605004E+03 -0.71523966058E+03  0.10049799580E+04  0.12699999809E+01 0. -1.
</event>
<event>
 5   0  0.3647623E-05  0.2616504E+04  0.7818609E-02  0.8362617E-01
        2   -1    0    0  501    0  0.00000000000E+00  0.00000000000E+00  0.19736192526E+04  0.19736192526E+04  0.25500000920E-02 0. -1.
       -2   -1    0    0    0  501  0.00000000000E+00  0.00000000000E+00 -0.86720014907E+03  0.86720014907E+03  0.25500000920E-02 0.  1.
    10030    2    1    2    0    0  0.00000000000E+00  0.00000000000E+00  0.11064191035E+04  0.28408194016E+04  0.26165037054E+04 0.  0.
        3    1    3    3  502    0  0.12430197013E+04  0.20704386750E+03  0.17156656785E+03  0.12717705132E+04  0.10100000352E+00 0. -1.
       -3    1    3    3    0  502 -0.12430197013E+04 -0.20704386750E+03  0.93485253565E+03  0.15690488885E+04  0.10100000352E+00 0.  1.
</event>
<event>
 5   0  0.1474554E-05  0.2610211E+04  0.7818609E-02  0.8364741E-01
       -1   -1    0    0    0  501  0.00000000000E+00  0.00000000000E+00  0.87184180433E+03  0.87184180434E+03  0.50400001928E-02 0. -1.
        1   -1    0    0  501    0  0.00000000000E+00  0.00000000000E+00 -0.19536802223E+04  0.19536802223E+04  0.50400001928E-02 0.  1.
    10030    2    1    2    0    0  0.00000000000E+00  0.00000000000E+00 -0.10818384180E+04  0.28255220267E+04  0.26102107885E+04 0.  0.
        5    1    3    3  502    0 -0.79497153525E+03 -0.10223756477E+04 -0.36621793199E+03  0.13458712311E+04  0.46999998093E+01 0. -1.
       -5    1    3    3    0  502  0.79497153525E+03  0.10223756477E+04 -0.71562048602E+03  0.14796507956E+04  0.46999998093E+01 0.  1.
</event>
<event>
 5   0  0.3499642E-05  0.2574769E+04  0.7818609E-02  0.8376822E-01
       -2   -1    0    0    0  501  0.00000000000E+00  0.00000000000E+00  0.55470864880E+03  0.55470864881E+03  0.25500000920E-02 0.  1.
        2   -1    0    0  501    0  0.00000000000E+00  0.00000000000E+00 -0.29878011458E+04  0.29878011458E+04  0.25500000920E-02 0. -1.
    10030    2    1    2    0    0  0.00000000000E+00  0.00000000000E+00 -0.24330924970E+04  0.35425097946E+04  0.25747692219E+04 0.  0.
        2    1    3    3  502    0 -0.48507700369E+03  0.11693655495E+04 -0.89492658316E+03  0.15503577255E+04  0.25500000920E-02 0. -1.
       -2    1    3    3    0  502  0.48507700369E+03 -0.11693655495E+04 -0.15381659138E+04  0.19921520691E+04  0.25500000920E-02 0.  1.
</event>
<event>
 5   0  0.1217200E-05  0.2533333E+04  0.7818609E-02  0.8391206E-01
       -3   -1    0    0    0  501  0.00000000000E+00  0.00000000000E+00  0.12067425243E+04  0.12067425286E+04  0.10100000352E+00 0.  1.
        3   -1    0    0  501    0  0.00000000000E+00  0.00000000000E+00 -0.13295664700E+04  0.13295664739E+04  0.10100000352E+00 0. -1.
    10030    2    1    2    0    0  0.00000000000E+00  0.00000000000E+00 -0.12282394570E+03  0.25363090024E+04  0.25333333050E+04 0.  0.
        1    1    3    3  502    0  0.47052192227E+03 -0.35044990456E+03 -0.11853340023E+04  0.13225818357E+04  0.50400001928E-02 0. -1.
       -1    1    3    3    0  502 -0.47052192227E+03  0.35044990456E+03  0.10625100566E+04  0.12137271668E+04  0.50400001928E-02 0.  1.
</event>
<event>
 5   0  0.1533248E-05  0.2617037E+04  0.7818609E-02  0.8362437E-01
        1   -1    0    0  501    0  0.00000000000E+00  0.00000000000E+00  0.15780004054E+04  0.15780004054E+04  0.50400001928E-02 0. -1.
       -1   -1    0    0    0  501  0.00000000000E+00  0.00000000000E+00 -0.10850571119E+04  0.10850571119E+04  0.50400001928E-02 0.  1.
    10030    2    1    2    0    0  0.00000000000E+00  0.00000000000E+00  0.49294329351E+03  0.26630575172E+04  0.26170369217E+04 0.  0.
        4    1    3    3  502    0  0.10673588891E+04 -0.71003747500E+03 -0.20459219945E+02  0.12821187178E+04  0.12699999809E+01 0.  1.
       -4    1    3    3    0  502 -0.10673588891E+04  0.71003747500E+03  0.51340251345E+03  0.13809387994E+04  0.12699999809E+01 0. -1.
</event>
<event>
 5   0  0.3499642E-05  0.2559042E+04  0.7818609E-02  0.8382248E-01
        2   -1    0    0  501    0  0.00000000000E+00  0.00000000000E+00  0.11514755002E+04  0.11514755002E+04  0.25500000920E-02 0. -1.
       -2   -1    0    0    0  501  0.00000000000E+00  0.00000000000E+00 -0.14218053310E+04  0.14218053310E+04  0.25500000920E-02 0.  1.
    10030    2    1    2    0    0  0.00000000000E+00  0.00000000000E+00 -0.27032983075E+03  0.25732808312E+04  0.25590420120E+04 0.  0.
        2    1    3    3  502    0  0.96367998033E+03 -0.74285233858E+03  0.26284709823E+03  0.12448282205E+04  0.25500000920E-02 0. -1.
       -2    1    3    3    0  502 -0.96367998033E+03  0.74285233858E+03 -0.53317692898E+03  0.13284526108E+04  0.25500000920E-02 0.  1.
</event>
<event>
 5   0  0.1474554E-05  0.2544987E+04  0.7818609E-02  0.8387132E-01
        1   -1    0    0  501    0  0.00000000000E+00  0.00000000000E+00  0.14833419709E+04  0.14833419709E+04  0.50400001928E-02 0.  1.
       -1   -1    0    0    0  501  0.00000000000E+00  0.00000000000E+00 -0.10916159291E+04  0.10916159292E+04  0.50400001928E-02 0. -1.
    10030    2    1    2    0    0  0.00000000000E+00  0.00000000000E+00  0.39172604178E+03  0.25749579001E+04  0.25449870128E+04 0.  0.
        5    1    3    3  502    0 -0.95281873507E+03  0.69193048781E+03 -0.29208843696E+03  0.12132473313E+04  0.46999998093E+01 0.  1.
       -5    1    3    3    0  502  0.95281873507E+03 -0.69193048781E+03  0.68381447874E+03  0.13617105688E+04  0.46999998093E+01 0. -1.
</event>
<event>
 5   0  0.1474554E-05  0.2609970E+04  0.7818609E-02  0.8364823E-01
       -1   -1    0    0    0  501  0.00000000000E+00  0.00000000000E+00  0.12798557378E+04  0.12798557379E+04  0.50400001928E-02 0. -1.
        1   -1    0    0  501    0  0.00000000000E+00  0.00000000000E+00 -0.13306075463E+04  0.13306075463E+04  0.50400001928E-02 0.  1.
    10030    2    1    2    0    0  0.00000000000E+00  0.00000000000E+00 -0.50751808485E+02  0.26104632842E+04  0.26099698872E+04 0.  0.
        5    1    3    3  502    0  0.40278915118E+03 -0.15804606856E+03  0.12060131853E+04  0.12812913616E+04  0.46999998093E+01 0. -1.
       -5    1    3    3    0  502 -0.40278915118E+03  0.15804606856E+03 -0.12567649938E+04  0.13291719226E+04  0.46999998093E+01 0.  1.
</event>
<event>
 5   0  0.1497497E-05  0.2779563E+04  0.7818609E-02  0.8309641E-01
        1   -1    0    0  501    0  0.00000000000E+00  0.00000000000E+00  0.20974264454E+04  0.20974264454E+04  0.50400001928E-02 0.  1.
       -1   -1    0    0    0  501  0.00000000000E+00  0.00000000000E+00 -0.92088694348E+03  0.92088694349E+03  0.50400001928E-02 0. -1.
    10030    2    1    2    0    0  0.00000000000E+00  0.00000000000E+00  0.11765395019E+04  0.30183133889E+04  0.27795630077E+04 0.  0.
        3    1    3    3  502    0  0.79087163071E+03  0.11241040423E+04  0.36465768459E+03  0.14219926411E+04  0.10100000352E+00 0. -1.
       -3    1    3    3    0  502 -0.79087163071E+03 -0.11241040423E+04  0.81188181730E+03  0.15963207478E+04  0.10100000352E+00 0.  1.
</event>
<event>
 5   0  0.1435062E-05  0.2518938E+04  0.7818609E-02  0.8396270E-01
        1   -1    0    0  501    0  0.00000000000E+00  0.00000000000E+00  0.16771927887E+04  0.16771927887E+04  0.50400001928E-02 0. -1.
       -1   -1    0    0    0  501  0.00000000000E+00  0.00000000000E+00 -0.94578406508E+03  0.94578406509E+03  0.50400001928E-02 0.  1.
    10030    2    1    2    0    0  0.00000000000E+00  0.00000000000E+00  0.73140872361E+03  0.26229768538E+04  0.25189380410E+04 0.  0.
        2    1    3    3  502    0 -0.60337787175E+03 -0.85278153507E+03  0.10982968616E+04  0.15157695071E+04  0.25500000920E-02 0. -1.
       -2    1    3    3    0  502  0.60337787175E+03  0.85278153507E+03 -0.36688813795E+03  0.11072073466E+04  0.25500000920E-02 0.  1.
</event>
<event>
 5   0  0.3508470E-05  0.2627542E+04  0.7818609E-02  0.8358905E-01
       -2   -1    0    0    0  501  0.00000000000E+00  0.00000000000E+00  0.18221049521E+04  0.18221049521E+04  0.25500000920E-02 0.  1.
        2   -1    0    0  501    0  0.00000000000E+00  0.00000000000E+00 -0.94725317946E+03  0.94725317946E+03  0.25500000920E-02 0. -1.
    10030    2    1    2    0    0  0.00000000000E+00  0.00000000000E+00  0.87485177269E+03  0.27693581316E+04  0.26275423568E+04 0.  0.
        5    1    3    3  502    0 -0.84562107291E+03  0.35262247514E+03  0.14298155692E+04  0.16981791016E+04  0.46999998093E+01 0.  1.
       -5    1    3    3    0  502  0.84562107291E+03 -0.35262247514E+03 -0.55496379656E+03  0.10711790300E+04  0.46999998093E+01 0. -1.
</event>
<event>
 5   0  0.1533248E-05  0.1603808E+04  0.7818609E-02  0.8818212E-01
       -1   -1    0    0    0  501  0.00000000000E+00  0.00000000000E+00  0.83968685721E+03  0.83968685722E+03  0.50400001928E-02 0. -1.
        1   -1    0    0  501    0  0.00000000000E+00  0.00000000000E+00 -0.76582148363E+03  0.76582148365E+03  0.50400001928E-02 0.  1.
    10030    2    1    2    0    0  0.00000000000E+00  0.00000000000E+00  0.73865373575E+02  0.16055083409E+04  0.16038082614E+04 0.  0.
        4    1    3    3  502    0 -0.25090959329E+03 -0.63905286290E+03  0.45174427270E+03  0.82183860119E+03  0.12699999809E+01 0. -1.
       -4    1    3    3    0  502  0.25090959329E+03  0.63905286290E+03 -0.37787889913E+03  0.78366973968E+03  0.12699999809E+01 0.  1.
</event>
<event>
 5   0  0.1474554E-05  0.2122270E+04  0.7818609E-02  0.8551496E-01
        1   -1    0    0  501    0  0.00000000000E+00  0.00000000000E+00  0.13782447855E+04  0.13782447855E+04  0.50400001928E-02 0. -1.
       -1   -1    0    0    0  501  0.00000000000E+00  0.00000000000E+00 -0.81698650613E+03  0.81698650615E+03  0.50400001928E-02 0.  1.
    10030    2    1    2    0    0  0.00000000000E+00  0.00000000000E+00  0.56125827939E+03  0.21952312917E+04  0.21222699093E+04 0.  0.
        5    1    3    3  502    0 -0.60223861385E+03 -0.60646058121E+03 -0.36987886817E+03  0.93129922779E+03  0.46999998093E+01 0.  1.
       -5    1    3    3    0  502  0.60223861385E+03  0.60646058121E+03  0.93113714756E+03  0.12639320639E+04  0.46999998093E+01 0. -1.
</event>
<event>
 5   0  0.3499642E-05  0.2471552E+04  0.7818609E-02  0.8413191E-01
        2   -1    0    0  501    0  0.00000000000E+00  0.00000000000E+00  0.18452534344E+04  0.18452534345E+04  0.25500000920E-02 0. -1.
       -2   -1    0    0    0  501  0.00000000000E+00  0.00000000000E+00 -0.82760590360E+03  0.82760590360E+03  0.25500000920E-02 0.  1.
    10030    2    1    2    0    0  0.00000000000E+00  0.00000000000E+00  0.10176475308E+04  0.26728593381E+04  0.24715522539E+04 0.  0.
        2    1    3    3  502    0 -0.81589260511E+03 -0.25678407027E+03  0.14733918884E+04  0.17036732253E+04  0.25500000920E-02 0. -1.
       -2    1    3    3    0  502  0.81589260511E+03  0.25678407027E+03 -0.45574435750E+03  0.96918611279E+03  0.25500000920E-02 0.  1.
</event>
<event>
 5   0  0.1435062E-05  0.2478797E+04  0.7818609E-02  0.8410578E-01
        1   -1    0    0  501    0  0.00000000000E+00  0.00000000000E+00  0.29935843800E+04  0.29935843800E+04  0.50400001928E-02 0. -1.
       -1   -1    0    0    0  501  0.00000000000E+00  0.00000000000E+00 -0.51313375857E+03  0.51313375859E+03  0.50400001928E-02 0.  1.
    10030    2    1    2    0    0  0.00000000000E+00  0.00000000000E+00  0.24804506214E+04  0.35067181386E+04  0.24787974540E+04 0.  0.
        2    1    3    3  502    0 -0.21266755660E+03 -0.12063686707E+03 -0.47867747138E+03  0.53750615340E+03  0.25500000920E-02 0.  1.
       -2    1    3    3    0  502  0.21266755660E+03  0.12063686707E+03  0.29591280928E+04  0.29692119852E+04  0.25500000920E-02 0. -1.
</event>
<event>
 5   0  0.3508470E-05  0.2693439E+04  0.7818609E-02  0.8337137E-01
       -2   -1    0    0    0  501  0.00000000000E+00  0.00000000000E+00  0.14538603057E+04  0.14538603057E+04  0.25500000920E-02 0. -1.
        2   -1    0    0  501    0  0.00000000000E+00  0.00000000000E+00 -0.12474739848E+04  0.12474739848E+04  0.25500000920E-02 0.  1.
    10030    2    1    2    0    0  0.00000000000E+00  0.00000000000E+00  0.20638632086E+03  0.27013342905E+04  0.26934386266E+04 0.  0.
        5    1    3    3  502    0  0.13326224663E+04 -0.12227381400E+02 -0.91279028129E+02  0.13358091546E+04  0.46999998093E+01 0. -1.
       -5    1    3    3    0  502 -0.13326224663E+04  0.12227381400E+02  0.29766534899E+03  0.13655251358E+04  0.46999998093E+01 0.  1.
</event>
<event>
 5   0  0.1451052E-05  0.2553323E+04  0.7818609E-02  0.8384231E-01
        1   -1    0    0  501    0  0.00000000000E+00  0.00000000000E+00  0.15490722795E+04  0.15490722795E+04  0.50400001928E-02 0. -1.
       -1   -1    0    0    0  501  0.00000000000E+00  0.00000000000E+00 -0.10521551698E+04  0.10521551699E+04  0.50400001928E-02 0.  1.
    10030    2    1    2    0    0  0.00000000000E+00  0.00000000000E+00  0.49691710963E+03  0.26012274493E+04  0.25533228604E+04 0.  0.
        1    1    3    3  502    0 -0.26712303600E+03 -0.38240436107E+03  0.14591472178E+04  0.15318937349E+04  0.50400001928E-02 0. -1.
       -1    1    3    3    0  502  0.26712303600E+03  0.38240436107E+03 -0.96223010818E+03  0.10693337144E+04  0.50400001928E-02 0.  1.
</event>
<event>
 5   0  0.3647623E-05  0.1677977E+04  0.7818609E-02  0.8774026E-01
        2   -1    0    0  501    0  0.00000000000E+00  0.00000000000E+00  0.64952654016E+03  0.64952654017E+03  0.25500000920E-02 0. -1.
       -2   -1    0    0    0  501  0.00000000000E+00  0.00000000000E+00 -0.10837147379E+04  0.10837147379E+04  0.25500000920E-02 0.  1.
    10030    2    1    2    0    0  0.00000000000E+00  0.00000000000E+00 -0.43418819778E+03  0.17332412781E+04  0.16779767391E+04 0.  0.
        3    1    3    3  502    0 -0.46915973026E+03 -0.24196813488E+03  0.45648900595E+03  0.69788369629E+03  0.10100000352E+00 0. -1.
       -3    1    3    3    0  502  0.46915973026E+03  0.24196813488E+03 -0.89067720373E+03  0.10353575818E+04  0.10100000352E+00 0.  1.
</event>
<event>
 5   0  0.3508470E-05  0.2592815E+04  0.7818609E-02  0.8370646E-01
       -2   -1    0    0    0  501  0.00000000000E+00  0.00000000000E+00  0.91592628306E+03  0.91592628307E+03  0.25500000920E-02 0.  1.
        2   -1    0    0  501    0  0.00000000000E+00  0.00000000000E+00 -0.18349433852E+04  0.18349433852E+04  0.25500000920E-02 0. -1.
    10030    2    1    2    0    0  0.00000000000E+00  0.00000000000E+00 -0.91901710215E+03  0.27508696683E+04  0.25928153613E+04 0.  0.
        5    1    3    3  502    0  0.87572029275E+03 -0.75113797617E+03  0.16776519523E+03  0.11658737243E+04  0.46999998093E+01 0.  1.
       -5    1    3    3    0  502 -0.87572029275E+03  0.75113797617E+03 -0.10867822974E+04  0.15849959439E+04  0.46999998093E+01 0. -1.
</event>
<event>
 5   0  0.1451052E-05  0.2654275E+04  0.7818609E-02  0.8349996E-01
       -1   -1    0    0    0  501  0.00000000000E+00  0.00000000000E+00  0.17980235403E+04  0.17980235403E+04  0.50400001928E-02 0. -1.
        1   -1    0    0  501    0  0.00000000000E+00  0.00000000000E+00 -0.97957196918E+03  0.97957196919E+03  0.50400001928E-02 0.  1.
    10030    2    1    2    0    0  0.00000000000E+00  0.00000000000E+00  0.81845157108E+03  0.27775955095E+04  0.26542746354E+04 0.  0.
        1    1    3    3  502    0 -0.80133278805E+03 -0.59225505728E+03 -0.50808160469E+03  0.11185022160E+04  0.50400001928E-02 0.  1.
       -1    1    3    3    0  502  0.80133278805E+03  0.59225505728E+03  0.13265331758E+04  0.16590932935E+04  0.50400001928E-02 0. -1.
</event>
<event>
 5   0  0.3499642E-05  0.2636349E+04  0.7818609E-02  0.8355958E-01
        2   -1    0    0  501    0  0.00000000000E+00  0.00000000000E+00  0.81408221911E+03  0.81408221912E+03  0.25500000920E-02 0. -1.
       -2   -1    0    0    0  501  0.00000000000E+00  0.00000000000E+00 -0.21344090525E+04  0.21344090525E+04  0.25500000920E-02 0.  1.
    10030    2    1    2    0    0  0.00000000000E+00  0.00000000000E+00 -0.13203268334E+04  0.29484912716E+04  0.26363493380E+04 0.  0.
        2    1    3    3  502    0 -0.12106199675E+04 -0.33692493459E+03 -0.11053725174E+04  0.16736091299E+04  0.25500000920E-02 0.  1.
       -2    1    3    3    0  502  0.12106199675E+04  0.33692493459E+03 -0.21495431594E+03  0.12748821417E+04  0.25500000920E-02 0. -1.
</event>
<event>
 5   0  0.3508470E-05  0.2483057E+04  0.7818609E-02  0.8409046E-01
        2   -1    0    0  501    0  0.00000000000E+00  0.00000000000E+00  0.10695729161E+04  0.10695729161E+04  0.25500000920E-02 0.  1.
       -2   -1    0    0    0  501  0.00000000000E+00  0.00000000000E+00 -0.14411299619E+04  0.14411299619E+04  0.25500000920E-02 0. -1.
    10030    2    1    2    0    0  0.00000000000E+00  0.00000000000E+00 -0.37155704588E+03  0.25107028780E+04  0.24830574507E+04 0.  0.
        5    1    3    3  502    0 -0.19889207808E+03 -0.11339512644E+04  0.28411906156E+03  0.11858116460E+04  0.46999998093E+01 0.  1.
       -5    1    3    3    0  502  0.19889207808E+03  0.11339512644E+04 -0.65567610744E+03  0.13248912320E+04  0.46999998093E+01 0. -1.
</event>
<event>
 5   0  0.1435062E-05  0.1815645E+04  0.7818609E-02  0.8698024E-01
        1   -1    0    0  501    0  0.00000000000E+00  0.00000000000E+00  0.14552934336E+04  0.14552934336E+04  0.50400001928E-02 0.  1.
       -1   -1    0    0    0  501  0.00000000000E+00  0.00000000000E+00 -0.56630614279E+03  0.56630614281E+03  0.50400001928E-02 0. -1.
    10030    2    1    2    0    0  0.00000000000E+00  0.00000000000E+00  0.88898729077E+03  0.20215995764E+04  0.18156449113E+04 0.  0.
        2    1    3    3  502    0 -0.20502856688E+02 -0.53465379037E+02 -0.56429336455E+03  0.56719125096E+03  0.25500000920E-02 0. -1.
       -2    1    3    3    0  502  0.20502856688E+02  0.53465379037E+02  0.14532806553E+04  0.14544083254E+04  0.25500000920E-02 0.  1.
</event>
<event>
 5   0  0.3508470E-05  0.2604723E+04  0.7818609E-02  0.8366599E-01
       -2   -1    0    0    0  501  0.00000000000E+00  0.00000000000E+00  0.16483676689E+04  0.16483676689E+04  0.25500000920E-02 0. -1.
        2   -1    0    0  501    0  0.00000000000E+00  0.00000000000E+00 -0.10289849514E+04  0.10289849514E+04  0.25500000920E-02 0.  1.
    10030    2    1    2    0    0  0.00000000000E+00  0.00000000000E+00  0.61938271748E+03  0.26773526203E+04  0.26047230377E+04 0.  0.
        5    1    3    3  502    0  0.62160258490E+03  0.89342252066E+02  0.14824485010E+04  0.16099836831E+04  0.46999998093E+01 0. -1.
       -5    1    3    3    0  502 -0.62160258490E+03 -0.89342252066E+02 -0.86306578353E+03  0.10673689373E+04  0.46999998093E+01 0.  1.
</event>
<event>
 5   0  0.1533248E-05  0.2680316E+04  0.7818609E-02  0.8341420E-01
        1   -1    0    0  501    0  0.00000000000E+00  0.00000000000E+00  0.20409018395E+04  0.20409018395E+04  0.50400001928E-02 0. -1.
       -1   -1    0    0    0  501  0.00000000000E+00  0.00000000000E+00 -0.88001484060E+03  0.88001484062E+03  0.50400001928E-02 0.  1.
    10030    2    1    2    0    0  0.00000000000E+00  0.00000000000E+00  0.11608869989E+04  0.29209166801E+04  0.26803163298E+04 0.  0.
        4    1    3    3  502    0 -0.59958088224E+03  0.65032067694E+03  0.16775989065E+04  0.18965109863E+04  0.12699999809E+01 0. -1.
       -4    1    3    3    0  502  0.59958088224E+03 -0.65032067694E+03 -0.51671190759E+03  0.10244056938E+04  0.12699999809E+01 0.  1.
</event>
<event>
 5   0  0.1474554E-05  0.2630659E+04  0.7818609E-02  0.8357861E-01
       -1   -1    0    0    0  501  0.00000000000E+00  0.00000000000E+00  0.84622838997E+03  0.84622838998E+03  0.50400001928E-02 0.  1.
        1   -1    0    0  501    0  0.00000000000E+00  0.00000000000E+00 -0.20444733587E+04  0.20444733587E+04  0.50400001928E-02 0. -1.
    10030    2    1    2    0    0  0.00000000000E+00  0.00000000000E+00 -0.11982449688E+04  0.28907017487E+04  0.26306587758E+04 0.  0.
        5    1    3    3  502    0  0.79262526566E+03  0.10478326046E+04 -0.66740463828E+03  0.14736549868E+04  0.46999998093E+01 0.  1.
       -5    1    3    3    0  502 -0.79262526566E+03 -0.10478326046E+04 -0.53084033048E+03  0.14170467619E+04  0.46999998093E+01 0. -1.
</event>
<event>
 5   0  0.1474554E-05  0.2585181E+04  0.7818609E-02  0.8373252E-01
        1   -1    0    0  501    0  0.00000000000E+00  0.00000000000E+00  0.22954884719E+04  0.22954884719E+04  0.50400001928E-02 0. -1.
       -1   -1    0    0    0  501  0.00000000000E+00  0.00000000000E+00 -0.72785822942E+03  0.72785822944E+03  0.50400001928E-02 0.  1.
    10030    2    1    2    0    0  0.00000000000E+00  0.00000000000E+00  0.15676302424E+04  0.30233467013E+04  0.25851809800E+04 0.  0.
        5    1    3    3  502    0 -0.75090999265E+03 -0.75006506969E+03  0.16466307962E+04  0.19590504064E+04  0.46999998093E+01 0. -1.
       -5    1    3    3    0  502  0.75090999265E+03  0.75006506969E+03 -0.79000553769E+02  0.10642962949E+04  0.46999998093E+01 0.  1.
</event>
<event>
 5   0  0.1217200E-05  0.2596667E+04  0.7818609E-02  0.8369334E-01
       -3   -1    0    0    0  501  0.00000000000E+00  0.00000000000E+00  0.58592978696E+03  0.58592979566E+03  0.10100000352E+00 0. -1.
        3   -1    0    0  501    0  0.00000000000E+00  0.00000000000E+00 -0.28769143772E+04  0.28769143790E+04  0.10100000352E+00 0.  1.
    10030    2    1    2    0    0  0.00000000000E+00  0.00000000000E+00 -0.22909845902E+04  0.34628441746E+04  0.25966669762E+04 0.  0.
        3    1    3    3  502    0  0.69531132854E+03  0.57531499661E+03  0.99256661633E+02  0.90790808125E+03  0.10100000352E+00 0. -1.
       -3    1    3    3    0  502 -0.69531132854E+03 -0.57531499661E+03 -0.23902412519E+04  0.25549360934E+04  0.10100000352E+00 0.  1.
</event>
<event>
 5   0  0.3647623E-05  0.2640396E+04  0.7818609E-02  0.8354608E-01
       -2   -1    0    0    0  501  0.00000000000E+00  0.00000000000E+00  0.13345175735E+04  0.13345175735E+04  0.25500000920E-02 0.  1.
        2   -1    0    0  501    0  0.00000000000E+00  0.00000000000E+00 -0.13060318356E+04  0.13060318356E+04  0.25500000920E-02 0. -1.
    10030    2    1    2    0    0  0.00000000000E+00  0.00000000000E+00  0.28485737951E+02  0.26405494091E+04  0.26403957553E+04 0.  0.
        3    1    3    3  502    0  0.18824749245E+03  0.87779799265E+03 -0.95377833132E+03  0.13098318785E+04  0.10100000352E+00 0. -1.
       -3    1    3    3    0  502 -0.18824749245E+03 -0.87779799265E+03  0.98226406927E+03  0.13307175306E+04  0.10100000352E+00 0.  1.
</event>
<event>
 5   0  0.1474554E-05  0.1846391E+04  0.7818609E-02  0.8682011E-01
       -1   -1    0    0    0  501  0.00000000000E+00  0.00000000000E+00  0.10026374346E+04  0.10026374346E+04  0.50400001928E-02 0.  1.
        1   -1    0    0  501    0  0.00000000000E+00  0.00000000000E+00 -0.85004830583E+03  0.85004830585E+03  0.50400001928E-02 0. -1.
    10030    2    1    2    0    0  0.00000000000E+00  0.00000000000E+00  0.15258912876E+03  0.18526857404E+04  0.18463913482E+04 0.  0.
        5    1    3    3  502    0  0.41167032191E+03 -0.29166993743E+03  0.85205652271E+03  0.99023543374E+03  0.46999998093E+01 0.  1.
       -5    1    3    3    0  502 -0.41167032191E+03  0.29166993743E+03 -0.69946739395E+03  0.86245030671E+03  0.46999998093E+01 0. -1.
</event>
<event>
 5   0  0.1474554E-05  0.2527138E+04  0.7818609E-02  0.8393381E-01
        1   -1    0    0  501    0  0.00000000000E+00  0.00000000000E+00  0.17795759803E+04  0.17795759803E+04  0.50400001928E-02 0. -1.
       -1   -1    0    0    0  501  0.00000000000E+00  0.00000000000E+00 -0.89718367189E+03  0.89718367190E+03  0.50400001928E-02 0.  1.
    10030    2    1    2    0    0  0.00000000000E+00  0.00000000000E+00  0.88239230837E+03  0.26767596522E+04  0.25271379166E+04 0.  0.
        5    1    3    3  502    0  0.71375050348E+03  0.87768769019E+03  0.10373785682E+04  0.15349110223E+04  0.46999998093E+01 0. -1.
       -5    1    3    3    0  502 -0.71375050348E+03 -0.87768769019E+03 -0.15498625983E+03  0.11418486298E+04  0.46999998093E+01 0.  1.
</event>
<event>
 5   0  0.3647623E-05  0.2641185E+04  0.7818609E-02  0.8354345E-01
       -2   -1    0    0    0  501  0.00000000000E+00  0.00000000000E+00  0.10920327191E+04  0.10920327191E+04  0.25500000920E-02 0. -1.
        2   -1    0    0  501    0  0.00000000000E+00  0.00000000000E+00 -0.15969890158E+04  0.15969890158E+04  0.25500000920E-02 0.  1.
    10030    2    1    2    0    0  0.00000000000E+00  0.00000000000E+00 -0.50495629674E+03  0.26890217349E+04  0.26411847775E+04 0.  0.
        3    1    3    3  502    0  0.12061428686E+04  0.37371321630E+03 -0.64616250889E+03  0.14184386436E+04  0.10100000352E+00 0.  1.
       -3    1    3    3    0  502 -0.12061428686E+04 -0.37371321630E+03  0.14120621215E+03  0.12705830913E+04  0.10100000352E+00 0. -1.
</event>
<event>
 5   0  0.3849687E-05  0.2757105E+04  0.7818609E-02  0.8316711E-01
        2   -1    0    0  501    0  0.00000000000E+00  0.00000000000E+00  0.18940657818E+04  0.18940657818E+04  0.25500000920E-02 0. -1.
       -2   -1    0    0    0  501  0.00000000000E+00  0.00000000000E+00 -0.10033477851E+04  0.10033477851E+04  0.25500000920E-02 0.  1.
    10030    2    1    2    0    0  0.00000000000E+00  0.00000000000E+00  0.89071799675E+03  0.28974135669E+04  0.27571047909E+04 0.  0.
        1    1    3    3  502    0  0.37018009062E+03  0.20305065281E+03  0.18244468338E+04  0.18726636421E+04  0.50400001928E-02 0. -1.
       -1    1    3    3    0  502 -0.37018009062E+03 -0.20305065281E+03 -0.93372883708E+03  0.10247499248E+04  0.50400001928E-02 0.  1.
</event>
<event>
 5   0  0.3441646E-05  0.1922997E+04  0.7818609E-02  0.8643493E-01
        2   -1    0    0  501    0  0.00000000000E+00  0.00000000000E+00  0.11591854044E+04  0.11591854044E+04  0.25500000920E-02 0. -1.
       -2   -1    0    0    0  501  0.00000000000E+00  0.00000000000E+00 -0.79752473143E+03  0.79752473144E+03  0.25500000920E-02 0.  1.
    10030    2    1    2    0    0  0.00000000000E+00  0.00000000000E+00  0.36166067296E+03  0.19567101358E+04  0.19229966493E+04 0.  0.
        4    1    3    3  502    0 -0.29452562571E+03  0.85002826711E+03  0.52616810317E+03  0.10421841895E+04  0.12699999809E+01 0. -1.
       -4    1    3    3    0  502  0.29452562571E+03 -0.85002826711E+03 -0.16450743021E+03  0.91452594637E+03  0.12699999809E+01 0.  1.
</event>
<event>
 5   0  0.1435062E-05  0.1831917E+04  0.7818609E-02  0.8689508E-01
        1   -1    0    0  501    0  0.00000000000E+00  0.00000000000E+00  0.12914237009E+04  0.12914237009E+04  0.50400001928E-02 0.  1.
       -1   -1    0    0    0  501  0.00000000000E+00  0.00000000000E+00 -0.64965533973E+03  0.64965533975E+03  0.50400001928E-02 0. -1.
    10030    2    1    2    0    0  0.00000000000E+00  0.00000000000E+00  0.64176836121E+03  0.19410790407E+04  0.18319173597E+04 0.  0.
        2    1    3    3  502    0 -0.27830883952E+03  0.49450390218E+03  0.10827501490E+04  0.12224311042E+04  0.25500000920E-02 0.  1.
       -2    1    3    3    0  502  0.27830883952E+03 -0.49450390218E+03 -0.44098178778E+03  0.71864793647E+03  0.25500000920E-02 0. -1.
</event>
<event>
 5   0  0.3508470E-05  0.2600769E+04  0.7818609E-02  0.8367940E-01
       -2   -1    0    0    0  501  0.00000000000E+00  0.00000000000E+00  0.10153911749E+04  0.10153911749E+04  0.25500000920E-02 0. -1.
        2   -1    0    0  501    0  0.00000000000E+00  0.00000000000E+00 -0.16653684108E+04  0.16653684108E+04  0.25500000920E-02 0.  1.
    10030    2    1    2    0    0  0.00000000000E+00  0.00000000000E+00 -0.64997723589E+03  0.26807595856E+04  0.26007694148E+04 0.  0.
        5    1    3    3  502    0 -0.75753898321E+03  0.91055836751E+03 -0.87814710768E+03  0.14744986553E+04  0.46999998093E+01 0.  1.
       -5    1    3    3    0  502  0.75753898321E+03 -0.91055836751E+03  0.22816987179E+03  0.12062609304E+04  0.46999998093E+01 0. -1.
</event>
<event>
 5   0  0.1533248E-05  0.2617265E+04  0.7818609E-02  0.8362360E-01
        1   -1    0    0  501    0  0.00000000000E+00  0.00000000000E+00  0.24986988615E+04  0.24986988615E+04  0.50400001928E-02 0. -1.
       -1   -1    0    0    0  501  0.00000000000E+00  0.00000000000E+00 -0.68536428631E+03  0.68536428633E+03  0.50400001928E-02 0.  1.
    10030    2    1    2    0    0  0.00000000000E+00  0.00000000000E+00  0.18133345752E+04  0.31840631478E+04  0.26172649556E+04 0.  0.
        4    1    3    3  502    0  0.10132873297E+04  0.44525061356E+03  0.57233910159E+02  0.11082764343E+04  0.12699999809E+01 0.  1.
       -4    1    3    3    0  502 -0.10132873297E+04 -0.44525061356E+03  0.17561006650E+04  0.20757867135E+04  0.12699999809E+01 0. -1.
</event>
<event>
 5   0  0.3849687E-05  0.2557923E+04  0.7818609E-02  0.8382636E-01
       -2   -1    0    0    0  501  0.00000000000E+00  0.00000000000E+00  0.14631065919E+04  0.14631065919E+04  0.25500000920E-02 0.  1.
        2   -1    0    0  501    0  0.00000000000E+00  0.00000000000E+00 -0.11179926041E+04  0.11179926041E+04  0.25500000920E-02 0. -1.
    10030    2    1    2    0    0  0.00000000000E+00  0.00000000000E+00  0.34511398778E+03  0.25810991961E+04  0.25579228674E+04 0.  0.
        1    1    3    3  502    0 -0.11033732779E+04 -0.19569239936E+03  0.79459538359E+03  0.13737211978E+04  0.50400001928E-02 0. -1.
       -1    1    3    3    0  502  0.11033732779E+04  0.19569239936E+03 -0.44948139581E+03  0.12073779983E+04  0.50400001928E-02 0.  1.
</event>
<event>
 5   0  0.3508470E-05  0.2603747E+04  0.7818609E-02  0.8366929E-01
        2   -1    0    0  501    0  0.00000000000E+00  0.00000000000E+00  0.11854280594E+04  0.11854280594E+04  0.25500000920E-02 0.  1.
       -2   -1    0    0    0  501  0.00000000000E+00  0.00000000000E+00 -0.14297576833E+04  0.14297576833E+04  0.25500000920E-02 0. -1.
    10030    2    1    2    0    0  0.00000000000E+00  0.00000000000E+00 -0.24432962390E+03  0.26151857427E+04  0.26037472043E+04 0.  0.
        5    1    3    3  502    0  0.10898452918E+04 -0.65144042800E+03  0.16670149975E+03  0.12806048850E+04  0.46999998093E+01 0.  1.
       -5    1    3    3    0  502 -0.10898452918E+04  0.65144042800E+03 -0.41103112365E+03  0.13345808578E+04  0.46999998093E+01 0. -1.
</event>
<event>
 5   0  0.3499642E-05  0.2597988E+04  0.7818609E-02  0.8368885E-01
        2   -1    0    0  501    0  0.00000000000E+00  0.00000000000E+00  0.14151683734E+04  0.14151683734E+04  0.25500000920E-02 0.  1.
       -2   -1    0    0    0  501  0.00000000000E+00  0.00000000000E+00 -0.11923564798E+04  0.11923564798E+04  0.25500000920E-02 0. -1.
    10030    2    1    2    0    0  0.00000000000E+00  0.00000000000E+00  0.22281189365E+03  0.26075248532E+04  0.25979878214E+04 0.  0.
        2    1    3    3  502    0  0.88644891249E+03  0.17536311141E+02  0.10642518130E+04  0.13851827021E+04  0.25500000920E-02 0.  1.
       -2    1    3    3    0  502 -0.88644891249E+03 -0.17536311141E+02 -0.84143991933E+03  0.12223421512E+04  0.25500000920E-02 0. -1.
</event>
<event>
 5   0  0.1451052E-05  0.2616279E+04  0.7818609E-02  0.8362693E-01
        1   -1    0    0  501    0  0.00000000000E+00  0.00000000000E+00  0.13171123360E+04  0.13171123360E+04  0.50400001928E-02 0. -1.
       -1   -1    0    0    0  501  0.00000000000E+00  0.00000000000E+00 -0.12992278395E+04  0.12992278395E+04  0.50400001928E-02 0.  1.
    10030    2    1    2    0    0  0.00000000000E+00  0.00000000000E+00  0.17884496557E+02  0.26163401755E+04  0.26162790484E+04 0.  0.
        1    1    3    3  502    0  0.79439364591E+03  0.19401162200E+03  0.10300083366E+04  0.13151497814E+04  0.50400001928E-02 0. -1.
       -1    1    3    3    0  502 -0.79439364591E+03 -0.19401162200E+03 -0.10121238400E+04  0.13011903941E+04  0.50400001928E-02 0.  1.
</event>
<event>
 5   0  0.1533248E-05  0.2555046E+04  0.7818609E-02  0.8383634E-01
        1   -1    0    0  501    0  0.00000000000E+00  0.00000000000E+00  0.27055061479E+04  0.27055061479E+04  0.50400001928E-02 0. -1.
       -1   -1    0    0    0  501  0.00000000000E+00  0.00000000000E+00 -0.60323812993E+03  0.60323812995E+03  0.50400001928E-02 0.  1.
    10030    2    1    2    0    0  0.00000000000E+00  0.00000000000E+00  0.21022680180E+04  0.33087442778E+04  0.25550455723E+04 0.  0.
        4    1    3    3  502    0 -0.91414869056E+03 -0.58284885574E+03  0.17600594051E+03  0.10983443545E+04  0.12699999809E+01 0.  1.
       -4    1    3    3    0  502  0.91414869056E+03  0.58284885574E+03  0.19262620775E+04  0.22103999233E+04  0.12699999809E+01 0. -1.
</event>
<event>
 5   0  0.3499642E-05  0.2587610E+04  0.7818609E-02  0.8372422E-01
       -2   -1    0    0    0  501  0.00000000000E+00  0.00000000000E+00  0.86767000544E+03  0.86767000545E+03  0.25500000920E-02 0. -1.
        2   -1    0    0  501    0  0.00000000000E+00  0.00000000000E+00 -0.19292253773E+04  0.19292253773E+04  0.25500000920E-02 0.  1.
    10030    2    1    2    0    0  0.00000000000E+00  0.00000000000E+00 -0.10615553719E+04  0.27968953828E+04  0.25876097029E+04 0.  0.
        2    1    3    3  502    0 -0.98624891881E+03 -0.25683701482E+03  0.33073095208E+03  0.10714640193E+04  0.25500000920E-02 0. -1.
       -2    1    3    3    0  502  0.98624891881E+03  0.25683701482E+03 -0.13922863239E+04  0.17254313634E+04  0.25500000920E-02 0.  1.
</event>
<event>
 5   0  0.3508470E-05  0.2600121E+04  0.7818609E-02  0.8368160E-01
        2   -1    0    0  501    0  0.00000000000E+00  0.00000000000E+00  0.18955668814E+04  0.18955668814E+04  0.25500000920E-02 0.  1.
       -2   -1    0    0    0  501  0.00000000000E+00  0.00000000000E+00 -0.89163696400E+03  0.89163696401E+03  0.25500000920E-02 0. -1.
    10030    2    1    2    0    0  0.00000000000E+00  0.00000000000E+00  0.10039299174E+04  0.27872038454E+04  0.26001211504E+04 0.  0.
        5    1    3    3  502    0 -0.59919677987E+03  0.11433005807E+04  0.66790087537E+03  0.14533707951E+04  0.46999998093E+01 0.  1.
       -5    1    3    3    0  502  0.59919677987E+03 -0.11433005807E+04  0.33602904201E+03  0.13338330502E+04  0.46999998093E+01 0. -1.
</event>
<event>
 5   0  0.1451052E-05  0.2554564E+04  0.7818609E-02  0.8383801E-01
       -1   -1    0    0    0  501  0.00000000000E+00  0.00000000000E+00  0.14233552500E+04  0.14233552500E+04  0.50400001928E-02 0. -1.
        1   -1    0    0  501    0  0.00000000000E+00  0.00000000000E+00 -0.11461996847E+04  0.11461996847E+04  0.50400001928E-02 0.  1.
    10030    2    1    2    0    0  0.00000000000E+00  0.00000000000E+00  0.27715556528E+03  0.25695549347E+04  0.25545640244E+04 0.  0.
        1    1    3    3  502    0  0.80044602387E+03  0.96492823429E+03 -0.10708689350E+03  0.12582797532E+04  0.50400001928E-02 0.  1.
       -1    1    3    3    0  502 -0.80044602387E+03 -0.96492823429E+03  0.38424245879E+03  0.13112751815E+04  0.50400001928E-02 0. -1.
</event>
<event>
 5   0  0.1435062E-05  0.2606800E+04  0.7818609E-02  0.8365895E-01
       -1   -1    0    0    0  501  0.00000000000E+00  0.00000000000E+00  0.11395537593E+04  0.11395537593E+04  0.50400001928E-02 0. -1.
        1   -1    0    0  501    0  0.00000000000E+00  0.00000000000E+00 -0.14908047927E+04  0.14908047927E+04  0.50400001928E-02 0.  1.
    10030    2    1    2    0    0  0.00000000000E+00  0.00000000000E+00 -0.35125103342E+03  0.26303585519E+04  0.26068004955E+04 0.  0.
        2    1    3    3  502    0  0.83573679056E+03 -0.13333442994E+02 -0.11847728723E+04  0.14499381100E+04  0.25500000920E-02 0.  1.
       -2    1    3    3    0  502 -0.83573679056E+03  0.13333442994E+02  0.83352183892E+03  0.11804204419E+04  0.25500000920E-02 0. -1.
</event>
<event>
 5   0  0.3441646E-05  0.2607262E+04  0.7818609E-02  0.8365739E-01
        2   -1    0    0  501    0  0.00000000000E+00  0.00000000000E+00  0.12882111149E+04  0.12882111149E+04  0.25500000920E-02 0.  1.
       -2   -1    0    0    0  501  0.00000000000E+00  0.00000000000E+00 -0.13192353332E+04  0.13192353332E+04  0.25500000920E-02 0. -1.
    10030    2    1    2    0    0  0.00000000000E+00  0.00000000000E+00 -0.31024218310E+02  0.26074464482E+04  0.26072618737E+04 0.  0.
        4    1    3    3  502    0 -0.34324788071E+03  0.74955647433E+03  0.99440986007E+03  0.12917068547E+04  0.12699999809E+01 0.  1.
       -4    1    3    3    0  502  0.34324788071E+03 -0.74955647433E+03 -0.10254340784E+04  0.13157395935E+04  0.12699999809E+01 0. -1.
</event>
<event>
 5   0  0.1217200E-05  0.2659593E+04  0.7818609E-02  0.8348236E-01
       -3   -1    0    0    0  501  0.00000000000E+00  0.00000000000E+00  0.78433845207E+03  0.78433845857E+03  0.10100000352E+00 0.  1.
        3   -1    0    0  501    0  0.00000000000E+00  0.00000000000E+00 -0.22545866247E+04  0.22545866270E+04  0.10100000352E+00 0. -1.
    10030    2    1    2    0    0  0.00000000000E+00  0.00000000000E+00 -0.14702481727E+04  0.30389250856E+04  0.26595931994E+04 0.  0.
        4    1    3    3  502    0 -0.59266651940E+03  0.11170071216E+04 -0.26484026765E+03  0.12919367218E+04  0.12699999809E+01 0. -1.
       -4    1    3    3    0  502  0.59266651940E+03 -0.11170071216E+04 -0.12054079050E+04  0.17469883638E+04  0.12699999809E+01 0.  1.
</event>
<event>
 5   0  0.3441646E-05  0.2592019E+04  0.7818609E-02  0.8370917E-01
        2   -1    0    0  501    0  0.00000000000E+00  0.00000000000E+00  0.14591594717E+04  0.14591594717E+04  0.25500000920E-02 0. -1.
       -2   -1    0    0    0  501  0.00000000000E+00  0.00000000000E+00 -0.11511016036E+04  0.11511016036E+04  0.25500000920E-02 0.  1.
    10030    2    1    2    0    0  0.00000000000E+00  0.00000000000E+00  0.30805786812E+03  0.26102610753E+04  0.25920191418E+04 0.  0.
        4    1    3    3  502    0  0.11680401592E+04  0.74388361988E+02 -0.40647396732E+03  0.12389810898E+04  0.12699999809E+01 0. -1.
       -4    1    3    3    0  502 -0.11680401592E+04 -0.74388361988E+02  0.71453183544E+03  0.13712799855E+04  0.12699999809E+01 0.  1.
</event>
<event>
 5   0  0.3441646E-05  0.2572081E+04  0.7818609E-02  0.8377747E-01
       -2   -1    0    0    0  501  0.00000000000E+00  0.00000000000E+00  0.64736095262E+03  0.64736095262E+03  0.25500000920E-02 0.  1.
        2   -1    0    0  501    0  0.00000000000E+00  0.00000000000E+00 -0.25548347478E+04  0.25548347478E+04  0.25500000920E-02 0. -1.
    10030    2    1    2    0    0  0.00000000000E+00  0.00000000000E+00 -0.19074737952E+04  0.32021957005E+04  0.25720810688E+04 0.  0.
        4    1    3    3  502    0 -0.54536642369E+03 -0.56980996727E+03 -0.22183539203E+04  0.23544009140E+04  0.12699999809E+01 0. -1.
       -4    1    3    3    0  502  0.54536642369E+03  0.56980996727E+03  0.31088012513E+03  0.84779478649E+03  0.12699999809E+01 0.  1.
</event>
<event>
 5   0  0.3647623E-05  0.2518945E+04  0.7818609E-02  0.8396267E-01
       -2   -1    0    0    0  501  0.00000000000E+00  0.00000000000E+00  0.85400800886E+03  0.85400800887E+03  0.25500000920E-02 0.  1.
        2   -1    0    0  501    0  0.00000000000E+00  0.00000000000E+00 -0.18574429095E+04  0.18574429095E+04  0.25500000920E-02 0. -1.
    10030    2    1    2    0    0  0.00000000000E+00  0.00000000000E+00 -0.10034349007E+04  0.27114509184E+04  0.25189451131E+04 0.  0.
        3    1    3    3  502    0  0.55939936942E+03 -0.11121654412E+04 -0.70717471137E+03  0.14317596536E+04  0.10100000352E+00 0.  1.
       -3    1    3    3    0  502 -0.55939936942E+03  0.11121654412E+04 -0.29626018929E+03  0.12796912648E+04  0.10100000352E+00 0. -1.
</event>
<event>
 5   0  0.1435062E-05  0.2606179E+04  0.7818609E-02  0.8366105E-01
        1   -1    0    0  501    0  0.00000000000E+00  0.00000000000E+00  0.16104577233E+04  0.16104577233E+04  0.50400001928E-02 0. -1.
       -1   -1    0    0    0  501  0.00000000000E+00  0.00000000000E+00 -0.10543851995E+04  0.10543851995E+04  0.50400001928E-02 0.  1.
    10030    2    1    2    0    0  0.00000000000E+00  0.00000000000E+00  0.55607252380E+03  0.26648429228E+04  0.26061794166E+04 0.  0.
        2    1    3    3  502    0  0.11631267774E+04 -0.42646877002E+03 -0.13516796228E+03  0.12461981745E+04  0.25500000920E-02 0.  1.
       -2    1    3    3    0  502 -0.11631267774E+04  0.42646877002E+03  0.69124048608E+03  0.14186447483E+04  0.25500000920E-02 0. -1.
</event>
<event>
 5   0  0.1451052E-05  0.2602163E+04  0.7818609E-02  0.8367467E-01
        1   -1    0    0  501    0  0.00000000000E+00  0.00000000000E+00  0.17470375342E+04  0.17470375342E+04  0.50400001928E-02 0. -1.
       -1   -1    0    0    0  501  0.00000000000E+00  0.00000000000E+00 -0.96896216601E+03  0.96896216602E+03  0.50400001928E-02 0.  1.
    10030    2    1    2    0    0  0.00000000000E+00  0.00000000000E+00  0.77807536817E+03  0.27159997002E+04  0.26021631565E+04 0.  0.
        1    1    3    3  502    0 -0.80823156824E+02 -0.10734853655E+04  0.11516946589E+04  0.15764846336E+04  0.50400001928E-02 0. -1.
       -1    1    3    3    0  502  0.80823156824E+02  0.10734853655E+04 -0.37361929071E+03  0.11395150666E+04  0.50400001928E-02 0.  1.
</event>
<event>
 5   0  0.1474554E-05  0.2577862E+04  0.7818609E-02  0.8375760E-01
       -1   -1    0    0    0  501  0.00000000000E+00  0.00000000000E+00  0.21685818715E+04  0.21685818716E+04  0.50400001928E-02 0. -1.
        1   -1    0    0  501    0  0.00000000000E+00  0.00000000000E+00 -0.76609671986E+03  0.76609671987E+03  0.50400001928E-02 0.  1.
    10030    2    1    2    0    0  0.00000000000E+00  0.00000000000E+00  0.14024851517E+04  0.29346785914E+04  0.25778622605E+04 0.  0.
        5    1    3    3  502    0  0.46259012373E+03  0.80725037223E+03  0.17167185893E+04  0.19526360621E+04  0.46999998093E+01 0. -1.
       -5    1    3    3    0  502 -0.46259012373E+03 -0.80725037223E+03 -0.31423343765E+03  0.98204252932E+03  0.46999998093E+01 0.  1.
</event>
<event>
 5   0  0.3849687E-05  0.2825643E+04  0.7818609E-02  0.8295351E-01
       -2   -1    0    0    0  501  0.00000000000E+00  0.00000000000E+00  0.17152798619E+04  0.17152798619E+04  0.25500000920E-02 0. -1.
        2   -1    0    0  501    0  0.00000000000E+00  0.00000000000E+00 -0.11636961926E+04  0.11636961926E+04  0.25500000920E-02 0.  1.
    10030    2    1    2    0    0  0.00000000000E+00  0.00000000000E+00  0.55158366931E+03  0.28789760544E+04  0.28256430379E+04 0.  0.
        1    1    3    3  502    0 -0.13713166001E+04  0.20372547424E+03  0.55305186677E+03  0.14926083391E+04  0.50400001928E-02 0.  1.
       -1    1    3    3    0  502  0.13713166001E+04 -0.20372547424E+03 -0.14681974647E+01  0.13863677154E+04  0.50400001928E-02 0. -1.
</event>
<event>
 5   0  0.3508470E-05  0.2858792E+04  0.7818609E-02  0.8285245E-01
       -2   -1    0    0    0  501  0.00000000000E+00  0.00000000000E+00  0.19643400997E+04  0.19643400997E+04  0.25500000920E-02 0. -1.
        2   -1    0    0  501    0  0.00000000000E+00  0.00000000000E+00 -0.10401320678E+04  0.10401320678E+04  0.25500000920E-02 0.  1.
    10030    2    1    2    0    0  0.00000000000E+00  0.00000000000E+00  0.92420803196E+03  0.30044721675E+04  0.28587921434E+04 0.  0.
        5    1    3    3  502    0  0.58554077437E+03  0.96884589423E+03  0.13792908644E+04  0.17843726472E+04  0.46999998093E+01 0. -1.
       -5    1    3    3    0  502 -0.58554077437E+03 -0.96884589423E+03 -0.45508283248E+03  0.12200995204E+04  0.46999998093E+01 0.  1.
</event>
<event>
 5   0  0.3441646E-05  0.2606891E+04  0.7818609E-02  0.8365864E-01
       -2   -1    0    0    0  501  0.00000000000E+00  0.00000000000E+00  0.61714234761E+03  0.61714234761E+03  0.25500000920E-02 0.  1.
        2   -1    0    0  501    0  0.00000000000E+00  0.00000000000E+00 -0.27529622199E+04  0.27529622199E+04  0.25500000920E-02 0. -1.
    10030    2    1    2    0    0  0.00000000000E+00  0.00000000000E+00 -0.21358198723E+04  0.33701045675E+04  0.26068905365E+04 0.  0.
        4    1    3    3  502    0 -0.69431444051E+03 -0.36482856798E+03 -0.24137524968E+04  0.25379864371E+04  0.12699999809E+01 0. -1.
       -4    1    3    3    0  502  0.69431444051E+03  0.36482856798E+03  0.27793262448E+03  0.83211813042E+03  0.12699999809E+01 0.  1.
</event>
<event>
 5   0  0.1474554E-05  0.2575733E+04  0.7818609E-02  0.8376491E-01
        1   -1    0    0  501    0  0.00000000000E+00  0.00000000000E+00  0.64065887382E+03  0.64065887384E+03  0.50400001928E-02 0.  1.
       -1   -1    0    0    0  501  0.00000000000E+00  0.00000000000E+00 -0.25888984420E+04  0.25888984420E+04  0.50400001928E-02 0. -1.
    10030    2    1    2    0    0  0.00000000000E+00  0.00000000000E+00 -0.19482395682E+04  0.32295573158E+04  0.25757334958E+04 0.  0.
        5    1    3    3  502    0 -0.62292111675E+03 -0.10486692711E+04 -0.45587163749E+03  0.13021440004E+04  0.46999998093E+01 0.  1.
       -5    1    3    3    0  502  0.62292111675E+03  0.10486692711E+04 -0.14923679307E+04  0.19274133154E+04  0.46999998093E+01 0. -1.
</event>
<event>
 5   0  0.1451052E-05  0.2701066E+04  0.7818609E-02  0.8334659E-01
       -1   -1    0    0    0  501  0.00000000000E+00  0.00000000000E+00  0.11514634957E+04  0.11514634957E+04  0.50400001928E-02 0.  1.
        1   -1    0    0  501    0  0.00000000000E+00  0.00000000000E+00 -0.15840183431E+04  0.15840183431E+04  0.50400001928E-02 0. -1.
    10030    2    1    2    0    0  0.00000000000E+00  0.00000000000E+00 -0.43255484743E+03  0.27354818388E+04  0.27010659367E+04 0.  0.
        1    1    3    3  502    0 -0.45567825547E+03 -0.11899064811E+04 -0.66966363049E+03  0.14394337374E+04  0.50400001928E-02 0.  1.
       -1    1    3    3    0  502  0.45567825547E+03  0.11899064811E+04  0.23710878305E+03  0.12960481015E+04  0.50400001928E-02 0. -1.
</event>
<event>
 5   0  0.1435062E-05  0.2531969E+04  0.7818609E-02  0.8391684E-01
       -1   -1    0    0    0  501  0.00000000000E+00  0.00000000000E+00  0.76695542006E+03  0.76695542007E+03  0.50400001928E-02 0. -1.
        1   -1    0    0  501    0  0.00000000000E+00  0.00000000000E+00 -0.20897134355E+04  0.20897134355E+04  0.50400001928E-02 0.  1.
    10030    2    1    2    0    0  0.00000000000E+00  0.00000000000E+00 -0.13227580154E+04  0.28566688556E+04  0.25319692302E+04 0.  0.
        2    1    3    3  502    0  0.70430178652E+03 -0.49044945418E+03 -0.17113912532E+04  0.19145343285E+04  0.25500000920E-02 0.  1.
       -2    1    3    3    0  502 -0.70430178652E+03  0.49044945418E+03  0.38863323773E+03  0.94213452706E+03  0.25500000920E-02 0. -1.
</event>
<event>
 5   0  0.1435062E-05  0.2589043E+04  0.7818609E-02  0.8371933E-01
        1   -1    0    0  501    0  0.00000000000E+00  0.00000000000E+00  0.12498757454E+04  0.12498757454E+04  0.50400001928E-02 0. -1.
       -1   -1    0    0    0  501  0.00000000000E+00  0.00000000000E+00 -0.13407618775E+04  0.13407618775E+04  0.50400001928E-02 0.  1.
    10030    2    1    2    0    0  0.00000000000E+00  0.00000000000E+00 -0.90886132101E+02  0.25906376229E+04  0.25890428741E+04 0.  0.
        2    1    3    3  502    0 -0.50783800888E+03 -0.10964425526E+04 -0.51016431999E+03  0.13116224106E+04  0.25500000920E-02 0.  1.
       -2    1    3    3    0  502  0.50783800888E+03  0.10964425526E+04  0.41927818789E+03  0.12790152123E+04  0.25500000920E-02 0. -1.
</event>
<event>
 5   0  0.1474554E-05  0.2587487E+04  0.7818609E-02  0.8372464E-01
       -1   -1    0    0    0  501  0.00000000000E+00  0.00000000000E+00  0.10211205201E+04  0.10211205201E+04  0.50400001928E-02 0.  1.
        1   -1    0    0  501    0  0.00000000000E+00  0.00000000000E+00 -0.16391525256E+04  0.16391525256E+04  0.50400001928E-02 0. -1.
    10030    2    1    2    0    0  0.00000000000E+00  0.00000000000E+00 -0.61803200549E+03  0.26602730457E+04  0.25874870276E+04 0.  0.
        5    1    3    3  502    0 -0.12053883157E+03 -0.39283671790E+03 -0.15702679176E+04  0.16231493215E+04  0.46999998093E+01 0. -1.
       -5    1    3    3    0  502  0.12053883157E+03  0.39283671790E+03  0.95223591216E+03  0.10371237242E+04  0.46999998093E+01 0.  1.
</event>
<event>
 5   0  0.3849687E-05  0.2620780E+04  0.7818609E-02  0.8361177E-01
       -2   -1    0    0    0  501  0.00000000000E+00  0.00000000000E+00  0.11611497166E+04  0.11611497166E+04  0.25500000920E-02 0. -1.
        2   -1    0    0  501    0  0.00000000000E+00  0.00000000000E+00 -0.14788117456E+04  0.14788117456E+04  0.25500000920E-02 0.  1.
    10030    2    1    2    0    0  0.00000000000E+00  0.00000000000E+00 -0.31766202906E+03  0.26399614622E+04  0.26207799139E+04 0.  0.
        1    1    3    3  502    0  0.34261396271E+03 -0.25651755513E+03 -0.14064175867E+04  0.14701006808E+04  0.50400001928E-02 0.  1.
       -1    1    3    3    0  502 -0.34261396271E+03  0.25651755513E+03  0.10887555576E+04  0.11698607814E+04  0.50400001928E-02 0. -1.
</event>
<event>
 5   0  0.1533248E-05  0.2657602E+04  0.7818609E-02  0.8348894E-01
        1   -1    0    0  501    0  0.00000000000E+00  0.00000000000E+00  0.98696335767E+03  0.98696335768E+03  0.50400001928E-02 0.  1.
       -1   -1    0    0    0  501  0.00000000000E+00  0.00000000000E+00 -0.17890348898E+04  0.17890348898E+04  0.50400001928E-02 0. -1.
    10030    2    1    2    0    0  0.00000000000E+00  0.00000000000E+00 -0.80207153212E+03  0.27759982475E+04  0.26576018376E+04 0.  0.
        4    1    3    3  502    0 -0.66926026429E+02  0.26961258375E+03  0.95629276614E+03  0.99582503775E+03  0.12699999809E+01 0.  1.
       -4    1    3    3    0  502  0.66926026429E+02 -0.26961258375E+03 -0.17583642983E+04  0.17801732097E+04  0.12699999809E+01 0. -1.
</event>
<event>
 5   0  0.1451052E-05  0.2605571E+04  0.7818609E-02  0.8366311E-01
        1   -1    0    0  501    0  0.00000000000E+00  0.00000000000E+00  0.12354510341E+04  0.12354510341E+04  0.50400001928E-02 0. -1.
       -1   -1    0    0    0  501  0.00000000000E+00  0.00000000000E+00 -0.13737895988E+04  0.13737895988E+04  0.50400001928E-02 0.  1.
    10030    2    1    2    0    0  0.00000000000E+00  0.00000000000E+00 -0.13833856468E+03  0.26092406330E+04  0.26055707863E+04 0.  0.
        1    1    3    3  502    0 -0.93528273879E+03  0.17801567382E+03 -0.95969475014E+03  0.13518348254E+04  0.50400001928E-02 0.  1.
       -1    1    3    3    0  502  0.93528273879E+03 -0.17801567382E+03  0.82135618546E+03  0.12574058076E+04  0.50400001928E-02 0. -1.
</event>
<event>
 5   0  0.3441646E-05  0.2649479E+04  0.7818609E-02  0.8351586E-01
       -2   -1    0    0    0  501  0.00000000000E+00  0.00000000000E+00  0.84893102971E+03  0.84893102971E+03  0.25500000920E-02 0.  1.
        2   -1    0    0  501    0  0.00000000000E+00  0.00000000000E+00 -0.20672286382E+04  0.20672286382E+04  0.25500000920E-02 0. -1.
    10030    2    1    2    0    0  0.00000000000E+00  0.00000000000E+00 -0.12182976085E+04  0.29161596679E+04  0.26494788442E+04 0.  0.
        4    1    3    3  502    0 -0.10559042234E+04  0.36309100292E+03  0.17545939286E+03  0.11302904126E+04  0.12699999809E+01 0.  1.
       -4    1    3    3    0  502  0.10559042234E+04 -0.36309100292E+03 -0.13937570014E+04  0.17858692553E+04  0.12699999809E+01 0. -1.
</event>
<event>
 5   0  0.1474554E-05  0.2568916E+04  0.7818609E-02  0.8378837E-01
       -1   -1    0    0    0  501  0.00000000000E+00  0.00000000000E+00  0.73366910394E+03  0.73366910395E+03  0.50400001928E-02 0. -1.
        1   -1    0    0  501    0  0.00000000000E+00  0.00000000000E+00 -0.22487422327E+04  0.22487422327E+04  0.50400001928E-02 0.  1.
    10030    2    1    2    0    0  0.00000000000E+00  0.00000000000E+00 -0.15150731288E+04  0.29824113367E+04  0.25689162687E+04 0.  0.
        5    1    3    3  502    0 -0.81089756536E+03  0.56978787185E+03  0.19104559540E+03  0.10093233327E+04  0.46999998093E+01 0. -1.
       -5    1    3    3    0  502  0.81089756536E+03 -0.56978787185E+03 -0.17061187242E+04  0.19730880040E+04  0.46999998093E+01 0.  1.
</event>
<event>
 5   0  0.1474554E-05  0.2574292E+04  0.7818609E-02  0.8376986E-01
       -1   -1    0    0    0  501  0.00000000000E+00  0.00000000000E+00  0.72851560079E+03  0.72851560081E+03  0.50400001928E-02 0. -1.
        1   -1    0    0  501    0  0.00000000000E+00  0.00000000000E+00 -0.22741376376E+04  0.22741376376E+04  0.50400001928E-02 0.  1.
    10030    2    1    2    0    0  0.00000000000E+00  0.00000000000E+00 -0.15456220368E+04  0.30026532384E+04  0.25742919394E+04 0.  0.
        5    1    3    3  502    0 -0.53387371383E+03 -0.51793215994E+03  0.45243494069E+03  0.87062869822E+03  0.46999998093E+01 0. -1.
       -5    1    3    3    0  502  0.53387371383E+03  0.51793215994E+03 -0.19980569775E+04  0.21320245401E+04  0.46999998093E+01 0.  1.
</event>
<event>
 5   0  0.1435062E-05  0.2566860E+04  0.7818609E-02  0.8379546E-01
        1   -1    0    0  501    0  0.00000000000E+00  0.00000000000E+00  0.15256512414E+04  0.15256512414E+04  0.50400001928E-02 0.  1.
       -1   -1    0    0    0  501  0.00000000000E+00  0.00000000000E+00 -0.10796655861E+04  0.10796655861E+04  0.50400001928E-02 0. -1.
    10030    2    1    2    0    0  0.00000000000E+00  0.00000000000E+00  0.44598565528E+03  0.26053168275E+04  0.25668604494E+04 0.  0.
        2    1    3    3  502    0  0.37939476502E+03  0.94495019359E+03  0.10159281381E+04  0.14383953691E+04  0.25500000920E-02 0.  1.
       -2    1    3    3    0  502 -0.37939476502E+03 -0.94495019359E+03 -0.56994248287E+03  0.11669214583E+04  0.25500000920E-02 0. -1.
</event>
<event>
 5   0  0.3849687E-05  0.2563001E+04  0.7818609E-02  0.8380879E-01
       -2   -1    0    0    0  501  0.00000000000E+00  0.00000000000E+00  0.12194114941E+04  0.12194114941E+04  0.25500000920E-02 0. -1.
        2   -1    0    0  501    0  0.00000000000E+00  0.00000000000E+00 -0.13467511259E+04  0.13467511259E+04  0.25500000920E-02 0.  1.
    10030    2    1    2    0    0  0.00000000000E+00  0.00000000000E+00 -0.12733963184E+03  0.25661626200E+04  0.25630012115E+04 0.  0.
        1    1    3    3  502    0 -0.10721385647E+04  0.23588455808E+03 -0.72563673403E+03  0.13159298220E+04  0.50400001928E-02 0.  1.
       -1    1    3    3    0  502  0.10721385647E+04 -0.23588455808E+03  0.59829710219E+03  0.12502327980E+04  0.50400001928E-02 0. -1.
</event>
<event>
 5   0  0.1533248E-05  0.2687285E+04  0.7818609E-02  0.8339142E-01
        1   -1    0    0  501    0  0.00000000000E+00  0.00000000000E+00  0.17107402310E+04  0.17107402310E+04  0.50400001928E-02 0.  1.
       -1   -1    0    0    0  501  0.00000000000E+00  0.00000000000E+00 -0.10553181217E+04  0.10553181217E+04  0.50400001928E-02 0. -1.
    10030    2    1    2    0    0  0.00000000000E+00  0.00000000000E+00  0.65542210925E+03  0.27660583527E+04  0.26872849996E+04 0.  0.
        4    1    3    3  502    0 -0.35278379764E+03 -0.34078065010E+03 -0.95987138025E+03  0.10779343852E+04  0.12699999809E+01 0. -1.
       -4    1    3    3    0  502  0.35278379764E+03  0.34078065010E+03  0.16152934895E+04  0.16881239675E+04  0.12699999809E+01 0.  1.
</event>
<event>
 5   0  0.3849687E-05  0.2661632E+04  0.7818609E-02  0.8347562E-01
       -2   -1    0    0    0  501  0.00000000000E+00  0.00000000000E+00  0.12521554392E+04  0.12521554392E+04  0.25500000920E-02 0.  1.
        2   -1    0    0  501    0  0.00000000000E+00  0.00000000000E+00 -0.14144180606E+04  0.14144180606E+04  0.25500000920E-02 0. -1.
    10030    2    1    2    0    0  0.00000000000E+00  0.00000000000E+00 -0.16226262145E+03  0.26665734998E+04  0.26616320316E+04 0.  0.
        1    1    3    3  502    0  0.41940308860E+03 -0.94840207850E+03  0.75450703556E+03  0.12824376476E+04  0.50400001928E-02 0.  1.
       -1    1    3    3    0  502 -0.41940308860E+03  0.94840207850E+03 -0.91676965702E+03  0.13841358522E+04  0.50400001928E-02 0. -1.
</event>
<event>
 5   0  0.3647623E-05  0.2678491E+04  0.7818609E-02  0.8342018E-01
        2   -1    0    0  501    0  0.00000000000E+00  0.00000000000E+00  0.13244545769E+04  0.13244545769E+04  0.25500000920E-02 0. -1.
       -2   -1    0    0    0  501  0.00000000000E+00  0.00000000000E+00 -0.13542018113E+04  0.13542018113E+04  0.25500000920E-02 0.  1.
    10030    2    1    2    0    0  0.00000000000E+00  0.00000000000E+00 -0.29747234327E+02  0.26786563882E+04  0.26784912074E+04 0.  0.
        3    1    3    3  502    0  0.10237184637E+04 -0.89626707698E+02  0.84398452471E+03  0.13297903323E+04  0.10100000352E+00 0. -1.
       -3    1    3    3    0  502 -0.10237184637E+04  0.89626707698E+02 -0.87373175904E+03  0.13488660559E+04  0.10100000352E+00 0.  1.
</event>
<event>
 5   0  0.3647623E-05  0.2550286E+04  0.7818609E-02  0.8385287E-01
        2   -1    0    0  501    0  0.00000000000E+00  0.00000000000E+00  0.17502506908E+04  0.17502506908E+04  0.25500000920E-02 0. -1.
       -2   -1    0    0    0  501  0.00000000000E+00  0.00000000000E+00 -0.92900390898E+03  0.92900390898E+03  0.25500000920E-02 0.  1.
    10030    2    1    2    0    0  0.00000000000E+00  0.00000000000E+00  0.82124678182E+03  0.26792545998E+04  0.25502860494E+04 0.  0.
        3    1    3    3  502    0  0.66143543341E+03  0.95428245975E+03 -0.14313563271E+03  0.11698887405E+04  0.10100000352E+00 0.  1.
       -3    1    3    3    0  502 -0.66143543341E+03 -0.95428245975E+03  0.96438241452E+03  0.15093658593E+04  0.10100000352E+00 0. -1.
</event>
<event>
 5   0  0.1451052E-05  0.2637965E+04  0.7818609E-02  0.8355419E-01
       -1   -1    0    0    0  501  0.00000000000E+00  0.00000000000E+00  0.11132560759E+04  0.11132560759E+04  0.50400001928E-02 0.  1.
        1   -1    0    0  501    0  0.00000000000E+00  0.00000000000E+00 -0.15627263076E+04  0.15627263077E+04  0.50400001928E-02 0. -1.
    10030    2    1    2    0    0  0.00000000000E+00  0.00000000000E+00 -0.44947023177E+03  0.26759823835E+04  0.26379647890E+04 0.  0.
        1    1    3    3  502    0 -0.22580674833E+03  0.96608198812E+02  0.10898550814E+04  0.11171866139E+04  0.50400001928E-02 0.  1.
       -1    1    3    3    0  502  0.22580674833E+03 -0.96608198812E+02 -0.15393253132E+04  0.15587957697E+04  0.50400001928E-02 0. -1.
</event>
<event>
 5   0  0.1474554E-05  0.2604952E+04  0.7818609E-02  0.8366521E-01
        1   -1    0    0  501    0  0.00000000000E+00  0.00000000000E+00  0.11567545367E+04  0.11567545367E+04  0.50400001928E-02 0. -1.
       -1   -1    0    0    0  501  0.00000000000E+00  0.00000000000E+00 -0.14665550539E+04  0.14665550539E+04  0.50400001928E-02 0.  1.
    10030    2    1    2    0    0  0.00000000000E+00  0.00000000000E+00 -0.30980051719E+03  0.26233095907E+04  0.26049523696E+04 0.  0.
        5    1    3    3  502    0 -0.32151417495E+03 -0.80374164344E+03  0.82512268616E+03  0.11959186976E+04  0.46999998093E+01 0. -1.
       -5    1    3    3    0  502  0.32151417495E+03  0.80374164344E+03 -0.11349232034E+04  0.14273908931E+04  0.46999998093E+01 0.  1.
</event>
<event>
 5   0  0.3647623E-05  0.2453883E+04  0.7818609E-02  0.8419602E-01
        2   -1    0    0  501    0  0.00000000000E+00  0.00000000000E+00  0.18304621777E+04  0.18304621777E+04  0.25500000920E-02 0. -1.
       -2   -1    0    0    0  501  0.00000000000E+00  0.00000000000E+00 -0.82240751296E+03  0.82240751297E+03  0.25500000920E-02 0.  1.
    10030    2    1    2    0    0  0.00000000000E+00  0.00000000000E+00  0.10080546647E+04  0.26528696906E+04  0.24538833282E+04 0.  0.
        3    1    3    3  502    0  0.11807174877E+04 -0.24375069151E+03  0.75026368033E+03  0.14200013330E+04  0.10100000352E+00 0. -1.
       -3    1    3    3    0  502 -0.11807174877E+04  0.24375069151E+03  0.25779098437E+03  0.12328683576E+04  0.10100000352E+00 0.  1.
</event>
<event>
 5   0  0.1474554E-05  0.1983329E+04  0.7818609E-02  0.8614455E-01
        1   -1    0    0  501    0  0.00000000000E+00  0.00000000000E+00  0.12717507178E+04  0.12717507178E+04  0.50400001928E-02 0. -1.
       -1   -1    0    0    0  501  0.00000000000E+00  0.00000000000E+00 -0.77326356790E+03  0.77326356791E+03  0.50400001928E-02 0.  1.
    10030    2    1    2    0    0  0.00000000000E+00  0.00000000000E+00  0.49848714987E+03  0.20450142857E+04  0.19833290171E+04 0.  0.
        5    1    3    3  502    0 -0.43488496506E+03  0.10145434462E+02  0.11681101473E+04  0.12464875727E+04  0.46999998093E+01 0. -1.
       -5    1    3    3    0  502  0.43488496506E+03 -0.10145434462E+02 -0.66962299743E+03  0.79852671299E+03  0.46999998093E+01 0.  1.
</event>
<event>
 5   0  0.3499642E-05  0.2025373E+04  0.7818609E-02  0.8594849E-01
        2   -1    0    0  501    0  0.00000000000E+00  0.00000000000E+00  0.91858977347E+03  0.91858977347E+03  0.25500000920E-02 0.  1.
       -2   -1    0    0    0  501  0.00000000000E+00  0.00000000000E+00 -0.11164225981E+04  0.11164225981E+04  0.25500000920E-02 0. -1.
    10030    2    1    2    0    0  0.00000000000E+00  0.00000000000E+00 -0.19783282460E+03  0.20350123715E+04  0.20253734287E+04 0.  0.
        2    1    3    3  502    0  0.59036517551E+03 -0.77074695580E+03  0.19046898322E+03  0.98937371297E+03  0.25500000920E-02 0.  1.
       -2    1    3    3    0  502 -0.59036517551E+03  0.77074695580E+03 -0.38830180782E+03  0.10456386586E+04  0.25500000920E-02 0. -1.
</event>
<event>
 5   0  0.1497497E-05  0.2598574E+04  0.7818609E-02  0.8368686E-01
        1   -1    0    0  501    0  0.00000000000E+00  0.00000000000E+00  0.17951717235E+04  0.17951717235E+04  0.50400001928E-02 0.  1.
       -1   -1    0    0    0  501  0.00000000000E+00  0.00000000000E+00 -0.94038153972E+03  0.94038153974E+03  0.50400001928E-02 0. -1.
    10030    2    1    2    0    0  0.00000000000E+00  0.00000000000E+00  0.85479018373E+03  0.27355532632E+04  0.25985737237E+04 0.  0.
        3    1    3    3  502    0  0.61725533450E+03 -0.17058490231E+03  0.16174934679E+04  0.17396518289E+04  0.10100000352E+00 0.  1.
       -3    1    3    3    0  502 -0.61725533450E+03  0.17058490231E+03 -0.76270328420E+03  0.99590143428E+03  0.10100000352E+00 0. -1.
</event>
<event>
 5   0  0.1451052E-05  0.2599136E+04  0.7818609E-02  0.8368495E-01
        1   -1    0    0  501    0  0.00000000000E+00  0.00000000000E+00  0.18871165180E+04  0.18871165180E+04  0.50400001928E-02 0. -1.
       -1   -1    0    0    0  501  0.00000000000E+00  0.00000000000E+00 -0.89495136288E+03  0.89495136289E+03  0.50400001928E-02 0.  1.
    10030    2    1    2    0    0  0.00000000000E+00  0.00000000000E+00  0.99216515516E+03  0.27820678809E+04  0.25991363948E+04 0.  0.
        1    1    3    3  502    0 -0.20875346802E+03  0.28650470726E+03 -0.84220037246E+03  0.91376387819E+03  0.50400001928E-02 0.  1.
       -1    1    3    3    0  502  0.20875346802E+03 -0.28650470726E+03  0.18343655276E+04  0.18683040027E+04  0.50400001928E-02 0. -1.
</event>
<event>
 5   0  0.1533248E-05  0.2654649E+04  0.7818609E-02  0.8349872E-01
       -1   -1    0    0    0  501  0.00000000000E+00  0.00000000000E+00  0.10823998184E+04  0.10823998184E+04  0.50400001928E-02 0. -1.
        1   -1    0    0  501    0  0.00000000000E+00  0.00000000000E+00 -0.16276701907E+04  0.16276701907E+04  0.50400001928E-02 0.  1.
    10030    2    1    2    0    0  0.00000000000E+00  0.00000000000E+00 -0.54527037233E+03  0.27100700091E+04  0.26546486915E+04 0.  0.
        4    1    3    3  502    0  0.33626083110E+03 -0.10084415501E+03  0.10341462636E+04  0.10921085099E+04  0.12699999809E+01 0. -1.
       -4    1    3    3    0  502 -0.33626083110E+03  0.10084415501E+03 -0.15794166359E+04  0.16179614992E+04  0.12699999809E+01 0.  1.
</event>
<event>
 5   0  0.3441646E-05  0.2834543E+04  0.7818609E-02  0.8292624E-01
        2   -1    0    0  501    0  0.00000000000E+00  0.00000000000E+00  0.17269814824E+04  0.17269814824E+04  0.25500000920E-02 0. -1.
       -2   -1    0    0    0  501  0.00000000000E+00  0.00000000000E+00 -0.11631038843E+04  0.11631038843E+04  0.25500000920E-02 0.  1.
    10030    2    1    2    0    0  0.00000000000E+00  0.00000000000E+00  0.56387759803E+03  0.28900853667E+04  0.28345432579E+04 0.  0.
        4    1    3    3  502    0 -0.82461151252E+03 -0.78450202568E+02 -0.89060341937E+03  0.12162707940E+04  0.12699999809E+01 0.  1.
       -4    1    3    3    0  502  0.82461151252E+03  0.78450202568E+02  0.14544810174E+04  0.16738145727E+04  0.12699999809E+01 0. -1.
</event>
<event>
 5   0  0.1497497E-05  0.2693763E+04  0.7818609E-02  0.8337031E-01
       -1   -1    0    0    0  501  0.00000000000E+00  0.00000000000E+00  0.20941174952E+04  0.20941174953E+04  0.50400001928E-02 0.  1.
        1   -1    0    0  501    0  0.00000000000E+00  0.00000000000E+00 -0.86627913585E+03  0.86627913587E+03  0.50400001928E-02 0. -1.
    10030    2    1    2    0    0  0.00000000000E+00  0.00000000000E+00  0.12278383594E+04  0.29603966311E+04  0.26937633854E+04 0.  0.
        3    1    3    3  502    0  0.28637107616E+02  0.55368062267E+03 -0.73505922817E+03  0.92070320678E+03  0.10100000352E+00 0. -1.
       -3    1    3    3    0  502 -0.28637107616E+02 -0.55368062267E+03  0.19628975876E+04  0.20396934243E+04  0.10100000352E+00 0.  1.
</event>
<event>
 5   0  0.1474554E-05  0.1792060E+04  0.7818609E-02  0.8710533E-01
        1   -1    0    0  501    0  0.00000000000E+00  0.00000000000E+00  0.15372775582E+04  0.15372775582E+04  0.50400001928E-02 0. -1.
       -1   -1    0    0    0  501  0.00000000000E+00  0.00000000000E+00 -0.52226725772E+03  0.52226725774E+03  0.50400001928E-02 0.  1.
    10030    2    1    2    0    0  0.00000000000E+00  0.00000000000E+00  0.10150103005E+04  0.20595448159E+04  0.17920599708E+04 0.  0.
        5    1    3    3  502    0  0.10837536636E+03  0.86430674377E+03  0.74878505965E+03  0.11486829514E+04  0.46999998093E+01 0. -1.
       -5    1    3    3    0  502 -0.10837536636E+03 -0.86430674377E+03  0.26622524083E+03  0.91086186451E+03  0.46999998093E+01 0.  1.
</event>
<event>
 5   0  0.1533248E-05  0.2670483E+04  0.7818609E-02  0.8344646E-01
        1   -1    0    0  501    0  0.00000000000E+00  0.00000000000E+00  0.15056501310E+04  0.15056501310E+04  0.50400001928E-02 0. -1.
       -1   -1    0    0    0  501  0.00000000000E+00  0.00000000000E+00 -0.11841192734E+04  0.11841192734E+04  0.50400001928E-02 0.  1.
    10030    2    1    2    0    0  0.00000000000E+00  0.00000000000E+00  0.32153085760E+03  0.26897694044E+04  0.26704826074E+04 0.  0.
        4    1    3    3  502    0 -0.16673510755E+03 -0.94324716431E+02  0.14917363096E+04  0.15039868944E+04  0.12699999809E+01 0. -1.
       -4    1    3    3    0  502  0.16673510755E+03  0.94324716431E+02 -0.11702054520E+04  0.11857825100E+04  0.12699999809E+01 0.  1.
</event>
<event>
 5   0  0.3499642E-05  0.2574469E+04  0.7818609E-02  0.8376926E-01
        2   -1    0    0  501    0  0.00000000000E+00  0.00000000000E+00  0.97924867686E+03  0.97924867686E+03  0.25500000920E-02 0. -1.
       -2   -1    0    0    0  501  0.00000000000E+00  0.00000000000E+00 -0.16920852836E+04  0.16920852836E+04  0.25500000920E-02 0.  1.
    10030    2    1    2    0    0  0.00000000000E+00  0.00000000000E+00 -0.71283660675E+03  0.26713339605E+04  0.25744687025E+04 0.  0.
        2    1    3    3  502    0  0.95189172341E+03  0.53297466995E+03  0.35252543570E+03  0.11464876950E+04  0.25500000920E-02 0. -1.
       -2    1    3    3    0  502 -0.95189172341E+03 -0.53297466995E+03 -0.10653620424E+04  0.15248462655E+04  0.25500000920E-02 0.  1.
</event>
<event>
 5   0  0.3441646E-05  0.2582512E+04  0.7818609E-02  0.8374166E-01
       -2   -1    0    0    0  501  0.00000000000E+00  0.00000000000E+00  0.78603660377E+03  0.78603660378E+03  0.25500000920E-02 0. -1.
        2   -1    0    0  501    0  0.00000000000E+00  0.00000000000E+00 -0.21212010315E+04  0.21212010315E+04  0.25500000920E-02 0.  1.
    10030    2    1    2    0    0  0.00000000000E+00  0.00000000000E+00 -0.13351644277E+04  0.29072376353E+04  0.25825116880E+04 0.  0.
        4    1    3    3  502    0  0.55048816828E+03 -0.44885755845E+03 -0.18815196262E+04  0.20111260646E+04  0.12699999809E+01 0.  1.
       -4    1    3    3    0  502 -0.55048816828E+03  0.44885755845E+03  0.54635519849E+03  0.89611157063E+03  0.12699999809E+01 0. -1.
</event>
<event>
 5   0  0.3441646E-05  0.2574067E+04  0.7818609E-02  0.8377064E-01
        2   -1    0    0  501    0  0.00000000000E+00  0.00000000000E+00  0.12461271478E+04  0.12461271478E+04  0.25500000920E-02 0.  1.
       -2   -1    0    0    0  501  0.00000000000E+00  0.00000000000E+00 -0.13292824562E+04  0.13292824562E+04  0.25500000920E-02 0. -1.
    10030    2    1    2    0    0  0.00000000000E+00  0.00000000000E+00 -0.83155308384E+02  0.25754096040E+04  0.25740667868E+04 0.  0.
        4    1    3    3  502    0  0.29326583443E+02  0.67259626784E+03  0.10559027512E+04  0.12522691488E+04  0.12699999809E+01 0.  1.
       -4    1    3    3    0  502 -0.29326583443E+02 -0.67259626784E+03 -0.11390580596E+04  0.13231404552E+04  0.12699999809E+01 0. -1.
</event>
<event>
 5   0  0.1533248E-05  0.2583085E+04  0.7818609E-02  0.8373970E-01
        1   -1    0    0  501    0  0.00000000000E+00  0.00000000000E+00  0.18692722692E+04  0.18692722692E+04  0.50400001928E-02 0.  1.
       -1   -1    0    0    0  501  0.00000000000E+00  0.00000000000E+00 -0.89236969000E+03  0.89236969001E+03  0.50400001928E-02 0. -1.
    10030    2    1    2    0    0  0.00000000000E+00  0.00000000000E+00  0.97690257923E+03  0.27616419592E+04  0.25830849118E+04 0.  0.
        4    1    3    3  502    0 -0.96210629388E+03  0.19578417551E+03  0.13855618447E+04  0.16981646571E+04  0.12699999809E+01 0.  1.
       -4    1    3    3    0  502  0.96210629388E+03 -0.19578417551E+03 -0.40865926547E+03  0.10634773022E+04  0.12699999809E+01 0. -1.
</event>
<event>
 5   0  0.3499642E-05  0.2563145E+04  0.7818609E-02  0.8380829E-01
       -2   -1    0    0    0  501  0.00000000000E+00  0.00000000000E+00  0.95939548704E+03  0.95939548704E+03  0.25500000920E-02 0. -1.
        2   -1    0    0  501    0  0.00000000000E+00  0.00000000000E+00 -0.17119409999E+04  0.17119409999E+04  0.25500000920E-02 0.  1.
    10030    2    1    2    0    0  0.00000000000E+00  0.00000000000E+00 -0.75254551281E+03  0.26713364869E+04  0.25631453095E+04 0.  0.
        2    1    3    3  502    0  0.63867548973E+03  0.94861969024E+03  0.22662836602E+03  0.11658242210E+04  0.25500000920E-02 0. -1.
       -2    1    3    3    0  502 -0.63867548973E+03 -0.94861969024E+03 -0.97917387884E+03  0.15055122659E+04  0.25500000920E-02 0.  1.
</event>
<event>
 5   0  0.3441646E-05  0.2561059E+04  0.7818609E-02  0.8381550E-01
        2   -1    0    0  501    0  0.00000000000E+00  0.00000000000E+00  0.15669776175E+04  0.15669776175E+04  0.25500000920E-02 0. -1.
       -2   -1    0    0    0  501  0.00000000000E+00  0.00000000000E+00 -0.10464449657E+04  0.10464449657E+04  0.25500000920E-02 0.  1.
    10030    2    1    2    0    0  0.00000000000E+00  0.00000000000E+00  0.52053265179E+03  0.26134225833E+04  0.25610590304E+04 0.  0.
        4    1    3    3  502    0 -0.88505512946E+03  0.11904164282E+03 -0.67624563291E+03  0.11201800140E+04  0.12699999809E+01 0.  1.
       -4    1    3    3    0  502  0.88505512946E+03 -0.11904164282E+03  0.11967782847E+04  0.14932425692E+04  0.12699999809E+01 0. -1.
</event>
<event>
 5   0  0.3508470E-05  0.2552325E+04  0.7818609E-02  0.8384578E-01
        2   -1    0    0  501    0  0.00000000000E+00  0.00000000000E+00  0.17938644974E+04  0.17938644974E+04  0.25500000920E-02 0. -1.
       -2   -1    0    0    0  501  0.00000000000E+00  0.00000000000E+00 -0.90786740724E+03  0.90786740724E+03  0.25500000920E-02 0.  1.
    10030    2    1    2    0    0  0.00000000000E+00  0.00000000000E+00  0.88599709013E+03  0.27017319046E+04  0.25523253007E+04 0.  0.
        5    1    3    3  502    0  0.25557517377E+03  0.54243310270E+03 -0.74945066721E+03  0.95981807283E+03  0.46999998093E+01 0.  1.
       -5    1    3    3    0  502 -0.25557517377E+03 -0.54243310270E+03  0.16354477573E+04  0.17419138318E+04  0.46999998093E+01 0. -1.
</event>
<event>
 5   0  0.1435062E-05  0.2588448E+04  0.7818609E-02  0.8372136E-01
        1   -1    0    0  501    0  0.00000000000E+00  0.00000000000E+00  0.12744155115E+04  0.12744155115E+04  0.50400001928E-02 0.  1.
       -1   -1    0    0    0  501  0.00000000000E+00  0.00000000000E+00 -0.13143406938E+04  0.13143406938E+04  0.50400001928E-02 0. -1.
    10030    2    1    2    0    0  0.00000000000E+00  0.00000000000E+00 -0.39925182257E+02  0.25887562053E+04  0.25884483132E+04 0.  0.
        2    1    3    3  502    0  0.88293130032E+03 -0.61076228804E+03 -0.74283339772E+03  0.13055266027E+04  0.25500000920E-02 0. -1.
       -2    1    3    3    0  502 -0.88293130032E+03  0.61076228804E+03  0.70290821547E+03  0.12832296026E+04  0.25500000920E-02 0.  1.
</event>
<event>
 5   0  0.3508470E-05  0.2539462E+04  0.7818609E-02  0.8389060E-01
        2   -1    0    0  501    0  0.00000000000E+00  0.00000000000E+00  0.12531205270E+04  0.12531205270E+04  0.25500000920E-02 0.  1.
       -2   -1    0    0    0  501  0.00000000000E+00  0.00000000000E+00 -0.12865619233E+04  0.12865619233E+04  0.25500000920E-02 0. -1.
    10030    2    1    2    0    0  0.00000000000E+00  0.00000000000E+00 -0.33441396234E+02  0.25396824503E+04  0.25394622701E+04 0.  0.
        5    1    3    3  502    0  0.11682862323E+03  0.49770181324E+03  0.11456360880E+04  0.12545358338E+04  0.46999998093E+01 0.  1.
       -5    1    3    3    0  502 -0.11682862323E+03 -0.49770181324E+03 -0.11790774842E+04  0.12851466165E+04  0.46999998093E+01 0. -1.
</event>
<event>
 5   0  0.1217200E-05  0.2576039E+04  0.7818609E-02  0.8376386E-01
       -3   -1    0    0    0  501  0.00000000000E+00  0.00000000000E+00  0.12364855737E+04  0.12364855778E+04  0.10100000352E+00 0. -1.
        3   -1    0    0  501    0  0.00000000000E+00  0.00000000000E+00 -0.13417008356E+04  0.13417008394E+04  0.10100000352E+00 0.  1.
    10030    2    1    2    0    0  0.00000000000E+00  0.00000000000E+00 -0.10521526197E+03  0.25781864172E+04  0.25760386159E+04 0.  0.
        2    1    3    3  502    0  0.10164879314E+04  0.78226284184E+03  0.65010007204E+02  0.12842932568E+04  0.25500000920E-02 0. -1.
       -2    1    3    3    0  502 -0.10164879314E+04 -0.78226284184E+03 -0.17022526918E+03  0.12938931604E+04  0.25500000920E-02 0.  1.
</event>
<event>
 5   0  0.1435062E-05  0.2584986E+04  0.7818609E-02  0.8373319E-01
       -1   -1    0    0    0  501  0.00000000000E+00  0.00000000000E+00  0.87764774188E+03  0.87764774189E+03  0.50400001928E-02 0. -1.
        1   -1    0    0  501    0  0.00000000000E+00  0.00000000000E+00 -0.19034265842E+04  0.19034265842E+04  0.50400001928E-02 0.  1.
    10030    2    1    2    0    0  0.00000000000E+00  0.00000000000E+00 -0.10257788423E+04  0.27810743261E+04  0.25849859137E+04 0.  0.
        2    1    3    3  502    0  0.11107780009E+04  0.62492525531E+03 -0.74408273700E+03  0.14758111198E+04  0.25500000920E-02 0.  1.
       -2    1    3    3    0  502 -0.11107780009E+04 -0.62492525531E+03 -0.28169610535E+03  0.13052632063E+04  0.25500000920E-02 0. -1.
</event>
<event>
 5   0  0.3849687E-05  0.2641415E+04  0.7818609E-02  0.8354268E-01
       -2   -1    0    0    0  501  0.00000000000E+00  0.00000000000E+00  0.83538293354E+03  0.83538293354E+03  0.25500000920E-02 0.  1.
        2   -1    0    0  501    0  0.00000000000E+00  0.00000000000E+00 -0.20879863833E+04  0.20879863833E+04  0.25500000920E-02 0. -1.
    10030    2    1    2    0    0  0.00000000000E+00  0.00000000000E+00 -0.12526034498E+04  0.29233693169E+04  0.26414149164E+04 0.  0.
        1    1    3    3  502    0  0.71484541923E+03  0.35358499952E+03 -0.17914047620E+04  0.19609072764E+04  0.50400001928E-02 0. -1.
       -1    1    3    3    0  502 -0.71484541923E+03 -0.35358499952E+03  0.53880131222E+03  0.96246204047E+03  0.50400001928E-02 0.  1.
</event>
<event>
 5   0  0.1533248E-05  0.2586220E+04  0.7818609E-02  0.8372897E-01
       -1   -1    0    0    0  501  0.00000000000E+00  0.00000000000E+00  0.23198947874E+04  0.23198947874E+04  0.50400001928E-02 0.  1.
        1   -1    0    0  501    0  0.00000000000E+00  0.00000000000E+00 -0.72077975502E+03  0.72077975504E+03  0.50400001928E-02 0. -1.
    10030    2    1    2    0    0  0.00000000000E+00  0.00000000000E+00  0.15991150324E+04  0.30406745424E+04  0.25862197869E+04 0.  0.
        4    1    3    3  502    0 -0.52100865458E+03 -0.10102984796E+04  0.15243005460E+04  0.19014854202E+04  0.12699999809E+01 0.  1.
       -4    1    3    3    0  502  0.52100865458E+03  0.10102984796E+04  0.74814486421E+02  0.11391891222E+04  0.12699999809E+01 0. -1.
</event>
<event>
 5   0  0.3647623E-05  0.2413479E+04  0.7818609E-02  0.8434474E-01
        2   -1    0    0  501    0  0.00000000000E+00  0.00000000000E+00  0.15780921288E+04  0.15780921288E+04  0.25500000920E-02 0. -1.
       -2   -1    0    0    0  501  0.00000000000E+00  0.00000000000E+00 -0.92277272810E+03  0.92277272811E+03  0.25500000920E-02 0.  1.
    10030    2    1    2    0    0  0.00000000000E+00  0.00000000000E+00  0.65531940073E+03  0.25008648569E+04  0.24134791310E+04 0.  0.
        3    1    3    3  502    0  0.10447702629E+03 -0.56619346368E+03  0.14265916313E+04  0.15383933762E+04  0.10100000352E+00 0. -1.
       -3    1    3    3    0  502 -0.10447702629E+03  0.56619346368E+03 -0.77127223057E+03  0.96247148071E+03  0.10100000352E+00 0.  1.
</event>
<event>
 5   0  0.1474554E-05  0.2656479E+04  0.7818609E-02  0.8349266E-01
       -1   -1    0    0    0  501  0.00000000000E+00  0.00000000000E+00  0.97146086559E+03  0.97146086561E+03  0.50400001928E-02 0.  1.
        1   -1    0    0  501    0  0.00000000000E+00  0.00000000000E+00 -0.18160486433E+04  0.18160486433E+04  0.50400001928E-02 0. -1.
    10030    2    1    2    0    0  0.00000000000E+00  0.00000000000E+00 -0.84458777767E+03  0.27875095089E+04  0.26564790133E+04 0.  0.
        5    1    3    3  502    0  0.98313720952E+03 -0.69769708913E+03  0.16275351926E+03  0.12164911833E+04  0.46999998093E+01 0.  1.
       -5    1    3    3    0  502 -0.98313720952E+03  0.69769708913E+03 -0.10073412969E+04  0.15710183256E+04  0.46999998093E+01 0. -1.
</event>
<event>
 5   0  0.1497497E-05  0.2115364E+04  0.7818609E-02  0.8554505E-01
        1   -1    0    0  501    0  0.00000000000E+00  0.00000000000E+00  0.18115434101E+04  0.18115434101E+04  0.50400001928E-02 0. -1.
       -1   -1    0    0    0  501  0.00000000000E+00  0.00000000000E+00 -0.61753495024E+03  0.61753495026E+03  0.50400001928E-02 0.  1.
    10030    2    1    2    0    0  0.00000000000E+00  0.00000000000E+00  0.11940084598E+04  0.24290783604E+04  0.21153641480E+04 0.  0.
        3    1    3    3  502    0 -0.10183303984E+04  0.46629617244E+02  0.27319052841E+03  0.10553692228E+04  0.10100000352E+00 0. -1.
       -3    1    3    3    0  502  0.10183303984E+04 -0.46629617244E+02  0.92081793143E+03  0.13737091375E+04  0.10100000352E+00 0.  1.
</event>
<event>
 5   0  0.1217200E-05  0.2600075E+04  0.7818609E-02  0.8368176E-01
       -3   -1    0    0    0  501  0.00000000000E+00  0.00000000000E+00  0.13244067078E+04  0.13244067116E+04  0.10100000352E+00 0. -1.
        3   -1    0    0  501    0  0.00000000000E+00  0.00000000000E+00 -0.12761163794E+04  0.12761163834E+04  0.10100000352E+00 0.  1.
    10030    2    1    2    0    0  0.00000000000E+00  0.00000000000E+00  0.48290328377E+02  0.26005230950E+04  0.26000746935E+04 0.  0.
        5    1    3    3  502    0  0.24795650478E+03 -0.46295544005E+03 -0.11652886034E+04  0.12781743961E+04  0.46999998093E+01 0.  1.
       -5    1    3    3    0  502 -0.24795650478E+03  0.46295544005E+03  0.12135789318E+04  0.13223486988E+04  0.46999998093E+01 0. -1.
</event>
<event>
 5   0  0.3499642E-05  0.2354082E+04  0.7818609E-02  0.8456897E-01
       -2   -1    0    0    0  501  0.00000000000E+00  0.00000000000E+00  0.67299074678E+03  0.67299074678E+03  0.25500000920E-02 0. -1.
        2   -1    0    0  501    0  0.00000000000E+00  0.00000000000E+00 -0.20586099813E+04  0.20586099813E+04  0.25500000920E-02 0.  1.
    10030    2    1    2    0    0  0.00000000000E+00  0.00000000000E+00 -0.13856192345E+04  0.27316007280E+04  0.23540819600E+04 0.  0.
        2    1    3    3  502    0 -0.72114966430E+03  0.54870787258E+03  0.17884846967E+03  0.92364708784E+03  0.25500000920E-02 0. -1.
       -2    1    3    3    0  502  0.72114966430E+03 -0.54870787258E+03 -0.15644677042E+04  0.18079536402E+04  0.25500000920E-02 0.  1.
</event>
<event>
 5   0  0.3508470E-05  0.2633749E+04  0.7818609E-02  0.8356827E-01
        2   -1    0    0  501    0  0.00000000000E+00  0.00000000000E+00  0.17502186267E+04  0.17502186267E+04  0.25500000920E-02 0.  1.
       -2   -1    0    0    0  501  0.00000000000E+00  0.00000000000E+00 -0.99082409239E+03  0.99082409240E+03  0.25500000920E-02 0. -1.
    10030    2    1    2    0    0  0.00000000000E+00  0.00000000000E+00  0.75939453433E+03  0.27410427191E+04  0.26337492533E+04 0.  0.
        5    1    3    3  502    0 -0.93109582371E+03  0.42205294391E+03  0.12436154204E+04  0.16098663063E+04  0.46999998093E+01 0.  1.
       -5    1    3    3    0  502  0.93109582371E+03 -0.42205294391E+03 -0.48422088605E+03  0.11311764128E+04  0.46999998093E+01 0. -1.
</event>
<event>
 5   0  0.1533248E-05  0.2544888E+04  0.7818609E-02  0.8387166E-01
       -1   -1    0    0    0  501  0.00000000000E+00  0.00000000000E+00  0.91391863456E+03  0.91391863458E+03  0.50400001928E-02 0. -1.
        1   -1    0    0  501    0  0.00000000000E+00  0.00000000000E+00 -0.17716164427E+04  0.17716164428E+04  0.50400001928E-02 0.  1.
    10030    2    1    2    0    0  0.00000000000E+00  0.00000000000E+00 -0.85769780818E+03  0.26855350773E+04  0.25448876442E+04 0.  0.
        4    1    3    3  502    0 -0.30205453731E+03  0.87887913784E+03 -0.13460487695E+04  0.16356999680E+04  0.12699999809E+01 0.  1.
       -4    1    3    3    0  502  0.30205453731E+03 -0.87887913784E+03  0.48835096135E+03  0.10498351093E+04  0.12699999809E+01 0. -1.
</event>
<event>
 5   0  0.3441646E-05  0.2661912E+04  0.7818609E-02  0.8347470E-01
       -2   -1    0    0    0  501  0.00000000000E+00  0.00000000000E+00  0.13414805756E+04  0.13414805756E+04  0.25500000920E-02 0. -1.
        2   -1    0    0  501    0  0.00000000000E+00  0.00000000000E+00 -0.13205137064E+04  0.13205137064E+04  0.25500000920E-02 0.  1.
    10030    2    1    2    0    0  0.00000000000E+00  0.00000000000E+00  0.20966869251E+02  0.26619942820E+04  0.26619117093E+04 0.  0.
        4    1    3    3  502    0 -0.94504570966E+03 -0.63983473357E+03  0.69529807246E+03  0.13363909990E+04  0.12699999809E+01 0. -1.
       -4    1    3    3    0  502  0.94504570966E+03  0.63983473357E+03 -0.67433120320E+03  0.13256032831E+04  0.12699999809E+01 0.  1.
</event>
<event>
 5   0  0.1474554E-05  0.2664629E+04  0.7818609E-02  0.8346574E-01
       -1   -1    0    0    0  501  0.00000000000E+00  0.00000000000E+00  0.99335873953E+03  0.99335873954E+03  0.50400001928E-02 0. -1.
        1   -1    0    0  501    0  0.00000000000E+00  0.00000000000E+00 -0.17869292967E+04  0.17869292967E+04  0.50400001928E-02 0.  1.
    10030    2    1    2    0    0  0.00000000000E+00  0.00000000000E+00 -0.79357055716E+03  0.27802880362E+04  0.26646289301E+04 0.  0.
        5    1    3    3  502    0 -0.71640228513E+03  0.14805260210E+03  0.76504922410E+03  0.10585245450E+04  0.46999998093E+01 0. -1.
       -5    1    3    3    0  502  0.71640228513E+03 -0.14805260210E+03 -0.15586197813E+04  0.17217634912E+04  0.46999998093E+01 0.  1.
</event>
<event>
 5   0  0.3499642E-05  0.1880574E+04  0.7818609E-02  0.8664587E-01
        2   -1    0    0  501    0  0.00000000000E+00  0.00000000000E+00  0.11709995498E+04  0.11709995498E+04  0.25500000920E-02 0.  1.
       -2   -1    0    0    0  501  0.00000000000E+00  0.00000000000E+00 -0.75502962797E+03  0.75502962797E+03  0.25500000920E-02 0. -1.
    10030    2    1    2    0    0  0.00000000000E+00  0.00000000000E+00  0.41596992180E+03  0.19260291777E+04  0.18805736938E+04 0.  0.
        2    1    3    3  502    0 -0.14716505637E+02  0.40548243297E+02 -0.75401572711E+03  0.75524860298E+03  0.25500000920E-02 0. -1.
       -2    1    3    3    0  502  0.14716505637E+02 -0.40548243297E+02  0.11699856489E+04  0.11707805748E+04  0.25500000920E-02 0.  1.
</event>
<event>
 5   0  0.3647623E-05  0.2612420E+04  0.7818609E-02  0.8363994E-01
       -2   -1    0    0    0  501  0.00000000000E+00  0.00000000000E+00  0.74721788515E+03  0.74721788516E+03  0.25500000920E-02 0.  1.
        2   -1    0    0  501    0  0.00000000000E+00  0.00000000000E+00 -0.22833837381E+04  0.22833837381E+04  0.25500000920E-02 0. -1.
    10030    2    1    2    0    0  0.00000000000E+00  0.00000000000E+00 -0.15361658530E+04  0.30306016233E+04  0.26124204622E+04 0.  0.
        3    1    3    3  502    0 -0.40231270608E+03 -0.42459780580E+03  0.58679553308E+03  0.82853353463E+03  0.10100000352E+00 0.  1.
       -3    1    3    3    0  502  0.40231270608E+03  0.42459780580E+03 -0.21229613860E+04  0.22020680886E+04  0.10100000352E+00 0. -1.
</event>
<event>
 5   0  0.1435062E-05  0.2601123E+04  0.7818609E-02  0.8367820E-01
       -1   -1    0    0    0  501  0.00000000000E+00  0.00000000000E+00  0.10000473382E+04  0.10000473382E+04  0.50400001928E-02 0. -1.
        1   -1    0    0  501    0  0.00000000000E+00  0.00000000000E+00 -0.16913803202E+04  0.16913803202E+04  0.50400001928E-02 0.  1.
    10030    2    1    2    0    0  0.00000000000E+00  0.00000000000E+00 -0.69133298199E+03  0.26914276584E+04  0.26011231321E+04 0.  0.
        2    1    3    3  502    0  0.12784221547E+04 -0.22482595280E+03 -0.42941134049E+03  0.13672249318E+04  0.25500000920E-02 0.  1.
       -2    1    3    3    0  502 -0.12784221547E+04  0.22482595280E+03 -0.26192164150E+03  0.13242027266E+04  0.25500000920E-02 0. -1.
</event>
<event>
 5   0  0.1474554E-05  0.2580423E+04  0.7818609E-02  0.8374881E-01
       -1   -1    0    0    0  501  0.00000000000E+00  0.00000000000E+00  0.12114661253E+04  0.12114661253E+04  0.50400001928E-02 0. -1.
        1   -1    0    0  501    0  0.00000000000E+00  0.00000000000E+00 -0.13740756427E+04  0.13740756428E+04  0.50400001928E-02 0.  1.
    10030    2    1    2    0    0  0.00000000000E+00  0.00000000000E+00 -0.16260951745E+03  0.25855417681E+04  0.25804232946E+04 0.  0.
        5    1    3    3  502    0  0.16890474800E+03  0.11689154639E+04  0.43908255778E+03  0.12600427605E+04  0.46999998093E+01 0.  1.
       -5    1    3    3    0  502 -0.16890474800E+03 -0.11689154639E+04 -0.60169207523E+03  0.13254990076E+04  0.46999998093E+01 0. -1.
</event>
<event>
 5   0  0.3647623E-05  0.2600505E+04  0.7818609E-02  0.8368030E-01
        2   -1    0    0  501    0  0.00000000000E+00  0.00000000000E+00  0.12145381066E+04  0.12145381066E+04  0.25500000920E-02 0.  1.
       -2   -1    0    0    0  501  0.00000000000E+00  0.00000000000E+00 -0.13920162019E+04  0.13920162019E+04  0.25500000920E-02 0. -1.
    10030    2    1    2    0    0  0.00000000000E+00  0.00000000000E+00 -0.17747809535E+03  0.26065543085E+04  0.26005051218E+04 0.  0.
        3    1    3    3  502    0  0.56535129646E+03 -0.60016174986E+03  0.91900532334E+03  0.12346606857E+04  0.10100000352E+00 0.  1.
       -3    1    3    3    0  502 -0.56535129646E+03  0.60016174986E+03 -0.10964834187E+04  0.13718936227E+04  0.10100000352E+00 0. -1.
</event>
<event>
 5   0  0.3647623E-05  0.2783053E+04  0.7818609E-02  0.8308549E-01
       -2   -1    0    0    0  501  0.00000000000E+00  0.00000000000E+00  0.10549970442E+04  0.10549970442E+04  0.25500000920E-02 0. -1.
        2   -1    0    0  501    0  0.00000000000E+00  0.00000000000E+00 -0.18354041863E+04  0.18354041863E+04  0.25500000920E-02 0.  1.
    10030    2    1    2    0    0  0.00000000000E+00  0.00000000000E+00 -0.78040714216E+03  0.28904012305E+04  0.27830529937E+04 0.  0.
        3    1    3    3  502    0 -0.35203407144E+03 -0.10815299068E+04  0.44241202630E+03  0.12203947468E+04  0.10100000352E+00 0. -1.
       -3    1    3    3    0  502  0.35203407144E+03  0.10815299068E+04 -0.12228191685E+04  0.16700064837E+04  0.10100000352E+00 0.  1.
</event>
<event>
 5   0  0.3499642E-05  0.2568287E+04  0.7818609E-02  0.8379054E-01
       -2   -1    0    0    0  501  0.00000000000E+00  0.00000000000E+00  0.17184481987E+04  0.17184481987E+04  0.25500000920E-02 0. -1.
        2   -1    0    0  501    0  0.00000000000E+00  0.00000000000E+00 -0.95960070567E+03  0.95960070568E+03  0.25500000920E-02 0.  1.
    10030    2    1    2    0    0  0.00000000000E+00  0.00000000000E+00  0.75884749306E+03  0.26780489044E+04  0.25682866695E+04 0.  0.
        2    1    3    3  502    0  0.96719248365E+02 -0.52698464815E+02 -0.95466606396E+03  0.96099897756E+03  0.25500000920E-02 0.  1.
       -2    1    3    3    0  502 -0.96719248365E+02  0.52698464815E+02  0.17135135570E+04  0.17170499269E+04  0.25500000920E-02 0. -1.
</event>
<event>
 5   0  0.1451052E-05  0.2361008E+04  0.7818609E-02  0.8454248E-01
        1   -1    0    0  501    0  0.00000000000E+00  0.00000000000E+00  0.26315232798E+04  0.26315232798E+04  0.50400001928E-02 0.  1.
       -1   -1    0    0    0  501  0.00000000000E+00  0.00000000000E+00 -0.52957516137E+03  0.52957516140E+03  0.50400001928E-02 0. -1.
    10030    2    1    2    0    0  0.00000000000E+00  0.00000000000E+00  0.21019481185E+04  0.31610984412E+04  0.23610077218E+04 0.  0.
        1    1    3    3  502    0 -0.68213194020E+03 -0.86690846435E+03  0.16138680149E+04  0.19548412311E+04  0.50400001928E-02 0.  1.
       -1    1    3    3    0  502  0.68213194020E+03  0.86690846435E+03  0.48808010355E+03  0.12062572101E+04  0.50400001928E-02 0. -1.
</event>
<event>
 5   0  0.3441646E-05  0.1744888E+04  0.7818609E-02  0.8736169E-01
        2   -1    0    0  501    0  0.00000000000E+00  0.00000000000E+00  0.88226276782E+03  0.88226276782E+03  0.25500000920E-02 0.  1.
       -2   -1    0    0    0  501  0.00000000000E+00  0.00000000000E+00 -0.86273494073E+03  0.86273494073E+03  0.25500000920E-02 0. -1.
    10030    2    1    2    0    0  0.00000000000E+00  0.00000000000E+00  0.19527827086E+02  0.17449977086E+04  0.17448884397E+04 0.  0.
        4    1    3    3  502    0  0.81457120054E+03 -0.11732998600E+03  0.29937613940E+03  0.87573983129E+03  0.12699999809E+01 0.  1.
       -4    1    3    3    0  502 -0.81457120054E+03  0.11732998600E+03 -0.27984831232E+03  0.86925787726E+03  0.12699999809E+01 0. -1.
</event>
<event>
 5   0  0.3647623E-05  0.2592299E+04  0.7818609E-02  0.8370822E-01
       -2   -1    0    0    0  501  0.00000000000E+00  0.00000000000E+00  0.85525839086E+03  0.85525839086E+03  0.25500000920E-02 0. -1.
        2   -1    0    0  501    0  0.00000000000E+00  0.00000000000E+00 -0.19643223724E+04  0.19643223724E+04  0.25500000920E-02 0.  1.
    10030    2    1    2    0    0  0.00000000000E+00  0.00000000000E+00 -0.11090639816E+04  0.28195807633E+04  0.25922987416E+04 0.  0.
        3    1    3    3  502    0 -0.26262827250E+03  0.10882599886E+04 -0.12650430979E+04  0.16892653616E+04  0.10100000352E+00 0.  1.
       -3    1    3    3    0  502  0.26262827250E+03 -0.10882599886E+04  0.15597911630E+03  0.11303154017E+04  0.10100000352E+00 0. -1.
</event>
<event>
 5   0  0.1435062E-05  0.2625418E+04  0.7818609E-02  0.8359618E-01
        1   -1    0    0  501    0  0.00000000000E+00  0.00000000000E+00  0.24405593702E+04  0.24405593702E+04  0.50400001928E-02 0. -1.
       -1   -1    0    0    0  501  0.00000000000E+00  0.00000000000E+00 -0.70606978144E+03  0.70606978146E+03  0.50400001928E-02 0.  1.
    10030    2    1    2    0    0  0.00000000000E+00  0.00000000000E+00  0.17344895887E+04  0.31466291516E+04  0.26254182304E+04 0.  0.
        2    1    3    3  502    0 -0.55300845542E+03  0.84336589587E+03 -0.13988763027E+03  0.10181615467E+04  0.25500000920E-02 0.  1.
       -2    1    3    3    0  502  0.55300845542E+03 -0.84336589587E+03  0.18743772190E+04  0.21284676049E+04  0.25500000920E-02 0. -1.
</event>
<event>
 5   0  0.1451052E-05  0.2622099E+04  0.7818609E-02  0.8360733E-01
       -1   -1    0    0    0  501  0.00000000000E+00  0.00000000000E+00  0.11428709425E+04  0.11428709425E+04  0.50400001928E-02 0. -1.
        1   -1    0    0  501    0  0.00000000000E+00  0.00000000000E+00 -0.15039764828E+04  0.15039764828E+04  0.50400001928E-02 0.  1.
    10030    2    1    2    0    0  0.00000000000E+00  0.00000000000E+00 -0.36110554026E+03  0.26468474254E+04  0.26220991747E+04 0.  0.
        1    1    3    3  502    0  0.84530394959E+03 -0.15831084585E+03 -0.11794632471E+04  0.14597036146E+04  0.50400001928E-02 0.  1.
       -1    1    3    3    0  502 -0.84530394959E+03  0.15831084585E+03  0.81835770684E+03  0.11871438108E+04  0.50400001928E-02 0. -1.
</event>
<event>
 5   0  0.3849687E-05  0.2877004E+04  0.7818609E-02  0.8279752E-01
        2   -1    0    0  501    0  0.00000000000E+00  0.00000000000E+00  0.10574614061E+04  0.10574614061E+04  0.25500000920E-02 0. -1.
       -2   -1    0    0    0  501  0.00000000000E+00  0.00000000000E+00 -0.19568455662E+04  0.19568455662E+04  0.25500000920E-02 0.  1.
    10030    2    1    2    0    0  0.00000000000E+00  0.00000000000E+00 -0.89938416013E+03  0.30143069723E+04  0.28770044588E+04 0.  0.
        1    1    3    3  502    0  0.37674169134E+03  0.19722738100E+03  0.99010187685E+03  0.10775595892E+04  0.50400001928E-02 0. -1.
       -1    1    3    3    0  502 -0.37674169134E+03 -0.19722738100E+03 -0.18894860370E+04  0.19367473831E+04  0.50400001928E-02 0.  1.
</event>
<event>
 5   0  0.1474554E-05  0.1616447E+04  0.7818609E-02  0.8810507E-01
        1   -1    0    0  501    0  0.00000000000E+00  0.00000000000E+00  0.21430897926E+04  0.21430897926E+04  0.50400001928E-02 0.  1.
       -1   -1    0    0    0  501  0.00000000000E+00  0.00000000000E+00 -0.30480532352E+03  0.30480532356E+03  0.50400001928E-02 0. -1.
    10030    2    1    2    0    0  0.00000000000E+00  0.00000000000E+00  0.18382844691E+04  0.24478951162E+04  0.16164469402E+04 0.  0.
        5    1    3    3  502    0  0.58921542517E+03 -0.53013756812E+03  0.11585006412E+04  0.14036974333E+04  0.46999998093E+01 0.  1.
       -5    1    3    3    0  502 -0.58921542517E+03  0.53013756812E+03  0.67978382784E+03  0.10441976829E+04  0.46999998093E+01 0. -1.
</event>
<event>
 5   0  0.1451052E-05  0.2592888E+04  0.7818609E-02  0.8370621E-01
       -1   -1    0    0    0  501  0.00000000000E+00  0.00000000000E+00  0.82297562488E+03  0.82297562490E+03  0.50400001928E-02 0. -1.
        1   -1    0    0  501    0  0.00000000000E+00  0.00000000000E+00 -0.20423048062E+04  0.20423048062E+04  0.50400001928E-02 0.  1.
    10030    2    1    2    0    0  0.00000000000E+00  0.00000000000E+00 -0.12193291813E+04  0.28652804311E+04  0.25928880224E+04 0.  0.
        1    1    3    3  502    0 -0.11017583293E+04 -0.48701528209E+02 -0.13628247977E+04  0.17531499321E+04  0.50400001928E-02 0.  1.
       -1    1    3    3    0  502  0.11017583293E+04  0.48701528209E+02  0.14349561640E+03  0.11121304991E+04  0.50400001928E-02 0. -1.
</event>
<event>
 5   0  0.3647623E-05  0.2780021E+04  0.7818609E-02  0.8309498E-01
       -2   -1    0    0    0  501  0.00000000000E+00  0.00000000000E+00  0.19302081963E+04  0.19302081963E+04  0.25500000920E-02 0. -1.
        2   -1    0    0  501    0  0.00000000000E+00  0.00000000000E+00 -0.10009951942E+04  0.10009951942E+04  0.25500000920E-02 0.  1.
    10030    2    1    2    0    0  0.00000000000E+00  0.00000000000E+00  0.92921300216E+03  0.29312033905E+04  0.27800209555E+04 0.  0.
        3    1    3    3  502    0  0.99716735387E+03  0.93366900579E+03  0.73558173987E+03  0.15515028360E+04  0.10100000352E+00 0. -1.
       -3    1    3    3    0  502 -0.99716735387E+03 -0.93366900579E+03  0.19363126229E+03  0.13797005544E+04  0.10100000352E+00 0.  1.
</event>
<event>
 5   0  0.1451052E-05  0.2799935E+04  0.7818609E-02  0.8303289E-01
       -1   -1    0    0    0  501  0.00000000000E+00  0.00000000000E+00  0.20279185729E+04  0.20279185729E+04  0.50400001928E-02 0.  1.
        1   -1    0    0  501    0  0.00000000000E+00  0.00000000000E+00 -0.96646308018E+03  0.96646308019E+03  0.50400001928E-02 0. -1.
    10030    2    1    2    0    0  0.00000000000E+00  0.00000000000E+00  0.10614554927E+04  0.29943816531E+04  0.27999345923E+04 0.  0.
        1    1    3    3  502    0 -0.86355109744E+03 -0.42690699352E+02 -0.64681326121E+03  0.10797733043E+04  0.50400001928E-02 0. -1.
       -1    1    3    3    0  502  0.86355109744E+03  0.42690699352E+02  0.17082687539E+04  0.19146083488E+04  0.50400001928E-02 0.  1.
</event>
<event>
 5   0  0.1451052E-05  0.2686005E+04  0.7818609E-02  0.8339560E-01
        1   -1    0    0  501    0  0.00000000000E+00  0.00000000000E+00  0.70838912755E+03  0.70838912756E+03  0.50400001928E-02 0. -1.
       -1   -1    0    0    0  501  0.00000000000E+00  0.00000000000E+00 -0.25461360543E+04  0.25461360543E+04  0.50400001928E-02 0.  1.
    10030    2    1    2    0    0  0.00000000000E+00  0.00000000000E+00 -0.18377469267E+04  0.32545251819E+04  0.26860045407E+04 0.  0.
        1    1    3    3  502    0  0.54200114039E+02  0.13075350716E+04 -0.55322198995E+03  0.14207885789E+04  0.50400001928E-02 0. -1.
       -1    1    3    3    0  502 -0.54200114039E+02 -0.13075350716E+04 -0.12845249368E+04  0.18337366030E+04  0.50400001928E-02 0.  1.
</event>
<event>
 5   0  0.1435062E-05  0.2665261E+04  0.7818609E-02  0.8346365E-01
        1   -1    0    0  501    0  0.00000000000E+00  0.00000000000E+00  0.16201057611E+04  0.16201057611E+04  0.50400001928E-02 0.  1.
       -1   -1    0    0    0  501  0.00000000000E+00  0.00000000000E+00 -0.10961654283E+04  0.10961654283E+04  0.50400001928E-02 0. -1.
    10030    2    1    2    0    0  0.00000000000E+00  0.00000000000E+00  0.52394033281E+03  0.27162711894E+04  0.26652609069E+04 0.  0.
        2    1    3    3  502    0 -0.40938867517E+03 -0.21816398420E+03 -0.10112233228E+04  0.11125498730E+04  0.25500000920E-02 0. -1.
       -2    1    3    3    0  502  0.40938867517E+03  0.21816398420E+03  0.15351636556E+04  0.16037213164E+04  0.25500000920E-02 0.  1.
</event>
<event>
 5   0  0.3849687E-05  0.2621711E+04  0.7818609E-02  0.8360864E-01
        2   -1    0    0  501    0  0.00000000000E+00  0.00000000000E+00  0.23549049932E+04  0.23549049932E+04  0.25500000920E-02 0. -1.
       -2   -1    0    0    0  501  0.00000000000E+00  0.00000000000E+00 -0.72968658735E+03  0.72968658735E+03  0.25500000920E-02 0.  1.
    10030    2    1    2    0    0  0.00000000000E+00  0.00000000000E+00  0.16252184059E+04  0.30845915806E+04  0.26217113404E+04 0.  0.
        1    1    3    3  502    0 -0.90194508640E+03 -0.46588053095E+03  0.17883661807E+04  0.20564054085E+04  0.50400001928E-02 0. -1.
       -1    1    3    3    0  502  0.90194508640E+03  0.46588053095E+03 -0.16314777478E+03  0.10281861721E+04  0.50400001928E-02 0.  1.
</event>
<event>
 5   0  0.1217200E-05  0.2627829E+04  0.7818609E-02  0.8358809E-01
        3   -1    0    0  501    0  0.00000000000E+00  0.00000000000E+00  0.17818371427E+04  0.17818371456E+04  0.10100000352E+00 0.  1.
       -3   -1    0    0    0  501  0.00000000000E+00  0.00000000000E+00 -0.96887141993E+03  0.96887142520E+03  0.10100000352E+00 0. -1.
    10030    2    1    2    0    0  0.00000000000E+00  0.00000000000E+00  0.81296572278E+03  0.27507085708E+04  0.26278288329E+04 0.  0.
        3    1    3    3  502    0 -0.30386684858E+03  0.80900458646E+03  0.14424841124E+04  0.16815421218E+04  0.10100000352E+00 0.  1.
       -3    1    3    3    0  502  0.30386684858E+03 -0.80900458646E+03 -0.62951838962E+03  0.10691664490E+04  0.10100000352E+00 0. -1.
</event>
<event>
 5   0  0.3647623E-05  0.2580640E+04  0.7818609E-02  0.8374807E-01
        2   -1    0    0  501    0  0.00000000000E+00  0.00000000000E+00  0.23349450223E+04  0.23349450223E+04  0.25500000920E-02 0.  1.
       -2   -1    0    0    0  501  0.00000000000E+00  0.00000000000E+00 -0.71304695100E+03  0.71304695100E+03  0.25500000920E-02 0. -1.
    10030    2    1    2    0    0  0.00000000000E+00  0.00000000000E+00  0.16218980713E+04  0.30479919733E+04  0.25806397881E+04 0.  0.
        3    1    3    3  502    0  0.21762147937E+02  0.12767951918E+04  0.59237905935E+03  0.14076904891E+04  0.10100000352E+00 0.  1.
       -3    1    3    3    0  502 -0.21762147937E+02 -0.12767951918E+04  0.10295190120E+04  0.16403014842E+04  0.10100000352E+00 0. -1.
</event>
<event>
 5   0  0.3499642E-05  0.1659592E+04  0.7818609E-02  0.8784752E-01
        2   -1    0    0  501    0  0.00000000000E+00  0.00000000000E+00  0.23843780294E+04  0.23843780294E+04  0.25500000920E-02 0.  1.
       -2   -1    0    0    0  501  0.00000000000E+00  0.00000000000E+00 -0.28878032376E+03  0.28878032378E+03  0.25500000920E-02 0. -1.
    10030    2    1    2    0    0  0.00000000000E+00  0.00000000000E+00  0.20955977057E+04  0.26731583532E+04  0.16595920696E+04 0.  0.
        2    1    3    3  502    0  0.64419689599E+03 -0.22202073811E+03  0.18106104090E+04  0.19345782234E+04  0.25500000920E-02 0.  1.
       -2    1    3    3    0  502 -0.64419689599E+03  0.22202073811E+03  0.28498729661E+03  0.73858012984E+03  0.25500000920E-02 0. -1.
</event>
<event>
 5   0  0.3441646E-05  0.2564045E+04  0.7818609E-02  0.8380518E-01
       -2   -1    0    0    0  501  0.00000000000E+00  0.00000000000E+00  0.21897733505E+04  0.21897733505E+04  0.25500000920E-02 0.  1.
        2   -1    0    0  501    0  0.00000000000E+00  0.00000000000E+00 -0.75057149831E+03  0.75057149831E+03  0.25500000920E-02 0. -1.
    10030    2    1    2    0    0  0.00000000000E+00  0.00000000000E+00  0.14392018522E+04  0.29403448489E+04  0.25640448239E+04 0.  0.
        4    1    3    3  502    0 -0.92306835903E+03  0.58382966167E+03  0.14894415324E+04  0.18469840174E+04  0.12699999809E+01 0.  1.
       -4    1    3    3    0  502  0.92306835903E+03 -0.58382966167E+03 -0.50239680201E+02  0.10933608314E+04  0.12699999809E+01 0. -1.
</event>
<event>
 5   0  0.3647623E-05  0.2361753E+04  0.7818609E-02  0.8453963E-01
       -2   -1    0    0    0  501  0.00000000000E+00  0.00000000000E+00  0.93304633044E+03  0.93304633044E+03  0.25500000920E-02 0. -1.
        2   -1    0    0  501    0  0.00000000000E+00  0.00000000000E+00 -0.14945341959E+04  0.14945341959E+04  0.25500000920E-02 0.  1.
    10030    2    1    2    0    0  0.00000000000E+00  0.00000000000E+00 -0.56148786549E+03  0.24275805264E+04  0.23617532871E+04 0.  0.
        3    1    3    3  502    0  0.10790882048E+04  0.37981162360E+03 -0.58179191226E+03  0.12834212334E+04  0.10100000352E+00 0.  1.
       -3    1    3    3    0  502 -0.10790882048E+04 -0.37981162360E+03  0.20304046770E+02  0.11441592929E+04  0.10100000352E+00 0. -1.
</event>
<event>
 5   0  0.1451052E-05  0.2608425E+04  0.7818609E-02  0.8365345E-01
       -1   -1    0    0    0  501  0.00000000000E+00  0.00000000000E+00  0.16414678576E+04  0.16414678577E+04  0.50400001928E-02 0.  1.
        1   -1    0    0  501    0  0.00000000000E+00  0.00000000000E+00 -0.10362491858E+04  0.10362491858E+04  0.50400001928E-02 0. -1.
    10030    2    1    2    0    0  0.00000000000E+00  0.00000000000E+00  0.60521867188E+03  0.26777170434E+04  0.26084246058E+04 0.  0.
        1    1    3    3  502    0 -0.37076804414E+03  0.83658087276E+03  0.12566152503E+04  0.15544833182E+04  0.50400001928E-02 0.  1.
       -1    1    3    3    0  502  0.37076804414E+03 -0.83658087276E+03 -0.65139657839E+03  0.11232337253E+04  0.50400001928E-02 0. -1.
</event>
<event>
 5   0  0.1217200E-05  0.2541652E+04  0.7818609E-02  0.8388295E-01
        3   -1    0    0  501    0  0.00000000000E+00  0.00000000000E+00  0.92587701774E+03  0.92587702325E+03  0.10100000352E+00 0. -1.
       -3   -1    0    0    0  501  0.00000000000E+00  0.00000000000E+00 -0.17442910475E+04  0.17442910504E+04  0.10100000352E+00 0.  1.
    10030    2    1    2    0    0  0.00000000000E+00  0.00000000000E+00 -0.81841402973E+03  0.26701680736E+04  0.25416522220E+04 0.  0.
        1    1    3    3  502    0 -0.76105416966E+03  0.53182177647E+03 -0.13208163400E+04  0.16144948607E+04  0.50400001928E-02 0.  1.
       -1    1    3    3    0  502  0.76105416966E+03 -0.53182177647E+03  0.50240231031E+03  0.10556732129E+04  0.50400001928E-02 0. -1.
</event>
<event>
 5   0  0.3441646E-05  0.2619398E+04  0.7818609E-02  0.8361642E-01
        2   -1    0    0  501    0  0.00000000000E+00  0.00000000000E+00  0.19290975050E+04  0.19290975050E+04  0.25500000920E-02 0. -1.
       -2   -1    0    0    0  501  0.00000000000E+00  0.00000000000E+00 -0.88917834449E+03  0.88917834450E+03  0.25500000920E-02 0.  1.
    10030    2    1    2    0    0  0.00000000000E+00  0.00000000000E+00  0.10399191605E+04  0.28182758495E+04  0.26193981949E+04 0.  0.
        4    1    3    3  502    0 -0.10483817191E+04 -0.21740117181E+03 -0.29159214866E+03  0.11096824287E+04  0.12699999809E+01 0.  1.
       -4    1    3    3    0  502  0.10483817191E+04  0.21740117181E+03  0.13315113092E+04  0.17085934208E+04  0.12699999809E+01 0. -1.
</event>
<event>
 5   0  0.3499642E-05  0.2576743E+04  0.7818609E-02  0.8376144E-01
       -2   -1    0    0    0  501  0.00000000000E+00  0.00000000000E+00  0.11336421151E+04  0.11336421151E+04  0.25500000920E-02 0.  1.
        2   -1    0    0  501    0  0.00000000000E+00  0.00000000000E+00 -0.14642202206E+04  0.14642202206E+04  0.25500000920E-02 0. -1.
    10030    2    1    2    0    0  0.00000000000E+00  0.00000000000E+00 -0.33057810544E+03  0.25978623357E+04  0.25767434547E+04 0.  0.
        2    1    3    3  502    0  0.94438114508E+03  0.59657102780E+03  0.48196095023E+03  0.12165685743E+04  0.25500000920E-02 0.  1.
       -2    1    3    3    0  502 -0.94438114508E+03 -0.59657102780E+03 -0.81253905567E+03  0.13812937614E+04  0.25500000920E-02 0. -1.
</event>
<event>
 5   0  0.1435062E-05  0.2581591E+04  0.7818609E-02  0.8374481E-01
        1   -1    0    0  501    0  0.00000000000E+00  0.00000000000E+00  0.13923783972E+04  0.13923783972E+04  0.50400001928E-02 0. -1.
       -1   -1    0    0    0  501  0.00000000000E+00  0.00000000000E+00 -0.11966241532E+04  0.11966241532E+04  0.50400001928E-02 0.  1.
    10030    2    1    2    0    0  0.00000000000E+00  0.00000000000E+00  0.19575424397E+03  0.25890025505E+04  0.25815914631E+04 0.  0.
        2    1    3    3  502    0 -0.49537535845E+03  0.11896163401E+04  0.23031525590E+02  0.12888422066E+04  0.25500000920E-02 0. -1.
       -2    1    3    3    0  502  0.49537535845E+03 -0.11896163401E+04  0.17272271838E+03  0.13001603439E+04  0.25500000920E-02 0.  1.
</event>
<event>
 5   0  0.1435062E-05  0.2597269E+04  0.7818609E-02  0.8369129E-01
       -1   -1    0    0    0  501  0.00000000000E+00  0.00000000000E+00  0.18008876219E+04  0.18008876219E+04  0.50400001928E-02 0.  1.
        1   -1    0    0  501    0  0.00000000000E+00  0.00000000000E+00 -0.93645596651E+03  0.93645596653E+03  0.50400001928E-02 0. -1.
    10030    2    1    2    0    0  0.00000000000E+00  0.00000000000E+00  0.86443165541E+03  0.27373435885E+04  0.25972693034E+04 0.  0.
        2    1    3    3  502    0 -0.62873597790E+03 -0.44078566095E+03  0.15360050622E+04  0.17172397852E+04  0.25500000920E-02 0.  1.
       -2    1    3    3    0  502  0.62873597790E+03  0.44078566095E+03 -0.67157340675E+03  0.10201038033E+04  0.25500000920E-02 0. -1.
</event>
<event>
 5   0  0.3849687E-05  0.2600652E+04  0.7818609E-02  0.8367980E-01
       -2   -1    0    0    0  501  0.00000000000E+00  0.00000000000E+00  0.87841985943E+03  0.87841985943E+03  0.25500000920E-02 0.  1.
        2   -1    0    0  501    0  0.00000000000E+00  0.00000000000E+00 -0.19248746939E+04  0.19248746939E+04  0.25500000920E-02 0. -1.
    10030    2    1    2    0    0  0.00000000000E+00  0.00000000000E+00 -0.10464548345E+04  0.28032945533E+04  0.26006523474E+04 0.  0.
        1    1    3    3  502    0  0.47630556755E+03  0.11334416004E+04 -0.66805968843E+02  0.12312675958E+04  0.50400001928E-02 0.  1.
       -1    1    3    3    0  502 -0.47630556755E+03 -0.11334416004E+04 -0.97964886561E+03  0.15720269575E+04  0.50400001928E-02 0. -1.
</event>
<event>
 5   0  0.1451052E-05  0.1733884E+04  0.7818609E-02  0.8742271E-01
        1   -1    0    0  501    0  0.00000000000E+00  0.00000000000E+00  0.14694733161E+04  0.14694733161E+04  0.50400001928E-02 0. -1.
       -1   -1    0    0    0  501  0.00000000000E+00  0.00000000000E+00 -0.51146811958E+03  0.51146811960E+03  0.50400001928E-02 0.  1.
    10030    2    1    2    0    0  0.00000000000E+00  0.00000000000E+00  0.95800519656E+03  0.19809414357E+04  0.17338843719E+04 0.  0.
        1    1    3    3  502    0  0.24651352957E+03 -0.35630644243E+03 -0.37890257361E+03  0.57557828441E+03  0.50400001928E-02 0.  1.
       -1    1    3    3    0  502 -0.24651352957E+03  0.35630644243E+03  0.13369077702E+04  0.14053631513E+04  0.50400001928E-02 0. -1.
</event>
<event>
 5   0  0.1474554E-05  0.2596079E+04  0.7818609E-02  0.8369534E-01
       -1   -1    0    0    0  501  0.00000000000E+00  0.00000000000E+00  0.18324765349E+04  0.18324765349E+04  0.50400001928E-02 0.  1.
        1   -1    0    0  501    0  0.00000000000E+00  0.00000000000E+00 -0.91946957830E+03  0.91946957832E+03  0.50400001928E-02 0. -1.
    10030    2    1    2    0    0  0.00000000000E+00  0.00000000000E+00  0.91300695655E+03  0.27519461132E+04  0.25960789100E+04 0.  0.
        5    1    3    3  502    0 -0.24074210227E+03 -0.73756218096E+03 -0.64661497593E+03  0.10099939345E+04  0.46999998093E+01 0. -1.
       -5    1    3    3    0  502  0.24074210227E+03  0.73756218096E+03  0.15596219325E+04  0.17419521787E+04  0.46999998093E+01 0.  1.
</event>
<event>
 5   0  0.1451052E-05  0.2294438E+04  0.7818609E-02  0.8480117E-01
       -1   -1    0    0    0  501  0.00000000000E+00  0.00000000000E+00  0.87417046260E+03  0.87417046261E+03  0.50400001928E-02 0.  1.
        1   -1    0    0  501    0  0.00000000000E+00  0.00000000000E+00 -0.15055553131E+04  0.15055553131E+04  0.50400001928E-02 0. -1.
    10030    2    1    2    0    0  0.00000000000E+00  0.00000000000E+00 -0.63138485052E+03  0.23797257757E+04  0.22944384799E+04 0.  0.
        1    1    3    3  502    0  0.75558826188E+03 -0.29805734641E+03  0.52458289915E+03  0.96692244847E+03  0.50400001928E-02 0.  1.
       -1    1    3    3    0  502 -0.75558826188E+03  0.29805734641E+03 -0.11559677497E+04  0.14128033273E+04  0.50400001928E-02 0. -1.
</event>
<event>
 5   0  0.1497497E-05  0.2497107E+04  0.7818609E-02  0.8404017E-01
        1   -1    0    0  501    0  0.00000000000E+00  0.00000000000E+00  0.91582474149E+03  0.91582474150E+03  0.50400001928E-02 0. -1.
       -1   -1    0    0    0  501  0.00000000000E+00  0.00000000000E+00 -0.17021663746E+04  0.17021663746E+04  0.50400001928E-02 0.  1.
    10030    2    1    2    0    0  0.00000000000E+00  0.00000000000E+00 -0.78634163313E+03  0.26179911161E+04  0.24971071904E+04 0.  0.
        3    1    3    3  502    0  0.44920424013E+03  0.11282907542E+04 -0.89201466591E+02  0.12176951126E+04  0.10100000352E+00 0.  1.
       -3    1    3    3    0  502 -0.44920424013E+03 -0.11282907542E+04 -0.69714016654E+03  0.14002960035E+04  0.10100000352E+00 0. -1.
</event>
<event>
 5   0  0.3647623E-05  0.1761901E+04  0.7818609E-02  0.8726826E-01
       -2   -1    0    0    0  501  0.00000000000E+00  0.00000000000E+00  0.34639442290E+03  0.34639442291E+03  0.25500000920E-02 0. -1.
        2   -1    0    0  501    0  0.00000000000E+00  0.00000000000E+00 -0.22404350170E+04  0.22404350170E+04  0.25500000920E-02 0.  1.
    10030    2    1    2    0    0  0.00000000000E+00  0.00000000000E+00 -0.18940405941E+04  0.25868294399E+04  0.17619014669E+04 0.  0.
        3    1    3    3  502    0 -0.26778916377E+03  0.30166608508E+03 -0.20968781571E+04  0.21353246777E+04  0.10100000352E+00 0.  1.
       -3    1    3    3    0  502  0.26778916377E+03 -0.30166608508E+03  0.20283756304E+03  0.45150476221E+03  0.10100000352E+00 0. -1.
</event>
<event>
 5   0  0.3849687E-05  0.2652934E+04  0.7818609E-02  0.8350440E-01
       -2   -1    0    0    0  501  0.00000000000E+00  0.00000000000E+00  0.18327331268E+04  0.18327331268E+04  0.25500000920E-02 0.  1.
        2   -1    0    0  501    0  0.00000000000E+00  0.00000000000E+00 -0.96004937222E+03  0.96004937222E+03  0.25500000920E-02 0. -1.
    10030    2    1    2    0    0  0.00000000000E+00  0.00000000000E+00  0.87268375461E+03  0.27927824991E+04  0.26529336877E+04 0.  0.
        1    1    3    3  502    0 -0.13160467209E+04 -0.16536053541E+03  0.45089866568E+03  0.14009399291E+04  0.50400001928E-02 0.  1.
       -1    1    3    3    0  502  0.13160467209E+04  0.16536053541E+03  0.42178508893E+03  0.13918425699E+04  0.50400001928E-02 0. -1.
</event>
<event>
 5   0  0.1217200E-05  0.2610782E+04  0.7818609E-02  0.8364548E-01
        3   -1    0    0  501    0  0.00000000000E+00  0.00000000000E+00  0.12690111209E+04  0.12690111249E+04  0.10100000352E+00 0.  1.
       -3   -1    0    0    0  501  0.00000000000E+00  0.00000000000E+00 -0.13428140549E+04  0.13428140587E+04  0.10100000352E+00 0. -1.
    10030    2    1    2    0    0  0.00000000000E+00  0.00000000000E+00 -0.73802934049E+02  0.26118251836E+04  0.26107822423E+04 0.  0.
        5    1    3    3  502    0  0.44324971750E+03 -0.25854521685E+03 -0.12376758965E+04  0.13398431461E+04  0.46999998093E+01 0. -1.
       -5    1    3    3    0  502 -0.44324971750E+03  0.25854521685E+03  0.11638729625E+04  0.12719820376E+04  0.46999998093E+01 0.  1.
</event>
<event>
 5   0  0.3441646E-05  0.2667630E+04  0.7818609E-02  0.8345585E-01
        2   -1    0    0  501    0  0.00000000000E+00  0.00000000000E+00  0.11637117279E+04  0.11637117279E+04  0.25500000920E-02 0.  1.
       -2   -1    0    0    0  501  0.00000000000E+00  0.00000000000E+00 -0.15287831895E+04  0.15287831895E+04  0.25500000920E-02 0. -1.
    10030    2    1    2    0    0  0.00000000000E+00  0.00000000000E+00 -0.36507146160E+03  0.26924949174E+04  0.26676303545E+04 0.  0.
        4    1    3    3  502    0  0.32929433350E+03  0.36648504151E+03 -0.14335706018E+04  0.15158734535E+04  0.12699999809E+01 0. -1.
       -4    1    3    3    0  502 -0.32929433350E+03 -0.36648504151E+03  0.10684991402E+04  0.11766214639E+04  0.12699999809E+01 0.  1.
</event>
<event>
 5   0  0.1435062E-05  0.2614664E+04  0.7818609E-02  0.8363237E-01
       -1   -1    0    0    0  501  0.00000000000E+00  0.00000000000E+00  0.12646013391E+04  0.12646013392E+04  0.50400001928E-02 0.  1.
        1   -1    0    0  501    0  0.00000000000E+00  0.00000000000E+00 -0.13515064024E+04  0.13515064024E+04  0.50400001928E-02 0. -1.
    10030    2    1    2    0    0  0.00000000000E+00  0.00000000000E+00 -0.86905063261E+02  0.26161077416E+04  0.26146638838E+04 0.  0.
        2    1    3    3  502    0  0.31553858629E+03 -0.22247941439E+03  0.12062588614E+04  0.12665394309E+04  0.25500000920E-02 0.  1.
       -2    1    3    3    0  502 -0.31553858629E+03  0.22247941439E+03 -0.12931639246E+04  0.13495683107E+04  0.25500000920E-02 0. -1.
</event>
<event>
 5   0  0.3508470E-05  0.2522359E+04  0.7818609E-02  0.8395063E-01
        2   -1    0    0  501    0  0.00000000000E+00  0.00000000000E+00  0.12216075306E+04  0.12216075306E+04  0.25500000920E-02 0. -1.
       -2   -1    0    0    0  501  0.00000000000E+00  0.00000000000E+00 -0.13020334510E+04  0.13020334510E+04  0.25500000920E-02 0.  1.
    10030    2    1    2    0    0  0.00000000000E+00  0.00000000000E+00 -0.80425920409E+02  0.25236409815E+04  0.25223591090E+04 0.  0.
        5    1    3    3  502    0 -0.32110401352E+03 -0.23368079201E+03  0.11574071780E+04  0.12236535317E+04  0.46999998093E+01 0. -1.
       -5    1    3    3    0  502  0.32110401352E+03  0.23368079201E+03 -0.12378330984E+04  0.12999874498E+04  0.46999998093E+01 0.  1.
</event>
<event>
 5   0  0.3508470E-05  0.2178038E+04  0.7818609E-02  0.8527625E-01
        2   -1    0    0  501    0  0.00000000000E+00  0.00000000000E+00  0.12871377964E+04  0.12871377964E+04  0.25500000920E-02 0.  1.
       -2   -1    0    0    0  501  0.00000000000E+00  0.00000000000E+00 -0.92139483504E+03  0.92139483504E+03  0.25500000920E-02 0. -1.
    10030    2    1    2    0    0  0.00000000000E+00  0.00000000000E+00  0.36574296136E+03  0.22085326314E+04  0.21780377569E+04 0.  0.
        5    1    3    3  502    0 -0.24225679695E+03 -0.64274479868E+03 -0.67402290461E+03  0.96236074205E+03  0.46999998093E+01 0. -1.
       -5    1    3    3    0  502  0.24225679695E+03  0.64274479868E+03  0.10397658660E+04  0.12461718894E+04  0.46999998093E+01 0.  1.
</event>
<event>
 5   0  0.3647623E-05  0.2575983E+04  0.7818609E-02  0.8376405E-01
        2   -1    0    0  501    0  0.00000000000E+00  0.00000000000E+00  0.14768001232E+04  0.14768001232E+04  0.25500000920E-02 0.  1.
       -2   -1    0    0    0  501  0.00000000000E+00  0.00000000000E+00 -0.11233221934E+04  0.11233221934E+04  0.25500000920E-02 0. -1.
    10030    2    1    2    0    0  0.00000000000E+00  0.00000000000E+00  0.35347792976E+03  0.26001223165E+04  0.25759831937E+04 0.  0.
        3    1    3    3  502    0 -0.11389257924E+04 -0.39307363188E+03 -0.28278923732E+03  0.12375898366E+04  0.10100000352E+00 0. -1.
       -3    1    3    3    0  502  0.11389257924E+04  0.39307363188E+03  0.63626716708E+03  0.13625324799E+04  0.10100000352E+00 0.  1.
</event>
<event>
 5   0  0.3508470E-05  0.2577006E+04  0.7818609E-02  0.8376054E-01
        2   -1    0    0  501    0  0.00000000000E+00  0.00000000000E+00  0.20402396446E+04  0.20402396446E+04  0.25500000920E-02 0. -1.
       -2   -1    0    0    0  501  0.00000000000E+00  0.00000000000E+00 -0.81374777962E+03  0.81374777963E+03  0.25500000920E-02 0.  1.
    10030    2    1    2    0    0  0.00000000000E+00  0.00000000000E+00  0.12264918649E+04  0.28539874242E+04  0.25770063878E+04 0.  0.
        5    1    3    3  502    0 -0.42446331803E+03 -0.58508007301E+02  0.19590189905E+04  0.20053353312E+04  0.46999998093E+01 0. -1.
       -5    1    3    3    0  502  0.42446331803E+03  0.58508007301E+02 -0.73252712557E+03  0.84865209301E+03  0.46999998093E+01 0.  1.
</event>
<event>
 5   0  0.3499642E-05  0.2521985E+04  0.7818609E-02  0.8395195E-01
        2   -1    0    0  501    0  0.00000000000E+00  0.00000000000E+00  0.19207354800E+04  0.19207354800E+04  0.25500000920E-02 0.  1.
       -2   -1    0    0    0  501  0.00000000000E+00  0.00000000000E+00 -0.82786136773E+03  0.82786136774E+03  0.25500000920E-02 0. -1.
    10030    2    1    2    0    0  0.00000000000E+00  0.00000000000E+00  0.10928741122E+04  0.27485968477E+04  0.25219854889E+04 0.  0.
        2    1    3    3  502    0 -0.51688882835E+03  0.18719777957E+03  0.17832587944E+04  0.18660731489E+04  0.25500000920E-02 0.  1.
       -2    1    3    3    0  502  0.51688882835E+03 -0.18719777957E+03 -0.69038468213E+03  0.88252369876E+03  0.25500000920E-02 0. -1.
</event>
<event>
 5   0  0.3508470E-05  0.2538760E+04  0.7818609E-02  0.8389306E-01
        2   -1    0    0  501    0  0.00000000000E+00  0.00000000000E+00  0.20918124246E+04  0.20918124246E+04  0.25500000920E-02 0. -1.
       -2   -1    0    0    0  501  0.00000000000E+00  0.00000000000E+00 -0.77030125112E+03  0.77030125112E+03  0.25500000920E-02 0.  1.
    10030    2    1    2    0    0  0.00000000000E+00  0.00000000000E+00  0.13215111735E+04  0.28621136757E+04  0.25387601130E+04 0.  0.
        5    1    3    3  502    0  0.61488077890E+03 -0.56718512769E+03 -0.41558523904E+03  0.93408271702E+03  0.46999998093E+01 0.  1.
       -5    1    3    3    0  502 -0.61488077890E+03  0.56718512769E+03  0.17370964125E+04  0.19280309587E+04  0.46999998093E+01 0. -1.
</event>
<event>
 5   0  0.3499642E-05  0.2579119E+04  0.7818609E-02  0.8375329E-01
       -2   -1    0    0    0  501  0.00000000000E+00  0.00000000000E+00  0.16006322354E+04  0.16006322354E+04  0.25500000920E-02 0. -1.
        2   -1    0    0  501    0  0.00000000000E+00  0.00000000000E+00 -0.10389421018E+04  0.10389421018E+04  0.25500000920E-02 0.  1.
    10030    2    1    2    0    0  0.00000000000E+00  0.00000000000E+00  0.56169013361E+03  0.26395743372E+04  0.25791193993E+04 0.  0.
        2    1    3    3  502    0 -0.94853635182E+03  0.55795017972E+03  0.96886377550E+03  0.14661946082E+04  0.25500000920E-02 0. -1.
       -2    1    3    3    0  502  0.94853635182E+03 -0.55795017972E+03 -0.40717364189E+03  0.11733797290E+04  0.25500000920E-02 0.  1.
</event>
<event>
 5   0  0.3441646E-05  0.2180521E+04  0.7818609E-02  0.8526580E-01
        2   -1    0    0  501    0  0.00000000000E+00  0.00000000000E+00  0.12352645632E+04  0.12352645632E+04  0.25500000920E-02 0. -1.
       -2   -1    0    0    0  501  0.00000000000E+00  0.00000000000E+00 -0.96227765287E+03  0.96227765287E+03  0.25500000920E-02 0.  1.
    10030    2    1    2    0    0  0.00000000000E+00  0.00000000000E+00  0.27298691029E+03  0.21975422160E+04  0.21805205658E+04 0.  0.
        4    1    3    3  502    0 -0.32954493770E+03 -0.93309048838E+03  0.59767702401E+03  0.11560610552E+04  0.12699999809E+01 0. -1.
       -4    1    3    3    0  502  0.32954493770E+03  0.93309048838E+03 -0.32469011372E+03  0.10414811608E+04  0.12699999809E+01 0.  1.
</event>
<event>
 5   0  0.3849687E-05  0.1729611E+04  0.7818609E-02  0.8744654E-01
        2   -1    0    0  501    0  0.00000000000E+00  0.00000000000E+00  0.15688469440E+04  0.15688469440E+04  0.25500000920E-02 0. -1.
       -2   -1    0    0    0  501  0.00000000000E+00  0.00000000000E+00 -0.47671227438E+03  0.47671227439E+03  0.25500000920E-02 0.  1.
    10030    2    1    2    0    0  0.00000000000E+00  0.00000000000E+00  0.10921346696E+04  0.20455592184E+04  0.17296110486E+04 0.  0.
        1    1    3    3  502    0 -0.61530298944E+03  0.35338882843E+03  0.11307504738E+04  0.13349449677E+04  0.50400001928E-02 0. -1.
       -1    1    3    3    0  502  0.61530298944E+03 -0.35338882843E+03 -0.38615804170E+02  0.71061425066E+03  0.50400001928E-02 0.  1.
</event>
<event>
 5   0  0.1451052E-05  0.2579344E+04  0.7818609E-02  0.8375251E-01
       -1   -1    0    0    0  501  0.00000000000E+00  0.00000000000E+00  0.10670995654E+04  0.10670995654E+04  0.50400001928E-02 0.  1.
        1   -1    0    0  501    0  0.00000000000E+00  0.00000000000E+00 -0.15586683026E+04  0.15586683027E+04  0.50400001928E-02 0. -1.
    10030    2    1    2    0    0  0.00000000000E+00  0.00000000000E+00 -0.49156873725E+03  0.26257678681E+04  0.25793443108E+04 0.  0.
        1    1    3    3  502    0  0.34262347714E+03  0.11595335523E+04  0.21100693365E+03  0.12273682545E+04  0.50400001928E-02 0.  1.
       -1    1    3    3    0  502 -0.34262347714E+03 -0.11595335523E+04 -0.70257567090E+03  0.13983996136E+04  0.50400001928E-02 0. -1.
</event>
<event>
 5   0  0.1474554E-05  0.2574327E+04  0.7818609E-02  0.8376975E-01
       -1   -1    0    0    0  501  0.00000000000E+00  0.00000000000E+00  0.97176884842E+03  0.97176884843E+03  0.50400001928E-02 0.  1.
        1   -1    0    0  501    0  0.00000000000E+00  0.00000000000E+00 -0.17049211414E+04  0.17049211414E+04  0.50400001928E-02 0. -1.
    10030    2    1    2    0    0  0.00000000000E+00  0.00000000000E+00 -0.73315229296E+03  0.26766899898E+04  0.25743265172E+04 0.  0.
        5    1    3    3  502    0 -0.10940360820E+03 -0.10582058518E+04  0.38680271466E+03  0.11319925814E+04  0.46999998093E+01 0.  1.
       -5    1    3    3    0  502  0.10940360820E+03  0.10582058518E+04 -0.11199550076E+04  0.15446974084E+04  0.46999998093E+01 0. -1.
</event>
<event>
 5   0  0.1435062E-05  0.1635664E+04  0.7818609E-02  0.8798933E-01
        1   -1    0    0  501    0  0.00000000000E+00  0.00000000000E+00  0.14542998368E+04  0.14542998368E+04  0.50400001928E-02 0.  1.
       -1   -1    0    0    0  501  0.00000000000E+00  0.00000000000E+00 -0.45991166945E+03  0.45991166948E+03  0.50400001928E-02 0. -1.
    10030    2    1    2    0    0  0.00000000000E+00  0.00000000000E+00  0.99438816737E+03  0.19142115063E+04  0.16356643493E+04 0.  0.
        2    1    3    3  502    0  0.24275198576E+03  0.14106388391E+03  0.13961322252E+04  0.14240831212E+04  0.25500000920E-02 0.  1.
       -2    1    3    3    0  502 -0.24275198576E+03 -0.14106388391E+03 -0.40174405778E+03  0.49012838512E+03  0.25500000920E-02 0. -1.
</event>
<event>
 5   0  0.1474554E-05  0.2577928E+04  0.7818609E-02  0.8375737E-01
       -1   -1    0    0    0  501  0.00000000000E+00  0.00000000000E+00  0.71820661688E+03  0.71820661690E+03  0.50400001928E-02 0.  1.
        1   -1    0    0  501    0  0.00000000000E+00  0.00000000000E+00 -0.23133007312E+04  0.23133007312E+04  0.50400001928E-02 0. -1.
    10030    2    1    2    0    0  0.00000000000E+00  0.00000000000E+00 -0.15950941143E+04  0.30315073481E+04  0.25779277663E+04 0.  0.
        5    1    3    3  502    0 -0.55039545098E+02  0.29683344269E+03 -0.22711298587E+04  0.22911116012E+04  0.46999998093E+01 0. -1.
       -5    1    3    3    0  502  0.55039545098E+02 -0.29683344269E+03  0.67603574441E+03  0.74039574684E+03  0.46999998093E+01 0.  1.
</event>
<event>
 5   0  0.3849687E-05  0.2678936E+04  0.7818609E-02  0.8341872E-01
       -2   -1    0    0    0  501  0.00000000000E+00  0.00000000000E+00  0.87377147313E+03  0.87377147313E+03  0.25500000920E-02 0. -1.
        2   -1    0    0  501    0  0.00000000000E+00  0.00000000000E+00 -0.20533677746E+04  0.20533677746E+04  0.25500000920E-02 0.  1.
    10030    2    1    2    0    0  0.00000000000E+00  0.00000000000E+00 -0.11795963015E+04  0.29271392478E+04  0.26789357479E+04 0.  0.
        1    1    3    3  502    0  0.58762654710E+02 -0.93812298923E+03 -0.16324899820E+04  0.18837598928E+04  0.50400001928E-02 0.  1.
       -1    1    3    3    0  502 -0.58762654710E+02  0.93812298923E+03  0.45289368046E+03  0.10433793550E+04  0.50400001928E-02 0. -1.
</event>
<event>
 5   0  0.3441646E-05  0.1644993E+04  0.7818609E-02  0.8793374E-01
       -2   -1    0    0    0  501  0.00000000000E+00  0.00000000000E+00  0.57207368647E+03  0.57207368647E+03  0.25500000920E-02 0.  1.
        2   -1    0    0  501    0  0.00000000000E+00  0.00000000000E+00 -0.11825405151E+04  0.11825405151E+04  0.25500000920E-02 0. -1.
    10030    2    1    2    0    0  0.00000000000E+00  0.00000000000E+00 -0.61046682858E+03  0.17546142015E+04  0.16449927803E+04 0.  0.
        4    1    3    3  502    0 -0.69307256402E+03  0.37013944037E+03 -0.56463941606E+03  0.96755985210E+03  0.12699999809E+01 0. -1.
       -4    1    3    3    0  502  0.69307256402E+03 -0.37013944037E+03 -0.45827412522E+02  0.78705434943E+03  0.12699999809E+01 0.  1.
</event>
<event>
 5   0  0.1533248E-05  0.2563080E+04  0.7818609E-02  0.8380851E-01
        1   -1    0    0  501    0  0.00000000000E+00  0.00000000000E+00  0.26446933532E+04  0.26446933532E+04  0.50400001928E-02 0.  1.
       -1   -1    0    0    0  501  0.00000000000E+00  0.00000000000E+00 -0.62099647753E+03  0.62099647755E+03  0.50400001928E-02 0. -1.
    10030    2    1    2    0    0  0.00000000000E+00  0.00000000000E+00  0.20236968757E+04  0.32656898308E+04  0.25630803784E+04 0.  0.
        4    1    3    3  502    0  0.69054755021E+02 -0.12721230405E+04  0.11887551487E+04  0.17424712353E+04  0.12699999809E+01 0. -1.
       -4    1    3    3    0  502 -0.69054755021E+02  0.12721230405E+04  0.83494172700E+03  0.15232185955E+04  0.12699999809E+01 0.  1.
</event>
<event>
 5   0  0.1435062E-05  0.2328133E+04  0.7818609E-02  0.8466911E-01
        1   -1    0    0  501    0  0.00000000000E+00  0.00000000000E+00  0.97435259202E+03  0.97435259203E+03  0.50400001928E-02 0. -1.
       -1   -1    0    0    0  501  0.00000000000E+00  0.00000000000E+00 -0.13907188491E+04  0.13907188492E+04  0.50400001928E-02 0.  1.
    10030    2    1    2    0    0  0.00000000000E+00  0.00000000000E+00 -0.41636625713E+03  0.23650714412E+04  0.23281327415E+04 0.  0.
        2    1    3    3  502    0 -0.13952463157E+02  0.16775540789E+03 -0.13782890470E+04  0.13885306065E+04  0.25500000920E-02 0.  1.
       -2    1    3    3    0  502  0.13952463157E+02 -0.16775540789E+03  0.96192278988E+03  0.97654083468E+03  0.25500000920E-02 0. -1.
</event>
<event>
 5   0  0.1435062E-05  0.2581434E+04  0.7818609E-02  0.8374535E-01
       -1   -1    0    0    0  501  0.00000000000E+00  0.00000000000E+00  0.10728600713E+04  0.10728600713E+04  0.50400001928E-02 0. -1.
        1   -1    0    0  501    0  0.00000000000E+00  0.00000000000E+00 -0.15528121562E+04  0.15528121562E+04  0.50400001928E-02 0.  1.
    10030    2    1    2    0    0  0.00000000000E+00  0.00000000000E+00 -0.47995208494E+03  0.26256722275E+04  0.25814338347E+04 0.  0.
        2    1    3    3  502    0  0.48163153134E+03  0.88270127955E+02  0.97472148399E+03  0.10907990277E+04  0.25500000920E-02 0. -1.
       -2    1    3    3    0  502 -0.48163153134E+03 -0.88270127955E+02 -0.14546735689E+04  0.15348731999E+04  0.25500000920E-02 0.  1.
</event>
<event>
 5   0  0.3499642E-05  0.2358733E+04  0.7818609E-02  0.8455117E-01
        2   -1    0    0  501    0  0.00000000000E+00  0.00000000000E+00  0.14465037577E+04  0.14465037577E+04  0.25500000920E-02 0.  1.
       -2   -1    0    0    0  501  0.00000000000E+00  0.00000000000E+00 -0.96156378101E+03  0.96156378101E+03  0.25500000920E-02 0. -1.
    10030    2    1    2    0    0  0.00000000000E+00  0.00000000000E+00  0.48493997674E+03  0.24080675388E+04  0.23587332384E+04 0.  0.
        2    1    3    3  502    0 -0.59542215776E+03  0.97324797897E+02  0.12770287751E+04  0.14123746510E+04  0.25500000920E-02 0.  1.
       -2    1    3    3    0  502  0.59542215776E+03 -0.97324797897E+02 -0.79208879838E+03  0.99569288778E+03  0.25500000920E-02 0. -1.
</event>
<event>
 5   0  0.1451052E-05  0.2505520E+04  0.7818609E-02  0.8401022E-01
       -1   -1    0    0    0  501  0.00000000000E+00  0.00000000000E+00  0.98389668952E+03  0.98389668953E+03  0.50400001928E-02 0.  1.
        1   -1    0    0  501    0  0.00000000000E+00  0.00000000000E+00 -0.15950941661E+04  0.15950941661E+04  0.50400001928E-02 0. -1.
    10030    2    1    2    0    0  0.00000000000E+00  0.00000000000E+00 -0.61119747654E+03  0.25789908556E+04  0.25055202011E+04 0.  0.
        1    1    3    3  502    0 -0.11765647582E+04 -0.97130947721E+02  0.12582022759E+03  0.11872530400E+04  0.50400001928E-02 0. -1.
       -1    1    3    3    0  502  0.11765647582E+04  0.97130947721E+02 -0.73701770413E+03  0.13917378156E+04  0.50400001928E-02 0.  1.
</event>
<event>
 5   0  0.1533248E-05  0.2851969E+04  0.7818609E-02  0.8287313E-01
        1   -1    0    0  501    0  0.00000000000E+00  0.00000000000E+00  0.18518736222E+04  0.18518736222E+04  0.50400001928E-02 0. -1.
       -1   -1    0    0    0  501  0.00000000000E+00  0.00000000000E+00 -0.10980399618E+04  0.10980399618E+04  0.50400001928E-02 0.  1.
    10030    2    1    2    0    0  0.00000000000E+00  0.00000000000E+00  0.75383366035E+03  0.29499135840E+04  0.28519686123E+04 0.  0.
        4    1    3    3  502    0 -0.50572051719E+02  0.14845416859E+03 -0.10890917718E+04  0.11003266210E+04  0.12699999809E+01 0.  1.
       -4    1    3    3    0  502  0.50572051719E+02 -0.14845416859E+03  0.18429254321E+04  0.18495869630E+04  0.12699999809E+01 0. -1.
</event>
<event>
 5   0  0.1497497E-05  0.2461222E+04  0.7818609E-02  0.8416932E-01
        1   -1    0    0  501    0  0.00000000000E+00  0.00000000000E+00  0.13165770404E+04  0.13165770404E+04  0.50400001928E-02 0.  1.
       -1   -1    0    0    0  501  0.00000000000E+00  0.00000000000E+00 -0.11502581288E+04  0.11502581288E+04  0.50400001928E-02 0. -1.
    10030    2    1    2    0    0  0.00000000000E+00  0.00000000000E+00  0.16631891161E+03  0.24668351691E+04  0.24612220077E+04 0.  0.
        3    1    3    3  502    0 -0.52261163025E+03 -0.85124965091E+03 -0.63726669706E+03  0.11848450268E+04  0.10100000352E+00 0. -1.
       -3    1    3    3    0  502  0.52261163025E+03  0.85124965091E+03  0.80358560867E+03  0.12819901423E+04  0.10100000352E+00 0.  1.
</event>
<event>
 5   0  0.1533248E-05  0.2646864E+04  0.7818609E-02  0.8352454E-01
       -1   -1    0    0    0  501  0.00000000000E+00  0.00000000000E+00  0.19301787232E+04  0.19301787232E+04  0.50400001928E-02 0. -1.
        1   -1    0    0  501    0  0.00000000000E+00  0.00000000000E+00 -0.90741479253E+03  0.90741479255E+03  0.50400001928E-02 0.  1.
    10030    2    1    2    0    0  0.00000000000E+00  0.00000000000E+00  0.10227639306E+04  0.28375935157E+04  0.26468643529E+04 0.  0.
        4    1    3    3  502    0  0.41121205016E+03 -0.80302088894E+03  0.15494165643E+04  0.17929392630E+04  0.12699999809E+01 0. -1.
       -4    1    3    3    0  502 -0.41121205016E+03  0.80302088894E+03 -0.52665263365E+03  0.10446542527E+04  0.12699999809E+01 0.  1.
</event>
<event>
 5   0  0.3441646E-05  0.2593458E+04  0.7818609E-02  0.8370427E-01
       -2   -1    0    0    0  501  0.00000000000E+00  0.00000000000E+00  0.12831883371E+04  0.12831883371E+04  0.25500000920E-02 0.  1.
        2   -1    0    0  501    0  0.00000000000E+00  0.00000000000E+00 -0.13104128751E+04  0.13104128751E+04  0.25500000920E-02 0. -1.
    10030    2    1    2    0    0  0.00000000000E+00  0.00000000000E+00 -0.27224538089E+02  0.25936012122E+04  0.25934583229E+04 0.  0.
        4    1    3    3  502    0 -0.40019993597E+02 -0.12160242511E+04  0.43495266052E+03  0.12920921054E+04  0.12699999809E+01 0.  1.
       -4    1    3    3    0  502  0.40019993597E+02  0.12160242511E+04 -0.46217719861E+03  0.13015091068E+04  0.12699999809E+01 0. -1.
</event>
<event>
 5   0  0.3499642E-05  0.2576908E+04  0.7818609E-02  0.8376088E-01
       -2   -1    0    0    0  501  0.00000000000E+00  0.00000000000E+00  0.79736889049E+03  0.79736889049E+03  0.25500000920E-02 0. -1.
        2   -1    0    0  501    0  0.00000000000E+00  0.00000000000E+00 -0.20819887839E+04  0.20819887839E+04  0.25500000920E-02 0.  1.
    10030    2    1    2    0    0  0.00000000000E+00  0.00000000000E+00 -0.12846198934E+04  0.28793576744E+04  0.25769075161E+04 0.  0.
        2    1    3    3  502    0  0.88511639497E+03 -0.20296913869E+03  0.37902046564E+03  0.98401423633E+03  0.25500000920E-02 0. -1.
       -2    1    3    3    0  502 -0.88511639497E+03  0.20296913869E+03 -0.16636403590E+04  0.18953434380E+04  0.25500000920E-02 0.  1.
</event>
<event>
 5   0  0.3508470E-05  0.2616291E+04  0.7818609E-02  0.8362688E-01
        2   -1    0    0  501    0  0.00000000000E+00  0.00000000000E+00  0.18893047281E+04  0.18893047281E+04  0.25500000920E-02 0.  1.
       -2   -1    0    0    0  501  0.00000000000E+00  0.00000000000E+00 -0.90575366935E+03  0.90575366936E+03  0.25500000920E-02 0. -1.
    10030    2    1    2    0    0  0.00000000000E+00  0.00000000000E+00  0.98355105877E+03  0.27950583975E+04  0.26162910312E+04 0.  0.
        5    1    3    3  502    0  0.70827985077E+02 -0.88908304959E+03 -0.53055255703E+03  0.10377829148E+04  0.46999998093E+01 0. -1.
       -5    1    3    3    0  502 -0.70827985077E+02  0.88908304959E+03  0.15141036158E+04  0.17572754827E+04  0.46999998093E+01 0.  1.
</event>
<event>
 5   0  0.3647623E-05  0.2568928E+04  0.7818609E-02  0.8378833E-01
        2   -1    0    0  501    0  0.00000000000E+00  0.00000000000E+00  0.16781022634E+04  0.16781022634E+04  0.25500000920E-02 0. -1.
       -2   -1    0    0    0  501  0.00000000000E+00  0.00000000000E+00 -0.98316278328E+03  0.98316278329E+03  0.25500000920E-02 0.  1.
    10030    2    1    2    0    0  0.00000000000E+00  0.00000000000E+00  0.69493948016E+03  0.26612650467E+04  0.25689279414E+04 0.  0.
        3    1    3    3  502    0 -0.52101978212E+03 -0.40948343070E+03 -0.79240246166E+03  0.10329762654E+04  0.10100000352E+00 0.  1.
       -3    1    3    3    0  502  0.52101978212E+03  0.40948343070E+03  0.14873419418E+04  0.16282887814E+04  0.10100000352E+00 0. -1.
</event>
<event>
 5   0  0.3849687E-05  0.2604336E+04  0.7818609E-02  0.8366730E-01
        2   -1    0    0  501    0  0.00000000000E+00  0.00000000000E+00  0.15349384093E+04  0.15349384093E+04  0.25500000920E-02 0.  1.
       -2   -1    0    0    0  501  0.00000000000E+00  0.00000000000E+00 -0.11046970007E+04  0.11046970007E+04  0.25500000920E-02 0. -1.
    10030    2    1    2    0    0  0.00000000000E+00  0.00000000000E+00  0.43024140860E+03  0.26396354101E+04  0.26043362741E+04 0.  0.
        1    1    3    3  502    0 -0.65528667342E+03 -0.68005272640E+03  0.11238042267E+04  0.14679265223E+04  0.50400001928E-02 0.  1.
       -1    1    3    3    0  502  0.65528667342E+03  0.68005272640E+03 -0.69356281805E+03  0.11717088878E+04  0.50400001928E-02 0. -1.
</event>
<event>
 5   0  0.1497497E-05  0.1877770E+04  0.7818609E-02  0.8666001E-01
        1   -1    0    0  501    0  0.00000000000E+00  0.00000000000E+00  0.14668198023E+04  0.14668198023E+04  0.50400001928E-02 0.  1.
       -1   -1    0    0    0  501  0.00000000000E+00  0.00000000000E+00 -0.60096350370E+03  0.60096350372E+03  0.50400001928E-02 0. -1.
    10030    2    1    2    0    0  0.00000000000E+00  0.00000000000E+00  0.86585629860E+03  0.20677833060E+04  0.18777701326E+04 0.  0.
        3    1    3    3  502    0  0.55525350215E+03  0.63515320075E+03 -0.20809413172E+02  0.84389518422E+03  0.10100000352E+00 0. -1.
       -3    1    3    3    0  502 -0.55525350215E+03 -0.63515320075E+03  0.88666571177E+03  0.12238881218E+04  0.10100000352E+00 0.  1.
</event>
<event>
 5   0  0.1497497E-05  0.2620421E+04  0.7818609E-02  0.8361298E-01
       -1   -1    0    0    0  501  0.00000000000E+00  0.00000000000E+00  0.67962918965E+03  0.67962918967E+03  0.50400001928E-02 0. -1.
        1   -1    0    0  501    0  0.00000000000E+00  0.00000000000E+00 -0.25258652466E+04  0.25258652466E+04  0.50400001928E-02 0.  1.
    10030    2    1    2    0    0  0.00000000000E+00  0.00000000000E+00 -0.18462360570E+04  0.32054944363E+04  0.26204211500E+04 0.  0.
        3    1    3    3  502    0 -0.12828651000E+04 -0.10523058110E+03 -0.12223465818E+04  0.17750908473E+04  0.10100000352E+00 0.  1.
       -3    1    3    3    0  502  0.12828651000E+04  0.10523058110E+03 -0.62388947515E+03  0.14304035890E+04  0.10100000352E+00 0. -1.
</event>
<event>
 5   0  0.3508470E-05  0.2603864E+04  0.7818609E-02  0.8366890E-01
        2   -1    0    0  501    0  0.00000000000E+00  0.00000000000E+00  0.22101944734E+04  0.22101944734E+04  0.25500000920E-02 0. -1.
       -2   -1    0    0    0  501  0.00000000000E+00  0.00000000000E+00 -0.76691278297E+03  0.76691278298E+03  0.25500000920E-02 0.  1.
    10030    2    1    2    0    0  0.00000000000E+00  0.00000000000E+00  0.14432816904E+04  0.29771072564E+04  0.26038635867E+04 0.  0.
        5    1    3    3  502    0  0.98043143785E+03  0.17786690444E+02  0.17008132836E+04  0.19632498787E+04  0.46999998093E+01 0. -1.
       -5    1    3    3    0  502 -0.98043143785E+03 -0.17786690444E+02 -0.25753159319E+03  0.10138573776E+04  0.46999998093E+01 0.  1.
</event>
<event>
 5   0  0.1533248E-05  0.2643395E+04  0.7818609E-02  0.8353608E-01
        1   -1    0    0  501    0  0.00000000000E+00  0.00000000000E+00  0.15836588263E+04  0.15836588263E+04  0.50400001928E-02 0. -1.
       -1   -1    0    0    0  501  0.00000000000E+00  0.00000000000E+00 -0.11030688635E+04  0.11030688635E+04  0.50400001928E-02 0.  1.
    10030    2    1    2    0    0  0.00000000000E+00  0.00000000000E+00  0.48058996283E+03  0.26867276898E+04  0.26433953482E+04 0.  0.
        4    1    3    3  502    0 -0.57787818691E+03  0.61490643154E+03 -0.79364668535E+03  0.11584169338E+04  0.12699999809E+01 0.  1.
       -4    1    3    3    0  502  0.57787818691E+03 -0.61490643154E+03  0.12742366482E+04  0.15283107560E+04  0.12699999809E+01 0. -1.
</event>
<event>
 5   0  0.3849687E-05  0.2647216E+04  0.7818609E-02  0.8352338E-01
        2   -1    0    0  501    0  0.00000000000E+00  0.00000000000E+00  0.11335066337E+04  0.11335066337E+04  0.25500000920E-02 0.  1.
       -2   -1    0    0    0  501  0.00000000000E+00  0.00000000000E+00 -0.15455911611E+04  0.15455911611E+04  0.25500000920E-02 0. -1.
    10030    2    1    2    0    0  0.00000000000E+00  0.00000000000E+00 -0.41208452737E+03  0.26790977947E+04  0.26472157706E+04 0.  0.
        1    1    3    3  502    0  0.12535879896E+04  0.42056607834E+03 -0.14549566037E+03  0.13302359419E+04  0.50400001928E-02 0. -1.
       -1    1    3    3    0  502 -0.12535879896E+04 -0.42056607834E+03 -0.26658886700E+03  0.13488618528E+04  0.50400001928E-02 0.  1.
</event>
<event>
 5   0  0.3647623E-05  0.2658320E+04  0.7818609E-02  0.8348657E-01
       -2   -1    0    0    0  501  0.00000000000E+00  0.00000000000E+00  0.12672081151E+04  0.12672081151E+04  0.25500000920E-02 0. -1.
        2   -1    0    0  501    0  0.00000000000E+00  0.00000000000E+00 -0.13941406090E+04  0.13941406090E+04  0.25500000920E-02 0.  1.
    10030    2    1    2    0    0  0.00000000000E+00  0.00000000000E+00 -0.12693249383E+03  0.26613487241E+04  0.26583199907E+04 0.  0.
        3    1    3    3  502    0  0.64567382322E+03  0.11004622988E+04 -0.43638806609E+03  0.13484607934E+04  0.10100000352E+00 0. -1.
       -3    1    3    3    0  502 -0.64567382322E+03 -0.11004622988E+04  0.30945557226E+03  0.13128879306E+04  0.10100000352E+00 0.  1.
</event>
<event>
 5   0  0.1497497E-05  0.2622770E+04  0.7818609E-02  0.8360508E-01
       -1   -1    0    0    0  501  0.00000000000E+00  0.00000000000E+00  0.10452021493E+04  0.10452021493E+04  0.50400001928E-02 0. -1.
        1   -1    0    0  501    0  0.00000000000E+00  0.00000000000E+00 -0.16453563345E+04  0.16453563345E+04  0.50400001928E-02 0.  1.
    10030    2    1    2    0    0  0.00000000000E+00  0.00000000000E+00 -0.60015418514E+03  0.26905584838E+04  0.26227695112E+04 0.  0.
        3    1    3    3  502    0  0.25855194587E+03 -0.12431311277E+04 -0.63643246933E+03  0.14203064484E+04  0.10100000352E+00 0.  1.
       -3    1    3    3    0  502 -0.25855194587E+03  0.12431311277E+04  0.36278284187E+02  0.12702520354E+04  0.10100000352E+00 0. -1.
</event>
<event>
 5   0  0.3647623E-05  0.2583154E+04  0.7818609E-02  0.8373946E-01
       -2   -1    0    0    0  501  0.00000000000E+00  0.00000000000E+00  0.15442308933E+04  0.15442308933E+04  0.25500000920E-02 0.  1.
        2   -1    0    0  501    0  0.00000000000E+00  0.00000000000E+00 -0.10802601740E+04  0.10802601740E+04  0.25500000920E-02 0. -1.
    10030    2    1    2    0    0  0.00000000000E+00  0.00000000000E+00  0.46397071929E+03  0.26244910673E+04  0.25831539896E+04 0.  0.
        3    1    3    3  502    0 -0.12408591378E+04  0.26189652981E+03  0.48054272081E+03  0.13561867530E+04  0.10100000352E+00 0.  1.
       -3    1    3    3    0  502  0.12408591378E+04 -0.26189652981E+03 -0.16572001519E+02  0.12683043143E+04  0.10100000352E+00 0. -1.
</event>
<event>
 5   0  0.3849687E-05  0.2578558E+04  0.7818609E-02  0.8375521E-01
       -2   -1    0    0    0  501  0.00000000000E+00  0.00000000000E+00  0.88899309308E+03  0.88899309309E+03  0.25500000920E-02 0. -1.
        2   -1    0    0  501    0  0.00000000000E+00  0.00000000000E+00 -0.18698011795E+04  0.18698011795E+04  0.25500000920E-02 0.  1.
    10030    2    1    2    0    0  0.00000000000E+00  0.00000000000E+00 -0.98080808638E+03  0.27587942726E+04  0.25785579955E+04 0.  0.
        1    1    3    3  502    0  0.99127411881E+03 -0.53465241807E+03 -0.11617706331E+04  0.16180817627E+04  0.50400001928E-02 0.  1.
       -1    1    3    3    0  502 -0.99127411881E+03  0.53465241807E+03  0.18096254674E+03  0.11407125098E+04  0.50400001928E-02 0. -1.
</event>
<event>
 5   0  0.1435062E-05  0.2700769E+04  0.7818609E-02  0.8334756E-01
       -1   -1    0    0    0  501  0.00000000000E+00  0.00000000000E+00  0.14539557066E+04  0.14539557066E+04  0.50400001928E-02 0. -1.
        1   -1    0    0  501    0  0.00000000000E+00  0.00000000000E+00 -0.12541909145E+04  0.12541909145E+04  0.50400001928E-02 0.  1.
    10030    2    1    2    0    0  0.00000000000E+00  0.00000000000E+00  0.19976479212E+03  0.27081466211E+04  0.27007688071E+04 0.  0.
        2    1    3    3  502    0 -0.12905465967E+04  0.19823062469E+02  0.49799918386E+03  0.13834401538E+04  0.25500000920E-02 0.  1.
       -2    1    3    3    0  502  0.12905465967E+04 -0.19823062469E+02 -0.29823439174E+03  0.13247064673E+04  0.25500000920E-02 0. -1.
</event>
<event>
 5   0  0.3441646E-05  0.2620982E+04  0.7818609E-02  0.8361109E-01
       -2   -1    0    0    0  501  0.00000000000E+00  0.00000000000E+00  0.10563502701E+04  0.10563502701E+04  0.25500000920E-02 0. -1.
        2   -1    0    0  501    0  0.00000000000E+00  0.00000000000E+00 -0.16257739523E+04  0.16257739523E+04  0.25500000920E-02 0.  1.
    10030    2    1    2    0    0  0.00000000000E+00  0.00000000000E+00 -0.56942368218E+03  0.26821242224E+04  0.26209820706E+04 0.  0.
        4    1    3    3  502    0  0.30471903081E+03 -0.12212404495E+04 -0.65805578866E+03  0.14203242436E+04  0.12699999809E+01 0.  1.
       -4    1    3    3    0  502 -0.30471903081E+03  0.12212404495E+04  0.88632106483E+02  0.12617999788E+04  0.12699999809E+01 0. -1.
</event>
<event>
 5   0  0.3499642E-05  0.2315852E+04  0.7818609E-02  0.8471697E-01
        2   -1    0    0  501    0  0.00000000000E+00  0.00000000000E+00  0.18651820862E+04  0.18651820862E+04  0.25500000920E-02 0.  1.
       -2   -1    0    0    0  501  0.00000000000E+00  0.00000000000E+00 -0.71885361973E+03  0.71885361973E+03  0.25500000920E-02 0. -1.
    10030    2    1    2    0    0  0.00000000000E+00  0.00000000000E+00  0.11463284664E+04  0.25840357059E+04  0.23158522354E+04 0.  0.
        2    1    3    3  502    0  0.43072855416E+03 -0.10085804084E+03 -0.62084622979E+03  0.76233160293E+03  0.25500000920E-02 0. -1.
       -2    1    3    3    0  502 -0.43072855416E+03  0.10085804084E+03  0.17671746962E+04  0.18217041030E+04  0.25500000920E-02 0.  1.
</event>
<event>
 5   0  0.1497497E-05  0.2588725E+04  0.7818609E-02  0.8372041E-01
        1   -1    0    0  501    0  0.00000000000E+00  0.00000000000E+00  0.21366258600E+04  0.21366258600E+04  0.50400001928E-02 0. -1.
       -1   -1    0    0    0  501  0.00000000000E+00  0.00000000000E+00 -0.78412156396E+03  0.78412156398E+03  0.50400001928E-02 0.  1.
    10030    2    1    2    0    0  0.00000000000E+00  0.00000000000E+00  0.13525042960E+04  0.29207474239E+04  0.25887251001E+04 0.  0.
        3    1    3    3  502    0  0.33420848103E+03 -0.10173358331E+04  0.14966330745E+04  0.18402657623E+04  0.10100000352E+00 0. -1.
       -3    1    3    3    0  502 -0.33420848103E+03  0.10173358331E+04 -0.14412877847E+03  0.10804816616E+04  0.10100000352E+00 0.  1.
</event>
<event>
 5   0  0.1533248E-05  0.2582118E+04  0.7818609E-02  0.8374301E-01
        1   -1    0    0  501    0  0.00000000000E+00  0.00000000000E+00  0.26849138394E+04  0.26849138394E+04  0.50400001928E-02 0. -1.
       -1   -1    0    0    0  501  0.00000000000E+00  0.00000000000E+00 -0.62081425168E+03  0.62081425170E+03  0.50400001928E-02 0.  1.
    10030    2    1    2    0    0  0.00000000000E+00  0.00000000000E+00  0.20640995877E+04  0.33057280911E+04  0.25821175620E+04 0.  0.
        4    1    3    3  502    0 -0.54705193644E+03 -0.85882796143E+02 -0.46105683563E+03  0.72056692570E+03  0.12699999809E+01 0.  1.
       -4    1    3    3    0  502  0.54705193644E+03  0.85882796143E+02  0.25251564233E+04  0.25851611654E+04  0.12699999809E+01 0. -1.
</event>
<event>
 5   0  0.1474554E-05  0.2590291E+04  0.7818609E-02  0.8371507E-01
       -1   -1    0    0    0  501  0.00000000000E+00  0.00000000000E+00  0.12113101315E+04  0.12113101315E+04  0.50400001928E-02 0.  1.
        1   -1    0    0  501    0  0.00000000000E+00  0.00000000000E+00 -0.13847834075E+04  0.13847834075E+04  0.50400001928E-02 0. -1.
    10030    2    1    2    0    0  0.00000000000E+00  0.00000000000E+00 -0.17347327603E+03  0.25960935390E+04  0.25902912357E+04 0.  0.
        5    1    3    3  502    0 -0.39825070447E+03 -0.11161003812E+04 -0.61049349933E+03  0.13330446682E+04  0.46999998093E+01 0. -1.
       -5    1    3    3    0  502  0.39825070447E+03  0.11161003812E+04  0.43702022330E+03  0.12630488709E+04  0.46999998093E+01 0.  1.
</event>
<event>
 5   0  0.1533248E-05  0.2569138E+04  0.7818609E-02  0.8378761E-01
       -1   -1    0    0    0  501  0.00000000000E+00  0.00000000000E+00  0.17050697384E+04  0.17050697384E+04  0.50400001928E-02 0.  1.
        1   -1    0    0  501    0  0.00000000000E+00  0.00000000000E+00 -0.96777093322E+03  0.96777093324E+03  0.50400001928E-02 0. -1.
    10030    2    1    2    0    0  0.00000000000E+00  0.00000000000E+00  0.73729880520E+03  0.26728406717E+04  0.25691375456E+04 0.  0.
        4    1    3    3  502    0 -0.45450069931E+03  0.83009183441E+03 -0.53502718141E+03  0.10871426019E+04  0.12699999809E+01 0. -1.
       -4    1    3    3    0  502  0.45450069931E+03 -0.83009183441E+03  0.12723259866E+04  0.15856980697E+04  0.12699999809E+01 0.  1.
</event>
<event>
 5   0  0.1451052E-05  0.2561155E+04  0.7818609E-02  0.8381517E-01
        1   -1    0    0  501    0  0.00000000000E+00  0.00000000000E+00  0.15090191370E+04  0.15090191370E+04  0.50400001928E-02 0.  1.
       -1   -1    0    0    0  501  0.00000000000E+00  0.00000000000E+00 -0.10867183742E+04  0.10867183743E+04  0.50400001928E-02 0. -1.
    10030    2    1    2    0    0  0.00000000000E+00  0.00000000000E+00  0.42230076275E+03  0.25957375113E+04  0.25611550701E+04 0.  0.
        1    1    3    3  502    0  0.11887063514E+04  0.23941883288E+03  0.62845591464E+03  0.13657602293E+04  0.50400001928E-02 0. -1.
       -1    1    3    3    0  502 -0.11887063514E+04 -0.23941883288E+03 -0.20615515189E+03  0.12299772819E+04  0.50400001928E-02 0.  1.
</event>
<event>
 5   0  0.3508470E-05  0.2607580E+04  0.7818609E-02  0.8365631E-01
        2   -1    0    0  501    0  0.00000000000E+00  0.00000000000E+00  0.95418018695E+03  0.95418018695E+03  0.25500000920E-02 0. -1.
       -2   -1    0    0    0  501  0.00000000000E+00  0.00000000000E+00 -0.17814956406E+04  0.17814956406E+04  0.25500000920E-02 0.  1.
    10030    2    1    2    0    0  0.00000000000E+00  0.00000000000E+00 -0.82731545364E+03  0.27356758275E+04  0.26075796006E+04 0.  0.
        5    1    3    3  502    0  0.32263381191E+03 -0.47987006652E+03  0.81228278093E+03  0.99709240471E+03  0.46999998093E+01 0. -1.
       -5    1    3    3    0  502 -0.32263381191E+03  0.47987006652E+03 -0.16395982346E+04  0.17385834228E+04  0.46999998093E+01 0.  1.
</event>
<event>
 5   0  0.1533248E-05  0.2669200E+04  0.7818609E-02  0.8345068E-01
        1   -1    0    0  501    0  0.00000000000E+00  0.00000000000E+00  0.11126748079E+04  0.11126748079E+04  0.50400001928E-02 0.  1.
       -1   -1    0    0    0  501  0.00000000000E+00  0.00000000000E+00 -0.16007884762E+04  0.16007884762E+04  0.50400001928E-02 0. -1.
    10030    2    1    2    0    0  0.00000000000E+00  0.00000000000E+00 -0.48811366830E+03  0.27134632841E+04  0.26691998878E+04 0.  0.
        4    1    3    3  502    0  0.40861079802E+03  0.10964848279E+04 -0.89650488169E+03  0.14740978183E+04  0.12699999809E+01 0. -1.
       -4    1    3    3    0  502 -0.40861079802E+03 -0.10964848279E+04  0.40839121339E+03  0.12393654659E+04  0.12699999809E+01 0.  1.
</event>
<event>
 5   0  0.1217200E-05  0.2569669E+04  0.7818609E-02  0.8378578E-01
       -4   -1    0    0    0  501  0.00000000000E+00  0.00000000000E+00  0.12139920631E+04  0.12139927274E+04  0.12699999809E+01 0. -1.
        4   -1    0    0  501    0  0.00000000000E+00  0.00000000000E+00 -0.13598096412E+04  0.13598102343E+04  0.12699999809E+01 0.  1.
    10030    2    1    2    0    0  0.00000000000E+00  0.00000000000E+00 -0.14581757810E+03  0.25738029617E+04  0.25696690292E+04 0.  0.
        1    1    3    3  502    0  0.73050737448E+03 -0.94008221552E+03  0.41098759611E+03  0.12594865622E+04  0.50400001928E-02 0. -1.
       -1    1    3    3    0  502 -0.73050737448E+03  0.94008221552E+03 -0.55680517421E+03  0.13143163996E+04  0.50400001928E-02 0.  1.
</event>
<event>
 5   0  0.3647623E-05  0.2630703E+04  0.7818609E-02  0.8357846E-01
        2   -1    0    0  501    0  0.00000000000E+00  0.00000000000E+00  0.19658855445E+04  0.19658855445E+04  0.25500000920E-02 0. -1.
       -2   -1    0    0    0  501  0.00000000000E+00  0.00000000000E+00 -0.88008671977E+03  0.88008671978E+03  0.25500000920E-02 0.  1.
    10030    2    1    2    0    0  0.00000000000E+00  0.00000000000E+00  0.10857988247E+04  0.28459722643E+04  0.26307031458E+04 0.  0.
        3    1    3    3  502    0 -0.79617296471E+02 -0.11293399153E+04 -0.18152434180E+03  0.11466030940E+04  0.10100000352E+00 0.  1.
       -3    1    3    3    0  502  0.79617296471E+02  0.11293399153E+04  0.12673231665E+04  0.16993691703E+04  0.10100000352E+00 0. -1.
</event>
<event>
 5   0  0.3647623E-05  0.2582417E+04  0.7818609E-02  0.8374198E-01
        2   -1    0    0  501    0  0.00000000000E+00  0.00000000000E+00  0.92558931798E+03  0.92558931798E+03  0.25500000920E-02 0.  1.
       -2   -1    0    0    0  501  0.00000000000E+00  0.00000000000E+00 -0.18012522464E+04  0.18012522464E+04  0.25500000920E-02 0. -1.
    10030    2    1    2    0    0  0.00000000000E+00  0.00000000000E+00 -0.87566292842E+03  0.27268415644E+04  0.25824173468E+04 0.  0.
        3    1    3    3  502    0 -0.20400174822E+03  0.11409689085E+03 -0.17787265053E+04  0.17940186188E+04  0.10100000352E+00 0. -1.
       -3    1    3    3    0  502  0.20400174822E+03 -0.11409689085E+03  0.90306357686E+03  0.93282294559E+03  0.10100000352E+00 0.  1.
</event>
<event>
 5   0  0.1474554E-05  0.2387875E+04  0.7818609E-02  0.8444057E-01
       -1   -1    0    0    0  501  0.00000000000E+00  0.00000000000E+00  0.12124532837E+04  0.12124532837E+04  0.50400001928E-02 0. -1.
        1   -1    0    0  501    0  0.00000000000E+00  0.00000000000E+00 -0.11757046859E+04  0.11757046859E+04  0.50400001928E-02 0.  1.
    10030    2    1    2    0    0  0.00000000000E+00  0.00000000000E+00  0.36748597845E+02  0.23881579697E+04  0.23878752121E+04 0.  0.
        5    1    3    3  502    0 -0.49751820353E+03  0.49646704510E+03 -0.94686227120E+03  0.11792260769E+04  0.46999998093E+01 0.  1.
       -5    1    3    3    0  502  0.49751820353E+03 -0.49646704510E+03  0.98361086904E+03  0.12089318928E+04  0.46999998093E+01 0. -1.
</event>
<event>
 5   0  0.3508470E-05  0.2625272E+04  0.7818609E-02  0.8359667E-01
       -2   -1    0    0    0  501  0.00000000000E+00  0.00000000000E+00  0.13314668557E+04  0.13314668557E+04  0.25500000920E-02 0. -1.
        2   -1    0    0  501    0  0.00000000000E+00  0.00000000000E+00 -0.12940714871E+04  0.12940714871E+04  0.25500000920E-02 0.  1.
    10030    2    1    2    0    0  0.00000000000E+00  0.00000000000E+00  0.37395368641E+02  0.26255383428E+04  0.26252720194E+04 0.  0.
        5    1    3    3  502    0 -0.98451509985E+03 -0.75237746937E+03 -0.41453140077E+03  0.13065987182E+04  0.46999998093E+01 0. -1.
       -5    1    3    3    0  502  0.98451509985E+03  0.75237746937E+03  0.45192676941E+03  0.13189396245E+04  0.46999998093E+01 0.  1.
</event>
<event>
 5   0  0.3647623E-05  0.2587634E+04  0.7818609E-02  0.8372414E-01
        2   -1    0    0  501    0  0.00000000000E+00  0.00000000000E+00  0.17716961614E+04  0.17716961614E+04  0.25500000920E-02 0. -1.
       -2   -1    0    0    0  501  0.00000000000E+00  0.00000000000E+00 -0.94483636617E+03  0.94483636617E+03  0.25500000920E-02 0.  1.
    10030    2    1    2    0    0  0.00000000000E+00  0.00000000000E+00  0.82685979523E+03  0.27165325276E+04  0.25876344124E+04 0.  0.
        3    1    3    3  502    0 -0.67848258397E+03 -0.61870769234E+03 -0.54347064968E+03  0.10670043030E+04  0.10100000352E+00 0.  1.
       -3    1    3    3    0  502  0.67848258397E+03  0.61870769234E+03  0.13703304449E+04  0.16495282246E+04  0.10100000352E+00 0. -1.
</event>
<event>
 5   0  0.1497497E-05  0.2141556E+04  0.7818609E-02  0.8543155E-01
        1   -1    0    0  501    0  0.00000000000E+00  0.00000000000E+00  0.86456989451E+03  0.86456989452E+03  0.50400001928E-02 0. -1.
       -1   -1    0    0    0  501  0.00000000000E+00  0.00000000000E+00 -0.13261692990E+04  0.13261692991E+04  0.50400001928E-02 0.  1.
    10030    2    1    2    0    0  0.00000000000E+00  0.00000000000E+00 -0.46159940454E+03  0.21907391936E+04  0.21415564910E+04 0.  0.
        3    1    3    3  502    0 -0.12121311225E+03  0.95075843764E+03 -0.71918616558E+03  0.11982750003E+04  0.10100000352E+00 0.  1.
       -3    1    3    3    0  502  0.12121311225E+03 -0.95075843764E+03  0.25758676105E+03  0.99246419330E+03  0.10100000352E+00 0. -1.
</event>
<event>
 5   0  0.1497497E-05  0.2636066E+04  0.7818609E-02  0.8356053E-01
       -1   -1    0    0    0  501  0.00000000000E+00  0.00000000000E+00  0.13104394261E+04  0.13104394261E+04  0.50400001928E-02 0. -1.
        1   -1    0    0  501    0  0.00000000000E+00  0.00000000000E+00 -0.13256706763E+04  0.13256706763E+04  0.50400001928E-02 0.  1.
    10030    2    1    2    0    0  0.00000000000E+00  0.00000000000E+00 -0.15231250185E+02  0.26361101024E+04  0.26360660995E+04 0.  0.
        3    1    3    3  502    0  0.11358055869E+04  0.84127853314E+02 -0.67101141607E+03  0.13218881033E+04  0.10100000352E+00 0.  1.
       -3    1    3    3    0  502 -0.11358055869E+04 -0.84127853314E+02  0.65578016589E+03  0.13142219992E+04  0.10100000352E+00 0. -1.
</event>
<event>
 5   0  0.1533248E-05  0.2612841E+04  0.7818609E-02  0.8363852E-01
       -1   -1    0    0    0  501  0.00000000000E+00  0.00000000000E+00  0.11234816900E+04  0.11234816900E+04  0.50400001928E-02 0.  1.
        1   -1    0    0  501    0  0.00000000000E+00  0.00000000000E+00 -0.15191477913E+04  0.15191477913E+04  0.50400001928E-02 0. -1.
    10030    2    1    2    0    0  0.00000000000E+00  0.00000000000E+00 -0.39566610131E+03  0.26426294813E+04  0.26128411570E+04 0.  0.
        4    1    3    3  502    0 -0.45626094751E+03 -0.12004297298E+04  0.44750371357E+02  0.12849940845E+04  0.12699999809E+01 0.  1.
       -4    1    3    3    0  502  0.45626094751E+03  0.12004297298E+04 -0.44041647266E+03  0.13576353968E+04  0.12699999809E+01 0. -1.
</event>
<event>
 5   0  0.3849687E-05  0.2570863E+04  0.7818609E-02  0.8378166E-01
       -2   -1    0    0    0  501  0.00000000000E+00  0.00000000000E+00  0.80122134782E+03  0.80122134782E+03  0.25500000920E-02 0. -1.
        2   -1    0    0  501    0  0.00000000000E+00  0.00000000000E+00 -0.20622696322E+04  0.20622696322E+04  0.25500000920E-02 0.  1.
    10030    2    1    2    0    0  0.00000000000E+00  0.00000000000E+00 -0.12610482844E+04  0.28634909800E+04  0.25708632436E+04 0.  0.
        1    1    3    3  502    0  0.51218783351E+03 -0.11537231322E+04 -0.90089005874E+03  0.15508115103E+04  0.50400001928E-02 0.  1.
       -1    1    3    3    0  502 -0.51218783351E+03  0.11537231322E+04 -0.36015822564E+03  0.13126794697E+04  0.50400001928E-02 0. -1.
</event>
<event>
 5   0  0.1217200E-05  0.2482220E+04  0.7818609E-02  0.8409347E-01
       -4   -1    0    0    0  501  0.00000000000E+00  0.00000000000E+00  0.18572514491E+04  0.18572518833E+04  0.12699999809E+01 0. -1.
        4   -1    0    0  501    0  0.00000000000E+00  0.00000000000E+00 -0.82937217604E+03  0.82937314840E+03  0.12699999809E+01 0.  1.
    10030    2    1    2    0    0  0.00000000000E+00  0.00000000000E+00  0.10278792731E+04  0.26866250317E+04  0.24822204296E+04 0.  0.
        2    1    3    3  502    0  0.53572007400E+03 -0.10603204294E+04  0.12507829766E+03  0.11945375638E+04  0.25500000920E-02 0.  1.
       -2    1    3    3    0  502 -0.53572007400E+03  0.10603204294E+04  0.90280097540E+03  0.14920874679E+04  0.25500000920E-02 0. -1.
</event>
<event>
 5   0  0.3499642E-05  0.2597325E+04  0.7818609E-02  0.8369111E-01
        2   -1    0    0  501    0  0.00000000000E+00  0.00000000000E+00  0.17946484670E+04  0.17946484670E+04  0.25500000920E-02 0. -1.
       -2   -1    0    0    0  501  0.00000000000E+00  0.00000000000E+00 -0.93975158647E+03  0.93975158648E+03  0.25500000920E-02 0.  1.
    10030    2    1    2    0    0  0.00000000000E+00  0.00000000000E+00  0.85489688049E+03  0.27344000534E+04  0.25973245804E+04 0.  0.
        2    1    3    3  502    0  0.18696040242E+02  0.12429852094E+04  0.82299233501E+03  0.14908649021E+04  0.25500000920E-02 0.  1.
       -2    1    3    3    0  502 -0.18696040242E+02 -0.12429852094E+04  0.31904545477E+02  0.12435351514E+04  0.25500000920E-02 0. -1.
</event>
<event>
 5   0  0.3647623E-05  0.3235526E+04  0.7818609E-02  0.8179497E-01
       -2   -1    0    0    0  501  0.00000000000E+00  0.00000000000E+00  0.30646105736E+04  0.30646105736E+04  0.25500000920E-02 0. -1.
        2   -1    0    0  501    0  0.00000000000E+00  0.00000000000E+00 -0.85399323318E+03  0.85399323318E+03  0.25500000920E-02 0.  1.
    10030    2    1    2    0    0  0.00000000000E+00  0.00000000000E+00  0.22106173404E+04  0.39186038068E+04  0.32355257330E+04 0.  0.
        3    1    3    3  502    0  0.54530548332E+03 -0.15227023301E+04  0.10637719826E+04  0.19358696489E+04  0.10100000352E+00 0.  1.
       -3    1    3    3    0  502 -0.54530548332E+03  0.15227023301E+04  0.11468453578E+04  0.19827341579E+04  0.10100000352E+00 0. -1.
</event>
<event>
 5   0  0.1435062E-05  0.2592918E+04  0.7818609E-02  0.8370611E-01
       -1   -1    0    0    0  501  0.00000000000E+00  0.00000000000E+00  0.91966226230E+03  0.91966226231E+03  0.50400001928E-02 0. -1.
        1   -1    0    0  501    0  0.00000000000E+00  0.00000000000E+00 -0.18276333834E+04  0.18276333834E+04  0.50400001928E-02 0.  1.
    10030    2    1    2    0    0  0.00000000000E+00  0.00000000000E+00 -0.90797112113E+03  0.27472956458E+04  0.25929176247E+04 0.  0.
        2    1    3    3  502    0 -0.11507829608E+04 -0.59539579264E+03 -0.40650831886E+03  0.13579567689E+04  0.25500000920E-02 0. -1.
       -2    1    3    3    0  502  0.11507829608E+04  0.59539579264E+03 -0.50146280227E+03  0.13893388769E+04  0.25500000920E-02 0.  1.
</event>
<event>
 5   0  0.1451052E-05  0.2206959E+04  0.7818609E-02  0.8515537E-01
        1   -1    0    0  501    0  0.00000000000E+00  0.00000000000E+00  0.21449708557E+04  0.21449708557E+04  0.50400001928E-02 0.  1.
       -1   -1    0    0    0  501  0.00000000000E+00  0.00000000000E+00 -0.56768448342E+03  0.56768448345E+03  0.50400001928E-02 0. -1.
    10030    2    1    2    0    0  0.00000000000E+00  0.00000000000E+00  0.15772863723E+04  0.27126553391E+04  0.22069586967E+04 0.  0.
        1    1    3    3  502    0  0.90906333719E+03 -0.44329448007E+03  0.24620421912E+03  0.10409239476E+04  0.50400001928E-02 0.  1.
       -1    1    3    3    0  502 -0.90906333719E+03  0.44329448007E+03  0.13310821531E+04  0.16717313916E+04  0.50400001928E-02 0. -1.
</event>
<event>
 5   0  0.3647623E-05  0.2590785E+04  0.7818609E-02  0.8371338E-01
        2   -1    0    0  501    0  0.00000000000E+00  0.00000000000E+00  0.18449325814E+04  0.18449325814E+04  0.25500000920E-02 0. -1.
       -2   -1    0    0    0  501  0.00000000000E+00  0.00000000000E+00 -0.90954062812E+03  0.90954062812E+03  0.25500000920E-02 0.  1.
    10030    2    1    2    0    0  0.00000000000E+00  0.00000000000E+00  0.93539195332E+03  0.27544732096E+04  0.25907845445E+04 0.  0.
        3    1    3    3  502    0 -0.11443032586E+04  0.28234178581E+02  0.11124905744E+04  0.15962024949E+04  0.10100000352E+00 0. -1.
       -3    1    3    3    0  502  0.11443032586E+04 -0.28234178581E+02 -0.17709862109E+03  0.11582707146E+04  0.10100000352E+00 0.  1.
</event>
<event>
 5   0  0.3508470E-05  0.2674532E+04  0.7818609E-02  0.8343316E-01
       -2   -1    0    0    0  501  0.00000000000E+00  0.00000000000E+00  0.11512678055E+04  0.11512678055E+04  0.25500000920E-02 0. -1.
        2   -1    0    0  501    0  0.00000000000E+00  0.00000000000E+00 -0.15533134861E+04  0.15533134861E+04  0.25500000920E-02 0.  1.
    10030    2    1    2    0    0  0.00000000000E+00  0.00000000000E+00 -0.40204568057E+03  0.27045812916E+04  0.26745315914E+04 0.  0.
        5    1    3    3  502    0 -0.10662048790E+03 -0.12350954673E+04 -0.70808356331E+03  0.14276670355E+04  0.46999998093E+01 0.  1.
       -5    1    3    3    0  502  0.10662048790E+03  0.12350954673E+04  0.30603788274E+03  0.12769142561E+04  0.46999998093E+01 0. -1.
</event>
<event>
 5   0  0.1497497E-05  0.2169455E+04  0.7818609E-02  0.8531250E-01
       -1   -1    0    0    0  501  0.00000000000E+00  0.00000000000E+00  0.70487725965E+03  0.70487725967E+03  0.50400001928E-02 0. -1.
        1   -1    0    0  501    0  0.00000000000E+00  0.00000000000E+00 -0.16692746644E+04  0.16692746644E+04  0.50400001928E-02 0.  1.
    10030    2    1    2    0    0  0.00000000000E+00  0.00000000000E+00 -0.96439740473E+03  0.23741519241E+04  0.21694550017E+04 0.  0.
        3    1    3    3  502    0 -0.83534421236E+03  0.46417786189E+03 -0.10438195726E+04  0.14152103557E+04  0.10100000352E+00 0.  1.
       -3    1    3    3    0  502  0.83534421236E+03 -0.46417786189E+03  0.79422167828E+02  0.95894156837E+03  0.10100000352E+00 0. -1.
</event>
<event>
 5   0  0.1533248E-05  0.2620386E+04  0.7818609E-02  0.8361309E-01
        1   -1    0    0  501    0  0.00000000000E+00  0.00000000000E+00  0.14950588427E+04  0.14950588427E+04  0.50400001928E-02 0. -1.
       -1   -1    0    0    0  501  0.00000000000E+00  0.00000000000E+00 -0.11481861389E+04  0.11481861389E+04  0.50400001928E-02 0.  1.
    10030    2    1    2    0    0  0.00000000000E+00  0.00000000000E+00  0.34687270385E+03  0.26432449816E+04  0.26203861090E+04 0.  0.
        4    1    3    3  502    0  0.21769492699E+03 -0.21807418985E+03 -0.11111153851E+04  0.11530509292E+04  0.12699999809E+01 0.  1.
       -4    1    3    3    0  502 -0.21769492699E+03  0.21807418985E+03  0.14579880889E+04  0.14901940524E+04  0.12699999809E+01 0. -1.
</event>
<event>
 5   0  0.1435062E-05  0.2640333E+04  0.7818609E-02  0.8354629E-01
       -1   -1    0    0    0  501  0.00000000000E+00  0.00000000000E+00  0.15575801102E+04  0.15575801102E+04  0.50400001928E-02 0.  1.
        1   -1    0    0  501    0  0.00000000000E+00  0.00000000000E+00 -0.11189409551E+04  0.11189409551E+04  0.50400001928E-02 0. -1.
    10030    2    1    2    0    0  0.00000000000E+00  0.00000000000E+00  0.43863915512E+03  0.26765210653E+04  0.26403334457E+04 0.  0.
        2    1    3    3  502    0  0.12810118093E+03 -0.13115338164E+04  0.13879973908E+03  0.13250646141E+04  0.25500000920E-02 0. -1.
       -2    1    3    3    0  502 -0.12810118093E+03  0.13115338164E+04  0.29983941604E+03  0.13514564512E+04  0.25500000920E-02 0.  1.
</event>
<event>
 5   0  0.3441646E-05  0.2063081E+04  0.7818609E-02  0.8577683E-01
        2   -1    0    0  501    0  0.00000000000E+00  0.00000000000E+00  0.14150868163E+04  0.14150868163E+04  0.25500000920E-02 0.  1.
       -2   -1    0    0    0  501  0.00000000000E+00  0.00000000000E+00 -0.75195071581E+03  0.75195071582E+03  0.25500000920E-02 0. -1.
    10030    2    1    2    0    0  0.00000000000E+00  0.00000000000E+00  0.66313610050E+03  0.21670375321E+04  0.20630807492E+04 0.  0.
        4    1    3    3  502    0  0.38075683456E+03 -0.82889468398E+03  0.83753707529E+03  0.12383505681E+04  0.12699999809E+01 0.  1.
       -4    1    3    3    0  502 -0.38075683456E+03  0.82889468398E+03 -0.17440097479E+03  0.92868696400E+03  0.12699999809E+01 0. -1.
</event>
<event>
 5   0  0.1474554E-05  0.2609746E+04  0.7818609E-02  0.8364898E-01
       -1   -1    0    0    0  501  0.00000000000E+00  0.00000000000E+00  0.97096842877E+03  0.97096842878E+03  0.50400001928E-02 0.  1.
        1   -1    0    0  501    0  0.00000000000E+00  0.00000000000E+00 -0.17536034406E+04  0.17536034406E+04  0.50400001928E-02 0. -1.
    10030    2    1    2    0    0  0.00000000000E+00  0.00000000000E+00 -0.78263501179E+03  0.27245718693E+04  0.26097460240E+04 0.  0.
        5    1    3    3  502    0 -0.27373849520E+03  0.65608052066E+03 -0.15336722360E+04  0.16904280614E+04  0.46999998093E+01 0. -1.
       -5    1    3    3    0  502  0.27373849520E+03 -0.65608052066E+03  0.75103722421E+03  0.10341438079E+04  0.46999998093E+01 0.  1.
</event>
<event>
 5   0  0.3508470E-05  0.2390436E+04  0.7818609E-02  0.8443093E-01
        2   -1    0    0  501    0  0.00000000000E+00  0.00000000000E+00  0.18709456270E+04  0.18709456270E+04  0.25500000920E-02 0.  1.
       -2   -1    0    0    0  501  0.00000000000E+00  0.00000000000E+00 -0.76354242199E+03  0.76354242200E+03  0.25500000920E-02 0. -1.
    10030    2    1    2    0    0  0.00000000000E+00  0.00000000000E+00  0.11074032050E+04  0.26344880490E+04  0.23904362409E+04 0.  0.
        5    1    3    3  502    0  0.11761482680E+04  0.46355586431E+02  0.32503167204E+03  0.12211229531E+04  0.46999998093E+01 0. -1.
       -5    1    3    3    0  502 -0.11761482680E+04 -0.46355586431E+02  0.78237153293E+03  0.14133650959E+04  0.46999998093E+01 0.  1.
</event>
<event>
 5   0  0.1435062E-05  0.2632177E+04  0.7818609E-02  0.8357353E-01
       -1   -1    0    0    0  501  0.00000000000E+00  0.00000000000E+00  0.14432593917E+04  0.14432593917E+04  0.50400001928E-02 0. -1.
        1   -1    0    0  501    0  0.00000000000E+00  0.00000000000E+00 -0.12001234587E+04  0.12001234587E+04  0.50400001928E-02 0.  1.
    10030    2    1    2    0    0  0.00000000000E+00  0.00000000000E+00  0.24313593309E+03  0.26433828504E+04  0.26321773899E+04 0.  0.
        2    1    3    3  502    0  0.56831989430E+03 -0.72198107166E+03  0.10678346720E+04  0.14087281699E+04  0.25500000920E-02 0. -1.
       -2    1    3    3    0  502 -0.56831989430E+03  0.72198107166E+03 -0.82469873889E+03  0.12346546805E+04  0.25500000920E-02 0.  1.
</event>
<event>
 5   0  0.3849687E-05  0.2631227E+04  0.7818609E-02  0.8357671E-01
       -2   -1    0    0    0  501  0.00000000000E+00  0.00000000000E+00  0.10287288161E+04  0.10287288161E+04  0.25500000920E-02 0.  1.
        2   -1    0    0  501    0  0.00000000000E+00  0.00000000000E+00 -0.16825020431E+04  0.16825020431E+04  0.25500000920E-02 0. -1.
    10030    2    1    2    0    0  0.00000000000E+00  0.00000000000E+00 -0.65377322702E+03  0.27112308592E+04  0.26312265846E+04 0.  0.
        1    1    3    3  502    0  0.46016102739E+03 -0.70514151657E+03 -0.13684966152E+04  0.16067842778E+04  0.50400001928E-02 0. -1.
       -1    1    3    3    0  502 -0.46016102739E+03  0.70514151657E+03  0.71472338822E+03  0.11044465814E+04  0.50400001928E-02 0.  1.
</event>
<event>
 5   0  0.1474554E-05  0.2588174E+04  0.7818609E-02  0.8372229E-01
       -1   -1    0    0    0  501  0.00000000000E+00  0.00000000000E+00  0.14444324199E+04  0.14444324200E+04  0.50400001928E-02 0.  1.
        1   -1    0    0  501    0  0.00000000000E+00  0.00000000000E+00 -0.11593906664E+04  0.11593906664E+04  0.50400001928E-02 0. -1.
    10030    2    1    2    0    0  0.00000000000E+00  0.00000000000E+00  0.28504175351E+03  0.26038230864E+04  0.25881742337E+04 0.  0.
        5    1    3    3  502    0  0.59121239972E+03 -0.69482742187E+03  0.10658511371E+04  0.14029889466E+04  0.46999998093E+01 0.  1.
       -5    1    3    3    0  502 -0.59121239972E+03  0.69482742187E+03 -0.78080938362E+03  0.12008341398E+04  0.46999998093E+01 0. -1.
</event>
<event>
 5   0  0.1435062E-05  0.2695877E+04  0.7818609E-02  0.8336344E-01
       -1   -1    0    0    0  501  0.00000000000E+00  0.00000000000E+00  0.11986043576E+04  0.11986043576E+04  0.50400001928E-02 0. -1.
        1   -1    0    0  501    0  0.00000000000E+00  0.00000000000E+00 -0.15158779198E+04  0.15158779198E+04  0.50400001928E-02 0.  1.
    10030    2    1    2    0    0  0.00000000000E+00  0.00000000000E+00 -0.31727356221E+03  0.27144822774E+04  0.26958767630E+04 0.  0.
        2    1    3    3  502    0  0.35760227062E+03  0.76809972432E+03 -0.12142428697E+04  0.14806222736E+04  0.25500000920E-02 0.  1.
       -2    1    3    3    0  502 -0.35760227062E+03 -0.76809972432E+03  0.89696930749E+03  0.12338600038E+04  0.25500000920E-02 0. -1.
</event>
<event>
 5   0  0.3499642E-05  0.2514400E+04  0.7818609E-02  0.8397874E-01
        2   -1    0    0  501    0  0.00000000000E+00  0.00000000000E+00  0.11769657414E+04  0.11769657414E+04  0.25500000920E-02 0. -1.
       -2   -1    0    0    0  501  0.00000000000E+00  0.00000000000E+00 -0.13429034408E+04  0.13429034408E+04  0.25500000920E-02 0.  1.
    10030    2    1    2    0    0  0.00000000000E+00  0.00000000000E+00 -0.16593769940E+03  0.25198691821E+04  0.25143996053E+04 0.  0.
        2    1    3    3  502    0  0.39080525046E+03 -0.69043016012E+03  0.89441095270E+03  0.11955724579E+04  0.25500000920E-02 0. -1.
       -2    1    3    3    0  502 -0.39080525046E+03  0.69043016012E+03 -0.10603486521E+04  0.13242967242E+04  0.25500000920E-02 0.  1.
</event>
<event>
 5   0  0.3499642E-05  0.2531515E+04  0.7818609E-02  0.8391844E-01
       -2   -1    0    0    0  501  0.00000000000E+00  0.00000000000E+00  0.80716332456E+03  0.80716332456E+03  0.25500000920E-02 0.  1.
        2   -1    0    0  501    0  0.00000000000E+00  0.00000000000E+00 -0.19849037751E+04  0.19849037751E+04  0.25500000920E-02 0. -1.
    10030    2    1    2    0    0  0.00000000000E+00  0.00000000000E+00 -0.11777404505E+04  0.27920670996E+04  0.25315145901E+04 0.  0.
        2    1    3    3  502    0 -0.87748288335E+03 -0.84537636302E+03 -0.21080043922E+03  0.12365574111E+04  0.25500000920E-02 0.  1.
       -2    1    3    3    0  502  0.87748288335E+03  0.84537636302E+03 -0.96694001130E+03  0.15555096886E+04  0.25500000920E-02 0. -1.
</event>
<event>
 5   0  0.3441646E-05  0.2641185E+04  0.7818609E-02  0.8354345E-01
       -2   -1    0    0    0  501  0.00000000000E+00  0.00000000000E+00  0.94747590490E+03  0.94747590491E+03  0.25500000920E-02 0.  1.
        2   -1    0    0  501    0  0.00000000000E+00  0.00000000000E+00 -0.18406431852E+04  0.18406431852E+04  0.25500000920E-02 0. -1.
    10030    2    1    2    0    0  0.00000000000E+00  0.00000000000E+00 -0.89316728033E+03  0.27881190901E+04  0.26411853911E+04 0.  0.
        4    1    3    3  502    0 -0.48787499673E+03 -0.12081678863E+04 -0.67365932572E+03  0.14668026977E+04  0.12699999809E+01 0.  1.
       -4    1    3    3    0  502  0.48787499673E+03  0.12081678863E+04 -0.21950795461E+03  0.13213163925E+04  0.12699999809E+01 0. -1.
</event>
<event>
 5   0  0.3499642E-05  0.2591662E+04  0.7818609E-02  0.8371039E-01
        2   -1    0    0  501    0  0.00000000000E+00  0.00000000000E+00  0.10080399955E+04  0.10080399955E+04  0.25500000920E-02 0. -1.
       -2   -1    0    0    0  501  0.00000000000E+00  0.00000000000E+00 -0.16657850653E+04  0.16657850653E+04  0.25500000920E-02 0.  1.
    10030    2    1    2    0    0  0.00000000000E+00  0.00000000000E+00 -0.65774506977E+03  0.26738250608E+04  0.25916619917E+04 0.  0.
        2    1    3    3  502    0  0.10329980501E+04 -0.94128359199E+02  0.47243111672E+03  0.11397965957E+04  0.25500000920E-02 0. -1.
       -2    1    3    3    0  502 -0.10329980501E+04  0.94128359199E+02 -0.11301761865E+04  0.15340284652E+04  0.25500000920E-02 0.  1.
</event>
<event>
 5   0  0.3499642E-05  0.2610189E+04  0.7818609E-02  0.8364749E-01
       -2   -1    0    0    0  501  0.00000000000E+00  0.00000000000E+00  0.76953103936E+03  0.76953103937E+03  0.25500000920E-02 0.  1.
        2   -1    0    0  501    0  0.00000000000E+00  0.00000000000E+00 -0.22133889117E+04  0.22133889117E+04  0.25500000920E-02 0. -1.
    10030    2    1    2    0    0  0.00000000000E+00  0.00000000000E+00 -0.14438578723E+04  0.29829199510E+04  0.26101888588E+04 0.  0.
        2    1    3    3  502    0 -0.11864138246E+04  0.52921231303E+03 -0.57906525246E+03  0.14223079843E+04  0.25500000920E-02 0. -1.
       -2    1    3    3    0  502  0.11864138246E+04 -0.52921231303E+03 -0.86479261985E+03  0.15606119668E+04  0.25500000920E-02 0.  1.
</event>
<event>
 5   0  0.3647623E-05  0.2595582E+04  0.7818609E-02  0.8369703E-01
       -2   -1    0    0    0  501  0.00000000000E+00  0.00000000000E+00  0.96234148037E+03  0.96234148037E+03  0.25500000920E-02 0.  1.
        2   -1    0    0  501    0  0.00000000000E+00  0.00000000000E+00 -0.17501705706E+04  0.17501705706E+04  0.25500000920E-02 0. -1.
    10030    2    1    2    0    0  0.00000000000E+00  0.00000000000E+00 -0.78782909028E+03  0.27125120510E+04  0.25955821989E+04 0.  0.
        3    1    3    3  502    0 -0.66740436384E+03  0.46271603662E+03  0.66397659906E+03  0.10489993564E+04  0.10100000352E+00 0.  1.
       -3    1    3    3    0  502  0.66740436384E+03 -0.46271603662E+03 -0.14518056893E+04  0.16635126946E+04  0.10100000352E+00 0. -1.
</event>
<event>
 5   0  0.1533248E-05  0.2538499E+04  0.7818609E-02  0.8389397E-01
       -1   -1    0    0    0  501  0.00000000000E+00  0.00000000000E+00  0.86159323176E+03  0.86159323178E+03  0.50400001928E-02 0. -1.
        1   -1    0    0  501    0  0.00000000000E+00  0.00000000000E+00 -0.18697852152E+04  0.18697852152E+04  0.50400001928E-02 0.  1.
    10030    2    1    2    0    0  0.00000000000E+00  0.00000000000E+00 -0.10081919834E+04  0.27313784470E+04  0.25384989945E+04 0.  0.
        4    1    3    3  502    0  0.13299290015E+03 -0.56736306699E+03  0.70914420485E+03  0.91786441126E+03  0.12699999809E+01 0. -1.
       -4    1    3    3    0  502 -0.13299290015E+03  0.56736306699E+03 -0.17173361883E+04  0.18135140357E+04  0.12699999809E+01 0.  1.
</event>
<event>
 5   0  0.1451052E-05  0.2626005E+04  0.7818609E-02  0.8359421E-01
        1   -1    0    0  501    0  0.00000000000E+00  0.00000000000E+00  0.19550081803E+04  0.19550081803E+04  0.50400001928E-02 0. -1.
       -1   -1    0    0    0  501  0.00000000000E+00  0.00000000000E+00 -0.88182555421E+03  0.88182555423E+03  0.50400001928E-02 0.  1.
    10030    2    1    2    0    0  0.00000000000E+00  0.00000000000E+00  0.10731826261E+04  0.28368337345E+04  0.26260054624E+04 0.  0.
        1    1    3    3  502    0 -0.65732851454E+03  0.11150703936E+04  0.29865037282E+03  0.13284031030E+04  0.50400001928E-02 0.  1.
       -1    1    3    3    0  502  0.65732851454E+03 -0.11150703936E+04  0.77453225324E+03  0.15084306315E+04  0.50400001928E-02 0. -1.
</event>
<event>
 5   0  0.1497497E-05  0.2611275E+04  0.7818609E-02  0.8364382E-01
       -1   -1    0    0    0  501  0.00000000000E+00  0.00000000000E+00  0.11120504946E+04  0.11120504946E+04  0.50400001928E-02 0.  1.
        1   -1    0    0  501    0  0.00000000000E+00  0.00000000000E+00 -0.15329238911E+04  0.15329238911E+04  0.50400001928E-02 0. -1.
    10030    2    1    2    0    0  0.00000000000E+00  0.00000000000E+00 -0.42087339646E+03  0.26449743857E+04  0.26112746093E+04 0.  0.
        3    1    3    3  502    0 -0.96500189444E+03 -0.63501775543E+03  0.40586660608E+03  0.12244198292E+04  0.10100000352E+00 0.  1.
       -3    1    3    3    0  502  0.96500189444E+03  0.63501775543E+03 -0.82674000255E+03  0.14205545565E+04  0.10100000352E+00 0. -1.
</event>
<event>
 5   0  0.1435062E-05  0.2599075E+04  0.7818609E-02  0.8368515E-01
       -1   -1    0    0    0  501  0.00000000000E+00  0.00000000000E+00  0.67274092280E+03  0.67274092281E+03  0.50400001928E-02 0.  1.
        1   -1    0    0  501    0  0.00000000000E+00  0.00000000000E+00 -0.25103240757E+04  0.25103240757E+04  0.50400001928E-02 0. -1.
    10030    2    1    2    0    0  0.00000000000E+00  0.00000000000E+00 -0.18375831529E+04  0.31830649985E+04  0.25990750164E+04 0.  0.
        2    1    3    3  502    0 -0.61965985106E+03 -0.46358422941E+03 -0.21973536718E+04  0.23296462882E+04  0.25500000920E-02 0. -1.
       -2    1    3    3    0  502  0.61965985106E+03  0.46358422941E+03  0.35977051898E+03  0.85341871031E+03  0.25500000920E-02 0.  1.
</event>
<event>
 5   0  0.1497497E-05  0.2640466E+04  0.7818609E-02  0.8354584E-01
        1   -1    0    0  501    0  0.00000000000E+00  0.00000000000E+00  0.23337217415E+04  0.23337217415E+04  0.50400001928E-02 0.  1.
       -1   -1    0    0    0  501  0.00000000000E+00  0.00000000000E+00 -0.74688197249E+03  0.74688197251E+03  0.50400001928E-02 0. -1.
    10030    2    1    2    0    0  0.00000000000E+00  0.00000000000E+00  0.15868397690E+04  0.30806037140E+04  0.26404656389E+04 0.  0.
        3    1    3    3  502    0 -0.56910912027E+03  0.37125350087E+03  0.21140487458E+04  0.22205666985E+04  0.10100000352E+00 0.  1.
       -3    1    3    3    0  502  0.56910912027E+03 -0.37125350087E+03 -0.52720897678E+03  0.86003701553E+03  0.10100000352E+00 0. -1.
</event>
<event>
 5   0  0.3441646E-05  0.2623354E+04  0.7818609E-02  0.8360311E-01
        2   -1    0    0  501    0  0.00000000000E+00  0.00000000000E+00  0.10981542541E+04  0.10981542541E+04  0.25500000920E-02 0.  1.
       -2   -1    0    0    0  501  0.00000000000E+00  0.00000000000E+00 -0.15667169957E+04  0.15667169957E+04  0.25500000920E-02 0. -1.
    10030    2    1    2    0    0  0.00000000000E+00  0.00000000000E+00 -0.46856274161E+03  0.26648712498E+04  0.26233542908E+04 0.  0.
        4    1    3    3  502    0 -0.11253319054E+01  0.11404691826E+04 -0.89247392655E+03  0.14481652341E+04  0.12699999809E+01 0.  1.
       -4    1    3    3    0  502  0.11253319054E+01 -0.11404691826E+04  0.42391118494E+03  0.12167060156E+04  0.12699999809E+01 0. -1.
</event>
<event>
 5   0  0.3441646E-05  0.2042105E+04  0.7818609E-02  0.8587184E-01
       -2   -1    0    0    0  501  0.00000000000E+00  0.00000000000E+00  0.43397611749E+03  0.43397611750E+03  0.25500000920E-02 0. -1.
        2   -1    0    0  501    0  0.00000000000E+00  0.00000000000E+00 -0.24023181648E+04  0.24023181648E+04  0.25500000920E-02 0.  1.
    10030    2    1    2    0    0  0.00000000000E+00  0.00000000000E+00 -0.19683420473E+04  0.28362942823E+04  0.20421054920E+04 0.  0.
        4    1    3    3  502    0 -0.55100018270E+03  0.30100547006E+03 -0.21025141205E+04  0.21942590399E+04  0.12699999809E+01 0.  1.
       -4    1    3    3    0  502  0.55100018270E+03 -0.30100547006E+03  0.13417207321E+03  0.64203524239E+03  0.12699999809E+01 0. -1.
</event>
<event>
 5   0  0.3499642E-05  0.2570948E+04  0.7818609E-02  0.8378137E-01
       -2   -1    0    0    0  501  0.00000000000E+00  0.00000000000E+00  0.89279499313E+03  0.89279499314E+03  0.25500000920E-02 0. -1.
        2   -1    0    0  501    0  0.00000000000E+00  0.00000000000E+00 -0.18508648318E+04  0.18508648318E+04  0.25500000920E-02 0.  1.
    10030    2    1    2    0    0  0.00000000000E+00  0.00000000000E+00 -0.95806983869E+03  0.27436598250E+04  0.25709475723E+04 0.  0.
        2    1    3    3  502    0 -0.46490969307E+03  0.11621863407E+04 -0.79130953372E+03  0.14808743672E+04  0.25500000920E-02 0.  1.
       -2    1    3    3    0  502  0.46490969307E+03 -0.11621863407E+04 -0.16676030497E+03  0.12627854578E+04  0.25500000920E-02 0. -1.
</event>
<event>
 5   0  0.1217200E-05  0.2581239E+04  0.7818609E-02  0.8374602E-01
       -3   -1    0    0    0  501  0.00000000000E+00  0.00000000000E+00  0.72120235767E+03  0.72120236474E+03  0.10100000352E+00 0.  1.
        3   -1    0    0  501    0  0.00000000000E+00  0.00000000000E+00 -0.23096142266E+04  0.23096142288E+04  0.10100000352E+00 0. -1.
    10030    2    1    2    0    0  0.00000000000E+00  0.00000000000E+00 -0.15884118689E+04  0.30308165935E+04  0.25812394229E+04 0.  0.
        1    1    3    3  502    0 -0.52643299336E+03  0.31040265907E+03 -0.21289537386E+04  0.22149323982E+04  0.50400001928E-02 0. -1.
       -1    1    3    3    0  502  0.52643299336E+03 -0.31040265907E+03  0.54054186973E+03  0.81588419534E+03  0.50400001928E-02 0.  1.
</event>
<event>
 5   0  0.1533248E-05  0.2599620E+04  0.7818609E-02  0.8368330E-01
        1   -1    0    0  501    0  0.00000000000E+00  0.00000000000E+00  0.12645234547E+04  0.12645234547E+04  0.50400001928E-02 0.  1.
       -1   -1    0    0    0  501  0.00000000000E+00  0.00000000000E+00 -0.13360815646E+04  0.13360815646E+04  0.50400001928E-02 0. -1.
    10030    2    1    2    0    0  0.00000000000E+00  0.00000000000E+00 -0.71558109840E+02  0.26006050193E+04  0.25996203383E+04 0.  0.
        4    1    3    3  502    0 -0.71254606277E+03  0.96467514281E+03 -0.53715233226E+03  0.13140982702E+04  0.12699999809E+01 0. -1.
       -4    1    3    3    0  502  0.71254606277E+03 -0.96467514281E+03  0.46559422242E+03  0.12865067491E+04  0.12699999809E+01 0.  1.
</event>
<event>
 5   0  0.1497497E-05  0.2530831E+04  0.7818609E-02  0.8392083E-01
        1   -1    0    0  501    0  0.00000000000E+00  0.00000000000E+00  0.10780574595E+04  0.10780574595E+04  0.50400001928E-02 0.  1.
       -1   -1    0    0    0  501  0.00000000000E+00  0.00000000000E+00 -0.14853350651E+04  0.14853350651E+04  0.50400001928E-02 0. -1.
    10030    2    1    2    0    0  0.00000000000E+00  0.00000000000E+00 -0.40727760560E+03  0.25633925246E+04  0.25308311258E+04 0.  0.
        3    1    3    3  502    0 -0.65850424401E+03  0.91409119591E+03  0.38004443136E+03  0.11889593491E+04  0.10100000352E+00 0. -1.
       -3    1    3    3    0  502  0.65850424401E+03 -0.91409119591E+03 -0.78732203696E+03  0.13744331755E+04  0.10100000352E+00 0.  1.
</event>
<event>
 5   0  0.1533248E-05  0.2533343E+04  0.7818609E-02  0.8391202E-01
       -1   -1    0    0    0  501  0.00000000000E+00  0.00000000000E+00  0.27286521912E+04  0.27286521912E+04  0.50400001928E-02 0.  1.
        1   -1    0    0  501    0  0.00000000000E+00  0.00000000000E+00 -0.58800336817E+03  0.58800336819E+03  0.50400001928E-02 0. -1.
    10030    2    1    2    0    0  0.00000000000E+00  0.00000000000E+00  0.21406488231E+04  0.33166555594E+04  0.25333429922E+04 0.  0.
        4    1    3    3  502    0  0.23901923437E+03  0.10972363415E+04  0.18375177183E+04  0.21534926890E+04  0.12699999809E+01 0.  1.
       -4    1    3    3    0  502 -0.23901923437E+03 -0.10972363415E+04  0.30313110479E+03  0.11631628705E+04  0.12699999809E+01 0. -1.
</event>
<event>
 5   0  0.1533248E-05  0.2315936E+04  0.7818609E-02  0.8471664E-01
       -1   -1    0    0    0  501  0.00000000000E+00  0.00000000000E+00  0.96042428779E+03  0.96042428780E+03  0.50400001928E-02 0. -1.
        1   -1    0    0  501    0  0.00000000000E+00  0.00000000000E+00 -0.13961429062E+04  0.13961429062E+04  0.50400001928E-02 0.  1.
    10030    2    1    2    0    0  0.00000000000E+00  0.00000000000E+00 -0.43571861840E+03  0.23565671940E+04  0.23159357127E+04 0.  0.
        4    1    3    3  502    0  0.84699555014E+03 -0.55134276256E+03  0.35730767837E+03  0.10719378218E+04  0.12699999809E+01 0. -1.
       -4    1    3    3    0  502 -0.84699555014E+03  0.55134276256E+03 -0.79302629677E+03  0.12846293722E+04  0.12699999809E+01 0.  1.
</event>
<event>
 5   0  0.3849687E-05  0.2592622E+04  0.7818609E-02  0.8370712E-01
        2   -1    0    0  501    0  0.00000000000E+00  0.00000000000E+00  0.13238047577E+04  0.13238047577E+04  0.25500000920E-02 0.  1.
       -2   -1    0    0    0  501  0.00000000000E+00  0.00000000000E+00 -0.12693885619E+04  0.12693885619E+04  0.25500000920E-02 0. -1.
    10030    2    1    2    0    0  0.00000000000E+00  0.00000000000E+00  0.54416195824E+02  0.25931933195E+04  0.25926223154E+04 0.  0.
        1    1    3    3  502    0  0.12706121955E+04 -0.25669656895E+03  0.35820319007E+02  0.12967773807E+04  0.50400001928E-02 0. -1.
       -1    1    3    3    0  502 -0.12706121955E+04  0.25669656895E+03  0.18595876817E+02  0.12964159388E+04  0.50400001928E-02 0.  1.
</event>
<event>
 5   0  0.3499642E-05  0.2567925E+04  0.7818609E-02  0.8379179E-01
        2   -1    0    0  501    0  0.00000000000E+00  0.00000000000E+00  0.23765829542E+04  0.23765829542E+04  0.25500000920E-02 0. -1.
       -2   -1    0    0    0  501  0.00000000000E+00  0.00000000000E+00 -0.69366830211E+03  0.69366830212E+03  0.25500000920E-02 0.  1.
    10030    2    1    2    0    0  0.00000000000E+00  0.00000000000E+00  0.16829146521E+04  0.30702512563E+04  0.25679254371E+04 0.  0.
        2    1    3    3  502    0  0.11633550697E+04 -0.54073964766E+03  0.77857798151E+03  0.15006592079E+04  0.25500000920E-02 0.  1.
       -2    1    3    3    0  502 -0.11633550697E+04  0.54073964766E+03  0.90433667056E+03  0.15695920484E+04  0.25500000920E-02 0. -1.
</event>
<event>
 5   0  0.3647623E-05  0.2502945E+04  0.7818609E-02  0.8401937E-01
        2   -1    0    0  501    0  0.00000000000E+00  0.00000000000E+00  0.19370536044E+04  0.19370536044E+04  0.25500000920E-02 0. -1.
       -2   -1    0    0    0  501  0.00000000000E+00  0.00000000000E+00 -0.80853926282E+03  0.80853926283E+03  0.25500000920E-02 0.  1.
    10030    2    1    2    0    0  0.00000000000E+00  0.00000000000E+00  0.11285143416E+04  0.27455928672E+04  0.25029453796E+04 0.  0.
        3    1    3    3  502    0  0.11132451616E+03 -0.12433647131E+04  0.46716097773E+03  0.13328872221E+04  0.10100000352E+00 0.  1.
       -3    1    3    3    0  502 -0.11132451616E+03  0.12433647131E+04  0.66135336385E+03  0.14127056451E+04  0.10100000352E+00 0. -1.
</event>
<event>
 5   0  0.3508470E-05  0.2587148E+04  0.7818609E-02  0.8372580E-01
       -2   -1    0    0    0  501  0.00000000000E+00  0.00000000000E+00  0.10369024975E+04  0.10369024975E+04  0.25500000920E-02 0.  1.
        2   -1    0    0  501    0  0.00000000000E+00  0.00000000000E+00 -0.16137814519E+04  0.16137814519E+04  0.25500000920E-02 0. -1.
    10030    2    1    2    0    0  0.00000000000E+00  0.00000000000E+00 -0.57687895437E+03  0.26506839494E+04  0.25871482508E+04 0.  0.
        5    1    3    3  502    0 -0.15653101163E+03 -0.10302700211E+04 -0.10736506490E+04  0.14962306240E+04  0.46999998093E+01 0. -1.
       -5    1    3    3    0  502  0.15653101163E+03  0.10302700211E+04  0.49677169460E+03  0.11544533254E+04  0.46999998093E+01 0.  1.
</event>
<event>
 5   0  0.1474554E-05  0.2618343E+04  0.7818609E-02  0.8361997E-01
       -1   -1    0    0    0  501  0.00000000000E+00  0.00000000000E+00  0.13832217830E+04  0.13832217830E+04  0.50400001928E-02 0.  1.
        1   -1    0    0  501    0  0.00000000000E+00  0.00000000000E+00 -0.12390859082E+04  0.12390859082E+04  0.50400001928E-02 0. -1.
    10030    2    1    2    0    0  0.00000000000E+00  0.00000000000E+00  0.14413587480E+03  0.26223076912E+04  0.26183434604E+04 0.  0.
        5    1    3    3  502    0 -0.82582034871E+03  0.95533891297E+03 -0.27379074857E+03  0.12921436263E+04  0.46999998093E+01 0.  1.
       -5    1    3    3    0  502  0.82582034871E+03 -0.95533891297E+03  0.41792662337E+03  0.13301640649E+04  0.46999998093E+01 0. -1.
</event>
<event>
 5   0  0.1435062E-05  0.2585622E+04  0.7818609E-02  0.8373101E-01
       -1   -1    0    0    0  501  0.00000000000E+00  0.00000000000E+00  0.62240174035E+03  0.62240174037E+03  0.50400001928E-02 0. -1.
        1   -1    0    0  501    0  0.00000000000E+00  0.00000000000E+00 -0.26853403522E+04  0.26853403522E+04  0.50400001928E-02 0.  1.
    10030    2    1    2    0    0  0.00000000000E+00  0.00000000000E+00 -0.20629386119E+04  0.33077420926E+04  0.25856221756E+04 0.  0.
        2    1    3    3  502    0 -0.98005146617E+02 -0.61391358093E+03  0.41862226975E+03  0.74949282742E+03  0.25500000920E-02 0. -1.
       -2    1    3    3    0  502  0.98005146617E+02  0.61391358093E+03 -0.24815608816E+04  0.25582492652E+04  0.25500000920E-02 0.  1.
</event>
<event>
 5   0  0.1474554E-05  0.2623948E+04  0.7818609E-02  0.8360112E-01
        1   -1    0    0  501    0  0.00000000000E+00  0.00000000000E+00  0.12214876982E+04  0.12214876982E+04  0.50400001928E-02 0. -1.
       -1   -1    0    0    0  501  0.00000000000E+00  0.00000000000E+00 -0.14091638525E+04  0.14091638525E+04  0.50400001928E-02 0.  1.
    10030    2    1    2    0    0  0.00000000000E+00  0.00000000000E+00 -0.18767615430E+03  0.26306515507E+04  0.26239484069E+04 0.  0.
        5    1    3    3  502    0  0.87291082646E+03 -0.25777825343E+03 -0.10411494121E+04  0.13829089367E+04  0.46999998093E+01 0.  1.
       -5    1    3    3    0  502 -0.87291082646E+03  0.25777825343E+03  0.85347325782E+03  0.12477426140E+04  0.46999998093E+01 0. -1.
</event>
<event>
 5   0  0.3499642E-05  0.2595913E+04  0.7818609E-02  0.8369591E-01
        2   -1    0    0  501    0  0.00000000000E+00  0.00000000000E+00  0.88178189471E+03  0.88178189471E+03  0.25500000920E-02 0.  1.
       -2   -1    0    0    0  501  0.00000000000E+00  0.00000000000E+00 -0.19105533830E+04  0.19105533830E+04  0.25500000920E-02 0. -1.
    10030    2    1    2    0    0  0.00000000000E+00  0.00000000000E+00 -0.10287714883E+04  0.27923352777E+04  0.25959132358E+04 0.  0.
        2    1    3    3  502    0  0.92873299044E+03  0.26172174007E+03 -0.14482025974E+04  0.17402109067E+04  0.25500000920E-02 0. -1.
       -2    1    3    3    0  502 -0.92873299044E+03 -0.26172174007E+03  0.41943110910E+03  0.10521243710E+04  0.25500000920E-02 0.  1.
</event>
<event>
 5   0  0.3849687E-05  0.2580640E+04  0.7818609E-02  0.8374807E-01
        2   -1    0    0  501    0  0.00000000000E+00  0.00000000000E+00  0.16422643814E+04  0.16422643814E+04  0.25500000920E-02 0. -1.
       -2   -1    0    0    0  501  0.00000000000E+00  0.00000000000E+00 -0.10137986890E+04  0.10137986890E+04  0.25500000920E-02 0.  1.
    10030    2    1    2    0    0  0.00000000000E+00  0.00000000000E+00  0.62846569241E+03  0.26560630705E+04  0.25806398253E+04 0.  0.
        1    1    3    3  502    0 -0.20577736696E+03 -0.12013387668E+03 -0.99095833693E+03  0.10192030704E+04  0.50400001928E-02 0.  1.
       -1    1    3    3    0  502  0.20577736696E+03  0.12013387668E+03  0.16194240293E+04  0.16368600001E+04  0.50400001928E-02 0. -1.
</event>
<event>
 5   0  0.3849687E-05  0.2588191E+04  0.7818609E-02  0.8372224E-01
        2   -1    0    0  501    0  0.00000000000E+00  0.00000000000E+00  0.16296592274E+04  0.16296592274E+04  0.25500000920E-02 0. -1.
       -2   -1    0    0    0  501  0.00000000000E+00  0.00000000000E+00 -0.10276276776E+04  0.10276276776E+04  0.25500000920E-02 0.  1.
    10030    2    1    2    0    0  0.00000000000E+00  0.00000000000E+00  0.60203154978E+03  0.26572869050E+04  0.25881908176E+04 0.  0.
        1    1    3    3  502    0 -0.37976191168E+02 -0.88328321903E+03 -0.66922697284E+03  0.11088264866E+04  0.50400001928E-02 0.  1.
       -1    1    3    3    0  502  0.37976191168E+02  0.88328321903E+03  0.12712585226E+04  0.15484604184E+04  0.50400001928E-02 0. -1.
</event>
<event>
 5   0  0.3647623E-05  0.2636278E+04  0.7818609E-02  0.8355982E-01
        2   -1    0    0  501    0  0.00000000000E+00  0.00000000000E+00  0.16531899902E+04  0.16531899902E+04  0.25500000920E-02 0.  1.
       -2   -1    0    0    0  501  0.00000000000E+00  0.00000000000E+00 -0.10509926350E+04  0.10509926350E+04  0.25500000920E-02 0. -1.
    10030    2    1    2    0    0  0.00000000000E+00  0.00000000000E+00  0.60219735516E+03  0.27041826252E+04  0.26362780612E+04 0.  0.
        3    1    3    3  502    0  0.62527132914E+03  0.83884242831E+03  0.11235425334E+04  0.15352422249E+04  0.10100000352E+00 0. -1.
       -3    1    3    3    0  502 -0.62527132914E+03 -0.83884242831E+03 -0.52134517820E+03  0.11689404004E+04  0.10100000352E+00 0.  1.
</event>
<event>
 5   0  0.1533248E-05  0.2592378E+04  0.7818609E-02  0.8370795E-01
        1   -1    0    0  501    0  0.00000000000E+00  0.00000000000E+00  0.20786971612E+04  0.20786971612E+04  0.50400001928E-02 0. -1.
       -1   -1    0    0    0  501  0.00000000000E+00  0.00000000000E+00 -0.80824926921E+03  0.80824926922E+03  0.50400001928E-02 0.  1.
    10030    2    1    2    0    0  0.00000000000E+00  0.00000000000E+00  0.12704478920E+04  0.28869464304E+04  0.25923776434E+04 0.  0.
        4    1    3    3  502    0 -0.24048092060E+03 -0.33369312664E+03 -0.73364361932E+03  0.84108070303E+03  0.12699999809E+01 0.  1.
       -4    1    3    3    0  502  0.24048092060E+03  0.33369312664E+03  0.20040915113E+04  0.20458657274E+04  0.12699999809E+01 0. -1.
</event>
<event>
 5   0  0.3647623E-05  0.2588207E+04  0.7818609E-02  0.8372218E-01
        2   -1    0    0  501    0  0.00000000000E+00  0.00000000000E+00  0.80300181017E+03  0.80300181017E+03  0.25500000920E-02 0.  1.
       -2   -1    0    0    0  501  0.00000000000E+00  0.00000000000E+00 -0.20855542385E+04  0.20855542385E+04  0.25500000920E-02 0. -1.
    10030    2    1    2    0    0  0.00000000000E+00  0.00000000000E+00 -0.12825524283E+04  0.28885560487E+04  0.25882069691E+04 0.  0.
        3    1    3    3  502    0  0.90585259570E+03 -0.18727954379E+03 -0.16513195109E+04  0.18927489770E+04  0.10100000352E+00 0. -1.
       -3    1    3    3    0  502 -0.90585259570E+03  0.18727954379E+03  0.36876708255E+03  0.99580707169E+03  0.10100000352E+00 0.  1.
</event>
<event>
 5   0  0.1435062E-05  0.2556623E+04  0.7818609E-02  0.8383086E-01
        1   -1    0    0  501    0  0.00000000000E+00  0.00000000000E+00  0.12781474806E+04  0.12781474806E+04  0.50400001928E-02 0.  1.
       -1   -1    0    0    0  501  0.00000000000E+00  0.00000000000E+00 -0.12784755504E+04  0.12784755504E+04  0.50400001928E-02 0. -1.
    10030    2    1    2    0    0  0.00000000000E+00  0.00000000000E+00 -0.32806973889E+00  0.25566230310E+04  0.25566230099E+04 0.  0.
        2    1    3    3  502    0 -0.99045442275E+03  0.68174593959E+03 -0.43410275998E+03  0.12783671992E+04  0.25500000920E-02 0.  1.
       -2    1    3    3    0  502  0.99045442275E+03 -0.68174593959E+03  0.43377469024E+03  0.12782558318E+04  0.25500000920E-02 0. -1.
</event>
<event>
 5   0  0.3508470E-05  0.2606085E+04  0.7818609E-02  0.8366137E-01
        2   -1    0    0  501    0  0.00000000000E+00  0.00000000000E+00  0.18432211417E+04  0.18432211417E+04  0.25500000920E-02 0. -1.
       -2   -1    0    0    0  501  0.00000000000E+00  0.00000000000E+00 -0.92116967465E+03  0.92116967465E+03  0.25500000920E-02 0.  1.
    10030    2    1    2    0    0  0.00000000000E+00  0.00000000000E+00  0.92205146705E+03  0.27643908164E+04  0.26060847411E+04 0.  0.
        5    1    3    3  502    0  0.47881358587E+02 -0.52945367946E+03  0.17229480794E+04  0.18031045443E+04  0.46999998093E+01 0. -1.
       -5    1    3    3    0  502 -0.47881358587E+02  0.52945367946E+03 -0.80089661237E+03  0.96128627208E+03  0.46999998093E+01 0.  1.
</event>
<event>
 5   0  0.3647623E-05  0.2609879E+04  0.7818609E-02  0.8364853E-01
        2   -1    0    0  501    0  0.00000000000E+00  0.00000000000E+00  0.99474383311E+03  0.99474383311E+03  0.25500000920E-02 0. -1.
       -2   -1    0    0    0  501  0.00000000000E+00  0.00000000000E+00 -0.17118651394E+04  0.17118651394E+04  0.25500000920E-02 0.  1.
    10030    2    1    2    0    0  0.00000000000E+00  0.00000000000E+00 -0.71712130626E+03  0.27066089725E+04  0.26098791470E+04 0.  0.
        3    1    3    3  502    0  0.82416031165E+02 -0.48879712006E+03  0.89330460190E+03  0.10216203545E+04  0.10100000352E+00 0. -1.
       -3    1    3    3    0  502 -0.82416031165E+02  0.48879712006E+03 -0.16104259082E+04  0.16849886180E+04  0.10100000352E+00 0.  1.
</event>
<event>
 5   0  0.1435062E-05  0.2395069E+04  0.7818609E-02  0.8441352E-01
       -1   -1    0    0    0  501  0.00000000000E+00  0.00000000000E+00  0.11155461483E+04  0.11155461483E+04  0.50400001928E-02 0.  1.
        1   -1    0    0  501    0  0.00000000000E+00  0.00000000000E+00 -0.12855489492E+04  0.12855489492E+04  0.50400001928E-02 0. -1.
    10030    2    1    2    0    0  0.00000000000E+00  0.00000000000E+00 -0.17000280082E+03  0.24010950975E+04  0.23950692506E+04 0.  0.
        2    1    3    3  502    0 -0.28506971080E+03  0.51396950497E+03 -0.11310151097E+04  0.12746076143E+04  0.25500000920E-02 0. -1.
       -2    1    3    3    0  502  0.28506971080E+03 -0.51396950497E+03  0.96101230886E+03  0.11264874832E+04  0.25500000920E-02 0.  1.
</event>
<event>
 5   0  0.1435062E-05  0.2621760E+04  0.7818609E-02  0.8360847E-01
       -1   -1    0    0    0  501  0.00000000000E+00  0.00000000000E+00  0.98029030478E+03  0.98029030480E+03  0.50400001928E-02 0.  1.
        1   -1    0    0  501    0  0.00000000000E+00  0.00000000000E+00 -0.17529566085E+04  0.17529566085E+04  0.50400001928E-02 0. -1.
    10030    2    1    2    0    0  0.00000000000E+00  0.00000000000E+00 -0.77266630374E+03  0.27332469133E+04  0.26217599952E+04 0.  0.
        2    1    3    3  502    0 -0.92645242314E+03  0.84701058561E+03  0.74391616738E+01  0.12553072794E+04  0.25500000920E-02 0.  1.
       -2    1    3    3    0  502  0.92645242314E+03 -0.84701058561E+03 -0.78010546541E+03  0.14779396340E+04  0.25500000920E-02 0. -1.
</event>
<event>
 5   0  0.1217200E-05  0.2602618E+04  0.7818609E-02  0.8367312E-01
        3   -1    0    0  501    0  0.00000000000E+00  0.00000000000E+00  0.21067774045E+04  0.21067774069E+04  0.10100000352E+00 0.  1.
       -3   -1    0    0    0  501  0.00000000000E+00  0.00000000000E+00 -0.80378951618E+03  0.80378952252E+03  0.10100000352E+00 0. -1.
    10030    2    1    2    0    0  0.00000000000E+00  0.00000000000E+00  0.13029878883E+04  0.29105669294E+04  0.26026183765E+04 0.  0.
        2    1    3    3  502    0 -0.83173380606E+03  0.89483889073E+03  0.15025602093E+03  0.12308918053E+04  0.25500000920E-02 0. -1.
       -2    1    3    3    0  502  0.83173380606E+03 -0.89483889073E+03  0.11527318674E+04  0.16796751241E+04  0.25500000920E-02 0.  1.
</event>
<event>
 5   0  0.3499642E-05  0.2557194E+04  0.7818609E-02  0.8382888E-01
       -2   -1    0    0    0  501  0.00000000000E+00  0.00000000000E+00  0.88213717543E+03  0.88213717544E+03  0.25500000920E-02 0.  1.
        2   -1    0    0  501    0  0.00000000000E+00  0.00000000000E+00 -0.18532382563E+04  0.18532382563E+04  0.25500000920E-02 0. -1.
    10030    2    1    2    0    0  0.00000000000E+00  0.00000000000E+00 -0.97110108082E+03  0.27353754317E+04  0.25571940566E+04 0.  0.
        2    1    3    3  502    0 -0.83596728520E+02  0.11643888526E+04 -0.10434476494E+04  0.15657499194E+04  0.25500000920E-02 0. -1.
       -2    1    3    3    0  502  0.83596728520E+02 -0.11643888526E+04  0.72346568601E+02  0.11696255123E+04  0.25500000920E-02 0.  1.
</event>
<event>
 5   0  0.3499642E-05  0.2619053E+04  0.7818609E-02  0.8361758E-01
        2   -1    0    0  501    0  0.00000000000E+00  0.00000000000E+00  0.17861599057E+04  0.17861599057E+04  0.25500000920E-02 0.  1.
       -2   -1    0    0    0  501  0.00000000000E+00  0.00000000000E+00 -0.96008193206E+03  0.96008193206E+03  0.25500000920E-02 0. -1.
    10030    2    1    2    0    0  0.00000000000E+00  0.00000000000E+00  0.82607797366E+03  0.27462418378E+04  0.26190531520E+04 0.  0.
        2    1    3    3  502    0 -0.40982855621E+03 -0.17200437245E+03 -0.87857377885E+03  0.98459983471E+03  0.25500000920E-02 0. -1.
       -2    1    3    3    0  502  0.40982855621E+03  0.17200437245E+03  0.17046517525E+04  0.17616420031E+04  0.25500000920E-02 0.  1.
</event>
<event>
 5   0  0.1497497E-05  0.2648003E+04  0.7818609E-02  0.8352076E-01
       -1   -1    0    0    0  501  0.00000000000E+00  0.00000000000E+00  0.10513734371E+04  0.10513734371E+04  0.50400001928E-02 0. -1.
        1   -1    0    0  501    0  0.00000000000E+00  0.00000000000E+00 -0.16673237086E+04  0.16673237086E+04  0.50400001928E-02 0.  1.
    10030    2    1    2    0    0  0.00000000000E+00  0.00000000000E+00 -0.61595027147E+03  0.27186971457E+04  0.26480029141E+04 0.  0.
        3    1    3    3  502    0 -0.13901707485E+03 -0.10986706833E+04  0.43705398065E+03  0.11905541607E+04  0.10100000352E+00 0. -1.
       -3    1    3    3    0  502  0.13901707485E+03  0.10986706833E+04 -0.10530042521E+04  0.15281429850E+04  0.10100000352E+00 0.  1.
</event>
<event>
 5   0  0.3441646E-05  0.2586406E+04  0.7818609E-02  0.8372834E-01
       -2   -1    0    0    0  501  0.00000000000E+00  0.00000000000E+00  0.10420597374E+04  0.10420597374E+04  0.25500000920E-02 0.  1.
        2   -1    0    0  501    0  0.00000000000E+00  0.00000000000E+00 -0.16048733103E+04  0.16048733103E+04  0.25500000920E-02 0. -1.
    10030    2    1    2    0    0  0.00000000000E+00  0.00000000000E+00 -0.56281357293E+03  0.26469330476E+04  0.25864058925E+04 0.  0.
        4    1    3    3  502    0  0.39654905152E+03 -0.39805479737E+03  0.91061431169E+03  0.10700087895E+04  0.12699999809E+01 0.  1.
       -4    1    3    3    0  502 -0.39654905152E+03  0.39805479737E+03 -0.14734278846E+04  0.15769242582E+04  0.12699999809E+01 0. -1.
</event>
<event>
 5   0  0.1451052E-05  0.2679903E+04  0.7818609E-02  0.8341555E-01
        1   -1    0    0  501    0  0.00000000000E+00  0.00000000000E+00  0.22039890464E+04  0.22039890464E+04  0.50400001928E-02 0. -1.
       -1   -1    0    0    0  501  0.00000000000E+00  0.00000000000E+00 -0.81464569720E+03  0.81464569722E+03  0.50400001928E-02 0.  1.
    10030    2    1    2    0    0  0.00000000000E+00  0.00000000000E+00  0.13893433492E+04  0.30186347436E+04  0.26799031276E+04 0.  0.
        1    1    3    3  502    0 -0.13153506279E+04  0.23422685240E+03  0.80987681461E+03  0.15623411752E+04  0.50400001928E-02 0. -1.
       -1    1    3    3    0  502  0.13153506279E+04 -0.23422685240E+03  0.57946653459E+03  0.14562935685E+04  0.50400001928E-02 0.  1.
</event>
<event>
 5   0  0.3499642E-05  0.2615423E+04  0.7818609E-02  0.8362981E-01
       -2   -1    0    0    0  501  0.00000000000E+00  0.00000000000E+00  0.11042899284E+04  0.11042899284E+04  0.25500000920E-02 0.  1.
        2   -1    0    0  501    0  0.00000000000E+00  0.00000000000E+00 -0.15486058052E+04  0.15486058052E+04  0.25500000920E-02 0. -1.
    10030    2    1    2    0    0  0.00000000000E+00  0.00000000000E+00 -0.44431587676E+03  0.26528957336E+04  0.26154233262E+04 0.  0.
        2    1    3    3  502    0  0.12366133988E+04 -0.19270074808E+03  0.16243608717E+03  0.12620347693E+04  0.25500000920E-02 0.  1.
       -2    1    3    3    0  502 -0.12366133988E+04  0.19270074808E+03 -0.60675196393E+03  0.13908609643E+04  0.25500000920E-02 0. -1.
</event>
<event>
 5   0  0.1474554E-05  0.2267053E+04  0.7818609E-02  0.8491026E-01
       -1   -1    0    0    0  501  0.00000000000E+00  0.00000000000E+00  0.97420529472E+03  0.97420529473E+03  0.50400001928E-02 0.  1.
        1   -1    0    0  501    0  0.00000000000E+00  0.00000000000E+00 -0.13189033738E+04  0.13189033738E+04  0.50400001928E-02 0. -1.
    10030    2    1    2    0    0  0.00000000000E+00  0.00000000000E+00 -0.34469807912E+03  0.22931086686E+04  0.22670532857E+04 0.  0.
        5    1    3    3  502    0  0.67223044111E+03 -0.27814374712E+03 -0.10515936233E+04  0.12787216071E+04  0.46999998093E+01 0. -1.
       -5    1    3    3    0  502 -0.67223044111E+03  0.27814374712E+03  0.70689554419E+03  0.10143870614E+04  0.46999998093E+01 0.  1.
</event>
<event>
 5   0  0.3849687E-05  0.2630765E+04  0.7818609E-02  0.8357825E-01
        2   -1    0    0  501    0  0.00000000000E+00  0.00000000000E+00  0.27665788236E+04  0.27665788236E+04  0.25500000920E-02 0.  1.
       -2   -1    0    0    0  501  0.00000000000E+00  0.00000000000E+00 -0.62540483617E+03  0.62540483618E+03  0.25500000920E-02 0. -1.
    10030    2    1    2    0    0  0.00000000000E+00  0.00000000000E+00  0.21411739874E+04  0.33919836598E+04  0.26307654977E+04 0.  0.
        1    1    3    3  502    0  0.14623523742E+03  0.11380434945E+04  0.18998962118E+04  0.22194894358E+04  0.50400001928E-02 0.  1.
       -1    1    3    3    0  502 -0.14623523742E+03 -0.11380434945E+04  0.24127777562E+03  0.11724942239E+04  0.50400001928E-02 0. -1.
</event>
<event>
 5   0  0.3508470E-05  0.2610952E+04  0.7818609E-02  0.8364491E-01
       -2   -1    0    0    0  501  0.00000000000E+00  0.00000000000E+00  0.97121898362E+03  0.97121898362E+03  0.25500000920E-02 0. -1.
        2   -1    0    0  501    0  0.00000000000E+00  0.00000000000E+00 -0.17547710559E+04  0.17547710559E+04  0.25500000920E-02 0.  1.
    10030    2    1    2    0    0  0.00000000000E+00  0.00000000000E+00 -0.78355207228E+03  0.27259900395E+04  0.26109515211E+04 0.  0.
        5    1    3    3  502    0 -0.46331770353E+03 -0.95293799430E+03  0.40437756543E+03  0.11341505283E+04  0.46999998093E+01 0. -1.
       -5    1    3    3    0  502  0.46331770353E+03  0.95293799430E+03 -0.11879296377E+04  0.15918395112E+04  0.46999998093E+01 0.  1.
</event>
<event>
 5   0  0.1451052E-05  0.2753598E+04  0.7818609E-02  0.8317821E-01
        1   -1    0    0  501    0  0.00000000000E+00  0.00000000000E+00  0.11544096839E+04  0.11544096839E+04  0.50400001928E-02 0. -1.
       -1   -1    0    0    0  501  0.00000000000E+00  0.00000000000E+00 -0.16420303104E+04  0.16420303104E+04  0.50400001928E-02 0.  1.
    10030    2    1    2    0    0  0.00000000000E+00  0.00000000000E+00 -0.48762062649E+03  0.27964399943E+04  0.27535981490E+04 0.  0.
        1    1    3    3  502    0  0.20434767653E+03 -0.12489129900E+04 -0.79449597065E+03  0.14942441156E+04  0.50400001928E-02 0.  1.
       -1    1    3    3    0  502 -0.20434767653E+03  0.12489129900E+04  0.30687534417E+03  0.13021958787E+04  0.50400001928E-02 0. -1.
</event>
<event>
 5   0  0.1533248E-05  0.2610301E+04  0.7818609E-02  0.8364711E-01
       -1   -1    0    0    0  501  0.00000000000E+00  0.00000000000E+00  0.15931515375E+04  0.15931515375E+04  0.50400001928E-02 0.  1.
        1   -1    0    0  501    0  0.00000000000E+00  0.00000000000E+00 -0.10692125028E+04  0.10692125028E+04  0.50400001928E-02 0. -1.
    10030    2    1    2    0    0  0.00000000000E+00  0.00000000000E+00  0.52393903466E+03  0.26623640403E+04  0.26103007817E+04 0.  0.
        4    1    3    3  502    0 -0.70654316016E+03 -0.90988092950E+03 -0.36372298626E+03  0.12080490746E+04  0.12699999809E+01 0. -1.
       -4    1    3    3    0  502  0.70654316016E+03  0.90988092950E+03  0.88766202093E+03  0.14543149657E+04  0.12699999809E+01 0.  1.
</event>
<event>
 5   0  0.1533248E-05  0.2141027E+04  0.7818609E-02  0.8543383E-01
        1   -1    0    0  501    0  0.00000000000E+00  0.00000000000E+00  0.63798434283E+03  0.63798434285E+03  0.50400001928E-02 0.  1.
       -1   -1    0    0    0  501  0.00000000000E+00  0.00000000000E+00 -0.17962811445E+04  0.17962811445E+04  0.50400001928E-02 0. -1.
    10030    2    1    2    0    0  0.00000000000E+00  0.00000000000E+00 -0.11582968017E+04  0.24342654874E+04  0.21410270858E+04 0.  0.
        4    1    3    3  502    0  0.22827617694E+03 -0.95379966646E+03 -0.10670543814E+04  0.14492930975E+04  0.12699999809E+01 0. -1.
       -4    1    3    3    0  502 -0.22827617694E+03  0.95379966646E+03 -0.91242420327E+02  0.98497238990E+03  0.12699999809E+01 0.  1.
</event>
<event>
 5   0  0.3499642E-05  0.2635411E+04  0.7818609E-02  0.8356271E-01
       -2   -1    0    0    0  501  0.00000000000E+00  0.00000000000E+00  0.17102038843E+04  0.17102038843E+04  0.25500000920E-02 0.  1.
        2   -1    0    0  501    0  0.00000000000E+00  0.00000000000E+00 -0.10152870377E+04  0.10152870377E+04  0.25500000920E-02 0. -1.
    10030    2    1    2    0    0  0.00000000000E+00  0.00000000000E+00  0.69491684663E+03  0.27254909220E+04  0.26354110385E+04 0.  0.
        2    1    3    3  502    0  0.23469552070E+03  0.12413783662E+04  0.73475263065E+03  0.14614936414E+04  0.25500000920E-02 0.  1.
       -2    1    3    3    0  502 -0.23469552070E+03 -0.12413783662E+04 -0.39835784021E+02  0.12639972806E+04  0.25500000920E-02 0. -1.
</event>
<event>
 5   0  0.3499642E-05  0.2731565E+04  0.7818609E-02  0.8324835E-01
        2   -1    0    0  501    0  0.00000000000E+00  0.00000000000E+00  0.16453738102E+04  0.16453738102E+04  0.25500000920E-02 0.  1.
       -2   -1    0    0    0  501  0.00000000000E+00  0.00000000000E+00 -0.11337010662E+04  0.11337010662E+04  0.25500000920E-02 0. -1.
    10030    2    1    2    0    0  0.00000000000E+00  0.00000000000E+00  0.51167274400E+03  0.27790748765E+04  0.27315651506E+04 0.  0.
        2    1    3    3  502    0  0.19215227011E+03  0.17594574874E+03  0.16198573113E+04  0.16406758091E+04  0.25500000920E-02 0.  1.
       -2    1    3    3    0  502 -0.19215227011E+03 -0.17594574874E+03 -0.11081845673E+04  0.11383990674E+04  0.25500000920E-02 0. -1.
</event>
<event>
 5   0  0.3441646E-05  0.1664233E+04  0.7818609E-02  0.8782030E-01
        2   -1    0    0  501    0  0.00000000000E+00  0.00000000000E+00  0.99637737838E+03  0.99637737838E+03  0.25500000920E-02 0.  1.
       -2   -1    0    0    0  501  0.00000000000E+00  0.00000000000E+00 -0.69493576316E+03  0.69493576317E+03  0.25500000920E-02 0. -1.
    10030    2    1    2    0    0  0.00000000000E+00  0.00000000000E+00  0.30144161522E+03  0.16913131415E+04  0.16642334858E+04 0.  0.
        4    1    3    3  502    0  0.33060639938E+02  0.36646930118E+03  0.90920526276E+03  0.98084075025E+03  0.12699999809E+01 0.  1.
       -4    1    3    3    0  502 -0.33060639938E+02 -0.36646930118E+03 -0.60776364754E+03  0.71047239130E+03  0.12699999809E+01 0. -1.
</event>
<event>
 5   0  0.3508470E-05  0.2247229E+04  0.7818609E-02  0.8499023E-01
        2   -1    0    0  501    0  0.00000000000E+00  0.00000000000E+00  0.14241892163E+04  0.14241892163E+04  0.25500000920E-02 0. -1.
       -2   -1    0    0    0  501  0.00000000000E+00  0.00000000000E+00 -0.88647627595E+03  0.88647627595E+03  0.25500000920E-02 0.  1.
    10030    2    1    2    0    0  0.00000000000E+00  0.00000000000E+00  0.53771294037E+03  0.23106654923E+04  0.22472293632E+04 0.  0.
        5    1    3    3  502    0  0.95739927315E+03 -0.56849637299E+03  0.11398473373E+03  0.11192926802E+04  0.46999998093E+01 0. -1.
       -5    1    3    3    0  502 -0.95739927315E+03  0.56849637299E+03  0.42372820664E+03  0.11913728121E+04  0.46999998093E+01 0.  1.
</event>
<event>
 5   0  0.3499642E-05  0.2597688E+04  0.7818609E-02  0.8368987E-01
       -2   -1    0    0    0  501  0.00000000000E+00  0.00000000000E+00  0.14978543749E+04  0.14978543749E+04  0.25500000920E-02 0.  1.
        2   -1    0    0  501    0  0.00000000000E+00  0.00000000000E+00 -0.11262744359E+04  0.11262744360E+04  0.25500000920E-02 0. -1.
    10030    2    1    2    0    0  0.00000000000E+00  0.00000000000E+00  0.37157993893E+03  0.26241288108E+04  0.25976875033E+04 0.  0.
        2    1    3    3  502    0 -0.10484318814E+04 -0.56836040480E+03 -0.33398813027E+03  0.12384631730E+04  0.25500000920E-02 0. -1.
       -2    1    3    3    0  502  0.10484318814E+04  0.56836040480E+03  0.70556806921E+03  0.13856656379E+04  0.25500000920E-02 0.  1.
</event>
<event>
 5   0  0.3849687E-05  0.2572882E+04  0.7818609E-02  0.8377471E-01
        2   -1    0    0  501    0  0.00000000000E+00  0.00000000000E+00  0.23357290601E+04  0.23357290601E+04  0.25500000920E-02 0. -1.
       -2   -1    0    0    0  501  0.00000000000E+00  0.00000000000E+00 -0.70852863195E+03  0.70852863195E+03  0.25500000920E-02 0.  1.
    10030    2    1    2    0    0  0.00000000000E+00  0.00000000000E+00  0.16272004281E+04  0.30442576920E+04  0.25728823646E+04 0.  0.
        1    1    3    3  502    0 -0.19974056646E+03 -0.11434426982E+04  0.14697996927E+04  0.18728771008E+04  0.50400001928E-02 0. -1.
       -1    1    3    3    0  502  0.19974056646E+03  0.11434426982E+04  0.15740073538E+03  0.11713805912E+04  0.50400001928E-02 0.  1.
</event>
<event>
 5   0  0.3441646E-05  0.2623730E+04  0.7818609E-02  0.8360185E-01
       -2   -1    0    0    0  501  0.00000000000E+00  0.00000000000E+00  0.15963627156E+04  0.15963627156E+04  0.25500000920E-02 0.  1.
        2   -1    0    0  501    0  0.00000000000E+00  0.00000000000E+00 -0.10780695725E+04  0.10780695725E+04  0.25500000920E-02 0. -1.
    10030    2    1    2    0    0  0.00000000000E+00  0.00000000000E+00  0.51829314312E+03  0.26744322881E+04  0.26237302227E+04 0.  0.
        4    1    3    3  502    0 -0.93103042718E+03  0.67660495977E+03 -0.38260419237E+03  0.12128476858E+04  0.12699999809E+01 0. -1.
       -4    1    3    3    0  502  0.93103042718E+03 -0.67660495977E+03  0.90089733549E+03  0.14615846024E+04  0.12699999809E+01 0.  1.
</event>
<event>
 5   0  0.3441646E-05  0.2578038E+04  0.7818609E-02  0.8375700E-01
       -2   -1    0    0    0  501  0.00000000000E+00  0.00000000000E+00  0.82340534288E+03  0.82340534288E+03  0.25500000920E-02 0. -1.
        2   -1    0    0  501    0  0.00000000000E+00  0.00000000000E+00 -0.20179248378E+04  0.20179248378E+04  0.25500000920E-02 0.  1.
    10030    2    1    2    0    0  0.00000000000E+00  0.00000000000E+00 -0.11945194949E+04  0.28413301807E+04  0.25780380858E+04 0.  0.
        4    1    3    3  502    0 -0.42397884561E+03 -0.45686794013E+03  0.64628260793E+03  0.89786925465E+03  0.12699999809E+01 0. -1.
       -4    1    3    3    0  502  0.42397884561E+03  0.45686794013E+03 -0.18408021028E+04  0.19434609260E+04  0.12699999809E+01 0.  1.
</event>
<event>
 5   0  0.3508470E-05  0.2607458E+04  0.7818609E-02  0.8365672E-01
       -2   -1    0    0    0  501  0.00000000000E+00  0.00000000000E+00  0.56890676983E+03  0.56890676984E+03  0.25500000920E-02 0.  1.
        2   -1    0    0  501    0  0.00000000000E+00  0.00000000000E+00 -0.29876771718E+04  0.29876771718E+04  0.25500000920E-02 0. -1.
    10030    2    1    2    0    0  0.00000000000E+00  0.00000000000E+00 -0.24187704019E+04  0.35565839416E+04  0.26074583556E+04 0.  0.
        5    1    3    3  502    0 -0.41378004729E+03 -0.58494015045E+03  0.27626437603E+03  0.76792773268E+03  0.46999998093E+01 0.  1.
       -5    1    3    3    0  502  0.41378004729E+03  0.58494015045E+03 -0.26950347780E+04  0.27886562089E+04  0.46999998093E+01 0. -1.
</event>
<event>
 5   0  0.1533248E-05  0.2595537E+04  0.7818609E-02  0.8369719E-01
       -1   -1    0    0    0  501  0.00000000000E+00  0.00000000000E+00  0.14588839193E+04  0.14588839193E+04  0.50400001928E-02 0. -1.
        1   -1    0    0  501    0  0.00000000000E+00  0.00000000000E+00 -0.11544460913E+04  0.11544460913E+04  0.50400001928E-02 0.  1.
    10030    2    1    2    0    0  0.00000000000E+00  0.00000000000E+00  0.30443782803E+03  0.26133300106E+04  0.25955368141E+04 0.  0.
        4    1    3    3  502    0 -0.17372526775E+03  0.76625139160E+03 -0.88776054227E+03  0.11855134150E+04  0.12699999809E+01 0.  1.
       -4    1    3    3    0  502  0.17372526775E+03 -0.76625139160E+03  0.11921983703E+04  0.14278165957E+04  0.12699999809E+01 0. -1.
</event>
<event>
 5   0  0.3508470E-05  0.2605336E+04  0.7818609E-02  0.8366391E-01
       -2   -1    0    0    0  501  0.00000000000E+00  0.00000000000E+00  0.80453343019E+03  0.80453343019E+03  0.25500000920E-02 0.  1.
        2   -1    0    0  501    0  0.00000000000E+00  0.00000000000E+00 -0.21092267935E+04  0.21092267935E+04  0.25500000920E-02 0. -1.
    10030    2    1    2    0    0  0.00000000000E+00  0.00000000000E+00 -0.13046933633E+04  0.29137602237E+04  0.26053356538E+04 0.  0.
        5    1    3    3  502    0 -0.61168205272E+03 -0.28185812498E+03 -0.18993913611E+04  0.20152688577E+04  0.46999998093E+01 0. -1.
       -5    1    3    3    0  502  0.61168205272E+03  0.28185812498E+03  0.59469799776E+03  0.89849136600E+03  0.46999998093E+01 0.  1.
</event>
<event>
 5   0  0.3647623E-05  0.2585313E+04  0.7818609E-02  0.8373207E-01
        2   -1    0    0  501    0  0.00000000000E+00  0.00000000000E+00  0.11090399988E+04  0.11090399988E+04  0.25500000920E-02 0.  1.
       -2   -1    0    0    0  501  0.00000000000E+00  0.00000000000E+00 -0.15066727990E+04  0.15066727990E+04  0.25500000920E-02 0. -1.
    10030    2    1    2    0    0  0.00000000000E+00  0.00000000000E+00 -0.39763280027E+03  0.26157127978E+04  0.25853126690E+04 0.  0.
        3    1    3    3  502    0 -0.15798433406E+03  0.32943916952E+03 -0.14533447317E+04  0.14985660265E+04  0.10100000352E+00 0. -1.
       -3    1    3    3    0  502  0.15798433406E+03 -0.32943916952E+03  0.10557119315E+04  0.11171467713E+04  0.10100000352E+00 0.  1.
</event>
<event>
 5   0  0.1217200E-05  0.2538930E+04  0.7818609E-02  0.8389246E-01
        4   -1    0    0  501    0  0.00000000000E+00  0.00000000000E+00  0.15940790546E+04  0.15940795605E+04  0.12699999809E+01 0. -1.
       -4   -1    0    0    0  501  0.00000000000E+00  0.00000000000E+00 -0.10109533417E+04  0.10109541394E+04  0.12699999809E+01 0.  1.
    10030    2    1    2    0    0  0.00000000000E+00  0.00000000000E+00  0.58312571296E+03  0.26050336999E+04  0.25389298889E+04 0.  0.
        3    1    3    3  502    0 -0.20818050260E+03 -0.25175341279E+03  0.15502136431E+04  0.15842604748E+04  0.10100000352E+00 0. -1.
       -3    1    3    3    0  502  0.20818050260E+03  0.25175341279E+03 -0.96708793010E+03  0.10207732252E+04  0.10100000352E+00 0.  1.
</event>
<event>
 5   0  0.1451052E-05  0.2585028E+04  0.7818609E-02  0.8373305E-01
        1   -1    0    0  501    0  0.00000000000E+00  0.00000000000E+00  0.21275193788E+04  0.21275193788E+04  0.50400001928E-02 0.  1.
       -1   -1    0    0    0  501  0.00000000000E+00  0.00000000000E+00 -0.78523035365E+03  0.78523035367E+03  0.50400001928E-02 0. -1.
    10030    2    1    2    0    0  0.00000000000E+00  0.00000000000E+00  0.13422890251E+04  0.29127497324E+04  0.25850282739E+04 0.  0.
        1    1    3    3  502    0  0.96624436573E+03 -0.38261456207E+03  0.15370566514E+04  0.18554151091E+04  0.50400001928E-02 0.  1.
       -1    1    3    3    0  502 -0.96624436573E+03  0.38261456207E+03 -0.19476762630E+03  0.10573346233E+04  0.50400001928E-02 0. -1.
</event>
<event>
 5   0  0.1474554E-05  0.2654735E+04  0.7818609E-02  0.8349843E-01
        1   -1    0    0  501    0  0.00000000000E+00  0.00000000000E+00  0.19102359392E+04  0.19102359392E+04  0.50400001928E-02 0. -1.
       -1   -1    0    0    0  501  0.00000000000E+00  0.00000000000E+00 -0.92234917396E+03  0.92234917397E+03  0.50400001928E-02 0.  1.
    10030    2    1    2    0    0  0.00000000000E+00  0.00000000000E+00  0.98788676528E+03  0.28325851132E+04  0.26547350456E+04 0.  0.
        5    1    3    3  502    0  0.10130304561E+04  0.28259378252E+03  0.13580055855E+04  0.17176411765E+04  0.46999998093E+01 0. -1.
       -5    1    3    3    0  502 -0.10130304561E+04 -0.28259378252E+03 -0.37011882025E+03  0.11149439367E+04  0.46999998093E+01 0.  1.
</event>
<event>
 5   0  0.1474554E-05  0.2340579E+04  0.7818609E-02  0.8462091E-01
        1   -1    0    0  501    0  0.00000000000E+00  0.00000000000E+00  0.20663558645E+04  0.20663558645E+04  0.50400001928E-02 0.  1.
       -1   -1    0    0    0  501  0.00000000000E+00  0.00000000000E+00 -0.66279866369E+03  0.66279866371E+03  0.50400001928E-02 0. -1.
    10030    2    1    2    0    0  0.00000000000E+00  0.00000000000E+00  0.14035572008E+04  0.27291545282E+04  0.23405793349E+04 0.  0.
        5    1    3    3  502    0 -0.18712537210E+03 -0.14606701366E+02  0.20486800645E+04  0.20572655048E+04  0.46999998093E+01 0.  1.
       -5    1    3    3    0  502  0.18712537210E+03  0.14606701366E+02 -0.64512286365E+03  0.67188902344E+03  0.46999998093E+01 0. -1.
</event>
<event>
 5   0  0.3849687E-05  0.2162559E+04  0.7818609E-02  0.8534175E-01
       -2   -1    0    0    0  501  0.00000000000E+00  0.00000000000E+00  0.79045336385E+03  0.79045336386E+03  0.25500000920E-02 0.  1.
        2   -1    0    0  501    0  0.00000000000E+00  0.00000000000E+00 -0.14791078918E+04  0.14791078918E+04  0.25500000920E-02 0. -1.
    10030    2    1    2    0    0  0.00000000000E+00  0.00000000000E+00 -0.68865452799E+03  0.22695612557E+04  0.21625594176E+04 0.  0.
        1    1    3    3  502    0 -0.29144914287E+03 -0.22731475339E+03 -0.14107506487E+04  0.14583662067E+04  0.50400001928E-02 0. -1.
       -1    1    3    3    0  502  0.29144914287E+03  0.22731475339E+03  0.72209612070E+03  0.81119504902E+03  0.50400001928E-02 0.  1.
</event>
<event>
 5   0  0.3849687E-05  0.2549446E+04  0.7818609E-02  0.8385579E-01
       -2   -1    0    0    0  501  0.00000000000E+00  0.00000000000E+00  0.17437448063E+04  0.17437448063E+04  0.25500000920E-02 0. -1.
        2   -1    0    0  501    0  0.00000000000E+00  0.00000000000E+00 -0.93185574177E+03  0.93185574177E+03  0.25500000920E-02 0.  1.
    10030    2    1    2    0    0  0.00000000000E+00  0.00000000000E+00  0.81188906457E+03  0.26756005481E+04  0.25494459084E+04 0.  0.
        1    1    3    3  502    0  0.71593362519E+03  0.35007064550E+03 -0.63817686861E+03  0.10209701897E+04  0.50400001928E-02 0.  1.
       -1    1    3    3    0  502 -0.71593362519E+03 -0.35007064550E+03  0.14500659332E+04  0.16546303585E+04  0.50400001928E-02 0. -1.
</event>
<event>
 5   0  0.1533248E-05  0.2584304E+04  0.7818609E-02  0.8373553E-01
       -1   -1    0    0    0  501  0.00000000000E+00  0.00000000000E+00  0.10041944926E+04  0.10041944926E+04  0.50400001928E-02 0. -1.
        1   -1    0    0  501    0  0.00000000000E+00  0.00000000000E+00 -0.16626820431E+04  0.16626820431E+04  0.50400001928E-02 0.  1.
    10030    2    1    2    0    0  0.00000000000E+00  0.00000000000E+00 -0.65848755049E+03  0.26668765358E+04  0.25843035044E+04 0.  0.
        4    1    3    3  502    0 -0.11668967756E+04  0.27177921923E+03  0.17009987039E+03  0.12101436310E+04  0.12699999809E+01 0. -1.
       -4    1    3    3    0  502  0.11668967756E+04 -0.27177921923E+03 -0.82858742088E+03  0.14567329048E+04  0.12699999809E+01 0.  1.
</event>
<event>
 5   0  0.3499642E-05  0.2570064E+04  0.7818609E-02  0.8378442E-01
        2   -1    0    0  501    0  0.00000000000E+00  0.00000000000E+00  0.14658885397E+04  0.14658885397E+04  0.25500000920E-02 0.  1.
       -2   -1    0    0    0  501  0.00000000000E+00  0.00000000000E+00 -0.11264885266E+04  0.11264885266E+04  0.25500000920E-02 0. -1.
    10030    2    1    2    0    0  0.00000000000E+00  0.00000000000E+00  0.33940001304E+03  0.25923770663E+04  0.25700635177E+04 0.  0.
        2    1    3    3  502    0  0.15609510744E+03  0.93980863660E+03  0.10395680952E+04  0.14100736791E+04  0.25500000920E-02 0.  1.
       -2    1    3    3    0  502 -0.15609510744E+03 -0.93980863660E+03 -0.70016808217E+03  0.11823033872E+04  0.25500000920E-02 0. -1.
</event>
<event>
 5   0  0.3508470E-05  0.2619933E+04  0.7818609E-02  0.8361462E-01
        2   -1    0    0  501    0  0.00000000000E+00  0.00000000000E+00  0.13232889046E+04  0.13232889046E+04  0.25500000920E-02 0.  1.
       -2   -1    0    0    0  501  0.00000000000E+00  0.00000000000E+00 -0.12967778430E+04  0.12967778430E+04  0.25500000920E-02 0. -1.
    10030    2    1    2    0    0  0.00000000000E+00  0.00000000000E+00  0.26511061588E+02  0.26200667476E+04  0.26199326185E+04 0.  0.
        5    1    3    3  502    0 -0.12783244942E+04 -0.27144097451E+03 -0.77280458957E+02  0.13091172883E+04  0.46999998093E+01 0. -1.
       -5    1    3    3    0  502  0.12783244942E+04  0.27144097451E+03  0.10379152055E+03  0.13109494593E+04  0.46999998093E+01 0.  1.
</event>
<event>
 5   0  0.3508470E-05  0.1676962E+04  0.7818609E-02  0.8774614E-01
       -2   -1    0    0    0  501  0.00000000000E+00  0.00000000000E+00  0.65445729665E+03  0.65445729666E+03  0.25500000920E-02 0. -1.
        2   -1    0    0  501    0  0.00000000000E+00  0.00000000000E+00 -0.10742493999E+04  0.10742493999E+04  0.25500000920E-02 0.  1.
    10030    2    1    2    0    0  0.00000000000E+00  0.00000000000E+00 -0.41979210326E+03  0.17287066966E+04  0.16769619652E+04 0.  0.
        5    1    3    3  502    0 -0.25902444450E+03 -0.62271882717E+03 -0.72341961471E+03  0.98905532176E+03  0.46999998093E+01 0. -1.
       -5    1    3    3    0  502  0.25902444450E+03  0.62271882717E+03  0.30362751145E+03  0.73965137481E+03  0.46999998093E+01 0.  1.
</event>
<event>
 5   0  0.1451052E-05  0.2607264E+04  0.7818609E-02  0.8365738E-01
        1   -1    0    0  501    0  0.00000000000E+00  0.00000000000E+00  0.25084800529E+04  0.25084800529E+04  0.50400001928E-02 0.  1.
       -1   -1    0    0    0  501  0.00000000000E+00  0.00000000000E+00 -0.67748442932E+03  0.67748442934E+03  0.50400001928E-02 0. -1.
    10030    2    1    2    0    0  0.00000000000E+00  0.00000000000E+00  0.18309956236E+04  0.31859644822E+04  0.26072638356E+04 0.  0.
        1    1    3    3  502    0  0.16654145294E+03 -0.10865560841E+04  0.17718412805E+04  0.20851287017E+04  0.50400001928E-02 0.  1.
       -1    1    3    3    0  502 -0.16654145294E+03  0.10865560841E+04  0.59154343084E+02  0.11008357805E+04  0.50400001928E-02 0. -1.
</event>
<event>
 5   0  0.1533248E-05  0.2583515E+04  0.7818609E-02  0.8373822E-01
       -1   -1    0    0    0  501  0.00000000000E+00  0.00000000000E+00  0.12000465366E+04  0.12000465366E+04  0.50400001928E-02 0.  1.
        1   -1    0    0  501    0  0.00000000000E+00  0.00000000000E+00 -0.13904774070E+04  0.13904774070E+04  0.50400001928E-02 0. -1.
    10030    2    1    2    0    0  0.00000000000E+00  0.00000000000E+00 -0.19043087035E+03  0.25905239436E+04  0.25835151221E+04 0.  0.
        4    1    3    3  502    0 -0.82705679324E+03  0.68106254600E+03  0.62838408368E+03  0.12420697647E+04  0.12699999809E+01 0.  1.
       -4    1    3    3    0  502  0.82705679324E+03 -0.68106254600E+03 -0.81881495404E+03  0.13484541789E+04  0.12699999809E+01 0. -1.
</event>
<event>
 5   0  0.3647623E-05  0.2634707E+04  0.7818609E-02  0.8356507E-01
       -2   -1    0    0    0  501  0.00000000000E+00  0.00000000000E+00  0.10177387430E+04  0.10177387430E+04  0.25500000920E-02 0.  1.
        2   -1    0    0  501    0  0.00000000000E+00  0.00000000000E+00 -0.17051730363E+04  0.17051730363E+04  0.25500000920E-02 0. -1.
    10030    2    1    2    0    0  0.00000000000E+00  0.00000000000E+00 -0.68743429337E+03  0.27229117793E+04  0.26347073178E+04 0.  0.
        3    1    3    3  502    0 -0.10631319065E+04  0.54134388716E+03  0.23366134147E+03  0.12156892232E+04  0.10100000352E+00 0. -1.
       -3    1    3    3    0  502  0.10631319065E+04 -0.54134388716E+03 -0.92109563485E+03  0.15072225561E+04  0.10100000352E+00 0.  1.
</event>
<event>
 5   0  0.3849687E-05  0.3080127E+04  0.7818609E-02  0.8221213E-01
        2   -1    0    0  501    0  0.00000000000E+00  0.00000000000E+00  0.13496952586E+04  0.13496952586E+04  0.25500000920E-02 0.  1.
       -2   -1    0    0    0  501  0.00000000000E+00  0.00000000000E+00 -0.17572826216E+04  0.17572826216E+04  0.25500000920E-02 0. -1.
    10030    2    1    2    0    0  0.00000000000E+00  0.00000000000E+00 -0.40758736299E+03  0.31069778801E+04  0.30801272846E+04 0.  0.
        1    1    3    3  502    0 -0.56590968550E+03 -0.48363914953E+03 -0.15637435095E+04  0.17318932885E+04  0.50400001928E-02 0. -1.
       -1    1    3    3    0  502  0.56590968550E+03  0.48363914953E+03  0.11561561465E+04  0.13750845917E+04  0.50400001928E-02 0.  1.
</event>
<event>
 5   0  0.3508470E-05  0.2603175E+04  0.7818609E-02  0.8367123E-01
       -2   -1    0    0    0  501  0.00000000000E+00  0.00000000000E+00  0.95182261545E+03  0.95182261546E+03  0.25500000920E-02 0. -1.
        2   -1    0    0  501    0  0.00000000000E+00  0.00000000000E+00 -0.17798805203E+04  0.17798805203E+04  0.25500000920E-02 0.  1.
    10030    2    1    2    0    0  0.00000000000E+00  0.00000000000E+00 -0.82805790488E+03  0.27317031358E+04  0.26031753933E+04 0.  0.
        5    1    3    3  502    0 -0.52718377307E+03 -0.12014277294E+03 -0.16564407710E+04  0.17424623767E+04  0.46999998093E+01 0.  1.
       -5    1    3    3    0  502  0.52718377307E+03  0.12014277294E+03  0.82838286613E+03  0.98924075905E+03  0.46999998093E+01 0. -1.
</event>
<event>
 5   0  0.1217200E-05  0.2570956E+04  0.7818609E-02  0.8378134E-01
        4   -1    0    0  501    0  0.00000000000E+00  0.00000000000E+00  0.12501930705E+04  0.12501937155E+04  0.12699999809E+01 0.  1.
       -4   -1    0    0    0  501  0.00000000000E+00  0.00000000000E+00 -0.13217577422E+04  0.13217583523E+04  0.12699999809E+01 0. -1.
    10030    2    1    2    0    0  0.00000000000E+00  0.00000000000E+00 -0.71564671718E+02  0.25719520679E+04  0.25709562301E+04 0.  0.
        5    1    3    3  502    0  0.53800230771E+03  0.11661125645E+04  0.20514661349E+02  0.12844095677E+04  0.46999998093E+01 0. -1.
       -5    1    3    3    0  502 -0.53800230771E+03 -0.11661125645E+04 -0.92079333067E+02  0.12875425002E+04  0.46999998093E+01 0.  1.
</event>
<event>
 5   0  0.3647623E-05  0.2424037E+04  0.7818609E-02  0.8430559E-01
        2   -1    0    0  501    0  0.00000000000E+00  0.00000000000E+00  0.23009342397E+04  0.23009342397E+04  0.25500000920E-02 0.  1.
       -2   -1    0    0    0  501  0.00000000000E+00  0.00000000000E+00 -0.63843166108E+03  0.63843166108E+03  0.25500000920E-02 0. -1.
    10030    2    1    2    0    0  0.00000000000E+00  0.00000000000E+00  0.16625025786E+04  0.29393659008E+04  0.24240373501E+04 0.  0.
        3    1    3    3  502    0 -0.38079058855E+03 -0.32253955912E+03 -0.50807511679E+03  0.71216119947E+03  0.10100000352E+00 0. -1.
       -3    1    3    3    0  502  0.38079058855E+03  0.32253955912E+03  0.21705776954E+04  0.22272047013E+04  0.10100000352E+00 0.  1.
</event>
<event>
 5   0  0.3441646E-05  0.2610623E+04  0.7818609E-02  0.8364602E-01
       -2   -1    0    0    0  501  0.00000000000E+00  0.00000000000E+00  0.89562618207E+03  0.89562618207E+03  0.25500000920E-02 0.  1.
        2   -1    0    0  501    0  0.00000000000E+00  0.00000000000E+00 -0.19023992526E+04  0.19023992526E+04  0.25500000920E-02 0. -1.
    10030    2    1    2    0    0  0.00000000000E+00  0.00000000000E+00 -0.10067730705E+04  0.27980254346E+04  0.26106233580E+04 0.  0.
        4    1    3    3  502    0 -0.21705664202E+03 -0.12387392724E+04 -0.12864742369E+03  0.12641757565E+04  0.12699999809E+01 0.  1.
       -4    1    3    3    0  502  0.21705664202E+03  0.12387392724E+04 -0.87812564679E+03  0.15338496782E+04  0.12699999809E+01 0. -1.
</event>
<event>
 5   0  0.1217200E-05  0.2457078E+04  0.7818609E-02  0.8418438E-01
        3   -1    0    0  501    0  0.00000000000E+00  0.00000000000E+00  0.13103401945E+04  0.13103401984E+04  0.10100000352E+00 0. -1.
       -3   -1    0    0    0  501  0.00000000000E+00  0.00000000000E+00 -0.11518442488E+04  0.11518442532E+04  0.10100000352E+00 0.  1.
    10030    2    1    2    0    0  0.00000000000E+00  0.00000000000E+00  0.15849594575E+03  0.24621844517E+04  0.24570777988E+04 0.  0.
        1    1    3    3  502    0 -0.19695731503E+03 -0.12037000029E+04  0.22659760992E+03  0.12405774291E+04  0.50400001928E-02 0.  1.
       -1    1    3    3    0  502  0.19695731503E+03  0.12037000029E+04 -0.68101664166E+02  0.12216070225E+04  0.50400001928E-02 0. -1.
</event>
<event>
 5   0  0.3647623E-05  0.2545199E+04  0.7818609E-02  0.8387058E-01
        2   -1    0    0  501    0  0.00000000000E+00  0.00000000000E+00  0.12859181804E+04  0.12859181804E+04  0.25500000920E-02 0. -1.
       -2   -1    0    0    0  501  0.00000000000E+00  0.00000000000E+00 -0.12594191103E+04  0.12594191103E+04  0.25500000920E-02 0.  1.
    10030    2    1    2    0    0  0.00000000000E+00  0.00000000000E+00  0.26499070112E+02  0.25453372907E+04  0.25451993484E+04 0.  0.
        3    1    3    3  502    0  0.45748941340E+03  0.67453577374E+03  0.99065343806E+03  0.12828442298E+04  0.10100000352E+00 0. -1.
       -3    1    3    3    0  502 -0.45748941340E+03 -0.67453577374E+03 -0.96415436795E+03  0.12624930609E+04  0.10100000352E+00 0.  1.
</event>
<event>
 5   0  0.3441646E-05  0.2586984E+04  0.7818609E-02  0.8372636E-01
       -2   -1    0    0    0  501  0.00000000000E+00  0.00000000000E+00  0.14123658676E+04  0.14123658676E+04  0.25500000920E-02 0.  1.
        2   -1    0    0  501    0  0.00000000000E+00  0.00000000000E+00 -0.11846232719E+04  0.11846232719E+04  0.25500000920E-02 0. -1.
    10030    2    1    2    0    0  0.00000000000E+00  0.00000000000E+00  0.22774259562E+03  0.25969891395E+04  0.25869839390E+04 0.  0.
        4    1    3    3  502    0  0.12306291576E+04 -0.39363631532E+03  0.17511700804E+03  0.13038655037E+04  0.12699999809E+01 0.  1.
       -4    1    3    3    0  502 -0.12306291576E+04  0.39363631532E+03  0.52625587583E+02  0.12931236358E+04  0.12699999809E+01 0. -1.
</event>
<event>
 5   0  0.3849687E-05  0.2604320E+04  0.7818609E-02  0.8366735E-01
        2   -1    0    0  501    0  0.00000000000E+00  0.00000000000E+00  0.21554378661E+04  0.21554378661E+04  0.25500000920E-02 0.  1.
       -2   -1    0    0    0  501  0.00000000000E+00  0.00000000000E+00 -0.78667132202E+03  0.78667132202E+03  0.25500000920E-02 0. -1.
    10030    2    1    2    0    0  0.00000000000E+00  0.00000000000E+00  0.13687665441E+04  0.29421091882E+04  0.26043203764E+04 0.  0.
        1    1    3    3  502    0  0.24826013087E+03  0.10631533805E+03  0.21234518922E+04  0.21405569327E+04  0.50400001928E-02 0.  1.
       -1    1    3    3    0  502 -0.24826013087E+03 -0.10631533805E+03 -0.75468534805E+03  0.80155225548E+03  0.50400001928E-02 0. -1.
</event>
<event>
 5   0  0.1533248E-05  0.2543276E+04  0.7818609E-02  0.8387728E-01
        1   -1    0    0  501    0  0.00000000000E+00  0.00000000000E+00  0.11055712580E+04  0.11055712580E+04  0.50400001928E-02 0.  1.
       -1   -1    0    0    0  501  0.00000000000E+00  0.00000000000E+00 -0.14626498540E+04  0.14626498540E+04  0.50400001928E-02 0. -1.
    10030    2    1    2    0    0  0.00000000000E+00  0.00000000000E+00 -0.35707859603E+03  0.25682211120E+04  0.25432763429E+04 0.  0.
        4    1    3    3  502    0  0.72439523436E+03  0.98198875929E+03  0.18275707626E+03  0.12338768742E+04  0.12699999809E+01 0.  1.
       -4    1    3    3    0  502 -0.72439523436E+03 -0.98198875929E+03 -0.53983567229E+03  0.13343442378E+04  0.12699999809E+01 0. -1.
</event>
<event>
 5   0  0.3647623E-05  0.2591320E+04  0.7818609E-02  0.8371156E-01
        2   -1    0    0  501    0  0.00000000000E+00  0.00000000000E+00  0.16789251883E+04  0.16789251883E+04  0.25500000920E-02 0. -1.
       -2   -1    0    0    0  501  0.00000000000E+00  0.00000000000E+00 -0.99988663579E+03  0.99988663579E+03  0.25500000920E-02 0.  1.
    10030    2    1    2    0    0  0.00000000000E+00  0.00000000000E+00  0.67903855249E+03  0.26788118241E+04  0.25913200175E+04 0.  0.
        3    1    3    3  502    0 -0.11356280282E+03 -0.10828290861E+04  0.10656006605E+04  0.15234566347E+04  0.10100000352E+00 0. -1.
       -3    1    3    3    0  502  0.11356280282E+03  0.10828290861E+04 -0.38656210805E+03  0.11553551893E+04  0.10100000352E+00 0.  1.
</event>
<event>
 5   0  0.3508470E-05  0.2459911E+04  0.7818609E-02  0.8417408E-01
       -2   -1    0    0    0  501  0.00000000000E+00  0.00000000000E+00  0.14158677052E+04  0.14158677052E+04  0.25500000920E-02 0.  1.
        2   -1    0    0  501    0  0.00000000000E+00  0.00000000000E+00 -0.10684547352E+04  0.10684547352E+04  0.25500000920E-02 0. -1.
    10030    2    1    2    0    0  0.00000000000E+00  0.00000000000E+00  0.34741297001E+03  0.24843224404E+04  0.24599110179E+04 0.  0.
        5    1    3    3  502    0  0.91000120040E+03 -0.73296641558E+03  0.56147840875E+03  0.12963880764E+04  0.46999998093E+01 0.  1.
       -5    1    3    3    0  502 -0.91000120040E+03  0.73296641558E+03 -0.21406543874E+03  0.11879343640E+04  0.46999998093E+01 0. -1.
</event>
<event>
 5   0  0.1497497E-05  0.2637172E+04  0.7818609E-02  0.8355683E-01
        1   -1    0    0  501    0  0.00000000000E+00  0.00000000000E+00  0.22377979209E+04  0.22377979209E+04  0.50400001928E-02 0.  1.
       -1   -1    0    0    0  501  0.00000000000E+00  0.00000000000E+00 -0.77695556648E+03  0.77695556649E+03  0.50400001928E-02 0. -1.
    10030    2    1    2    0    0  0.00000000000E+00  0.00000000000E+00  0.14608423544E+04  0.30147534874E+04  0.26371723882E+04 0.  0.
        3    1    3    3  502    0 -0.65472940194E+03 -0.76404508494E+02 -0.57508502986E+03  0.87477485130E+03  0.10100000352E+00 0. -1.
       -3    1    3    3    0  502  0.65472940194E+03  0.76404508494E+02  0.20359273843E+04  0.21399786361E+04  0.10100000352E+00 0.  1.
</event>
<event>
 5   0  0.1533248E-05  0.2597201E+04  0.7818609E-02  0.8369153E-01
        1   -1    0    0  501    0  0.00000000000E+00  0.00000000000E+00  0.11945615339E+04  0.11945615339E+04  0.50400001928E-02 0.  1.
       -1   -1    0    0    0  501  0.00000000000E+00  0.00000000000E+00 -0.14117004834E+04  0.14117004834E+04  0.50400001928E-02 0. -1.
    10030    2    1    2    0    0  0.00000000000E+00  0.00000000000E+00 -0.21713894948E+03  0.26062620173E+04  0.25972008739E+04 0.  0.
        4    1    3    3  502    0 -0.48597066936E+03  0.16524032642E+03 -0.13055804732E+04  0.14028591668E+04  0.12699999809E+01 0. -1.
       -4    1    3    3    0  502  0.48597066936E+03 -0.16524032642E+03  0.10884415238E+04  0.12034028505E+04  0.12699999809E+01 0.  1.
</event>
<event>
 5   0  0.3441646E-05  0.2536480E+04  0.7818609E-02  0.8390103E-01
       -2   -1    0    0    0  501  0.00000000000E+00  0.00000000000E+00  0.12778432818E+04  0.12778432818E+04  0.25500000920E-02 0.  1.
        2   -1    0    0  501    0  0.00000000000E+00  0.00000000000E+00 -0.12587086714E+04  0.12587086714E+04  0.25500000920E-02 0. -1.
    10030    2    1    2    0    0  0.00000000000E+00  0.00000000000E+00  0.19134610362E+02  0.25365519533E+04  0.25364797808E+04 0.  0.
        4    1    3    3  502    0 -0.12635994519E+04  0.19774682411E+02  0.11613578101E+03  0.12690798814E+04  0.12699999809E+01 0.  1.
       -4    1    3    3    0  502  0.12635994519E+04 -0.19774682411E+02 -0.97001170647E+02  0.12674720718E+04  0.12699999809E+01 0. -1.
</event>
<event>
 5   0  0.1497497E-05  0.1592942E+04  0.7818609E-02  0.8824896E-01
        1   -1    0    0  501    0  0.00000000000E+00  0.00000000000E+00  0.42817117055E+03  0.42817117058E+03  0.50400001928E-02 0.  1.
       -1   -1    0    0    0  501  0.00000000000E+00  0.00000000000E+00 -0.14815717872E+04  0.14815717872E+04  0.50400001928E-02 0. -1.
    10030    2    1    2    0    0  0.00000000000E+00  0.00000000000E+00 -0.10534006166E+04  0.19097429577E+04  0.15929423422E+04 0.  0.
        3    1    3    3  502    0 -0.66224722993E+03  0.38577590922E+03 -0.78653299755E+03  0.10981933400E+04  0.10100000352E+00 0. -1.
       -3    1    3    3    0  502  0.66224722993E+03 -0.38577590922E+03 -0.26686761906E+03  0.81154961770E+03  0.10100000352E+00 0.  1.
</event>
<event>
 5   0  0.3508470E-05  0.2594422E+04  0.7818609E-02  0.8370098E-01
        2   -1    0    0  501    0  0.00000000000E+00  0.00000000000E+00  0.11144892837E+04  0.11144892837E+04  0.25500000920E-02 0.  1.
       -2   -1    0    0    0  501  0.00000000000E+00  0.00000000000E+00 -0.15098899366E+04  0.15098899366E+04  0.25500000920E-02 0. -1.
    10030    2    1    2    0    0  0.00000000000E+00  0.00000000000E+00 -0.39540065289E+03  0.26243792202E+04  0.25944218268E+04 0.  0.
        5    1    3    3  502    0  0.10538426641E+04 -0.71557106867E+03  0.50299417489E+02  0.12748248650E+04  0.46999998093E+01 0. -1.
       -5    1    3    3    0  502 -0.10538426641E+04  0.71557106867E+03 -0.44570007038E+03  0.13495543552E+04  0.46999998093E+01 0.  1.
</event>
<event>
 5   0  0.3499642E-05  0.2587466E+04  0.7818609E-02  0.8372471E-01
        2   -1    0    0  501    0  0.00000000000E+00  0.00000000000E+00  0.10002027546E+04  0.10002027546E+04  0.25500000920E-02 0. -1.
       -2   -1    0    0    0  501  0.00000000000E+00  0.00000000000E+00 -0.16734058945E+04  0.16734058945E+04  0.25500000920E-02 0.  1.
    10030    2    1    2    0    0  0.00000000000E+00  0.00000000000E+00 -0.67320313988E+03  0.26736086491E+04  0.25874660850E+04 0.  0.
        2    1    3    3  502    0  0.74732187333E+03 -0.48782569628E+02  0.75344852019E+03  0.10623344078E+04  0.25500000920E-02 0. -1.
       -2    1    3    3    0  502 -0.74732187333E+03  0.48782569628E+02 -0.14266516601E+04  0.16112742413E+04  0.25500000920E-02 0.  1.
</event>
<event>
 5   0  0.3508470E-05  0.2589631E+04  0.7818609E-02  0.8371732E-01
        2   -1    0    0  501    0  0.00000000000E+00  0.00000000000E+00  0.21252683661E+04  0.21252683661E+04  0.25500000920E-02 0.  1.
       -2   -1    0    0    0  501  0.00000000000E+00  0.00000000000E+00 -0.78886395846E+03  0.78886395847E+03  0.25500000920E-02 0. -1.
    10030    2    1    2    0    0  0.00000000000E+00  0.00000000000E+00  0.13364044076E+04  0.29141323245E+04  0.25896313375E+04 0.  0.
        5    1    3    3  502    0  0.72176605772E+03  0.36875733698E+03  0.18044830002E+04  0.19781580330E+04  0.46999998093E+01 0.  1.
       -5    1    3    3    0  502 -0.72176605772E+03 -0.36875733698E+03 -0.46807859253E+03  0.93597429155E+03  0.46999998093E+01 0. -1.
</event>
<event>
 5   0  0.1474554E-05  0.2611226E+04  0.7818609E-02  0.8364398E-01
       -1   -1    0    0    0  501  0.00000000000E+00  0.00000000000E+00  0.88560653957E+03  0.88560653958E+03  0.50400001928E-02 0.  1.
        1   -1    0    0  501    0  0.00000000000E+00  0.00000000000E+00 -0.19248113524E+04  0.19248113524E+04  0.50400001928E-02 0. -1.
    10030    2    1    2    0    0  0.00000000000E+00  0.00000000000E+00 -0.10392048129E+04  0.28104178920E+04  0.26112261650E+04 0.  0.
        5    1    3    3  502    0 -0.83267566161E+03  0.40395546702E+03 -0.15107616941E+04  0.17717087128E+04  0.46999998093E+01 0. -1.
       -5    1    3    3    0  502  0.83267566161E+03 -0.40395546702E+03  0.47155688121E+03  0.10387091792E+04  0.46999998093E+01 0.  1.
</event>
<event>
 5   0  0.1533248E-05  0.2556330E+04  0.7818609E-02  0.8383188E-01
       -1   -1    0    0    0  501  0.00000000000E+00  0.00000000000E+00  0.84531245737E+03  0.84531245738E+03  0.50400001928E-02 0.  1.
        1   -1    0    0  501    0  0.00000000000E+00  0.00000000000E+00 -0.19326652232E+04  0.19326652232E+04  0.50400001928E-02 0. -1.
    10030    2    1    2    0    0  0.00000000000E+00  0.00000000000E+00 -0.10873527658E+04  0.27779776805E+04  0.25563301736E+04 0.  0.
        4    1    3    3  502    0 -0.90832586171E+03  0.54017652212E+03  0.23758679501E+03  0.10831877234E+04  0.12699999809E+01 0.  1.
       -4    1    3    3    0  502  0.90832586171E+03 -0.54017652212E+03 -0.13249395608E+04  0.16947899571E+04  0.12699999809E+01 0. -1.
</event>
<event>
 5   0  0.3647623E-05  0.2483470E+04  0.7818609E-02  0.8408898E-01
        2   -1    0    0  501    0  0.00000000000E+00  0.00000000000E+00  0.12161096027E+04  0.12161096027E+04  0.25500000920E-02 0.  1.
       -2   -1    0    0    0  501  0.00000000000E+00  0.00000000000E+00 -0.12679004776E+04  0.12679004776E+04  0.25500000920E-02 0. -1.
    10030    2    1    2    0    0  0.00000000000E+00  0.00000000000E+00 -0.51790874932E+02  0.24840100803E+04  0.24834701094E+04 0.  0.
        3    1    3    3  502    0 -0.32087754519E+03 -0.20693417370E+03 -0.12077283177E+04  0.12666459059E+04  0.10100000352E+00 0. -1.
       -3    1    3    3    0  502  0.32087754519E+03  0.20693417370E+03  0.11559374428E+04  0.12173641744E+04  0.10100000352E+00 0.  1.
</event>
<event>
 5   0  0.1435062E-05  0.2631223E+04  0.7818609E-02  0.8357672E-01
        1   -1    0    0  501    0  0.00000000000E+00  0.00000000000E+00  0.18497034926E+04  0.18497034926E+04  0.50400001928E-02 0.  1.
       -1   -1    0    0    0  501  0.00000000000E+00  0.00000000000E+00 -0.93573566932E+03  0.93573566934E+03  0.50400001928E-02 0. -1.
    10030    2    1    2    0    0  0.00000000000E+00  0.00000000000E+00  0.91396782324E+03  0.27854391619E+04  0.26312229367E+04 0.  0.
        2    1    3    3  502    0  0.20273113811E+03 -0.86249914025E+02  0.18300361264E+04  0.18432501691E+04  0.25500000920E-02 0.  1.
       -2    1    3    3    0  502 -0.20273113811E+03  0.86249914025E+02 -0.91606830317E+03  0.94218899278E+03  0.25500000920E-02 0. -1.
</event>
<event>
 5   0  0.3441646E-05  0.2567727E+04  0.7818609E-02  0.8379247E-01
        2   -1    0    0  501    0  0.00000000000E+00  0.00000000000E+00  0.13421512830E+04  0.13421512830E+04  0.25500000920E-02 0. -1.
       -2   -1    0    0    0  501  0.00000000000E+00  0.00000000000E+00 -0.12281071562E+04  0.12281071562E+04  0.25500000920E-02 0.  1.
    10030    2    1    2    0    0  0.00000000000E+00  0.00000000000E+00  0.11404412678E+03  0.25702584392E+04  0.25677270847E+04 0.  0.
        4    1    3    3  502    0  0.60670748489E+03 -0.94238248014E+03  0.68383845905E+03  0.13129414923E+04  0.12699999809E+01 0. -1.
       -4    1    3    3    0  502 -0.60670748489E+03  0.94238248014E+03 -0.56979433227E+03  0.12573169470E+04  0.12699999809E+01 0.  1.
</event>
<event>
 5   0  0.1533248E-05  0.2607257E+04  0.7818609E-02  0.8365740E-01
       -1   -1    0    0    0  501  0.00000000000E+00  0.00000000000E+00  0.14784106112E+04  0.14784106112E+04  0.50400001928E-02 0.  1.
        1   -1    0    0  501    0  0.00000000000E+00  0.00000000000E+00 -0.11495093944E+04  0.11495093945E+04  0.50400001928E-02 0. -1.
    10030    2    1    2    0    0  0.00000000000E+00  0.00000000000E+00  0.32890121678E+03  0.26279200057E+04  0.26072567089E+04 0.  0.
        4    1    3    3  502    0 -0.33834153712E+03 -0.85227684497E+03 -0.76949672781E+03  0.11970704420E+04  0.12699999809E+01 0. -1.
       -4    1    3    3    0  502  0.33834153712E+03  0.85227684497E+03  0.10983979446E+04  0.14308495636E+04  0.12699999809E+01 0.  1.
</event>
<event>
 5   0  0.1451052E-05  0.2779146E+04  0.7818609E-02  0.8309772E-01
        1   -1    0    0  501    0  0.00000000000E+00  0.00000000000E+00  0.87865474985E+03  0.87865474987E+03  0.50400001928E-02 0.  1.
       -1   -1    0    0    0  501  0.00000000000E+00  0.00000000000E+00 -0.21975781079E+04  0.21975781079E+04  0.50400001928E-02 0. -1.
    10030    2    1    2    0    0  0.00000000000E+00  0.00000000000E+00 -0.13189233581E+04  0.30762328578E+04  0.27791455109E+04 0.  0.
        1    1    3    3  502    0 -0.95247347563E+03  0.84006345885E+03 -0.35264857595E+02  0.12704943711E+04  0.50400001928E-02 0.  1.
       -1    1    3    3    0  502  0.95247347563E+03 -0.84006345885E+03 -0.12836585005E+04  0.18057384867E+04  0.50400001928E-02 0. -1.
</event>
<event>
 5   0  0.1474554E-05  0.2582824E+04  0.7818609E-02  0.8374059E-01
       -1   -1    0    0    0  501  0.00000000000E+00  0.00000000000E+00  0.90991838787E+03  0.90991838789E+03  0.50400001928E-02 0. -1.
        1   -1    0    0  501    0  0.00000000000E+00  0.00000000000E+00 -0.18328515296E+04  0.18328515296E+04  0.50400001928E-02 0.  1.
    10030    2    1    2    0    0  0.00000000000E+00  0.00000000000E+00 -0.92293314170E+03  0.27427699175E+04  0.25828242751E+04 0.  0.
        5    1    3    3  502    0  0.97592737554E+03 -0.32902702679E+03  0.36590322843E+03  0.10929777167E+04  0.46999998093E+01 0. -1.
       -5    1    3    3    0  502 -0.97592737554E+03  0.32902702679E+03 -0.12888363701E+04  0.16497922008E+04  0.46999998093E+01 0.  1.
</event>
<event>
 5   0  0.1497497E-05  0.2843026E+04  0.7818609E-02  0.8290033E-01
       -1   -1    0    0    0  501  0.00000000000E+00  0.00000000000E+00  0.19923117229E+04  0.19923117229E+04  0.50400001928E-02 0. -1.
        1   -1    0    0  501    0  0.00000000000E+00  0.00000000000E+00 -0.10142488562E+04  0.10142488562E+04  0.50400001928E-02 0.  1.
    10030    2    1    2    0    0  0.00000000000E+00  0.00000000000E+00  0.97806286670E+03  0.30065605791E+04  0.28430264763E+04 0.  0.
        3    1    3    3  502    0 -0.77340372836E+01 -0.16858430713E+03  0.19816802338E+04  0.19888531980E+04  0.10100000352E+00 0. -1.
       -3    1    3    3    0  502  0.77340372836E+01  0.16858430713E+03 -0.10036173671E+04  0.10177073812E+04  0.10100000352E+00 0.  1.
</event>
<event>
 5   0  0.3499642E-05  0.2390481E+04  0.7818609E-02  0.8443076E-01
        2   -1    0    0  501    0  0.00000000000E+00  0.00000000000E+00  0.12559432929E+04  0.12559432929E+04  0.25500000920E-02 0. -1.
       -2   -1    0    0    0  501  0.00000000000E+00  0.00000000000E+00 -0.11374717345E+04  0.11374717345E+04  0.25500000920E-02 0.  1.
    10030    2    1    2    0    0  0.00000000000E+00  0.00000000000E+00  0.11847155842E+03  0.23934150273E+04  0.23904811195E+04 0.  0.
        2    1    3    3  502    0  0.10507421811E+03  0.11448832527E+04  0.38644223517E+03  0.12129038934E+04  0.25500000920E-02 0. -1.
       -2    1    3    3    0  502 -0.10507421811E+03 -0.11448832527E+04 -0.26797067675E+03  0.11805111339E+04  0.25500000920E-02 0.  1.
</event>
<event>
 5   0  0.1533248E-05  0.2328518E+04  0.7818609E-02  0.8466761E-01
        1   -1    0    0  501    0  0.00000000000E+00  0.00000000000E+00  0.13942446628E+04  0.13942446628E+04  0.50400001928E-02 0.  1.
       -1   -1    0    0    0  501  0.00000000000E+00  0.00000000000E+00 -0.97221008104E+03  0.97221008105E+03  0.50400001928E-02 0. -1.
    10030    2    1    2    0    0  0.00000000000E+00  0.00000000000E+00  0.42203458172E+03  0.23664547438E+04  0.23285177402E+04 0.  0.
        4    1    3    3  502    0  0.48280234793E+03 -0.82187115559E+02 -0.86243197395E+03  0.99178795704E+03  0.12699999809E+01 0. -1.
       -4    1    3    3    0  502 -0.48280234793E+03  0.82187115559E+02  0.12844665557E+04  0.13746667868E+04  0.12699999809E+01 0.  1.
</event>
<event>
 5   0  0.3508470E-05  0.2632925E+04  0.7818609E-02  0.8357103E-01
        2   -1    0    0  501    0  0.00000000000E+00  0.00000000000E+00  0.18487696914E+04  0.18487696914E+04  0.25500000920E-02 0. -1.
       -2   -1    0    0    0  501  0.00000000000E+00  0.00000000000E+00 -0.93741981267E+03  0.93741981267E+03  0.25500000920E-02 0.  1.
    10030    2    1    2    0    0  0.00000000000E+00  0.00000000000E+00  0.91134987875E+03  0.27861895041E+04  0.26329248662E+04 0.  0.
        5    1    3    3  502    0 -0.12835075030E+04 -0.21170687485E+03  0.24182225012E+03  0.13231445128E+04  0.46999998093E+01 0.  1.
       -5    1    3    3    0  502  0.12835075030E+04  0.21170687485E+03  0.66952762863E+03  0.14630449913E+04  0.46999998093E+01 0. -1.
</event>
<event>
 5   0  0.3441646E-05  0.2575531E+04  0.7818609E-02  0.8376561E-01
        2   -1    0    0  501    0  0.00000000000E+00  0.00000000000E+00  0.16384483189E+04  0.16384483189E+04  0.25500000920E-02 0.  1.
       -2   -1    0    0    0  501  0.00000000000E+00  0.00000000000E+00 -0.10121402514E+04  0.10121402514E+04  0.25500000920E-02 0. -1.
    10030    2    1    2    0    0  0.00000000000E+00  0.00000000000E+00  0.62630806748E+03  0.26505885703E+04  0.25755306198E+04 0.  0.
        4    1    3    3  502    0 -0.29940896692E+03  0.12413141224E+04  0.14146477154E+03  0.12847257974E+04  0.12699999809E+01 0. -1.
       -4    1    3    3    0  502  0.29940896692E+03 -0.12413141224E+04  0.48484329594E+03  0.13658627729E+04  0.12699999809E+01 0.  1.
</event>
<event>
 5   0  0.1451052E-05  0.2430320E+04  0.7818609E-02  0.8428239E-01
        1   -1    0    0  501    0  0.00000000000E+00  0.00000000000E+00  0.19811148569E+04  0.19811148569E+04  0.50400001928E-02 0.  1.
       -1   -1    0    0    0  501  0.00000000000E+00  0.00000000000E+00 -0.74534517266E+03  0.74534517268E+03  0.50400001928E-02 0. -1.
    10030    2    1    2    0    0  0.00000000000E+00  0.00000000000E+00  0.12357696843E+04  0.27264600296E+04  0.24303204687E+04 0.  0.
        1    1    3    3  502    0  0.69241970564E+03 -0.24563301285E+03 -0.46795771571E+03  0.87107120804E+03  0.50400001928E-02 0. -1.
       -1    1    3    3    0  502 -0.69241970564E+03  0.24563301285E+03  0.17037274000E+04  0.18553888216E+04  0.50400001928E-02 0.  1.
</event>
<event>
 5   0  0.3508470E-05  0.2581396E+04  0.7818609E-02  0.8374548E-01
        2   -1    0    0  501    0  0.00000000000E+00  0.00000000000E+00  0.20737150647E+04  0.20737150647E+04  0.25500000920E-02 0.  1.
       -2   -1    0    0    0  501  0.00000000000E+00  0.00000000000E+00 -0.80334132485E+03  0.80334132485E+03  0.25500000920E-02 0. -1.
    10030    2    1    2    0    0  0.00000000000E+00  0.00000000000E+00  0.12703737398E+04  0.28770563895E+04  0.25813957522E+04 0.  0.
        5    1    3    3  502    0 -0.61367614019E+03  0.61938786930E+03 -0.42546139121E+03  0.97019545613E+03  0.46999998093E+01 0. -1.
       -5    1    3    3    0  502  0.61367614019E+03 -0.61938786930E+03  0.16958351310E+04  0.19068609334E+04  0.46999998093E+01 0.  1.
</event>
<event>
 5   0  0.3849687E-05  0.2664086E+04  0.7818609E-02  0.8346753E-01
        2   -1    0    0  501    0  0.00000000000E+00  0.00000000000E+00  0.22306398343E+04  0.22306398343E+04  0.25500000920E-02 0. -1.
       -2   -1    0    0    0  501  0.00000000000E+00  0.00000000000E+00 -0.79543900636E+03  0.79543900636E+03  0.25500000920E-02 0.  1.
    10030    2    1    2    0    0  0.00000000000E+00  0.00000000000E+00  0.14352008280E+04  0.30260788407E+04  0.26640855342E+04 0.  0.
        1    1    3    3  502    0  0.16473661180E+03 -0.61936401131E+02  0.22173752741E+04  0.22243487531E+04  0.50400001928E-02 0. -1.
       -1    1    3    3    0  502 -0.16473661180E+03  0.61936401131E+02 -0.78217444617E+03  0.80173008758E+03  0.50400001928E-02 0.  1.
</event>
<event>
 5   0  0.3647623E-05  0.2627525E+04  0.7818609E-02  0.8358911E-01
        2   -1    0    0  501    0  0.00000000000E+00  0.00000000000E+00  0.92337816412E+03  0.92337816412E+03  0.25500000920E-02 0.  1.
       -2   -1    0    0    0  501  0.00000000000E+00  0.00000000000E+00 -0.18691928411E+04  0.18691928411E+04  0.25500000920E-02 0. -1.
    10030    2    1    2    0    0  0.00000000000E+00  0.00000000000E+00 -0.94581467699E+03  0.27925710052E+04  0.26275249601E+04 0.  0.
        3    1    3    3  502    0  0.41366519010E+03 -0.11070866613E+04  0.13690366232E+03  0.11897488761E+04  0.10100000352E+00 0.  1.
       -3    1    3    3    0  502 -0.41366519010E+03  0.11070866613E+04 -0.10827183393E+04  0.16028221291E+04  0.10100000352E+00 0. -1.
</event>
<event>
 5   0  0.1451052E-05  0.2561249E+04  0.7818609E-02  0.8381485E-01
       -1   -1    0    0    0  501  0.00000000000E+00  0.00000000000E+00  0.18682960654E+04  0.18682960654E+04  0.50400001928E-02 0. -1.
        1   -1    0    0  501    0  0.00000000000E+00  0.00000000000E+00 -0.87780451960E+03  0.87780451962E+03  0.50400001928E-02 0.  1.
    10030    2    1    2    0    0  0.00000000000E+00  0.00000000000E+00  0.99049154580E+03  0.27461005850E+04  0.25612487034E+04 0.  0.
        1    1    3    3  502    0  0.11381794925E+04 -0.22870890114E+03  0.10748523946E+04  0.15821087158E+04  0.50400001928E-02 0. -1.
       -1    1    3    3    0  502 -0.11381794925E+04  0.22870890114E+03 -0.84360848753E+02  0.11639918692E+04  0.50400001928E-02 0.  1.
</event>
<event>
 5   0  0.1435062E-05  0.2620041E+04  0.7818609E-02  0.8361426E-01
        1   -1    0    0  501    0  0.00000000000E+00  0.00000000000E+00  0.10299532693E+04  0.10299532693E+04  0.50400001928E-02 0. -1.
       -1   -1    0    0    0  501  0.00000000000E+00  0.00000000000E+00 -0.16662440258E+04  0.16662440258E+04  0.50400001928E-02 0.  1.
    10030    2    1    2    0    0  0.00000000000E+00  0.00000000000E+00 -0.63629075655E+03  0.26961972951E+04  0.26200408255E+04 0.  0.
        2    1    3    3  502    0 -0.80387529563E+03  0.42972652318E+03  0.65009289459E+03  0.11195986545E+04  0.25500000920E-02 0. -1.
       -2    1    3    3    0  502  0.80387529563E+03 -0.42972652318E+03 -0.12863836511E+04  0.15765986406E+04  0.25500000920E-02 0.  1.
</event>
<event>
 5   0  0.3849687E-05  0.2591831E+04  0.7818609E-02  0.8370981E-01
       -2   -1    0    0    0  501  0.00000000000E+00  0.00000000000E+00  0.77216301226E+03  0.77216301227E+03  0.25500000920E-02 0.  1.
        2   -1    0    0  501    0  0.00000000000E+00  0.00000000000E+00 -0.21749246129E+04  0.21749246129E+04  0.25500000920E-02 0. -1.
    10030    2    1    2    0    0  0.00000000000E+00  0.00000000000E+00 -0.14027616007E+04  0.29470876252E+04  0.25918305042E+04 0.  0.
        1    1    3    3  502    0 -0.39689255468E+03  0.10486904550E+04  0.37381824516E+02  0.11219058656E+04  0.50400001928E-02 0.  1.
       -1    1    3    3    0  502  0.39689255468E+03 -0.10486904550E+04 -0.14401434252E+04  0.18251817596E+04  0.50400001928E-02 0. -1.
</event>
<event>
 5   0  0.3647623E-05  0.2572594E+04  0.7818609E-02  0.8377570E-01
       -2   -1    0    0    0  501  0.00000000000E+00  0.00000000000E+00  0.82656939531E+03  0.82656939531E+03  0.25500000920E-02 0.  1.
        2   -1    0    0  501    0  0.00000000000E+00  0.00000000000E+00 -0.20017197878E+04  0.20017197878E+04  0.25500000920E-02 0. -1.
    10030    2    1    2    0    0  0.00000000000E+00  0.00000000000E+00 -0.11751503925E+04  0.28282891831E+04  0.25725942662E+04 0.  0.
        3    1    3    3  502    0  0.12827174973E+04 -0.39477130635E+02 -0.68365526888E+03  0.14540657339E+04  0.10100000352E+00 0.  1.
       -3    1    3    3    0  502 -0.12827174973E+04  0.39477130635E+02 -0.49149512359E+03  0.13742234492E+04  0.10100000352E+00 0. -1.
</event>
<event>
 5   0  0.1474554E-05  0.1994104E+04  0.7818609E-02  0.8609382E-01
        1   -1    0    0  501    0  0.00000000000E+00  0.00000000000E+00  0.10722752072E+04  0.10722752072E+04  0.50400001928E-02 0. -1.
       -1   -1    0    0    0  501  0.00000000000E+00  0.00000000000E+00 -0.92710579938E+03  0.92710579939E+03  0.50400001928E-02 0.  1.
    10030    2    1    2    0    0  0.00000000000E+00  0.00000000000E+00  0.14516940778E+03  0.19993810066E+04  0.19941038720E+04 0.  0.
        5    1    3    3  502    0 -0.14997545085E+03 -0.65350963266E+02 -0.91354595278E+03  0.92809034156E+03  0.46999998093E+01 0.  1.
       -5    1    3    3    0  502  0.14997545085E+03  0.65350963266E+02  0.10587153606E+04  0.10712906650E+04  0.46999998093E+01 0. -1.
</event>
<event>
 5   0  0.3647623E-05  0.2606002E+04  0.7818609E-02  0.8366165E-01
       -2   -1    0    0    0  501  0.00000000000E+00  0.00000000000E+00  0.13486807098E+04  0.13486807098E+04  0.25500000920E-02 0. -1.
        2   -1    0    0  501    0  0.00000000000E+00  0.00000000000E+00 -0.12588688709E+04  0.12588688709E+04  0.25500000920E-02 0.  1.
    10030    2    1    2    0    0  0.00000000000E+00  0.00000000000E+00  0.89811838954E+02  0.26075495807E+04  0.26060024270E+04 0.  0.
        3    1    3    3  502    0  0.37541982944E+03 -0.12218454836E+04  0.29797051985E+03  0.13124910952E+04  0.10100000352E+00 0. -1.
       -3    1    3    3    0  502 -0.37541982944E+03  0.12218454836E+04 -0.20815868089E+03  0.12950584855E+04  0.10100000352E+00 0.  1.
</event>
<event>
 5   0  0.1533248E-05  0.2601299E+04  0.7818609E-02  0.8367760E-01
        1   -1    0    0  501    0  0.00000000000E+00  0.00000000000E+00  0.20874259698E+04  0.20874259698E+04  0.50400001928E-02 0. -1.
       -1   -1    0    0    0  501  0.00000000000E+00  0.00000000000E+00 -0.81041903464E+03  0.81041903465E+03  0.50400001928E-02 0.  1.
    10030    2    1    2    0    0  0.00000000000E+00  0.00000000000E+00  0.12770069351E+04  0.28978450044E+04  0.26012994747E+04 0.  0.
        4    1    3    3  502    0  0.60518006209E+03 -0.26444028479E+03  0.18867375062E+04  0.19989876442E+04  0.12699999809E+01 0. -1.
       -4    1    3    3    0  502 -0.60518006209E+03  0.26444028479E+03 -0.60973057104E+03  0.89885736017E+03  0.12699999809E+01 0.  1.
</event>
<event>
 5   0  0.1533248E-05  0.2621813E+04  0.7818609E-02  0.8360829E-01
        1   -1    0    0  501    0  0.00000000000E+00  0.00000000000E+00  0.13647882852E+04  0.13647882852E+04  0.50400001928E-02 0. -1.
       -1   -1    0    0    0  501  0.00000000000E+00  0.00000000000E+00 -0.12591516106E+04  0.12591516107E+04  0.50400001928E-02 0.  1.
    10030    2    1    2    0    0  0.00000000000E+00  0.00000000000E+00  0.10563667455E+03  0.26239398959E+04  0.26218126306E+04 0.  0.
        4    1    3    3  502    0 -0.48821384601E+03 -0.64945031689E+03 -0.97677060252E+03  0.12705199315E+04  0.12699999809E+01 0.  1.
       -4    1    3    3    0  502  0.48821384601E+03  0.64945031689E+03  0.10824072771E+04  0.13534199644E+04  0.12699999809E+01 0. -1.
</event>
<event>
 5   0  0.3647623E-05  0.2598668E+04  0.7818609E-02  0.8368654E-01
        2   -1    0    0  501    0  0.00000000000E+00  0.00000000000E+00  0.15734733345E+04  0.15734733345E+04  0.25500000920E-02 0. -1.
       -2   -1    0    0    0  501  0.00000000000E+00  0.00000000000E+00 -0.10729570179E+04  0.10729570179E+04  0.25500000920E-02 0.  1.
    10030    2    1    2    0    0  0.00000000000E+00  0.00000000000E+00  0.50051631661E+03  0.26464303523E+04  0.25986683179E+04 0.  0.
        3    1    3    3  502    0 -0.73086949380E+03 -0.94859444597E+03  0.76377552392E+03  0.14203361226E+04  0.10100000352E+00 0.  1.
       -3    1    3    3    0  502  0.73086949380E+03  0.94859444597E+03 -0.26325920731E+03  0.12260942298E+04  0.10100000352E+00 0. -1.
</event>
<event>
 5   0  0.1474554E-05  0.2625134E+04  0.7818609E-02  0.8359714E-01
       -1   -1    0    0    0  501  0.00000000000E+00  0.00000000000E+00  0.12019803525E+04  0.12019803525E+04  0.50400001928E-02 0. -1.
        1   -1    0    0  501    0  0.00000000000E+00  0.00000000000E+00 -0.14333281786E+04  0.14333281786E+04  0.50400001928E-02 0.  1.
    10030    2    1    2    0    0  0.00000000000E+00  0.00000000000E+00 -0.23134782608E+03  0.26353085311E+04  0.26251341370E+04 0.  0.
        5    1    3    3  502    0 -0.11351891438E+04  0.43564729530E+03  0.38057718330E+03  0.12740894947E+04  0.46999998093E+01 0. -1.
       -5    1    3    3    0  502  0.11351891438E+04 -0.43564729530E+03 -0.61192500937E+03  0.13612190364E+04  0.46999998093E+01 0.  1.
</event>
<event>
 5   0  0.1451052E-05  0.2671155E+04  0.7818609E-02  0.8344425E-01
        1   -1    0    0  501    0  0.00000000000E+00  0.00000000000E+00  0.20285377994E+04  0.20285377994E+04  0.50400001928E-02 0. -1.
       -1   -1    0    0    0  501  0.00000000000E+00  0.00000000000E+00 -0.87933647938E+03  0.87933647940E+03  0.50400001928E-02 0.  1.
    10030    2    1    2    0    0  0.00000000000E+00  0.00000000000E+00  0.11492013200E+04  0.29078742788E+04  0.26711550212E+04 0.  0.
        1    1    3    3  502    0  0.14916859656E+03 -0.12217182672E+04  0.11391325522E+04  0.16770419691E+04  0.50400001928E-02 0.  1.
       -1    1    3    3    0  502 -0.14916859656E+03  0.12217182672E+04  0.10068767794E+02  0.12308323097E+04  0.50400001928E-02 0. -1.
</event>
<event>
 5   0  0.1533248E-05  0.2841955E+04  0.7818609E-02  0.8290360E-01
       -1   -1    0    0    0  501  0.00000000000E+00  0.00000000000E+00  0.15554037735E+04  0.15554037735E+04  0.50400001928E-02 0.  1.
        1   -1    0    0  501    0  0.00000000000E+00  0.00000000000E+00 -0.12981692454E+04  0.12981692454E+04  0.50400001928E-02 0. -1.
    10030    2    1    2    0    0  0.00000000000E+00  0.00000000000E+00  0.25723452812E+03  0.28535730188E+04  0.28419552022E+04 0.  0.
        4    1    3    3  502    0 -0.63789670982E+03  0.11018677775E+04 -0.50495422125E+03  0.13696733881E+04  0.12699999809E+01 0. -1.
       -4    1    3    3    0  502  0.63789670982E+03 -0.11018677775E+04  0.76218874937E+03  0.14838996308E+04  0.12699999809E+01 0.  1.
</event>
<event>
 5   0  0.3499642E-05  0.2632307E+04  0.7818609E-02  0.8357309E-01
        2   -1    0    0  501    0  0.00000000000E+00  0.00000000000E+00  0.16439111786E+04  0.16439111786E+04  0.25500000920E-02 0.  1.
       -2   -1    0    0    0  501  0.00000000000E+00  0.00000000000E+00 -0.10537430574E+04  0.10537430574E+04  0.25500000920E-02 0. -1.
    10030    2    1    2    0    0  0.00000000000E+00  0.00000000000E+00  0.59016812123E+03  0.26976542360E+04  0.26323069664E+04 0.  0.
        2    1    3    3  502    0 -0.68353270674E+03 -0.18147146547E+03 -0.84247693582E+03  0.10999619272E+04  0.25500000920E-02 0. -1.
       -2    1    3    3    0  502  0.68353270674E+03  0.18147146547E+03  0.14326450571E+04  0.15976923088E+04  0.25500000920E-02 0.  1.
</event>
<event>
 5   0  0.3499642E-05  0.2601236E+04  0.7818609E-02  0.8367782E-01
        2   -1    0    0  501    0  0.00000000000E+00  0.00000000000E+00  0.12772383590E+04  0.12772383590E+04  0.25500000920E-02 0. -1.
       -2   -1    0    0    0  501  0.00000000000E+00  0.00000000000E+00 -0.13244255253E+04  0.13244255253E+04  0.25500000920E-02 0.  1.
    10030    2    1    2    0    0  0.00000000000E+00  0.00000000000E+00 -0.47187166325E+02  0.26016638843E+04  0.26012359251E+04 0.  0.
        2    1    3    3  502    0  0.50725358041E+03  0.42302270973E+03  0.10970159723E+04  0.12805071070E+04  0.25500000920E-02 0. -1.
       -2    1    3    3    0  502 -0.50725358041E+03 -0.42302270973E+03 -0.11442031386E+04  0.13211567773E+04  0.25500000920E-02 0.  1.
</event>
<event>
 5   0  0.3499642E-05  0.2633600E+04  0.7818609E-02  0.8356877E-01
       -2   -1    0    0    0  501  0.00000000000E+00  0.00000000000E+00  0.11903751350E+04  0.11903751350E+04  0.25500000920E-02 0. -1.
        2   -1    0    0  501    0  0.00000000000E+00  0.00000000000E+00 -0.14566523835E+04  0.14566523835E+04  0.25500000920E-02 0.  1.
    10030    2    1    2    0    0  0.00000000000E+00  0.00000000000E+00 -0.26627724847E+03  0.26470275185E+04  0.26336004083E+04 0.  0.
        2    1    3    3  502    0  0.81855142654E+03  0.40025494719E+03  0.82235651429E+03  0.12273959008E+04  0.25500000920E-02 0. -1.
       -2    1    3    3    0  502 -0.81855142654E+03 -0.40025494719E+03 -0.10886337628E+04  0.14196316177E+04  0.25500000920E-02 0.  1.
</event>
<event>
 5   0  0.1435062E-05  0.2604147E+04  0.7818609E-02  0.8366794E-01
        1   -1    0    0  501    0  0.00000000000E+00  0.00000000000E+00  0.21066150645E+04  0.21066150645E+04  0.50400001928E-02 0.  1.
       -1   -1    0    0    0  501  0.00000000000E+00  0.00000000000E+00 -0.80479595239E+03  0.80479595241E+03  0.50400001928E-02 0. -1.
    10030    2    1    2    0    0  0.00000000000E+00  0.00000000000E+00  0.13018191121E+04  0.29114110170E+04  0.26041469062E+04 0.  0.
        2    1    3    3  502    0 -0.88578302925E+03 -0.85356360779E+03  0.17367974491E+03  0.12423152020E+04  0.25500000920E-02 0.  1.
       -2    1    3    3    0  502  0.88578302925E+03  0.85356360779E+03  0.11281393672E+04  0.16690958149E+04  0.25500000920E-02 0. -1.
</event>
<event>
 5   0  0.1533248E-05  0.2427096E+04  0.7818609E-02  0.8429428E-01
        1   -1    0    0  501    0  0.00000000000E+00  0.00000000000E+00  0.12035709878E+04  0.12035709878E+04  0.50400001928E-02 0.  1.
       -1   -1    0    0    0  501  0.00000000000E+00  0.00000000000E+00 -0.12236081116E+04  0.12236081116E+04  0.50400001928E-02 0. -1.
    10030    2    1    2    0    0  0.00000000000E+00  0.00000000000E+00 -0.20037123845E+02  0.24271790994E+04  0.24270963916E+04 0.  0.
        4    1    3    3  502    0  0.64218363215E+03  0.26965472819E+03  0.98378797330E+03  0.12053853654E+04  0.12699999809E+01 0.  1.
       -4    1    3    3    0  502 -0.64218363215E+03 -0.26965472819E+03 -0.10038250972E+04  0.12217937340E+04  0.12699999809E+01 0. -1.
</event>
<event>
 5   0  0.1497497E-05  0.2537461E+04  0.7818609E-02  0.8389760E-01
       -1   -1    0    0    0  501  0.00000000000E+00  0.00000000000E+00  0.73409753117E+03  0.73409753118E+03  0.50400001928E-02 0. -1.
        1   -1    0    0  501    0  0.00000000000E+00  0.00000000000E+00 -0.21927284540E+04  0.21927284540E+04  0.50400001928E-02 0.  1.
    10030    2    1    2    0    0  0.00000000000E+00  0.00000000000E+00 -0.14586309228E+04  0.29268259852E+04  0.25374605767E+04 0.  0.
        3    1    3    3  502    0  0.35623166124E+03  0.11308800992E+04 -0.12501395033E+04  0.17229740518E+04  0.10100000352E+00 0.  1.
       -3    1    3    3    0  502 -0.35623166124E+03 -0.11308800992E+04 -0.20849141957E+03  0.12038519334E+04  0.10100000352E+00 0. -1.
</event>
<event>
 5   0  0.3508470E-05  0.1853111E+04  0.7818609E-02  0.8678555E-01
        2   -1    0    0  501    0  0.00000000000E+00  0.00000000000E+00  0.12881344226E+04  0.12881344226E+04  0.25500000920E-02 0.  1.
       -2   -1    0    0    0  501  0.00000000000E+00  0.00000000000E+00 -0.66647147028E+03  0.66647147029E+03  0.25500000920E-02 0. -1.
    10030    2    1    2    0    0  0.00000000000E+00  0.00000000000E+00  0.62166295230E+03  0.19546058929E+04  0.18531107280E+04 0.  0.
        5    1    3    3  502    0 -0.48961519721E+03 -0.58595891571E+03  0.86437165902E+03  0.11533565568E+04  0.46999998093E+01 0.  1.
       -5    1    3    3    0  502  0.48961519721E+03  0.58595891571E+03 -0.24270870671E+03  0.80124933607E+03  0.46999998093E+01 0. -1.
</event>
<event>
 5   0  0.1533248E-05  0.2592742E+04  0.7818609E-02  0.8370671E-01
        1   -1    0    0  501    0  0.00000000000E+00  0.00000000000E+00  0.21593797730E+04  0.21593797730E+04  0.50400001928E-02 0. -1.
       -1   -1    0    0    0  501  0.00000000000E+00  0.00000000000E+00 -0.77826897484E+03  0.77826897485E+03  0.50400001928E-02 0.  1.
    10030    2    1    2    0    0  0.00000000000E+00  0.00000000000E+00  0.13811107981E+04  0.29376487478E+04  0.25927423954E+04 0.  0.
        4    1    3    3  502    0 -0.14438557917E+03 -0.12132133782E+04  0.19949180013E+03  0.12379549619E+04  0.12699999809E+01 0.  1.
       -4    1    3    3    0  502  0.14438557917E+03  0.12132133782E+04  0.11816189980E+04  0.16996937859E+04  0.12699999809E+01 0. -1.
</event>
<event>
 5   0  0.3508470E-05  0.2236674E+04  0.7818609E-02  0.8503317E-01
       -2   -1    0    0    0  501  0.00000000000E+00  0.00000000000E+00  0.71615757653E+03  0.71615757654E+03  0.25500000920E-02 0. -1.
        2   -1    0    0  501    0  0.00000000000E+00  0.00000000000E+00 -0.17463724585E+04  0.17463724585E+04  0.25500000920E-02 0.  1.
    10030    2    1    2    0    0  0.00000000000E+00  0.00000000000E+00 -0.10302148820E+04  0.24625300350E+04  0.22366741985E+04 0.  0.
        5    1    3    3  502    0  0.67106390261E+03 -0.73646390065E+03 -0.10742808661E+04  0.14651987263E+04  0.46999998093E+01 0.  1.
       -5    1    3    3    0  502 -0.67106390261E+03  0.73646390065E+03  0.44065984166E+02  0.99733130869E+03  0.46999998093E+01 0. -1.
</event>
<event>
 5   0  0.1533248E-05  0.2581648E+04  0.7818609E-02  0.8374462E-01
       -1   -1    0    0    0  501  0.00000000000E+00  0.00000000000E+00  0.21722140140E+04  0.21722140140E+04  0.50400001928E-02 0. -1.
        1   -1    0    0  501    0  0.00000000000E+00  0.00000000000E+00 -0.76706369739E+03  0.76706369740E+03  0.50400001928E-02 0.  1.
    10030    2    1    2    0    0  0.00000000000E+00  0.00000000000E+00  0.14051503166E+04  0.29392777114E+04  0.25816479335E+04 0.  0.
        4    1    3    3  502    0  0.69770012440E+02 -0.12873288248E+04  0.62930541601E+03  0.14346115423E+04  0.12699999809E+01 0.  1.
       -4    1    3    3    0  502 -0.69770012440E+02  0.12873288248E+04  0.77584490057E+03  0.15046661691E+04  0.12699999809E+01 0. -1.
</event>
<event>
 5   0  0.1217200E-05  0.1601178E+04  0.7818609E-02  0.8819825E-01
        3   -1    0    0  501    0  0.00000000000E+00  0.00000000000E+00  0.77460544408E+03  0.77460545067E+03  0.10100000352E+00 0.  1.
       -3   -1    0    0    0  501  0.00000000000E+00  0.00000000000E+00 -0.82744417005E+03  0.82744417622E+03  0.10100000352E+00 0. -1.
    10030    2    1    2    0    0  0.00000000000E+00  0.00000000000E+00 -0.52838725967E+02  0.16020496269E+04  0.16011780276E+04 0.  0.
        2    1    3    3  502    0  0.87168715368E+02 -0.79352618663E+03 -0.86954985089E+02  0.80302139650E+03  0.25500000920E-02 0. -1.
       -2    1    3    3    0  502 -0.87168715368E+02  0.79352618663E+03  0.34116259122E+02  0.79902823038E+03  0.25500000920E-02 0.  1.
</event>
<event>
 5   0  0.1497497E-05  0.2664478E+04  0.7818609E-02  0.8346623E-01
        1   -1    0    0  501    0  0.00000000000E+00  0.00000000000E+00  0.18583237849E+04  0.18583237850E+04  0.50400001928E-02 0.  1.
       -1   -1    0    0    0  501  0.00000000000E+00  0.00000000000E+00 -0.95508697956E+03  0.95508697957E+03  0.50400001928E-02 0. -1.
    10030    2    1    2    0    0  0.00000000000E+00  0.00000000000E+00  0.90323680539E+03  0.28134107645E+04  0.26644780733E+04 0.  0.
        3    1    3    3  502    0 -0.64311031779E+03 -0.10347043365E+04  0.10208792431E+04  0.15894648106E+04  0.10100000352E+00 0.  1.
       -3    1    3    3    0  502  0.64311031779E+03  0.10347043365E+04 -0.11764243774E+03  0.12239459539E+04  0.10100000352E+00 0. -1.
</event>
<event>
 5   0  0.1497497E-05  0.2607700E+04  0.7818609E-02  0.8365590E-01
       -1   -1    0    0    0  501  0.00000000000E+00  0.00000000000E+00  0.87874851036E+03  0.87874851037E+03  0.50400001928E-02 0. -1.
        1   -1    0    0  501    0  0.00000000000E+00  0.00000000000E+00 -0.19345980008E+04  0.19345980008E+04  0.50400001928E-02 0.  1.
    10030    2    1    2    0    0  0.00000000000E+00  0.00000000000E+00 -0.10558494904E+04  0.28133465112E+04  0.26077002216E+04 0.  0.
        3    1    3    3  502    0 -0.87667000967E+03 -0.46686662250E+03 -0.14392338338E+04  0.17486877330E+04  0.10100000352E+00 0. -1.
       -3    1    3    3    0  502  0.87667000967E+03  0.46686662250E+03  0.38338434333E+03  0.10646587782E+04  0.10100000352E+00 0.  1.
</event>
<event>
 5   0  0.3441646E-05  0.2795965E+04  0.7818609E-02  0.8304522E-01
       -2   -1    0    0    0  501  0.00000000000E+00  0.00000000000E+00  0.10734481958E+04  0.10734481958E+04  0.25500000920E-02 0.  1.
        2   -1    0    0  501    0  0.00000000000E+00  0.00000000000E+00 -0.18206334502E+04  0.18206334502E+04  0.25500000920E-02 0. -1.
    10030    2    1    2    0    0  0.00000000000E+00  0.00000000000E+00 -0.74718525446E+03  0.28940816460E+04  0.27959654450E+04 0.  0.
        4    1    3    3  502    0 -0.88641018408E+03  0.57194573353E+03  0.57593673458E+03  0.12018942015E+04  0.12699999809E+01 0.  1.
       -4    1    3    3    0  502  0.88641018408E+03 -0.57194573353E+03 -0.13231219890E+04  0.16921874445E+04  0.12699999809E+01 0. -1.
</event>
<event>
 5   0  0.3499642E-05  0.2607417E+04  0.7818609E-02  0.8365686E-01
       -2   -1    0    0    0  501  0.00000000000E+00  0.00000000000E+00  0.76648337508E+03  0.76648337508E+03  0.25500000920E-02 0. -1.
        2   -1    0    0  501    0  0.00000000000E+00  0.00000000000E+00 -0.22174727262E+04  0.22174727262E+04  0.25500000920E-02 0.  1.
    10030    2    1    2    0    0  0.00000000000E+00  0.00000000000E+00 -0.14509893511E+04  0.29839561012E+04  0.26074170969E+04 0.  0.
        2    1    3    3  502    0 -0.61186155529E+03 -0.83012130761E+03 -0.16382869113E+04  0.19358357244E+04  0.25500000920E-02 0.  1.
       -2    1    3    3    0  502  0.61186155529E+03  0.83012130761E+03  0.18729756024E+03  0.10481203768E+04  0.25500000920E-02 0. -1.
</event>
<event>
 5   0  0.1497497E-05  0.2562370E+04  0.7818609E-02  0.8381097E-01
       -1   -1    0    0    0  501  0.00000000000E+00  0.00000000000E+00  0.98675700749E+03  0.98675700750E+03  0.50400001928E-02 0.  1.
        1   -1    0    0  501    0  0.00000000000E+00  0.00000000000E+00 -0.16634645225E+04  0.16634645225E+04  0.50400001928E-02 0. -1.
    10030    2    1    2    0    0  0.00000000000E+00  0.00000000000E+00 -0.67670751504E+03  0.26502215300E+04  0.25623702108E+04 0.  0.
        3    1    3    3  502    0 -0.70240127153E+03  0.10651252580E+04 -0.45886419366E+03  0.13558818975E+04  0.10100000352E+00 0. -1.
       -3    1    3    3    0  502  0.70240127153E+03 -0.10651252580E+04 -0.21784332138E+03  0.12943396326E+04  0.10100000352E+00 0.  1.
</event>
<event>
 5   0  0.3647623E-05  0.2734407E+04  0.7818609E-02  0.8323927E-01
       -2   -1    0    0    0  501  0.00000000000E+00  0.00000000000E+00  0.11267640112E+04  0.11267640112E+04  0.25500000920E-02 0. -1.
        2   -1    0    0  501    0  0.00000000000E+00  0.00000000000E+00 -0.16589505657E+04  0.16589505657E+04  0.25500000920E-02 0.  1.
    10030    2    1    2    0    0  0.00000000000E+00  0.00000000000E+00 -0.53218655453E+03  0.27857145768E+04  0.27344072803E+04 0.  0.
        3    1    3    3  502    0 -0.77135057605E+02 -0.11152794791E+04 -0.10679111265E+04  0.15460376186E+04  0.10100000352E+00 0.  1.
       -3    1    3    3    0  502  0.77135057605E+02  0.11152794791E+04  0.53572457199E+03  0.12396769583E+04  0.10100000352E+00 0. -1.
</event>
<event>
 5   0  0.1451052E-05  0.2615208E+04  0.7818609E-02  0.8363054E-01
       -1   -1    0    0    0  501  0.00000000000E+00  0.00000000000E+00  0.84035474261E+03  0.84035474262E+03  0.50400001928E-02 0. -1.
        1   -1    0    0  501    0  0.00000000000E+00  0.00000000000E+00 -0.20346501976E+04  0.20346501976E+04  0.50400001928E-02 0.  1.
    10030    2    1    2    0    0  0.00000000000E+00  0.00000000000E+00 -0.11942954550E+04  0.28750049402E+04  0.26152077876E+04 0.  0.
        1    1    3    3  502    0  0.88602247871E+03 -0.27122636000E+03  0.41712661542E+03  0.10161664157E+04  0.50400001928E-02 0. -1.
       -1    1    3    3    0  502 -0.88602247871E+03  0.27122636000E+03 -0.16114220704E+04  0.18588385245E+04  0.50400001928E-02 0.  1.
</event>
<event>
 5   0  0.1533248E-05  0.2602112E+04  0.7818609E-02  0.8367484E-01
       -1   -1    0    0    0  501  0.00000000000E+00  0.00000000000E+00  0.92360841950E+03  0.92360841952E+03  0.50400001928E-02 0. -1.
        1   -1    0    0  501    0  0.00000000000E+00  0.00000000000E+00 -0.18327538615E+04  0.18327538615E+04  0.50400001928E-02 0.  1.
    10030    2    1    2    0    0  0.00000000000E+00  0.00000000000E+00 -0.90914544196E+03  0.27563622810E+04  0.26021121401E+04 0.  0.
        4    1    3    3  502    0 -0.25054876625E+03 -0.47285226129E+03 -0.17107815371E+04  0.17925230894E+04  0.12699999809E+01 0.  1.
       -4    1    3    3    0  502  0.25054876625E+03  0.47285226129E+03  0.80163609518E+03  0.96383919160E+03  0.12699999809E+01 0. -1.
</event>
<event>
 5   0  0.1474554E-05  0.2576150E+04  0.7818609E-02  0.8376348E-01
        1   -1    0    0  501    0  0.00000000000E+00  0.00000000000E+00  0.17827893238E+04  0.17827893238E+04  0.50400001928E-02 0.  1.
       -1   -1    0    0    0  501  0.00000000000E+00  0.00000000000E+00 -0.93064109173E+03  0.93064109174E+03  0.50400001928E-02 0. -1.
    10030    2    1    2    0    0  0.00000000000E+00  0.00000000000E+00  0.85214823212E+03  0.27134304156E+04  0.25761498424E+04 0.  0.
        5    1    3    3  502    0  0.10878110828E+04  0.68975100697E+03  0.43139392687E+03  0.13583858854E+04  0.46999998093E+01 0. -1.
       -5    1    3    3    0  502 -0.10878110828E+04 -0.68975100697E+03  0.42075430525E+03  0.13550445302E+04  0.46999998093E+01 0.  1.
</event>
<event>
 5   0  0.3647623E-05  0.2602148E+04  0.7818609E-02  0.8367472E-01
       -2   -1    0    0    0  501  0.00000000000E+00  0.00000000000E+00  0.88804192451E+03  0.88804192451E+03  0.25500000920E-02 0. -1.
        2   -1    0    0  501    0  0.00000000000E+00  0.00000000000E+00 -0.19062094554E+04  0.19062094554E+04  0.25500000920E-02 0.  1.
    10030    2    1    2    0    0  0.00000000000E+00  0.00000000000E+00 -0.10181675309E+04  0.27942513799E+04  0.26021482765E+04 0.  0.
        3    1    3    3  502    0 -0.10321173654E+04  0.77724630326E+03 -0.34476459935E+03  0.13372511773E+04  0.10100000352E+00 0.  1.
       -3    1    3    3    0  502  0.10321173654E+04 -0.77724630326E+03 -0.67340293150E+03  0.14570002026E+04  0.10100000352E+00 0. -1.
</event>
<event>
 5   0  0.1451052E-05  0.2618940E+04  0.7818609E-02  0.8361796E-01
       -1   -1    0    0    0  501  0.00000000000E+00  0.00000000000E+00  0.85269847879E+03  0.85269847880E+03  0.50400001928E-02 0. -1.
        1   -1    0    0  501    0  0.00000000000E+00  0.00000000000E+00 -0.20109243192E+04  0.20109243192E+04  0.50400001928E-02 0.  1.
    10030    2    1    2    0    0  0.00000000000E+00  0.00000000000E+00 -0.11582258404E+04  0.28636227980E+04  0.26189403262E+04 0.  0.
        1    1    3    3  502    0 -0.82081175304E+03  0.62873286270E+03 -0.14577251584E+04  0.17871764278E+04  0.50400001928E-02 0.  1.
       -1    1    3    3    0  502  0.82081175304E+03 -0.62873286270E+03  0.29949931795E+03  0.10764463703E+04  0.50400001928E-02 0. -1.
</event>
<event>
 5   0  0.3849687E-05  0.2497650E+04  0.7818609E-02  0.8403823E-01
        2   -1    0    0  501    0  0.00000000000E+00  0.00000000000E+00  0.84878400573E+03  0.84878400574E+03  0.25500000920E-02 0. -1.
       -2   -1    0    0    0  501  0.00000000000E+00  0.00000000000E+00 -0.18374098060E+04  0.18374098060E+04  0.25500000920E-02 0.  1.
    10030    2    1    2    0    0  0.00000000000E+00  0.00000000000E+00 -0.98862580028E+03  0.26861938118E+04  0.24976501399E+04 0.  0.
        1    1    3    3  502    0 -0.67204761190E+03  0.98877527510E+03 -0.88244282682E+03  0.14859441039E+04  0.50400001928E-02 0. -1.
       -1    1    3    3    0  502  0.67204761190E+03 -0.98877527510E+03 -0.10618297346E+03  0.12002497078E+04  0.50400001928E-02 0.  1.
</event>
<event>
 5   0  0.1533248E-05  0.2630202E+04  0.7818609E-02  0.8358014E-01
       -1   -1    0    0    0  501  0.00000000000E+00  0.00000000000E+00  0.62314948428E+03  0.62314948430E+03  0.50400001928E-02 0.  1.
        1   -1    0    0  501    0  0.00000000000E+00  0.00000000000E+00 -0.27754020609E+04  0.27754020609E+04  0.50400001928E-02 0. -1.
    10030    2    1    2    0    0  0.00000000000E+00  0.00000000000E+00 -0.21522525767E+04  0.33985515452E+04  0.26302017892E+04 0.  0.
        4    1    3    3  502    0 -0.10281055187E+03  0.53148161325E+03 -0.26247626415E+04  0.26800043380E+04  0.12699999809E+01 0. -1.
       -4    1    3    3    0  502  0.10281055187E+03 -0.53148161325E+03  0.47251006480E+03  0.71854720725E+03  0.12699999809E+01 0.  1.
</event>
<event>
 5   0  0.1474554E-05  0.2594582E+04  0.7818609E-02  0.8370044E-01
       -1   -1    0    0    0  501  0.00000000000E+00  0.00000000000E+00  0.11863349361E+04  0.11863349361E+04  0.50400001928E-02 0.  1.
        1   -1    0    0  501    0  0.00000000000E+00  0.00000000000E+00 -0.14186248799E+04  0.14186248799E+04  0.50400001928E-02 0. -1.
    10030    2    1    2    0    0  0.00000000000E+00  0.00000000000E+00 -0.23228994382E+03  0.26049598160E+04  0.25945822448E+04 0.  0.
        5    1    3    3  502    0  0.89306231010E+03 -0.41892052687E+03  0.72977317444E+03  0.12270475434E+04  0.46999998093E+01 0.  1.
       -5    1    3    3    0  502 -0.89306231010E+03  0.41892052687E+03 -0.96206311826E+03  0.13779122726E+04  0.46999998093E+01 0. -1.
</event>
<event>
 5   0  0.1435062E-05  0.1880549E+04  0.7818609E-02  0.8664599E-01
       -1   -1    0    0    0  501  0.00000000000E+00  0.00000000000E+00  0.50014102826E+03  0.50014102829E+03  0.50400001928E-02 0.  1.
        1   -1    0    0  501    0  0.00000000000E+00  0.00000000000E+00 -0.17677340504E+04  0.17677340504E+04  0.50400001928E-02 0. -1.
    10030    2    1    2    0    0  0.00000000000E+00  0.00000000000E+00 -0.12675930222E+04  0.22678750787E+04  0.18805492025E+04 0.  0.
        2    1    3    3  502    0 -0.70152320940E+03 -0.62595361658E+03 -0.64922070765E+03  0.11425586509E+04  0.25500000920E-02 0. -1.
       -2    1    3    3    0  502  0.70152320940E+03  0.62595361658E+03 -0.61837231453E+03  0.11253164279E+04  0.25500000920E-02 0.  1.
</event>
<event>
 5   0  0.1533248E-05  0.1593334E+04  0.7818609E-02  0.8824654E-01
       -1   -1    0    0    0  501  0.00000000000E+00  0.00000000000E+00  0.62562509690E+03  0.62562509692E+03  0.50400001928E-02 0.  1.
        1   -1    0    0  501    0  0.00000000000E+00  0.00000000000E+00 -0.10144708505E+04  0.10144708505E+04  0.50400001928E-02 0. -1.
    10030    2    1    2    0    0  0.00000000000E+00  0.00000000000E+00 -0.38884575357E+03  0.16400959474E+04  0.15933341447E+04 0.  0.
        4    1    3    3  502    0 -0.18771680032E+03 -0.55419173597E+03 -0.75094799955E+03  0.95199295600E+03  0.12699999809E+01 0. -1.
       -4    1    3    3    0  502  0.18771680032E+03  0.55419173597E+03  0.36210224598E+03  0.68810299141E+03  0.12699999809E+01 0.  1.
</event>
<event>
 5   0  0.1474554E-05  0.2368009E+04  0.7818609E-02  0.8451579E-01
        1   -1    0    0  501    0  0.00000000000E+00  0.00000000000E+00  0.16671024899E+04  0.16671024899E+04  0.50400001928E-02 0.  1.
       -1   -1    0    0    0  501  0.00000000000E+00  0.00000000000E+00 -0.84090004738E+03  0.84090004740E+03  0.50400001928E-02 0. -1.
    10030    2    1    2    0    0  0.00000000000E+00  0.00000000000E+00  0.82620244253E+03  0.25080025373E+04  0.23680089213E+04 0.  0.
        5    1    3    3  502    0  0.35716910903E+03  0.78358183423E+03  0.12737120459E+04  0.15375092615E+04  0.46999998093E+01 0.  1.
       -5    1    3    3    0  502 -0.35716910903E+03 -0.78358183423E+03 -0.44750960333E+03  0.97049327584E+03  0.46999998093E+01 0. -1.
</event>
<event>
 5   0  0.3499642E-05  0.2535303E+04  0.7818609E-02  0.8390516E-01
       -2   -1    0    0    0  501  0.00000000000E+00  0.00000000000E+00  0.12596794717E+04  0.12596794717E+04  0.25500000920E-02 0.  1.
        2   -1    0    0  501    0  0.00000000000E+00  0.00000000000E+00 -0.12756737332E+04  0.12756737332E+04  0.25500000920E-02 0. -1.
    10030    2    1    2    0    0  0.00000000000E+00  0.00000000000E+00 -0.15994261457E+02  0.25353532049E+04  0.25353027546E+04 0.  0.
        2    1    3    3  502    0 -0.20791625504E+02 -0.11576002056E+03  0.12542115461E+04  0.12597139661E+04  0.25500000920E-02 0.  1.
       -2    1    3    3    0  502  0.20791625504E+02  0.11576002056E+03 -0.12702058076E+04  0.12756392388E+04  0.25500000920E-02 0. -1.
</event>
<event>
 5   0  0.1451052E-05  0.2597285E+04  0.7818609E-02  0.8369124E-01
        1   -1    0    0  501    0  0.00000000000E+00  0.00000000000E+00  0.84263051299E+03  0.84263051301E+03  0.50400001928E-02 0.  1.
       -1   -1    0    0    0  501  0.00000000000E+00  0.00000000000E+00 -0.20014374198E+04  0.20014374198E+04  0.50400001928E-02 0. -1.
    10030    2    1    2    0    0  0.00000000000E+00  0.00000000000E+00 -0.11588069068E+04  0.28440679329E+04  0.25972849207E+04 0.  0.
        1    1    3    3  502    0 -0.74439684140E+03 -0.22331401422E+03  0.55987424638E+03  0.95783870157E+03  0.50400001928E-02 0.  1.
       -1    1    3    3    0  502  0.74439684140E+03  0.22331401422E+03 -0.17186811532E+04  0.18862292313E+04  0.50400001928E-02 0. -1.
</event>
<event>
 5   0  0.1451052E-05  0.2606573E+04  0.7818609E-02  0.8365972E-01
        1   -1    0    0  501    0  0.00000000000E+00  0.00000000000E+00  0.10112939790E+04  0.10112939790E+04  0.50400001928E-02 0.  1.
       -1   -1    0    0    0  501  0.00000000000E+00  0.00000000000E+00 -0.16795863922E+04  0.16795863922E+04  0.50400001928E-02 0. -1.
    10030    2    1    2    0    0  0.00000000000E+00  0.00000000000E+00 -0.66829241320E+03  0.26908803711E+04  0.26065729267E+04 0.  0.
        1    1    3    3  502    0  0.36017367393E+03  0.86828119897E+03  0.59778003954E+03  0.11139920518E+04  0.50400001928E-02 0.  1.
       -1    1    3    3    0  502 -0.36017367393E+03 -0.86828119897E+03 -0.12660724527E+04  0.15768883193E+04  0.50400001928E-02 0. -1.
</event>
<event>
 5   0  0.1451052E-05  0.2630888E+04  0.7818609E-02  0.8357784E-01
       -1   -1    0    0    0  501  0.00000000000E+00  0.00000000000E+00  0.84335300292E+03  0.84335300293E+03  0.50400001928E-02 0.  1.
        1   -1    0    0  501    0  0.00000000000E+00  0.00000000000E+00 -0.20518008993E+04  0.20518008993E+04  0.50400001928E-02 0. -1.
    10030    2    1    2    0    0  0.00000000000E+00  0.00000000000E+00 -0.12084478964E+04  0.28951539022E+04  0.26308876448E+04 0.  0.
        1    1    3    3  502    0 -0.19367539333E+03  0.47729964752E+03 -0.19362053072E+04  0.20035508737E+04  0.50400001928E-02 0. -1.
       -1    1    3    3    0  502  0.19367539333E+03 -0.47729964752E+03  0.72775741086E+03  0.89160302859E+03  0.50400001928E-02 0.  1.
</event>
<event>
 5   0  0.3441646E-05  0.2551250E+04  0.7818609E-02  0.8384951E-01
        2   -1    0    0  501    0  0.00000000000E+00  0.00000000000E+00  0.33685406120E+04  0.33685406120E+04  0.25500000920E-02 0.  1.
       -2   -1    0    0    0  501  0.00000000000E+00  0.00000000000E+00 -0.48306370509E+03  0.48306370510E+03  0.25500000920E-02 0. -1.
    10030    2    1    2    0    0  0.00000000000E+00  0.00000000000E+00  0.28854769069E+04  0.38516043171E+04  0.25512504454E+04 0.  0.
        4    1    3    3  502    0  0.92388884746E+03  0.87957224487E+03  0.14433413920E+04  0.19262538574E+04  0.12699999809E+01 0. -1.
       -4    1    3    3    0  502 -0.92388884746E+03 -0.87957224487E+03  0.14421355149E+04  0.19253504597E+04  0.12699999809E+01 0.  1.
</event>
<event>
 5   0  0.1497497E-05  0.2530568E+04  0.7818609E-02  0.8392176E-01
        1   -1    0    0  501    0  0.00000000000E+00  0.00000000000E+00  0.14030224117E+04  0.14030224117E+04  0.50400001928E-02 0. -1.
       -1   -1    0    0    0  501  0.00000000000E+00  0.00000000000E+00 -0.11410679183E+04  0.11410679183E+04  0.50400001928E-02 0.  1.
    10030    2    1    2    0    0  0.00000000000E+00  0.00000000000E+00  0.26195449345E+03  0.25440903300E+04  0.25305682071E+04 0.  0.
        3    1    3    3  502    0 -0.26535907111E+03  0.70156412101E+03  0.11554100521E+04  0.13775267878E+04  0.10100000352E+00 0. -1.
       -3    1    3    3    0  502  0.26535907111E+03 -0.70156412101E+03 -0.89345555863E+03  0.11665635422E+04  0.10100000352E+00 0.  1.
</event>
<event>
 5   0  0.3441646E-05  0.2745491E+04  0.7818609E-02  0.8320394E-01
       -2   -1    0    0    0  501  0.00000000000E+00  0.00000000000E+00  0.13529254127E+04  0.13529254127E+04  0.25500000920E-02 0. -1.
        2   -1    0    0  501    0  0.00000000000E+00  0.00000000000E+00 -0.13928564250E+04  0.13928564250E+04  0.25500000920E-02 0.  1.
    10030    2    1    2    0    0  0.00000000000E+00  0.00000000000E+00 -0.39931012296E+02  0.27457818376E+04  0.27454914704E+04 0.  0.
        4    1    3    3  502    0  0.40967316523E+03 -0.12346254306E+04  0.41859790076E+03  0.13665130338E+04  0.12699999809E+01 0. -1.
       -4    1    3    3    0  502 -0.40967316523E+03  0.12346254306E+04 -0.45852891305E+03  0.13792688038E+04  0.12699999809E+01 0.  1.
</event>
<event>
 5   0  0.3647623E-05  0.2257169E+04  0.7818609E-02  0.8495003E-01
       -2   -1    0    0    0  501  0.00000000000E+00  0.00000000000E+00  0.19479810799E+04  0.19479810799E+04  0.25500000920E-02 0.  1.
        2   -1    0    0  501    0  0.00000000000E+00  0.00000000000E+00 -0.65385798004E+03  0.65385798004E+03  0.25500000920E-02 0. -1.
    10030    2    1    2    0    0  0.00000000000E+00  0.00000000000E+00  0.12941230999E+04  0.26018390599E+04  0.22571690004E+04 0.  0.
        3    1    3    3  502    0 -0.34598185181E+03  0.24994163312E+03  0.18513594586E+04  0.18999226607E+04  0.10100000352E+00 0.  1.
       -3    1    3    3    0  502  0.34598185181E+03 -0.24994163312E+03 -0.55723635873E+03  0.70191639918E+03  0.10100000352E+00 0. -1.
</event>
<event>
 5   0  0.3849687E-05  0.2611366E+04  0.7818609E-02  0.8364351E-01
       -2   -1    0    0    0  501  0.00000000000E+00  0.00000000000E+00  0.13884029523E+04  0.13884029523E+04  0.25500000920E-02 0. -1.
        2   -1    0    0  501    0  0.00000000000E+00  0.00000000000E+00 -0.12278911550E+04  0.12278911550E+04  0.25500000920E-02 0.  1.
    10030    2    1    2    0    0  0.00000000000E+00  0.00000000000E+00  0.16051179735E+03  0.26162941073E+04  0.26113656999E+04 0.  0.
        1    1    3    3  502    0 -0.45342250675E+03  0.10497758296E+04  0.71167261542E+03  0.13468849890E+04  0.50400001928E-02 0. -1.
       -1    1    3    3    0  502  0.45342250675E+03 -0.10497758296E+04 -0.55116081807E+03  0.12694091183E+04  0.50400001928E-02 0.  1.
</event>
<event>
 5   0  0.3441646E-05  0.2585226E+04  0.7818609E-02  0.8373237E-01
        2   -1    0    0  501    0  0.00000000000E+00  0.00000000000E+00  0.11108072956E+04  0.11108072956E+04  0.25500000920E-02 0. -1.
       -2   -1    0    0    0  501  0.00000000000E+00  0.00000000000E+00 -0.15041748229E+04  0.15041748229E+04  0.25500000920E-02 0.  1.
    10030    2    1    2    0    0  0.00000000000E+00  0.00000000000E+00 -0.39336752734E+03  0.26149821185E+04  0.25852259995E+04 0.  0.
        4    1    3    3  502    0 -0.83354986342E+03  0.18714289077E+03  0.78454300069E+03  0.11598867053E+04  0.12699999809E+01 0. -1.
       -4    1    3    3    0  502  0.83354986342E+03 -0.18714289077E+03 -0.11779105280E+04  0.14550954131E+04  0.12699999809E+01 0.  1.
</event>
<event>
 5   0  0.1497497E-05  0.2630753E+04  0.7818609E-02  0.8357830E-01
       -1   -1    0    0    0  501  0.00000000000E+00  0.00000000000E+00  0.26891669337E+04  0.26891669337E+04  0.50400001928E-02 0. -1.
        1   -1    0    0  501    0  0.00000000000E+00  0.00000000000E+00 -0.64340185685E+03  0.64340185687E+03  0.50400001928E-02 0.  1.
    10030    2    1    2    0    0  0.00000000000E+00  0.00000000000E+00  0.20457650768E+04  0.33325687906E+04  0.26307527429E+04 0.  0.
        3    1    3    3  502    0 -0.27226036998E+03 -0.93906967062E+03 -0.91761437931E+02  0.98203753850E+03  0.10100000352E+00 0.  1.
       -3    1    3    3    0  502  0.27226036998E+03  0.93906967062E+03  0.21375265148E+04  0.23505312521E+04  0.10100000352E+00 0. -1.
</event>
<event>
 5   0  0.3647623E-05  0.2563364E+04  0.7818609E-02  0.8380753E-01
        2   -1    0    0  501    0  0.00000000000E+00  0.00000000000E+00  0.16745436241E+04  0.16745436241E+04  0.25500000920E-02 0.  1.
       -2   -1    0    0    0  501  0.00000000000E+00  0.00000000000E+00 -0.98098893966E+03  0.98098893967E+03  0.25500000920E-02 0. -1.
    10030    2    1    2    0    0  0.00000000000E+00  0.00000000000E+00  0.69355468447E+03  0.26555325638E+04  0.25633640196E+04 0.  0.
        3    1    3    3  502    0  0.11813015320E+04 -0.16355701248E+03 -0.13966395349E+03  0.12007207152E+04  0.10100000352E+00 0. -1.
       -3    1    3    3    0  502 -0.11813015320E+04  0.16355701248E+03  0.83321863795E+03  0.14548118486E+04  0.10100000352E+00 0.  1.
</event>
<event>
 5   0  0.1497497E-05  0.2555166E+04  0.7818609E-02  0.8383592E-01
        1   -1    0    0  501    0  0.00000000000E+00  0.00000000000E+00  0.23862871600E+04  0.23862871600E+04  0.50400001928E-02 0. -1.
       -1   -1    0    0    0  501  0.00000000000E+00  0.00000000000E+00 -0.68399923720E+03  0.68399923722E+03  0.50400001928E-02 0.  1.
    10030    2    1    2    0    0  0.00000000000E+00  0.00000000000E+00  0.17022879228E+04  0.30702863972E+04  0.25551662155E+04 0.  0.
        3    1    3    3  502    0  0.11453543570E+04 -0.19235760586E+02  0.15308839864E+04  0.19120178890E+04  0.10100000352E+00 0. -1.
       -3    1    3    3    0  502 -0.11453543570E+04  0.19235760586E+02  0.17140393639E+03  0.11582685083E+04  0.10100000352E+00 0.  1.
</event>
<event>
 5   0  0.3441646E-05  0.2538164E+04  0.7818609E-02  0.8389514E-01
        2   -1    0    0  501    0  0.00000000000E+00  0.00000000000E+00  0.14834293809E+04  0.14834293809E+04  0.25500000920E-02 0.  1.
       -2   -1    0    0    0  501  0.00000000000E+00  0.00000000000E+00 -0.10857070611E+04  0.10857070611E+04  0.25500000920E-02 0. -1.
    10030    2    1    2    0    0  0.00000000000E+00  0.00000000000E+00  0.39772231987E+03  0.25691364420E+04  0.25381644970E+04 0.  0.
        4    1    3    3  502    0  0.88570776975E+03  0.40779425695E+03 -0.62332752722E+03  0.11572870122E+04  0.12699999809E+01 0. -1.
       -4    1    3    3    0  502 -0.88570776975E+03 -0.40779425695E+03  0.10210498471E+04  0.14118494298E+04  0.12699999809E+01 0.  1.
</event>
<event>
 5   0  0.3499642E-05  0.2624771E+04  0.7818609E-02  0.8359835E-01
       -2   -1    0    0    0  501  0.00000000000E+00  0.00000000000E+00  0.12015915260E+04  0.12015915260E+04  0.25500000920E-02 0. -1.
        2   -1    0    0  501    0  0.00000000000E+00  0.00000000000E+00 -0.14333952432E+04  0.14333952432E+04  0.25500000920E-02 0.  1.
    10030    2    1    2    0    0  0.00000000000E+00  0.00000000000E+00 -0.23180371722E+03  0.26349867691E+04  0.26247709062E+04 0.  0.
        2    1    3    3  502    0  0.60579708254E+03 -0.12812882209E+02 -0.12845639061E+04  0.14203023284E+04  0.25500000920E-02 0.  1.
       -2    1    3    3    0  502 -0.60579708254E+03  0.12812882209E+02  0.10527601889E+04  0.12146844407E+04  0.25500000920E-02 0. -1.
</event>
<event>
 5   0  0.3849687E-05  0.2397007E+04  0.7818609E-02  0.8440625E-01
       -2   -1    0    0    0  501  0.00000000000E+00  0.00000000000E+00  0.56293272139E+03  0.56293272140E+03  0.25500000920E-02 0. -1.
        2   -1    0    0  501    0  0.00000000000E+00  0.00000000000E+00 -0.25516554598E+04  0.25516554598E+04  0.25500000920E-02 0.  1.
    10030    2    1    2    0    0  0.00000000000E+00  0.00000000000E+00 -0.19887227384E+04  0.31145881812E+04  0.23970067602E+04 0.  0.
        1    1    3    3  502    0 -0.11225299892E+04  0.41820437806E+03 -0.10437008929E+04  0.15887982982E+04  0.50400001928E-02 0.  1.
       -1    1    3    3    0  502  0.11225299892E+04 -0.41820437806E+03 -0.94502184552E+03  0.15257898830E+04  0.50400001928E-02 0. -1.
</event>
<event>
 5   0  0.3647623E-05  0.2536673E+04  0.7818609E-02  0.8390036E-01
       -2   -1    0    0    0  501  0.00000000000E+00  0.00000000000E+00  0.18377296626E+04  0.18377296626E+04  0.25500000920E-02 0. -1.
        2   -1    0    0  501    0  0.00000000000E+00  0.00000000000E+00 -0.87536160100E+03  0.87536160101E+03  0.25500000920E-02 0.  1.
    10030    2    1    2    0    0  0.00000000000E+00  0.00000000000E+00  0.96236806159E+03  0.27130912636E+04  0.25366733961E+04 0.  0.
        3    1    3    3  502    0 -0.42810638934E+03 -0.36776060839E+03  0.16960288268E+04  0.17874665695E+04  0.10100000352E+00 0. -1.
       -3    1    3    3    0  502  0.42810638934E+03  0.36776060839E+03 -0.73366076520E+03  0.92562469407E+03  0.10100000352E+00 0.  1.
</event>
<event>
 5   0  0.3499642E-05  0.2579190E+04  0.7818609E-02  0.8375305E-01
        2   -1    0    0  501    0  0.00000000000E+00  0.00000000000E+00  0.18934569419E+04  0.18934569419E+04  0.25500000920E-02 0.  1.
       -2   -1    0    0    0  501  0.00000000000E+00  0.00000000000E+00 -0.87831668765E+03  0.87831668765E+03  0.25500000920E-02 0. -1.
    10030    2    1    2    0    0  0.00000000000E+00  0.00000000000E+00  0.10151402543E+04  0.27717736296E+04  0.25791896630E+04 0.  0.
        2    1    3    3  502    0 -0.76413648345E+03 -0.16124206929E+02  0.16238243583E+04  0.17947061325E+04  0.25500000920E-02 0.  1.
       -2    1    3    3    0  502  0.76413648345E+03  0.16124206929E+02 -0.60868410401E+03  0.97706749709E+03  0.25500000920E-02 0. -1.
</event>
<event>
 5   0  0.1435062E-05  0.2562115E+04  0.7818609E-02  0.8381185E-01
        1   -1    0    0  501    0  0.00000000000E+00  0.00000000000E+00  0.16341086289E+04  0.16341086289E+04  0.50400001928E-02 0. -1.
       -1   -1    0    0    0  501  0.00000000000E+00  0.00000000000E+00 -0.10042835028E+04  0.10042835028E+04  0.50400001928E-02 0.  1.
    10030    2    1    2    0    0  0.00000000000E+00  0.00000000000E+00  0.62982512609E+03  0.26383921317E+04  0.25621150152E+04 0.  0.
        2    1    3    3  502    0 -0.96669675925E+03 -0.71765515303E+03  0.76563810844E+03  0.14267912448E+04  0.25500000920E-02 0. -1.
       -2    1    3    3    0  502  0.96669675925E+03  0.71765515303E+03 -0.13581298235E+03  0.12116008869E+04  0.25500000920E-02 0.  1.
</event>
<event>
 5   0  0.1435062E-05  0.2615546E+04  0.7818609E-02  0.8362940E-01
        1   -1    0    0  501    0  0.00000000000E+00  0.00000000000E+00  0.26845668079E+04  0.26845668079E+04  0.50400001928E-02 0.  1.
       -1   -1    0    0    0  501  0.00000000000E+00  0.00000000000E+00 -0.63707507982E+03  0.63707507984E+03  0.50400001928E-02 0. -1.
    10030    2    1    2    0    0  0.00000000000E+00  0.00000000000E+00  0.20474917281E+04  0.33216418878E+04  0.26155463012E+04 0.  0.
        2    1    3    3  502    0  0.94241500250E+03  0.16495761991E+02 -0.12755101539E+03  0.95115057095E+03  0.25500000920E-02 0. -1.
       -2    1    3    3    0  502 -0.94241500250E+03 -0.16495761991E+02  0.21750427435E+04  0.23704913168E+04  0.25500000920E-02 0.  1.
</event>
<event>
 5   0  0.1533248E-05  0.2611660E+04  0.7818609E-02  0.8364251E-01
       -1   -1    0    0    0  501  0.00000000000E+00  0.00000000000E+00  0.17429035415E+04  0.17429035415E+04  0.50400001928E-02 0. -1.
        1   -1    0    0  501    0  0.00000000000E+00  0.00000000000E+00 -0.97836266313E+03  0.97836266314E+03  0.50400001928E-02 0.  1.
    10030    2    1    2    0    0  0.00000000000E+00  0.00000000000E+00  0.76454087834E+03  0.27212662046E+04  0.26116598174E+04 0.  0.
        4    1    3    3  502    0 -0.56991910711E+03 -0.78145110604E+03  0.12964254082E+04  0.16174653232E+04  0.12699999809E+01 0. -1.
       -4    1    3    3    0  502  0.56991910711E+03  0.78145110604E+03 -0.53188452988E+03  0.11038008814E+04  0.12699999809E+01 0.  1.
</event>
<event>
 5   0  0.1474554E-05  0.2609837E+04  0.7818609E-02  0.8364867E-01
        1   -1    0    0  501    0  0.00000000000E+00  0.00000000000E+00  0.22100748694E+04  0.22100748694E+04  0.50400001928E-02 0. -1.
       -1   -1    0    0    0  501  0.00000000000E+00  0.00000000000E+00 -0.77047731739E+03  0.77047731740E+03  0.50400001928E-02 0.  1.
    10030    2    1    2    0    0  0.00000000000E+00  0.00000000000E+00  0.14395975520E+04  0.29805521868E+04  0.26098372031E+04 0.  0.
        5    1    3    3  502    0 -0.31547499928E+03  0.75419725328E+03 -0.44175304041E+03  0.92925013356E+03  0.46999998093E+01 0.  1.
       -5    1    3    3    0  502  0.31547499928E+03 -0.75419725328E+03  0.18813505924E+04  0.20513020532E+04  0.46999998093E+01 0. -1.
</event>
<event>
 5   0  0.1474554E-05  0.2501754E+04  0.7818609E-02  0.8402361E-01
       -1   -1    0    0    0  501  0.00000000000E+00  0.00000000000E+00  0.12852800121E+04  0.12852800121E+04  0.50400001928E-02 0. -1.
        1   -1    0    0  501    0  0.00000000000E+00  0.00000000000E+00 -0.12173948521E+04  0.12173948521E+04  0.50400001928E-02 0.  1.
    10030    2    1    2    0    0  0.00000000000E+00  0.00000000000E+00  0.67885160038E+02  0.25026748642E+04  0.25017540009E+04 0.  0.
        5    1    3    3  502    0 -0.95453891165E+03  0.73110853761E+03 -0.31115824379E+03  0.12419765579E+04  0.46999998093E+01 0.  1.
       -5    1    3    3    0  502  0.95453891165E+03 -0.73110853761E+03  0.37904340383E+03  0.12606983063E+04  0.46999998093E+01 0. -1.
</event>
<event>
 5   0  0.3647623E-05  0.2639064E+04  0.7818609E-02  0.8355052E-01
        2   -1    0    0  501    0  0.00000000000E+00  0.00000000000E+00  0.13251926483E+04  0.13251926483E+04  0.25500000920E-02 0. -1.
       -2   -1    0    0    0  501  0.00000000000E+00  0.00000000000E+00 -0.13138954488E+04  0.13138954488E+04  0.25500000920E-02 0.  1.
    10030    2    1    2    0    0  0.00000000000E+00  0.00000000000E+00  0.11297199525E+02  0.26390880971E+04  0.26390639169E+04 0.  0.
        3    1    3    3  502    0  0.10905093274E+04  0.48213827154E+03  0.57089414627E+03  0.13219637070E+04  0.10100000352E+00 0. -1.
       -3    1    3    3    0  502 -0.10905093274E+04 -0.48213827154E+03 -0.55959694674E+03  0.13171243901E+04  0.10100000352E+00 0.  1.
</event>
<event>
 5   0  0.3647623E-05  0.2609635E+04  0.7818609E-02  0.8364936E-01
       -2   -1    0    0    0  501  0.00000000000E+00  0.00000000000E+00  0.99181509629E+03  0.99181509629E+03  0.25500000920E-02 0. -1.
        2   -1    0    0  501    0  0.00000000000E+00  0.00000000000E+00 -0.17165988193E+04  0.17165988193E+04  0.25500000920E-02 0.  1.
    10030    2    1    2    0    0  0.00000000000E+00  0.00000000000E+00 -0.72478372301E+03  0.27084139156E+04  0.26096349348E+04 0.  0.
        3    1    3    3  502    0 -0.88899366645E+03 -0.87451569191E+03  0.36150169262E+02  0.12475553211E+04  0.10100000352E+00 0.  1.
       -3    1    3    3    0  502  0.88899366645E+03  0.87451569191E+03 -0.76093389227E+03  0.14608585945E+04  0.10100000352E+00 0. -1.
</event>
<event>
 5   0  0.1217200E-05  0.2575451E+04  0.7818609E-02  0.8376588E-01
       -3   -1    0    0    0  501  0.00000000000E+00  0.00000000000E+00  0.14174061959E+04  0.14174061995E+04  0.10100000352E+00 0. -1.
        3   -1    0    0  501    0  0.00000000000E+00  0.00000000000E+00 -0.11699091434E+04  0.11699091478E+04  0.10100000352E+00 0.  1.
    10030    2    1    2    0    0  0.00000000000E+00  0.00000000000E+00  0.24749705251E+03  0.25873153473E+04  0.25754506238E+04 0.  0.
        2    1    3    3  502    0  0.19868076509E+03  0.27345623592E+03 -0.11245473941E+04  0.11742483557E+04  0.25500000920E-02 0.  1.
       -2    1    3    3    0  502 -0.19868076509E+03 -0.27345623592E+03  0.13720444466E+04  0.14130669916E+04  0.25500000920E-02 0. -1.
</event>
<event>
 5   0  0.3849687E-05  0.1992171E+04  0.7818609E-02  0.8610290E-01
        2   -1    0    0  501    0  0.00000000000E+00  0.00000000000E+00  0.12695113860E+04  0.12695113860E+04  0.25500000920E-02 0. -1.
       -2   -1    0    0    0  501  0.00000000000E+00  0.00000000000E+00 -0.78155014024E+03  0.78155014024E+03  0.25500000920E-02 0.  1.
    10030    2    1    2    0    0  0.00000000000E+00  0.00000000000E+00  0.48796124576E+03  0.20510615262E+04  0.19921714803E+04 0.  0.
        1    1    3    3  502    0  0.50343018772E+03 -0.48721379424E+03 -0.48502367330E+03  0.85209576862E+03  0.50400001928E-02 0.  1.
       -1    1    3    3    0  502 -0.50343018772E+03  0.48721379424E+03  0.97298491906E+03  0.11989657576E+04  0.50400001928E-02 0. -1.
</event>
<event>
 5   0  0.1435062E-05  0.1890739E+04  0.7818609E-02  0.8659480E-01
       -1   -1    0    0    0  501  0.00000000000E+00  0.00000000000E+00  0.42668395102E+03  0.42668395105E+03  0.50400001928E-02 0.  1.
        1   -1    0    0  501    0  0.00000000000E+00  0.00000000000E+00 -0.20945786019E+04  0.20945786019E+04  0.50400001928E-02 0. -1.
    10030    2    1    2    0    0  0.00000000000E+00  0.00000000000E+00 -0.16678946509E+04  0.25212625530E+04  0.18907385580E+04 0.  0.
        2    1    3    3  502    0  0.41304653618E+03 -0.50931189244E+03 -0.17420043343E+04  0.18613396105E+04  0.25500000920E-02 0. -1.
       -2    1    3    3    0  502 -0.41304653618E+03  0.50931189244E+03  0.74109683418E+02  0.65992294248E+03  0.25500000920E-02 0.  1.
</event>
<event>
 5   0  0.3647623E-05  0.2622204E+04  0.7818609E-02  0.8360698E-01
       -2   -1    0    0    0  501  0.00000000000E+00  0.00000000000E+00  0.21712128245E+04  0.21712128245E+04  0.25500000920E-02 0. -1.
        2   -1    0    0  501    0  0.00000000000E+00  0.00000000000E+00 -0.79171797610E+03  0.79171797610E+03  0.25500000920E-02 0.  1.
    10030    2    1    2    0    0  0.00000000000E+00  0.00000000000E+00  0.13794948484E+04  0.29629308006E+04  0.26222038236E+04 0.  0.
        3    1    3    3  502    0  0.10336082802E+04 -0.43069044424E+03 -0.80890866378E+02  0.11226681069E+04  0.10100000352E+00 0.  1.
       -3    1    3    3    0  502 -0.10336082802E+04  0.43069044424E+03  0.14603857148E+04  0.18402626937E+04  0.10100000352E+00 0. -1.
</event>
<event>
 5   0  0.3441646E-05  0.2567796E+04  0.7818609E-02  0.8379223E-01
       -2   -1    0    0    0  501  0.00000000000E+00  0.00000000000E+00  0.50294054962E+03  0.50294054963E+03  0.25500000920E-02 0. -1.
        2   -1    0    0  501    0  0.00000000000E+00  0.00000000000E+00 -0.32775138725E+04  0.32775138725E+04  0.25500000920E-02 0.  1.
    10030    2    1    2    0    0  0.00000000000E+00  0.00000000000E+00 -0.27745733229E+04  0.37804544221E+04  0.25677964315E+04 0.  0.
        4    1    3    3  502    0  0.96039255419E+03 -0.83526388582E+03 -0.16352794739E+04  0.20722355532E+04  0.12699999809E+01 0.  1.
       -4    1    3    3    0  502 -0.96039255419E+03  0.83526388582E+03 -0.11392938490E+04  0.17082188690E+04  0.12699999809E+01 0. -1.
</event>
<event>
 5   0  0.3508470E-05  0.2593904E+04  0.7818609E-02  0.8370275E-01
       -2   -1    0    0    0  501  0.00000000000E+00  0.00000000000E+00  0.20027740697E+04  0.20027740697E+04  0.25500000920E-02 0. -1.
        2   -1    0    0  501    0  0.00000000000E+00  0.00000000000E+00 -0.83987748804E+03  0.83987748804E+03  0.25500000920E-02 0.  1.
    10030    2    1    2    0    0  0.00000000000E+00  0.00000000000E+00  0.11628965816E+04  0.28426515577E+04  0.25939042810E+04 0.  0.
        5    1    3    3  502    0 -0.24479596417E+03  0.11319675291E+03 -0.80879706561E+03  0.85259213712E+03  0.46999998093E+01 0.  1.
       -5    1    3    3    0  502  0.24479596417E+03 -0.11319675291E+03  0.19716936472E+04  0.19900594206E+04  0.46999998093E+01 0. -1.
</event>
<event>
 5   0  0.1451052E-05  0.2560962E+04  0.7818609E-02  0.8381584E-01
        1   -1    0    0  501    0  0.00000000000E+00  0.00000000000E+00  0.18889421740E+04  0.18889421740E+04  0.50400001928E-02 0.  1.
       -1   -1    0    0    0  501  0.00000000000E+00  0.00000000000E+00 -0.86801563973E+03  0.86801563975E+03  0.50400001928E-02 0. -1.
    10030    2    1    2    0    0  0.00000000000E+00  0.00000000000E+00  0.10209265343E+04  0.27569578138E+04  0.25609618112E+04 0.  0.
        1    1    3    3  502    0 -0.12477967645E+04 -0.39702844601E+02  0.20396665470E+03  0.12649804258E+04  0.50400001928E-02 0.  1.
       -1    1    3    3    0  502  0.12477967645E+04  0.39702844601E+02  0.81695987960E+03  0.14919773880E+04  0.50400001928E-02 0. -1.
</event>
<event>
 5   0  0.1497497E-05  0.2636357E+04  0.7818609E-02  0.8355955E-01
       -1   -1    0    0    0  501  0.00000000000E+00  0.00000000000E+00  0.78101752792E+03  0.78101752794E+03  0.50400001928E-02 0. -1.
        1   -1    0    0  501    0  0.00000000000E+00  0.00000000000E+00 -0.22247838128E+04  0.22247838128E+04  0.50400001928E-02 0.  1.
    10030    2    1    2    0    0  0.00000000000E+00  0.00000000000E+00 -0.14437662849E+04  0.30058013408E+04  0.26363574520E+04 0.  0.
        3    1    3    3  502    0  0.36530137741E+03  0.48023263091E+03 -0.20580925582E+04  0.21447175722E+04  0.10100000352E+00 0.  1.
       -3    1    3    3    0  502 -0.36530137741E+03 -0.48023263091E+03  0.61432627334E+03  0.86108376854E+03  0.10100000352E+00 0. -1.
</event>
<event>
 5   0  0.1533248E-05  0.2608584E+04  0.7818609E-02  0.8365291E-01
        1   -1    0    0  501    0  0.00000000000E+00  0.00000000000E+00  0.20691024072E+04  0.20691024072E+04  0.50400001928E-02 0.  1.
       -1   -1    0    0    0  501  0.00000000000E+00  0.00000000000E+00 -0.82218130272E+03  0.82218130274E+03  0.50400001928E-02 0. -1.
    10030    2    1    2    0    0  0.00000000000E+00  0.00000000000E+00  0.12469211045E+04  0.28912837099E+04  0.26085837634E+04 0.  0.
        4    1    3    3  502    0  0.83077340858E+03 -0.10053974968E+04  0.60913221459E+03  0.14394624868E+04  0.12699999809E+01 0. -1.
       -4    1    3    3    0  502 -0.83077340858E+03  0.10053974968E+04  0.63778888988E+03  0.14518212232E+04  0.12699999809E+01 0.  1.
</event>
<event>
 5   0  0.1474554E-05  0.2606677E+04  0.7818609E-02  0.8365937E-01
       -1   -1    0    0    0  501  0.00000000000E+00  0.00000000000E+00  0.25885957307E+04  0.25885957307E+04  0.50400001928E-02 0.  1.
        1   -1    0    0  501    0  0.00000000000E+00  0.00000000000E+00 -0.65622116623E+03  0.65622116625E+03  0.50400001928E-02 0. -1.
    10030    2    1    2    0    0  0.00000000000E+00  0.00000000000E+00  0.19323745645E+04  0.32448168970E+04  0.26066770489E+04 0.  0.
        5    1    3    3  502    0  0.18962434255E+03 -0.12885225138E+04  0.10274435512E+04  0.16588881821E+04  0.46999998093E+01 0. -1.
       -5    1    3    3    0  502 -0.18962434255E+03  0.12885225138E+04  0.90493101328E+03  0.15859287149E+04  0.46999998093E+01 0.  1.
</event>
<event>
 5   0  0.3647623E-05  0.1863525E+04  0.7818609E-02  0.8673228E-01
        2   -1    0    0  501    0  0.00000000000E+00  0.00000000000E+00  0.57426613156E+03  0.57426613157E+03  0.25500000920E-02 0. -1.
       -2   -1    0    0    0  501  0.00000000000E+00  0.00000000000E+00 -0.15118099682E+04  0.15118099682E+04  0.25500000920E-02 0.  1.
    10030    2    1    2    0    0  0.00000000000E+00  0.00000000000E+00 -0.93754383668E+03  0.20860760998E+04  0.18635248988E+04 0.  0.
        3    1    3    3  502    0  0.49207133177E+03 -0.30044495343E+03 -0.12881571847E+04  0.14112938419E+04  0.10100000352E+00 0.  1.
       -3    1    3    3    0  502 -0.49207133177E+03  0.30044495343E+03  0.35061334798E+03  0.67478225790E+03  0.10100000352E+00 0. -1.
</event>
<event>
 5   0  0.1435062E-05  0.2505615E+04  0.7818609E-02  0.8400988E-01
        1   -1    0    0  501    0  0.00000000000E+00  0.00000000000E+00  0.19254672652E+04  0.19254672652E+04  0.50400001928E-02 0.  1.
       -1   -1    0    0    0  501  0.00000000000E+00  0.00000000000E+00 -0.81514042818E+03  0.81514042819E+03  0.50400001928E-02 0. -1.
    10030    2    1    2    0    0  0.00000000000E+00  0.00000000000E+00  0.11103268371E+04  0.27406076934E+04  0.25056146640E+04 0.  0.
        2    1    3    3  502    0 -0.11762144954E+03  0.11289936707E+04  0.11350402277E+04  0.16052345101E+04  0.25500000920E-02 0.  1.
       -2    1    3    3    0  502  0.11762144954E+03 -0.11289936707E+04 -0.24713390607E+02  0.11353731834E+04  0.25500000920E-02 0. -1.
</event>
<event>
 5   0  0.1533248E-05  0.2654613E+04  0.7818609E-02  0.8349884E-01
        1   -1    0    0  501    0  0.00000000000E+00  0.00000000000E+00  0.13667153529E+04  0.13667153529E+04  0.50400001928E-02 0. -1.
       -1   -1    0    0    0  501  0.00000000000E+00  0.00000000000E+00 -0.12890337652E+04  0.12890337652E+04  0.50400001928E-02 0.  1.
    10030    2    1    2    0    0  0.00000000000E+00  0.00000000000E+00  0.77681587720E+02  0.26557491182E+04  0.26546127683E+04 0.  0.
        4    1    3    3  502    0  0.12005872024E+04 -0.22078661689E+03 -0.48251975854E+03  0.13126245811E+04  0.12699999809E+01 0.  1.
       -4    1    3    3    0  502 -0.12005872024E+04  0.22078661689E+03  0.56020134626E+03  0.13431245370E+04  0.12699999809E+01 0. -1.
</event>
<event>
 5   0  0.1497497E-05  0.2579212E+04  0.7818609E-02  0.8375297E-01
        1   -1    0    0  501    0  0.00000000000E+00  0.00000000000E+00  0.19093932611E+04  0.19093932611E+04  0.50400001928E-02 0. -1.
       -1   -1    0    0    0  501  0.00000000000E+00  0.00000000000E+00 -0.87100129492E+03  0.87100129494E+03  0.50400001928E-02 0.  1.
    10030    2    1    2    0    0  0.00000000000E+00  0.00000000000E+00  0.10383919661E+04  0.27803945560E+04  0.25792122851E+04 0.  0.
        3    1    3    3  502    0  0.12287899773E+04 -0.38771967991E+03  0.46182205387E+03  0.13687698777E+04  0.10100000352E+00 0.  1.
       -3    1    3    3    0  502 -0.12287899773E+04  0.38771967991E+03  0.57656991226E+03  0.14116246783E+04  0.10100000352E+00 0. -1.
</event>
<event>
 5   0  0.1533248E-05  0.2599679E+04  0.7818609E-02  0.8368310E-01
       -1   -1    0    0    0  501  0.00000000000E+00  0.00000000000E+00  0.11622020958E+04  0.11622020959E+04  0.50400001928E-02 0.  1.
        1   -1    0    0  501    0  0.00000000000E+00  0.00000000000E+00 -0.14537769285E+04  0.14537769285E+04  0.50400001928E-02 0. -1.
    10030    2    1    2    0    0  0.00000000000E+00  0.00000000000E+00 -0.29157483269E+03  0.26159790244E+04  0.25996788981E+04 0.  0.
        4    1    3    3  502    0  0.69699382776E+03  0.59313745765E+03 -0.10745962297E+04  0.14115137652E+04  0.12699999809E+01 0. -1.
       -4    1    3    3    0  502 -0.69699382776E+03 -0.59313745765E+03  0.78302139698E+03  0.12044652592E+04  0.12699999809E+01 0.  1.
</event>
<event>
 5   0  0.3499642E-05  0.2590107E+04  0.7818609E-02  0.8371569E-01
       -2   -1    0    0    0  501  0.00000000000E+00  0.00000000000E+00  0.93266176622E+03  0.93266176622E+03  0.25500000920E-02 0. -1.
        2   -1    0    0  501    0  0.00000000000E+00  0.00000000000E+00 -0.17982554578E+04  0.17982554578E+04  0.25500000920E-02 0.  1.
    10030    2    1    2    0    0  0.00000000000E+00  0.00000000000E+00 -0.86559369162E+03  0.27309172241E+04  0.25901074197E+04 0.  0.
        2    1    3    3  502    0  0.55129683188E+03 -0.10957842846E+04 -0.87069805159E+03  0.15042561259E+04  0.25500000920E-02 0.  1.
       -2    1    3    3    0  502 -0.55129683188E+03  0.10957842846E+04  0.51043599696E+01  0.12266610982E+04  0.25500000920E-02 0. -1.
</event>
<event>
 5   0  0.3508470E-05  0.2387809E+04  0.7818609E-02  0.8444082E-01
       -2   -1    0    0    0  501  0.00000000000E+00  0.00000000000E+00  0.10064074820E+04  0.10064074820E+04  0.25500000920E-02 0.  1.
        2   -1    0    0  501    0  0.00000000000E+00  0.00000000000E+00 -0.14163333730E+04  0.14163333730E+04  0.25500000920E-02 0. -1.
    10030    2    1    2    0    0  0.00000000000E+00  0.00000000000E+00 -0.40992589102E+03  0.24227408550E+04  0.23878094594E+04 0.  0.
        5    1    3    3  502    0 -0.66819677943E+03  0.63725401664E+03  0.56294891521E+03  0.10814403307E+04  0.46999998093E+01 0.  1.
       -5    1    3    3    0  502  0.66819677943E+03 -0.63725401664E+03 -0.97287480623E+03  0.13413005243E+04  0.46999998093E+01 0. -1.
</event>
<event>
 5   0  0.3647623E-05  0.2625840E+04  0.7818609E-02  0.8359477E-01
        2   -1    0    0  501    0  0.00000000000E+00  0.00000000000E+00  0.12896075870E+04  0.12896075870E+04  0.25500000920E-02 0. -1.
       -2   -1    0    0    0  501  0.00000000000E+00  0.00000000000E+00 -0.13366540192E+04  0.13366540192E+04  0.25500000920E-02 0.  1.
    10030    2    1    2    0    0  0.00000000000E+00  0.00000000000E+00 -0.47046432224E+02  0.26262616062E+04  0.26258401812E+04 0.  0.
        3    1    3    3  502    0 -0.16894881527E+03  0.60574717496E+03 -0.11762210097E+04  0.13337800478E+04  0.10100000352E+00 0. -1.
       -3    1    3    3    0  502  0.16894881527E+03 -0.60574717496E+03  0.11291745774E+04  0.12924815584E+04  0.10100000352E+00 0.  1.
</event>
<event>
 5   0  0.3508470E-05  0.2716117E+04  0.7818609E-02  0.8329794E-01
        2   -1    0    0  501    0  0.00000000000E+00  0.00000000000E+00  0.21190010693E+04  0.21190010693E+04  0.25500000920E-02 0. -1.
       -2   -1    0    0    0  501  0.00000000000E+00  0.00000000000E+00 -0.87037385079E+03  0.87037385079E+03  0.25500000920E-02 0.  1.
    10030    2    1    2    0    0  0.00000000000E+00  0.00000000000E+00  0.12486272185E+04  0.29893749201E+04  0.27161171701E+04 0.  0.
        5    1    3    3  502    0  0.84115123825E+02 -0.10812275562E+04  0.15239690950E+04  0.18704631177E+04  0.46999998093E+01 0. -1.
       -5    1    3    3    0  502 -0.84115123825E+02  0.10812275562E+04 -0.27534187651E+03  0.11189118023E+04  0.46999998093E+01 0.  1.
</event>
<event>
 5   0  0.1533248E-05  0.2586276E+04  0.7818609E-02  0.8372878E-01
       -1   -1    0    0    0  501  0.00000000000E+00  0.00000000000E+00  0.10586831592E+04  0.10586831592E+04  0.50400001928E-02 0.  1.
        1   -1    0    0  501    0  0.00000000000E+00  0.00000000000E+00 -0.15795148080E+04  0.15795148080E+04  0.50400001928E-02 0. -1.
    10030    2    1    2    0    0  0.00000000000E+00  0.00000000000E+00 -0.52083164882E+03  0.26381979672E+04  0.25862758761E+04 0.  0.
        4    1    3    3  502    0 -0.83365827650E+03 -0.10867870448E+03  0.74186111639E+03  0.11212299995E+04  0.12699999809E+01 0.  1.
       -4    1    3    3    0  502  0.83365827650E+03  0.10867870448E+03 -0.12626927652E+04  0.15169679677E+04  0.12699999809E+01 0. -1.
</event>
<event>
 5   0  0.1474554E-05  0.1936170E+04  0.7818609E-02  0.8637059E-01
       -1   -1    0    0    0  501  0.00000000000E+00  0.00000000000E+00  0.56592843883E+03  0.56592843886E+03  0.50400001928E-02 0. -1.
        1   -1    0    0  501    0  0.00000000000E+00  0.00000000000E+00 -0.16560196079E+04  0.16560196079E+04  0.50400001928E-02 0.  1.
    10030    2    1    2    0    0  0.00000000000E+00  0.00000000000E+00 -0.10900911690E+04  0.22219480467E+04  0.19361700250E+04 0.  0.
        5    1    3    3  502    0 -0.39668861520E+02  0.92338886109E+03 -0.21453311117E+03  0.94882408967E+03  0.46999998093E+01 0. -1.
       -5    1    3    3    0  502  0.39668861520E+02 -0.92338886109E+03 -0.87555805785E+03  0.12731239571E+04  0.46999998093E+01 0.  1.
</event>
<event>
 5   0  0.1497497E-05  0.2584377E+04  0.7818609E-02  0.8373528E-01
        1   -1    0    0  501    0  0.00000000000E+00  0.00000000000E+00  0.13208516845E+04  0.13208516845E+04  0.50400001928E-02 0.  1.
       -1   -1    0    0    0  501  0.00000000000E+00  0.00000000000E+00 -0.12641469865E+04  0.12641469865E+04  0.50400001928E-02 0. -1.
    10030    2    1    2    0    0  0.00000000000E+00  0.00000000000E+00  0.56704697991E+02  0.25849986710E+04  0.25843766572E+04 0.  0.
        3    1    3    3  502    0  0.82425485230E+03 -0.65509798946E+03 -0.72096160659E+03  0.12760623361E+04  0.10100000352E+00 0. -1.
       -3    1    3    3    0  502 -0.82425485230E+03  0.65509798946E+03  0.77766630458E+03  0.13089363349E+04  0.10100000352E+00 0.  1.
</event>
<event>
 5   0  0.1474554E-05  0.2069550E+04  0.7818609E-02  0.8574777E-01
        1   -1    0    0  501    0  0.00000000000E+00  0.00000000000E+00  0.18200970809E+04  0.18200970809E+04  0.50400001928E-02 0.  1.
       -1   -1    0    0    0  501  0.00000000000E+00  0.00000000000E+00 -0.58829770835E+03  0.58829770838E+03  0.50400001928E-02 0. -1.
    10030    2    1    2    0    0  0.00000000000E+00  0.00000000000E+00  0.12317993726E+04  0.24083947893E+04  0.20695496532E+04 0.  0.
        5    1    3    3  502    0  0.26704118713E+03 -0.22427830210E+03 -0.51784054361E+03  0.62433378174E+03  0.46999998093E+01 0. -1.
       -5    1    3    3    0  502 -0.26704118713E+03  0.22427830210E+03  0.17496399162E+04  0.17840610076E+04  0.46999998093E+01 0.  1.
</event>
<event>
 5   0  0.3499642E-05  0.2736451E+04  0.7818609E-02  0.8323274E-01
       -2   -1    0    0    0  501  0.00000000000E+00  0.00000000000E+00  0.14853353901E+04  0.14853353901E+04  0.25500000920E-02 0. -1.
        2   -1    0    0  501    0  0.00000000000E+00  0.00000000000E+00 -0.12603493341E+04  0.12603493341E+04  0.25500000920E-02 0.  1.
    10030    2    1    2    0    0  0.00000000000E+00  0.00000000000E+00  0.22498605593E+03  0.27456847242E+04  0.27364513296E+04 0.  0.
        2    1    3    3  502    0  0.76800875868E+03 -0.10705178135E+04 -0.25779913605E+03  0.13424999951E+04  0.25500000920E-02 0. -1.
       -2    1    3    3    0  502 -0.76800875868E+03  0.10705178135E+04  0.48278519198E+03  0.14031847291E+04  0.25500000920E-02 0.  1.
</event>
<event>
 5   0  0.3647623E-05  0.2770105E+04  0.7818609E-02  0.8312610E-01
       -2   -1    0    0    0  501  0.00000000000E+00  0.00000000000E+00  0.99635040600E+03  0.99635040601E+03  0.25500000920E-02 0. -1.
        2   -1    0    0  501    0  0.00000000000E+00  0.00000000000E+00 -0.19253968078E+04  0.19253968078E+04  0.25500000920E-02 0.  1.
    10030    2    1    2    0    0  0.00000000000E+00  0.00000000000E+00 -0.92904640179E+03  0.29217472138E+04  0.27701046126E+04 0.  0.
        3    1    3    3  502    0  0.10875910480E+03  0.56368325023E+03  0.86495563973E+03  0.10381308291E+04  0.10100000352E+00 0. -1.
       -3    1    3    3    0  502 -0.10875910480E+03 -0.56368325023E+03 -0.17940020415E+04  0.18836163847E+04  0.10100000352E+00 0.  1.
</event>
<event>
 5   0  0.3647623E-05  0.2143258E+04  0.7818609E-02  0.8542424E-01
        2   -1    0    0  501    0  0.00000000000E+00  0.00000000000E+00  0.12164843469E+04  0.12164843469E+04  0.25500000920E-02 0. -1.
       -2   -1    0    0    0  501  0.00000000000E+00  0.00000000000E+00 -0.94402284537E+03  0.94402284537E+03  0.25500000920E-02 0.  1.
    10030    2    1    2    0    0  0.00000000000E+00  0.00000000000E+00  0.27246150158E+03  0.21605071923E+04  0.21432582808E+04 0.  0.
        3    1    3    3  502    0  0.30278842120E+03 -0.50620936513E+03 -0.76565410100E+03  0.96651692274E+03  0.10100000352E+00 0.  1.
       -3    1    3    3    0  502 -0.30278842120E+03  0.50620936513E+03  0.10381156026E+04  0.11939902696E+04  0.10100000352E+00 0. -1.
</event>
<event>
 5   0  0.1435062E-05  0.2572203E+04  0.7818609E-02  0.8377705E-01
       -1   -1    0    0    0  501  0.00000000000E+00  0.00000000000E+00  0.11724942008E+04  0.11724942008E+04  0.50400001928E-02 0.  1.
        1   -1    0    0  501    0  0.00000000000E+00  0.00000000000E+00 -0.14107166947E+04  0.14107166947E+04  0.50400001928E-02 0. -1.
    10030    2    1    2    0    0  0.00000000000E+00  0.00000000000E+00 -0.23822249389E+03  0.25832108955E+04  0.25722030584E+04 0.  0.
        2    1    3    3  502    0  0.38019915910E+03 -0.42273148631E+02 -0.13522580393E+04  0.14053256650E+04  0.25500000920E-02 0. -1.
       -2    1    3    3    0  502 -0.38019915910E+03  0.42273148631E+02  0.11140355455E+04  0.11778852305E+04  0.25500000920E-02 0.  1.
</event>
<event>
 5   0  0.3441646E-05  0.2612239E+04  0.7818609E-02  0.8364056E-01
        2   -1    0    0  501    0  0.00000000000E+00  0.00000000000E+00  0.15065321549E+04  0.15065321549E+04  0.25500000920E-02 0.  1.
       -2   -1    0    0    0  501  0.00000000000E+00  0.00000000000E+00 -0.11323675719E+04  0.11323675719E+04  0.25500000920E-02 0. -1.
    10030    2    1    2    0    0  0.00000000000E+00  0.00000000000E+00  0.37416458302E+03  0.26388997269E+04  0.26122390077E+04 0.  0.
        4    1    3    3  502    0  0.47952832394E+03 -0.11853392705E+04 -0.82038477045E+02  0.12812917405E+04  0.12699999809E+01 0. -1.
       -4    1    3    3    0  502 -0.47952832394E+03  0.11853392705E+04  0.45620306006E+03  0.13576079863E+04  0.12699999809E+01 0.  1.
</event>
<event>
 5   0  0.3647623E-05  0.2607509E+04  0.7818609E-02  0.8365655E-01
       -2   -1    0    0    0  501  0.00000000000E+00  0.00000000000E+00  0.97037646297E+03  0.97037646297E+03  0.25500000920E-02 0.  1.
        2   -1    0    0  501    0  0.00000000000E+00  0.00000000000E+00 -0.17516663168E+04  0.17516663168E+04  0.25500000920E-02 0. -1.
    10030    2    1    2    0    0  0.00000000000E+00  0.00000000000E+00 -0.78128985383E+03  0.27220427798E+04  0.26075089759E+04 0.  0.
        3    1    3    3  502    0 -0.57716704215E+02  0.64709831801E+03  0.78936318491E+03  0.10223315015E+04  0.10100000352E+00 0.  1.
       -3    1    3    3    0  502  0.57716704215E+02 -0.64709831801E+03 -0.15706530387E+04  0.16997112783E+04  0.10100000352E+00 0. -1.
</event>
<event>
 5   0  0.3647623E-05  0.2567367E+04  0.7818609E-02  0.8379371E-01
       -2   -1    0    0    0  501  0.00000000000E+00  0.00000000000E+00  0.64257205674E+03  0.64257205675E+03  0.25500000920E-02 0.  1.
        2   -1    0    0  501    0  0.00000000000E+00  0.00000000000E+00 -0.25644493713E+04  0.25644493713E+04  0.25500000920E-02 0. -1.
    10030    2    1    2    0    0  0.00000000000E+00  0.00000000000E+00 -0.19218773146E+04  0.32070214281E+04  0.25673671393E+04 0.  0.
        3    1    3    3  502    0 -0.10310378313E+04 -0.76444914405E+03 -0.93527806299E+03  0.15881330450E+04  0.10100000352E+00 0.  1.
       -3    1    3    3    0  502  0.10310378313E+04  0.76444914405E+03 -0.98659925159E+03  0.16188883831E+04  0.10100000352E+00 0. -1.
</event>
<event>
 5   0  0.3647623E-05  0.2601011E+04  0.7818609E-02  0.8367858E-01
       -2   -1    0    0    0  501  0.00000000000E+00  0.00000000000E+00  0.13181960888E+04  0.13181960888E+04  0.25500000920E-02 0.  1.
        2   -1    0    0  501    0  0.00000000000E+00  0.00000000000E+00 -0.12830525534E+04  0.12830525534E+04  0.25500000920E-02 0. -1.
    10030    2    1    2    0    0  0.00000000000E+00  0.00000000000E+00  0.35143535424E+02  0.26012486422E+04  0.26010112323E+04 0.  0.
        3    1    3    3  502    0  0.61888048937E+03 -0.10101184291E+04 -0.51909863122E+03  0.12933737666E+04  0.10100000352E+00 0. -1.
       -3    1    3    3    0  502 -0.61888048937E+03  0.10101184291E+04  0.55424216665E+03  0.13078748756E+04  0.10100000352E+00 0.  1.
</event>
<event>
 5   0  0.3508470E-05  0.2591224E+04  0.7818609E-02  0.8371188E-01
       -2   -1    0    0    0  501  0.00000000000E+00  0.00000000000E+00  0.67670417964E+03  0.67670417965E+03  0.25500000920E-02 0.  1.
        2   -1    0    0  501    0  0.00000000000E+00  0.00000000000E+00 -0.24805669249E+04  0.24805669249E+04  0.25500000920E-02 0. -1.
    10030    2    1    2    0    0  0.00000000000E+00  0.00000000000E+00 -0.18038627452E+04  0.31572711045E+04  0.25912236538E+04 0.  0.
        5    1    3    3  502    0 -0.11685805141E+04 -0.30209117334E+03 -0.32816215689E+03  0.12508205252E+04  0.46999998093E+01 0.  1.
       -5    1    3    3    0  502  0.11685805141E+04  0.30209117334E+03 -0.14757005883E+04  0.19064505793E+04  0.46999998093E+01 0. -1.
</event>
<event>
 5   0  0.1497497E-05  0.2512705E+04  0.7818609E-02  0.8398473E-01
        1   -1    0    0  501    0  0.00000000000E+00  0.00000000000E+00  0.26468176170E+04  0.26468176170E+04  0.50400001928E-02 0.  1.
       -1   -1    0    0    0  501  0.00000000000E+00  0.00000000000E+00 -0.59634700470E+03  0.59634700473E+03  0.50400001928E-02 0. -1.
    10030    2    1    2    0    0  0.00000000000E+00  0.00000000000E+00  0.20504706123E+04  0.32431646217E+04  0.25127051223E+04 0.  0.
        3    1    3    3  502    0 -0.87553130287E+02  0.63783161792E+03  0.24177197260E+04  0.25019719037E+04  0.10100000352E+00 0.  1.
       -3    1    3    3    0  502  0.87553130287E+02 -0.63783161792E+03 -0.36724911372E+03  0.74119271797E+03  0.10100000352E+00 0. -1.
</event>
<event>
 5   0  0.1435062E-05  0.2615830E+04  0.7818609E-02  0.8362844E-01
       -1   -1    0    0    0  501  0.00000000000E+00  0.00000000000E+00  0.12525373699E+04  0.12525373699E+04  0.50400001928E-02 0. -1.
        1   -1    0    0  501    0  0.00000000000E+00  0.00000000000E+00 -0.13657405255E+04  0.13657405255E+04  0.50400001928E-02 0.  1.
    10030    2    1    2    0    0  0.00000000000E+00  0.00000000000E+00 -0.11320315564E+03  0.26182778955E+04  0.26158295402E+04 0.  0.
        2    1    3    3  502    0  0.10750511862E+04 -0.19457923038E+03 -0.77633295332E+03  0.13402570590E+04  0.25500000920E-02 0.  1.
       -2    1    3    3    0  502 -0.10750511862E+04  0.19457923038E+03  0.66312979767E+03  0.12780208364E+04  0.25500000920E-02 0. -1.
</event>
<event>
 5   0  0.1533248E-05  0.2596856E+04  0.7818609E-02  0.8369270E-01
        1   -1    0    0  501    0  0.00000000000E+00  0.00000000000E+00  0.14695789386E+04  0.14695789386E+04  0.50400001928E-02 0.  1.
       -1   -1    0    0    0  501  0.00000000000E+00  0.00000000000E+00 -0.11472098412E+04  0.11472098412E+04  0.50400001928E-02 0. -1.
    10030    2    1    2    0    0  0.00000000000E+00  0.00000000000E+00  0.32236909734E+03  0.26167887798E+04  0.25968561152E+04 0.  0.
        4    1    3    3  502    0  0.46561701480E+03  0.54980004837E+03 -0.92730788472E+03  0.11743001421E+04  0.12699999809E+01 0. -1.
       -4    1    3    3    0  502 -0.46561701480E+03 -0.54980004837E+03  0.12496769821E+04  0.14424886378E+04  0.12699999809E+01 0.  1.
</event>
<event>
 5   0  0.3647623E-05  0.2354495E+04  0.7818609E-02  0.8456739E-01
       -2   -1    0    0    0  501  0.00000000000E+00  0.00000000000E+00  0.11350680490E+04  0.11350680490E+04  0.25500000920E-02 0. -1.
        2   -1    0    0  501    0  0.00000000000E+00  0.00000000000E+00 -0.12209942881E+04  0.12209942881E+04  0.25500000920E-02 0.  1.
    10030    2    1    2    0    0  0.00000000000E+00  0.00000000000E+00 -0.85926239113E+02  0.23560623371E+04  0.23544949390E+04 0.  0.
        3    1    3    3  502    0 -0.80241158031E+03  0.29278395639E+03 -0.85364118922E+03  0.12075968199E+04  0.10100000352E+00 0.  1.
       -3    1    3    3    0  502  0.80241158031E+03 -0.29278395639E+03  0.76771495011E+03  0.11484655172E+04  0.10100000352E+00 0. -1.
</event>
<event>
 5   0  0.3647623E-05  0.2562015E+04  0.7818609E-02  0.8381219E-01
       -2   -1    0    0    0  501  0.00000000000E+00  0.00000000000E+00  0.12277619233E+04  0.12277619233E+04  0.25500000920E-02 0.  1.
        2   -1    0    0  501    0  0.00000000000E+00  0.00000000000E+00 -0.13365626924E+04  0.13365626924E+04  0.25500000920E-02 0. -1.
    10030    2    1    2    0    0  0.00000000000E+00  0.00000000000E+00 -0.10880076912E+03  0.25643246158E+04  0.25620154425E+04 0.  0.
        3    1    3    3  502    0  0.93999445761E+02  0.12775308086E+04 -0.46653314135E+02  0.12818336103E+04  0.10100000352E+00 0. -1.
       -3    1    3    3    0  502 -0.93999445761E+02 -0.12775308086E+04 -0.62147454988E+02  0.12824910054E+04  0.10100000352E+00 0.  1.
</event>
<event>
 5   0  0.3849687E-05  0.2620816E+04  0.7818609E-02  0.8361165E-01
       -2   -1    0    0    0  501  0.00000000000E+00  0.00000000000E+00  0.11388122048E+04  0.11388122048E+04  0.25500000920E-02 0.  1.
        2   -1    0    0  501    0  0.00000000000E+00  0.00000000000E+00 -0.15078597865E+04  0.15078597865E+04  0.25500000920E-02 0. -1.
    10030    2    1    2    0    0  0.00000000000E+00  0.00000000000E+00 -0.36904758165E+03  0.26466719913E+04  0.26208160011E+04 0.  0.
        1    1    3    3  502    0  0.59520823995E+03  0.10138637729E+04  0.39995772191E+03  0.12418368565E+04  0.50400001928E-02 0. -1.
       -1    1    3    3    0  502 -0.59520823995E+03 -0.10138637729E+04 -0.76900530357E+03  0.14048351347E+04  0.50400001928E-02 0.  1.
</event>
<event>
 5   0  0.1451052E-05  0.2596229E+04  0.7818609E-02  0.8369483E-01
        1   -1    0    0  501    0  0.00000000000E+00  0.00000000000E+00  0.22356709226E+04  0.22356709226E+04  0.50400001928E-02 0.  1.
       -1   -1    0    0    0  501  0.00000000000E+00  0.00000000000E+00 -0.75373377717E+03  0.75373377719E+03  0.50400001928E-02 0. -1.
    10030    2    1    2    0    0  0.00000000000E+00  0.00000000000E+00  0.14819371454E+04  0.29894046998E+04  0.25962285639E+04 0.  0.
        1    1    3    3  502    0  0.73009237827E+03  0.54937859562E+02  0.19752403731E+04  0.21065677252E+04  0.50400001928E-02 0.  1.
       -1    1    3    3    0  502 -0.73009237827E+03 -0.54937859562E+02 -0.49330322770E+03  0.88283697459E+03  0.50400001928E-02 0. -1.
</event>
<event>
 5   0  0.3499642E-05  0.2591980E+04  0.7818609E-02  0.8370931E-01
        2   -1    0    0  501    0  0.00000000000E+00  0.00000000000E+00  0.93654902000E+03  0.93654902000E+03  0.25500000920E-02 0.  1.
       -2   -1    0    0    0  501  0.00000000000E+00  0.00000000000E+00 -0.17933813670E+04  0.17933813670E+04  0.25500000920E-02 0. -1.
    10030    2    1    2    0    0  0.00000000000E+00  0.00000000000E+00 -0.85683234700E+03  0.27299303870E+04  0.25919796000E+04 0.  0.
        2    1    3    3  502    0 -0.82051698532E+03  0.90305466132E+03 -0.88851121045E+03  0.15093733851E+04  0.25500000920E-02 0.  1.
       -2    1    3    3    0  502  0.82051698532E+03 -0.90305466132E+03  0.31678863450E+02  0.12205570019E+04  0.25500000920E-02 0. -1.
</event>
<event>
 5   0  0.3647623E-05  0.2753058E+04  0.7818609E-02  0.8317992E-01
        2   -1    0    0  501    0  0.00000000000E+00  0.00000000000E+00  0.12771823514E+04  0.12771823514E+04  0.25500000920E-02 0.  1.
       -2   -1    0    0    0  501  0.00000000000E+00  0.00000000000E+00 -0.14836036609E+04  0.14836036609E+04  0.25500000920E-02 0. -1.
    10030    2    1    2    0    0  0.00000000000E+00  0.00000000000E+00 -0.20642130947E+03  0.27607860124E+04  0.27530582357E+04 0.  0.
        3    1    3    3  502    0  0.38838571252E+03  0.73897581278E+03  0.99434941558E+03  0.12983294975E+04  0.10100000352E+00 0.  1.
       -3    1    3    3    0  502 -0.38838571252E+03 -0.73897581278E+03 -0.12007707250E+04  0.14624565149E+04  0.10100000352E+00 0. -1.
</event>
<event>
 5   0  0.1451052E-05  0.1718243E+04  0.7818609E-02  0.8751027E-01
        1   -1    0    0  501    0  0.00000000000E+00  0.00000000000E+00  0.68966643020E+03  0.68966643022E+03  0.50400001928E-02 0. -1.
       -1   -1    0    0    0  501  0.00000000000E+00  0.00000000000E+00 -0.10702132678E+04  0.10702132678E+04  0.50400001928E-02 0.  1.
    10030    2    1    2    0    0  0.00000000000E+00  0.00000000000E+00 -0.38054683763E+03  0.17598796981E+04  0.17182434798E+04 0.  0.
        1    1    3    3  502    0  0.79233767105E+02  0.71340307143E+03  0.29325539652E+03  0.77538420140E+03  0.50400001928E-02 0. -1.
       -1    1    3    3    0  502 -0.79233767105E+02 -0.71340307143E+03 -0.67380223415E+03  0.98449549666E+03  0.50400001928E-02 0.  1.
</event>
<event>
 5   0  0.3441646E-05  0.2582959E+04  0.7818609E-02  0.8374013E-01
        2   -1    0    0  501    0  0.00000000000E+00  0.00000000000E+00  0.16952001300E+04  0.16952001300E+04  0.25500000920E-02 0. -1.
       -2   -1    0    0    0  501  0.00000000000E+00  0.00000000000E+00 -0.98390736835E+03  0.98390736835E+03  0.25500000920E-02 0.  1.
    10030    2    1    2    0    0  0.00000000000E+00  0.00000000000E+00  0.71129276167E+03  0.26791074984E+04  0.25829594645E+04 0.  0.
        4    1    3    3  502    0  0.32869979282E+03  0.10455075285E+04 -0.35300515855E+03  0.11514094844E+04  0.12699999809E+01 0.  1.
       -4    1    3    3    0  502 -0.32869979282E+03 -0.10455075285E+04  0.10642979202E+04  0.15276980140E+04  0.12699999809E+01 0. -1.
</event>
<event>
 5   0  0.1217200E-05  0.2576605E+04  0.7818609E-02  0.8376192E-01
       -3   -1    0    0    0  501  0.00000000000E+00  0.00000000000E+00  0.15570487660E+04  0.15570487693E+04  0.10100000352E+00 0.  1.
        3   -1    0    0  501    0  0.00000000000E+00  0.00000000000E+00 -0.10659417736E+04  0.10659417784E+04  0.10100000352E+00 0. -1.
    10030    2    1    2    0    0  0.00000000000E+00  0.00000000000E+00  0.49110699241E+03  0.26229905477E+04  0.25766050018E+04 0.  0.
        4    1    3    3  502    0 -0.62632742718E+03 -0.88123918156E+03 -0.46766842738E+03  0.11779575171E+04  0.12699999809E+01 0. -1.
       -4    1    3    3    0  502  0.62632742718E+03  0.88123918156E+03  0.95877541979E+03  0.14450330306E+04  0.12699999809E+01 0.  1.
</event>
<event>
 5   0  0.3508470E-05  0.2042029E+04  0.7818609E-02  0.8587219E-01
        2   -1    0    0  501    0  0.00000000000E+00  0.00000000000E+00  0.19251412302E+04  0.19251412302E+04  0.25500000920E-02 0.  1.
       -2   -1    0    0    0  501  0.00000000000E+00  0.00000000000E+00 -0.54150345065E+03  0.54150345065E+03  0.25500000920E-02 0. -1.
    10030    2    1    2    0    0  0.00000000000E+00  0.00000000000E+00  0.13836377795E+04  0.24666446808E+04  0.20420290097E+04 0.  0.
        5    1    3    3  502    0  0.59192340842E+03 -0.11407467776E+03 -0.30358528255E+03  0.67496108578E+03  0.46999998093E+01 0. -1.
       -5    1    3    3    0  502 -0.59192340842E+03  0.11407467776E+03  0.16872230621E+04  0.17916835950E+04  0.46999998093E+01 0.  1.
</event>
<event>
 5   0  0.3441646E-05  0.2493802E+04  0.7818609E-02  0.8405197E-01
       -2   -1    0    0    0  501  0.00000000000E+00  0.00000000000E+00  0.63011069031E+03  0.63011069032E+03  0.25500000920E-02 0.  1.
        2   -1    0    0  501    0  0.00000000000E+00  0.00000000000E+00 -0.24674423611E+04  0.24674423611E+04  0.25500000920E-02 0. -1.
    10030    2    1    2    0    0  0.00000000000E+00  0.00000000000E+00 -0.18373316708E+04  0.30975530514E+04  0.24938017639E+04 0.  0.
        4    1    3    3  502    0  0.13394341801E+03 -0.32249369296E+02 -0.24579586258E+04  0.24618170282E+04  0.12699999809E+01 0. -1.
       -4    1    3    3    0  502 -0.13394341801E+03  0.32249369296E+02  0.62062695503E+03  0.63573602325E+03  0.12699999809E+01 0.  1.
</event>
<event>
 5   0  0.3647623E-05  0.2628259E+04  0.7818609E-02  0.8358665E-01
       -2   -1    0    0    0  501  0.00000000000E+00  0.00000000000E+00  0.13071832130E+04  0.13071832130E+04  0.25500000920E-02 0.  1.
        2   -1    0    0  501    0  0.00000000000E+00  0.00000000000E+00 -0.13211123785E+04  0.13211123785E+04  0.25500000920E-02 0. -1.
    10030    2    1    2    0    0  0.00000000000E+00  0.00000000000E+00 -0.13929165551E+02  0.26282955915E+04  0.26282586811E+04 0.  0.
        3    1    3    3  502    0  0.17022808194E+03 -0.84227704353E+03 -0.10012258467E+04  0.13194170774E+04  0.10100000352E+00 0. -1.
       -3    1    3    3    0  502 -0.17022808194E+03  0.84227704353E+03  0.98729668110E+03  0.13088785141E+04  0.10100000352E+00 0.  1.
</event>
<event>
 5   0  0.3647623E-05  0.2540479E+04  0.7818609E-02  0.8388705E-01
        2   -1    0    0  501    0  0.00000000000E+00  0.00000000000E+00  0.20691411794E+04  0.20691411794E+04  0.25500000920E-02 0. -1.
       -2   -1    0    0    0  501  0.00000000000E+00  0.00000000000E+00 -0.77979590411E+03  0.77979590411E+03  0.25500000920E-02 0.  1.
    10030    2    1    2    0    0  0.00000000000E+00  0.00000000000E+00  0.12893452753E+04  0.28489370835E+04  0.25404785508E+04 0.  0.
        3    1    3    3  502    0 -0.11551701728E+04 -0.48813011570E+03  0.87123968430E+03  0.15270061348E+04  0.10100000352E+00 0. -1.
       -3    1    3    3    0  502  0.11551701728E+04  0.48813011570E+03  0.41810559101E+03  0.13219309488E+04  0.10100000352E+00 0.  1.
</event>
<event>
 5   0  0.3441646E-05  0.2682365E+04  0.7818609E-02  0.8340750E-01
        2   -1    0    0  501    0  0.00000000000E+00  0.00000000000E+00  0.10924666721E+04  0.10924666721E+04  0.25500000920E-02 0.  1.
       -2   -1    0    0    0  501  0.00000000000E+00  0.00000000000E+00 -0.16465224747E+04  0.16465224747E+04  0.25500000920E-02 0. -1.
    10030    2    1    2    0    0  0.00000000000E+00  0.00000000000E+00 -0.55405580262E+03  0.27389891468E+04  0.26823653207E+04 0.  0.
        4    1    3    3  502    0  0.99532436061E+02  0.83124619467E+03 -0.13469502763E+04  0.15859235800E+04  0.12699999809E+01 0. -1.
       -4    1    3    3    0  502 -0.99532436061E+02 -0.83124619467E+03  0.79289447367E+03  0.11530655668E+04  0.12699999809E+01 0.  1.
</event>
<event>
 5   0  0.3647623E-05  0.2591789E+04  0.7818609E-02  0.8370996E-01
       -2   -1    0    0    0  501  0.00000000000E+00  0.00000000000E+00  0.59523715126E+03  0.59523715127E+03  0.25500000920E-02 0. -1.
        2   -1    0    0  501    0  0.00000000000E+00  0.00000000000E+00 -0.28213007763E+04  0.28213007763E+04  0.25500000920E-02 0.  1.
    10030    2    1    2    0    0  0.00000000000E+00  0.00000000000E+00 -0.22260636250E+04  0.34165379275E+04  0.25917893718E+04 0.  0.
        3    1    3    3  502    0 -0.12338906865E+03 -0.81662280267E+03  0.20336721979E+03  0.85056210849E+03  0.10100000352E+00 0. -1.
       -3    1    3    3    0  502  0.12338906865E+03  0.81662280267E+03 -0.24294308448E+04  0.25659758190E+04  0.10100000352E+00 0.  1.
</event>
<event>
 5   0  0.1474554E-05  0.2615998E+04  0.7818609E-02  0.8362787E-01
        1   -1    0    0  501    0  0.00000000000E+00  0.00000000000E+00  0.14146473667E+04  0.14146473667E+04  0.50400001928E-02 0. -1.
       -1   -1    0    0    0  501  0.00000000000E+00  0.00000000000E+00 -0.12093907984E+04  0.12093907984E+04  0.50400001928E-02 0.  1.
    10030    2    1    2    0    0  0.00000000000E+00  0.00000000000E+00  0.20525656832E+03  0.26240381652E+04  0.26159980951E+04 0.  0.
        5    1    3    3  502    0 -0.35949566127E+03  0.33957475624E+03  0.13172550546E+04  0.14070291804E+04  0.46999998093E+01 0. -1.
       -5    1    3    3    0  502  0.35949566127E+03 -0.33957475624E+03 -0.11119984863E+04  0.12170089848E+04  0.46999998093E+01 0.  1.
</event>
<event>
 5   0  0.3849687E-05  0.2236713E+04  0.7818609E-02  0.8503301E-01
        2   -1    0    0  501    0  0.00000000000E+00  0.00000000000E+00  0.16522851696E+04  0.16522851696E+04  0.25500000920E-02 0.  1.
       -2   -1    0    0    0  501  0.00000000000E+00  0.00000000000E+00 -0.75696457480E+03  0.75696457481E+03  0.25500000920E-02 0. -1.
    10030    2    1    2    0    0  0.00000000000E+00  0.00000000000E+00  0.89532059483E+03  0.24092497444E+04  0.22367130714E+04 0.  0.
        1    1    3    3  502    0  0.81951385303E+03  0.11743384979E+03 -0.36222155881E+03  0.90365818874E+03  0.50400001928E-02 0. -1.
       -1    1    3    3    0  502 -0.81951385303E+03 -0.11743384979E+03  0.12575421536E+04  0.15055915557E+04  0.50400001928E-02 0.  1.
</event>
<event>
 5   0  0.1497497E-05  0.2593972E+04  0.7818609E-02  0.8370252E-01
        1   -1    0    0  501    0  0.00000000000E+00  0.00000000000E+00  0.14347095601E+04  0.14347095601E+04  0.50400001928E-02 0. -1.
       -1   -1    0    0    0  501  0.00000000000E+00  0.00000000000E+00 -0.11724827353E+04  0.11724827353E+04  0.50400001928E-02 0.  1.
    10030    2    1    2    0    0  0.00000000000E+00  0.00000000000E+00  0.26222682479E+03  0.26071922954E+04  0.25939716185E+04 0.  0.
        3    1    3    3  502    0  0.75835284482E+03  0.10067883258E+04 -0.17614122556E+03  0.12726930155E+04  0.10100000352E+00 0.  1.
       -3    1    3    3    0  502 -0.75835284482E+03 -0.10067883258E+04  0.43836805035E+03  0.13344992799E+04  0.10100000352E+00 0. -1.
</event>
<event>
 5   0  0.3441646E-05  0.2669316E+04  0.7818609E-02  0.8345030E-01
       -2   -1    0    0    0  501  0.00000000000E+00  0.00000000000E+00  0.12335918679E+04  0.12335918679E+04  0.25500000920E-02 0.  1.
        2   -1    0    0  501    0  0.00000000000E+00  0.00000000000E+00 -0.14440044822E+04  0.14440044822E+04  0.25500000920E-02 0. -1.
    10030    2    1    2    0    0  0.00000000000E+00  0.00000000000E+00 -0.21041261437E+03  0.26775963501E+04  0.26693161569E+04 0.  0.
        4    1    3    3  502    0  0.12063721032E+04 -0.38198099020E+03 -0.53086616304E+03  0.13722476541E+04  0.12699999809E+01 0. -1.
       -4    1    3    3    0  502 -0.12063721032E+04  0.38198099020E+03  0.32045354867E+03  0.13053486960E+04  0.12699999809E+01 0.  1.
</event>
<event>
 5   0  0.3441646E-05  0.2595391E+04  0.7818609E-02  0.8369769E-01
        2   -1    0    0  501    0  0.00000000000E+00  0.00000000000E+00  0.12766621448E+04  0.12766621448E+04  0.25500000920E-02 0. -1.
       -2   -1    0    0    0  501  0.00000000000E+00  0.00000000000E+00 -0.13190751073E+04  0.13190751073E+04  0.25500000920E-02 0.  1.
    10030    2    1    2    0    0  0.00000000000E+00  0.00000000000E+00 -0.42412962434E+02  0.25957372521E+04  0.25953907264E+04 0.  0.
        4    1    3    3  502    0 -0.51346970268E+03  0.61557624535E+02 -0.12115633439E+04  0.13173184224E+04  0.12699999809E+01 0.  1.
       -4    1    3    3    0  502  0.51346970268E+03 -0.61557624535E+02  0.11691503815E+04  0.12784188297E+04  0.12699999809E+01 0. -1.
</event>
<event>
 5   0  0.3441646E-05  0.2581089E+04  0.7818609E-02  0.8374653E-01
       -2   -1    0    0    0  501  0.00000000000E+00  0.00000000000E+00  0.70842227966E+03  0.70842227966E+03  0.25500000920E-02 0.  1.
        2   -1    0    0  501    0  0.00000000000E+00  0.00000000000E+00 -0.23510059781E+04  0.23510059781E+04  0.25500000920E-02 0. -1.
    10030    2    1    2    0    0  0.00000000000E+00  0.00000000000E+00 -0.16425836984E+04  0.30594282578E+04  0.25810889287E+04 0.  0.
        4    1    3    3  502    0  0.52940066346E+03 -0.99891980373E+03 -0.15590529433E+04  0.19258124336E+04  0.12699999809E+01 0. -1.
       -4    1    3    3    0  502 -0.52940066346E+03  0.99891980373E+03 -0.83530755190E+02  0.11336158241E+04  0.12699999809E+01 0.  1.
</event>
<event>
 5   0  0.3849687E-05  0.2599058E+04  0.7818609E-02  0.8368521E-01
       -2   -1    0    0    0  501  0.00000000000E+00  0.00000000000E+00  0.71567849906E+03  0.71567849906E+03  0.25500000920E-02 0.  1.
        2   -1    0    0  501    0  0.00000000000E+00  0.00000000000E+00 -0.23596849116E+04  0.23596849116E+04  0.25500000920E-02 0. -1.
    10030    2    1    2    0    0  0.00000000000E+00  0.00000000000E+00 -0.16440064125E+04  0.30753634107E+04  0.25990581031E+04 0.  0.
        1    1    3    3  502    0  0.48403560204E+03  0.34781304578E+01  0.60502749086E+03  0.77482954651E+03  0.50400001928E-02 0.  1.
       -1    1    3    3    0  502 -0.48403560204E+03 -0.34781304578E+01 -0.22490339034E+04  0.23005338641E+04  0.50400001928E-02 0. -1.
</event>
<event>
 5   0  0.1533248E-05  0.2582634E+04  0.7818609E-02  0.8374124E-01
       -1   -1    0    0    0  501  0.00000000000E+00  0.00000000000E+00  0.10564471328E+04  0.10564471328E+04  0.50400001928E-02 0.  1.
        1   -1    0    0  501    0  0.00000000000E+00  0.00000000000E+00 -0.15784026928E+04  0.15784026928E+04  0.50400001928E-02 0. -1.
    10030    2    1    2    0    0  0.00000000000E+00  0.00000000000E+00 -0.52195556003E+03  0.26348498256E+04  0.25826335390E+04 0.  0.
        4    1    3    3  502    0 -0.75983116796E+03 -0.51820939138E+03  0.66377731843E+03  0.11342338024E+04  0.12699999809E+01 0.  1.
       -4    1    3    3    0  502  0.75983116796E+03  0.51820939138E+03 -0.11857328785E+04  0.15006160232E+04  0.12699999809E+01 0. -1.
</event>
<event>
 5   0  0.1474554E-05  0.2597964E+04  0.7818609E-02  0.8368893E-01
        1   -1    0    0  501    0  0.00000000000E+00  0.00000000000E+00  0.16264837769E+04  0.16264837769E+04  0.50400001928E-02 0.  1.
       -1   -1    0    0    0  501  0.00000000000E+00  0.00000000000E+00 -0.10374243653E+04  0.10374243654E+04  0.50400001928E-02 0. -1.
    10030    2    1    2    0    0  0.00000000000E+00  0.00000000000E+00  0.58905941159E+03  0.26639081423E+04  0.25979637411E+04 0.  0.
        5    1    3    3  502    0 -0.68084208536E+02 -0.12814757242E+04  0.50092564592E+03  0.13775935844E+04  0.46999998093E+01 0. -1.
       -5    1    3    3    0  502  0.68084208536E+02  0.12814757242E+04  0.88133765673E+02  0.12863145579E+04  0.46999998093E+01 0.  1.
</event>
<event>
 5   0  0.3441646E-05  0.2622137E+04  0.7818609E-02  0.8360720E-01
       -2   -1    0    0    0  501  0.00000000000E+00  0.00000000000E+00  0.86871529120E+03  0.86871529121E+03  0.25500000920E-02 0.  1.
        2   -1    0    0  501    0  0.00000000000E+00  0.00000000000E+00 -0.19786699511E+04  0.19786699511E+04  0.25500000920E-02 0. -1.
    10030    2    1    2    0    0  0.00000000000E+00  0.00000000000E+00 -0.11099546599E+04  0.28473852423E+04  0.26221371763E+04 0.  0.
        4    1    3    3  502    0  0.73371688286E+02  0.10303821938E+04 -0.14316903330E+04  0.17654488643E+04  0.12699999809E+01 0. -1.
       -4    1    3    3    0  502 -0.73371688286E+02 -0.10303821938E+04  0.32173567310E+03  0.10819363780E+04  0.12699999809E+01 0.  1.
</event>
<event>
 5   0  0.3849687E-05  0.2577298E+04  0.7818609E-02  0.8375954E-01
       -2   -1    0    0    0  501  0.00000000000E+00  0.00000000000E+00  0.10738294031E+04  0.10738294031E+04  0.25500000920E-02 0. -1.
        2   -1    0    0  501    0  0.00000000000E+00  0.00000000000E+00 -0.15464430856E+04  0.15464430856E+04  0.25500000920E-02 0.  1.
    10030    2    1    2    0    0  0.00000000000E+00  0.00000000000E+00 -0.47261368248E+03  0.26202724887E+04  0.25772978528E+04 0.  0.
        1    1    3    3  502    0 -0.11851453265E+04  0.63860095587E+02  0.27402770627E+03  0.12180881498E+04  0.50400001928E-02 0. -1.
       -1    1    3    3    0  502  0.11851453265E+04 -0.63860095587E+02 -0.74664138874E+03  0.14021843389E+04  0.50400001928E-02 0.  1.
</event>
<event>
 5   0  0.3499642E-05  0.2593528E+04  0.7818609E-02  0.8370403E-01
       -2   -1    0    0    0  501  0.00000000000E+00  0.00000000000E+00  0.63321933257E+03  0.63321933258E+03  0.25500000920E-02 0.  1.
        2   -1    0    0  501    0  0.00000000000E+00  0.00000000000E+00 -0.26556319111E+04  0.26556319111E+04  0.25500000920E-02 0. -1.
    10030    2    1    2    0    0  0.00000000000E+00  0.00000000000E+00 -0.20224125786E+04  0.32888512437E+04  0.25935284586E+04 0.  0.
        2    1    3    3  502    0 -0.92778409137E+03 -0.69119179817E+03 -0.17539574619E+04  0.21011654386E+04  0.25500000920E-02 0. -1.
       -2    1    3    3    0  502  0.92778409137E+03  0.69119179817E+03 -0.26845511665E+03  0.11876858051E+04  0.25500000920E-02 0.  1.
</event>
<event>
 5   0  0.3508470E-05  0.2556878E+04  0.7818609E-02  0.8382998E-01
        2   -1    0    0  501    0  0.00000000000E+00  0.00000000000E+00  0.15268891505E+04  0.15268891505E+04  0.25500000920E-02 0. -1.
       -2   -1    0    0    0  501  0.00000000000E+00  0.00000000000E+00 -0.10704154252E+04  0.10704154252E+04  0.25500000920E-02 0.  1.
    10030    2    1    2    0    0  0.00000000000E+00  0.00000000000E+00  0.45647372524E+03  0.25973045757E+04  0.25568775484E+04 0.  0.
        5    1    3    3  502    0 -0.57736464646E+03 -0.44972329065E+03 -0.83656510456E+03  0.11115143892E+04  0.46999998093E+01 0.  1.
       -5    1    3    3    0  502  0.57736464646E+03  0.44972329065E+03  0.12930388298E+04  0.14857901866E+04  0.46999998093E+01 0. -1.
</event>
<event>
 5   0  0.3499642E-05  0.2557196E+04  0.7818609E-02  0.8382888E-01
       -2   -1    0    0    0  501  0.00000000000E+00  0.00000000000E+00  0.14654336079E+04  0.14654336079E+04  0.25500000920E-02 0.  1.
        2   -1    0    0  501    0  0.00000000000E+00  0.00000000000E+00 -0.11155831824E+04  0.11155831824E+04  0.25500000920E-02 0. -1.
    10030    2    1    2    0    0  0.00000000000E+00  0.00000000000E+00  0.34985042545E+03  0.25810167903E+04  0.25571961895E+04 0.  0.
        2    1    3    3  502    0  0.11452962429E+04 -0.52091330328E+03  0.40455035806E+03  0.13216335142E+04  0.25500000920E-02 0.  1.
       -2    1    3    3    0  502 -0.11452962429E+04  0.52091330328E+03 -0.54699932608E+02  0.12593832761E+04  0.25500000920E-02 0. -1.
</event>
<event>
 5   0  0.1497497E-05  0.2741026E+04  0.7818609E-02  0.8321815E-01
       -1   -1    0    0    0  501  0.00000000000E+00  0.00000000000E+00  0.95858112981E+03  0.95858112983E+03  0.50400001928E-02 0. -1.
        1   -1    0    0  501    0  0.00000000000E+00  0.00000000000E+00 -0.19594652428E+04  0.19594652428E+04  0.50400001928E-02 0.  1.
    10030    2    1    2    0    0  0.00000000000E+00  0.00000000000E+00 -0.10008841130E+04  0.29180463726E+04  0.27410263817E+04 0.  0.
        3    1    3    3  502    0  0.57422723808E+03  0.10016905567E+04 -0.12864937788E+04  0.17286373666E+04  0.10100000352E+00 0. -1.
       -3    1    3    3    0  502 -0.57422723808E+03 -0.10016905567E+04  0.28560966577E+03  0.11894090060E+04  0.10100000352E+00 0.  1.
</event>
<event>
 5   0  0.3849687E-05  0.2462924E+04  0.7818609E-02  0.8416314E-01
       -2   -1    0    0    0  501  0.00000000000E+00  0.00000000000E+00  0.80990036482E+03  0.80990036483E+03  0.25500000920E-02 0.  1.
        2   -1    0    0  501    0  0.00000000000E+00  0.00000000000E+00 -0.18724505658E+04  0.18724505658E+04  0.25500000920E-02 0. -1.
    10030    2    1    2    0    0  0.00000000000E+00  0.00000000000E+00 -0.10625502009E+04  0.26823509306E+04  0.24629237880E+04 0.  0.
        1    1    3    3  502    0 -0.47796079451E+03  0.73737237227E+03 -0.14708870043E+04  0.17133806103E+04  0.50400001928E-02 0. -1.
       -1    1    3    3    0  502  0.47796079451E+03 -0.73737237227E+03  0.40833680336E+03  0.96897032023E+03  0.50400001928E-02 0.  1.
</event>
<event>
 5   0  0.1435062E-05  0.2575821E+04  0.7818609E-02  0.8376461E-01
        1   -1    0    0  501    0  0.00000000000E+00  0.00000000000E+00  0.91919789107E+03  0.91919789109E+03  0.50400001928E-02 0. -1.
       -1   -1    0    0    0  501  0.00000000000E+00  0.00000000000E+00 -0.18045228055E+04  0.18045228055E+04  0.50400001928E-02 0.  1.
    10030    2    1    2    0    0  0.00000000000E+00  0.00000000000E+00 -0.88532491447E+03  0.27237206966E+04  0.25758210786E+04 0.  0.
        2    1    3    3  502    0  0.75772162367E+03 -0.94339359217E+03  0.23777782031E+02  0.12102474588E+04  0.25500000920E-02 0. -1.
       -2    1    3    3    0  502 -0.75772162367E+03  0.94339359217E+03 -0.90910269650E+03  0.15134732378E+04  0.25500000920E-02 0.  1.
</event>
<event>
 5   0  0.1533248E-05  0.2626677E+04  0.7818609E-02  0.8359196E-01
       -1   -1    0    0    0  501  0.00000000000E+00  0.00000000000E+00  0.10596318930E+04  0.10596318930E+04  0.50400001928E-02 0. -1.
        1   -1    0    0  501    0  0.00000000000E+00  0.00000000000E+00 -0.16277896675E+04  0.16277896675E+04  0.50400001928E-02 0.  1.
    10030    2    1    2    0    0  0.00000000000E+00  0.00000000000E+00 -0.56815777453E+03  0.26874215605E+04  0.26266768715E+04 0.  0.
        4    1    3    3  502    0  0.25859091544E+03 -0.74939132549E+03  0.78722722796E+03  0.11172219751E+04  0.12699999809E+01 0. -1.
       -4    1    3    3    0  502 -0.25859091544E+03  0.74939132549E+03 -0.13553850025E+04  0.15701995854E+04  0.12699999809E+01 0.  1.
</event>
<event>
 5   0  0.3647623E-05  0.2560768E+04  0.7818609E-02  0.8381651E-01
       -2   -1    0    0    0  501  0.00000000000E+00  0.00000000000E+00  0.19499603878E+04  0.19499603878E+04  0.25500000920E-02 0. -1.
        2   -1    0    0  501    0  0.00000000000E+00  0.00000000000E+00 -0.84072667768E+03  0.84072667768E+03  0.25500000920E-02 0.  1.
    10030    2    1    2    0    0  0.00000000000E+00  0.00000000000E+00  0.11092337101E+04  0.27906870655E+04  0.25607684147E+04 0.  0.
        3    1    3    3  502    0 -0.74475832219E+03 -0.91320467188E+03  0.11003543595E+04  0.16122615972E+04  0.10100000352E+00 0. -1.
       -3    1    3    3    0  502  0.74475832219E+03  0.91320467188E+03  0.88793506499E+01  0.11784254683E+04  0.10100000352E+00 0.  1.
</event>
<event>
 5   0  0.3508470E-05  0.2449895E+04  0.7818609E-02  0.8421056E-01
       -2   -1    0    0    0  501  0.00000000000E+00  0.00000000000E+00  0.11598174859E+04  0.11598174859E+04  0.25500000920E-02 0.  1.
        2   -1    0    0  501    0  0.00000000000E+00  0.00000000000E+00 -0.12937347688E+04  0.12937347688E+04  0.25500000920E-02 0. -1.
    10030    2    1    2    0    0  0.00000000000E+00  0.00000000000E+00 -0.13391728289E+03  0.24535522547E+04  0.24498948606E+04 0.  0.
        5    1    3    3  502    0 -0.34370703208E+03 -0.82780526658E+03 -0.90311705476E+03  0.12724144717E+04  0.46999998093E+01 0. -1.
       -5    1    3    3    0  502  0.34370703208E+03  0.82780526658E+03  0.76919977187E+03  0.11811377830E+04  0.46999998093E+01 0.  1.
</event>
<event>
 5   0  0.3508470E-05  0.2339951E+04  0.7818609E-02  0.8462334E-01
        2   -1    0    0  501    0  0.00000000000E+00  0.00000000000E+00  0.25229471034E+04  0.25229471034E+04  0.25500000920E-02 0. -1.
       -2   -1    0    0    0  501  0.00000000000E+00  0.00000000000E+00 -0.54255696741E+03  0.54255696741E+03  0.25500000920E-02 0.  1.
    10030    2    1    2    0    0  0.00000000000E+00  0.00000000000E+00  0.19803901360E+04  0.30655040708E+04  0.23399508793E+04 0.  0.
        5    1    3    3  502    0  0.10477848227E+03  0.76562647125E+03  0.21410155754E+04  0.22762100536E+04  0.46999998093E+01 0. -1.
       -5    1    3    3    0  502 -0.10477848227E+03 -0.76562647125E+03 -0.16062543944E+03  0.78929401722E+03  0.46999998093E+01 0.  1.
</event>
<event>
 5   0  0.3849687E-05  0.2570577E+04  0.7818609E-02  0.8378265E-01
       -2   -1    0    0    0  501  0.00000000000E+00  0.00000000000E+00  0.55412959230E+03  0.55412959231E+03  0.25500000920E-02 0. -1.
        2   -1    0    0  501    0  0.00000000000E+00  0.00000000000E+00 -0.29811909540E+04  0.29811909540E+04  0.25500000920E-02 0.  1.
    10030    2    1    2    0    0  0.00000000000E+00  0.00000000000E+00 -0.24270613617E+04  0.35353205463E+04  0.25705766885E+04 0.  0.
        1    1    3    3  502    0  0.14181120457E+03  0.56970631298E+03 -0.27860075760E+04  0.28471940423E+04  0.50400001928E-02 0.  1.
       -1    1    3    3    0  502 -0.14181120457E+03 -0.56970631298E+03  0.35894621429E+03  0.68812650405E+03  0.50400001928E-02 0. -1.
</event>
<event>
 5   0  0.1533248E-05  0.2600822E+04  0.7818609E-02  0.8367922E-01
        1   -1    0    0  501    0  0.00000000000E+00  0.00000000000E+00  0.15324210739E+04  0.15324210739E+04  0.50400001928E-02 0. -1.
       -1   -1    0    0    0  501  0.00000000000E+00  0.00000000000E+00 -0.11035276431E+04  0.11035276431E+04  0.50400001928E-02 0.  1.
    10030    2    1    2    0    0  0.00000000000E+00  0.00000000000E+00  0.42889343082E+03  0.26359487169E+04  0.26008221899E+04 0.  0.
        4    1    3    3  502    0 -0.56532081084E+03  0.20946134154E+03  0.13822262339E+04  0.15079829732E+04  0.12699999809E+01 0. -1.
       -4    1    3    3    0  502  0.56532081084E+03 -0.20946134154E+03 -0.95333280309E+03  0.11279657438E+04  0.12699999809E+01 0.  1.
</event>
<event>
 5   0  0.1217200E-05  0.2544862E+04  0.7818609E-02  0.8387175E-01
       -3   -1    0    0    0  501  0.00000000000E+00  0.00000000000E+00  0.12313242846E+04  0.12313242888E+04  0.10100000352E+00 0. -1.
        3   -1    0    0  501    0  0.00000000000E+00  0.00000000000E+00 -0.13149099791E+04  0.13149099829E+04  0.10100000352E+00 0.  1.
    10030    2    1    2    0    0  0.00000000000E+00  0.00000000000E+00 -0.83585694428E+02  0.25462342717E+04  0.25448619605E+04 0.  0.
        4    1    3    3  502    0  0.62890689868E+03 -0.92636270780E+03  0.56302235543E+03  0.12532627575E+04  0.12699999809E+01 0. -1.
       -4    1    3    3    0  502 -0.62890689868E+03  0.92636270780E+03 -0.64660804986E+03  0.12929715142E+04  0.12699999809E+01 0.  1.
</event>
<event>
 5   0  0.3508470E-05  0.2476196E+04  0.7818609E-02  0.8411515E-01
       -2   -1    0    0    0  501  0.00000000000E+00  0.00000000000E+00  0.93557416166E+03  0.93557416166E+03  0.25500000920E-02 0.  1.
        2   -1    0    0  501    0  0.00000000000E+00  0.00000000000E+00 -0.16384447764E+04  0.16384447764E+04  0.25500000920E-02 0. -1.
    10030    2    1    2    0    0  0.00000000000E+00  0.00000000000E+00 -0.70287061476E+03  0.25740189381E+04  0.24761959520E+04 0.  0.
        5    1    3    3  502    0  0.76586200756E+03 -0.97223859685E+03 -0.38547024769E+03  0.12963031689E+04  0.46999998093E+01 0.  1.
       -5    1    3    3    0  502 -0.76586200756E+03  0.97223859685E+03 -0.31740036707E+03  0.12777157692E+04  0.46999998093E+01 0. -1.
</event>
<event>
 5   0  0.3499642E-05  0.2586306E+04  0.7818609E-02  0.8372868E-01
       -2   -1    0    0    0  501  0.00000000000E+00  0.00000000000E+00  0.52089831524E+03  0.52089831524E+03  0.25500000920E-02 0.  1.
        2   -1    0    0  501    0  0.00000000000E+00  0.00000000000E+00 -0.32103081263E+04  0.32103081263E+04  0.25500000920E-02 0. -1.
    10030    2    1    2    0    0  0.00000000000E+00  0.00000000000E+00 -0.26894098111E+04  0.37312064416E+04  0.25863055461E+04 0.  0.
        2    1    3    3  502    0 -0.59453652652E+02 -0.23531801199E+03 -0.31771530645E+04  0.31864103469E+04  0.25500000920E-02 0. -1.
       -2    1    3    3    0  502  0.59453652652E+02  0.23531801199E+03  0.48774325338E+03  0.54479609470E+03  0.25500000920E-02 0.  1.
</event>
<event>
 5   0  0.3647623E-05  0.2630740E+04  0.7818609E-02  0.8357834E-01
        2   -1    0    0  501    0  0.00000000000E+00  0.00000000000E+00  0.20040079348E+04  0.20040079348E+04  0.25500000920E-02 0. -1.
       -2   -1    0    0    0  501  0.00000000000E+00  0.00000000000E+00 -0.86336869806E+03  0.86336869807E+03  0.25500000920E-02 0.  1.
    10030    2    1    2    0    0  0.00000000000E+00  0.00000000000E+00  0.11406392367E+04  0.28673766329E+04  0.26307396082E+04 0.  0.
        3    1    3    3  502    0 -0.95360810598E+03  0.89214380674E+03  0.74234105917E+03  0.15021182543E+04  0.10100000352E+00 0. -1.
       -3    1    3    3    0  502  0.95360810598E+03 -0.89214380674E+03  0.39829817756E+03  0.13652583785E+04  0.10100000352E+00 0.  1.
</event>
<event>
 5   0  0.1451052E-05  0.1971521E+04  0.7818609E-02  0.8620053E-01
        1   -1    0    0  501    0  0.00000000000E+00  0.00000000000E+00  0.15887237227E+04  0.15887237227E+04  0.50400001928E-02 0.  1.
       -1   -1    0    0    0  501  0.00000000000E+00  0.00000000000E+00 -0.61163777349E+03  0.61163777351E+03  0.50400001928E-02 0. -1.
    10030    2    1    2    0    0  0.00000000000E+00  0.00000000000E+00  0.97708594919E+03  0.22003614962E+04  0.19715206724E+04 0.  0.
        1    1    3    3  502    0  0.82256242928E+03 -0.46781911301E+03  0.18033743455E+03  0.96331991721E+03  0.50400001928E-02 0. -1.
       -1    1    3    3    0  502 -0.82256242928E+03  0.46781911301E+03  0.79674851464E+03  0.12370415790E+04  0.50400001928E-02 0.  1.
</event>
<event>
 5   0  0.3647623E-05  0.2576377E+04  0.7818609E-02  0.8376270E-01
       -2   -1    0    0    0  501  0.00000000000E+00  0.00000000000E+00  0.10612664745E+04  0.10612664745E+04  0.25500000920E-02 0. -1.
        2   -1    0    0  501    0  0.00000000000E+00  0.00000000000E+00 -0.15636308583E+04  0.15636308583E+04  0.25500000920E-02 0.  1.
    10030    2    1    2    0    0  0.00000000000E+00  0.00000000000E+00 -0.50236438381E+03  0.26248973328E+04  0.25763765318E+04 0.  0.
        3    1    3    3  502    0  0.23549865663E+03 -0.33360586640E+03 -0.14959427992E+04  0.15506764202E+04  0.10100000352E+00 0.  1.
       -3    1    3    3    0  502 -0.23549865663E+03  0.33360586640E+03  0.99357841540E+03  0.10742209126E+04  0.10100000352E+00 0. -1.
</event>
<event>
 5   0  0.3508470E-05  0.2609746E+04  0.7818609E-02  0.8364898E-01
        2   -1    0    0  501    0  0.00000000000E+00  0.00000000000E+00  0.15227008623E+04  0.15227008623E+04  0.25500000920E-02 0.  1.
       -2   -1    0    0    0  501  0.00000000000E+00  0.00000000000E+00 -0.11182062383E+04  0.11182062383E+04  0.25500000920E-02 0. -1.
    10030    2    1    2    0    0  0.00000000000E+00  0.00000000000E+00  0.40449462401E+03  0.26409071006E+04  0.26097460438E+04 0.  0.
        5    1    3    3  502    0  0.10416329047E+04 -0.45620162211E+03 -0.44535689171E+03  0.12212632309E+04  0.46999998093E+01 0. -1.
       -5    1    3    3    0  502 -0.10416329047E+04  0.45620162211E+03  0.84985151573E+03  0.14196438697E+04  0.46999998093E+01 0.  1.
</event>
<event>
 5   0  0.1451052E-05  0.1740250E+04  0.7818609E-02  0.8738736E-01
        1   -1    0    0  501    0  0.00000000000E+00  0.00000000000E+00  0.11204816804E+04  0.11204816804E+04  0.50400001928E-02 0.  1.
       -1   -1    0    0    0  501  0.00000000000E+00  0.00000000000E+00 -0.67570694826E+03  0.67570694828E+03  0.50400001928E-02 0. -1.
    10030    2    1    2    0    0  0.00000000000E+00  0.00000000000E+00  0.44477473211E+03  0.17961886287E+04  0.17402497026E+04 0.  0.
        1    1    3    3  502    0 -0.25366826404E+03  0.54617639759E+03 -0.42586247110E+03  0.73757378599E+03  0.50400001928E-02 0. -1.
       -1    1    3    3    0  502  0.25366826404E+03 -0.54617639759E+03  0.87063720321E+03  0.10586148427E+04  0.50400001928E-02 0.  1.
</event>
<event>
 5   0  0.1435062E-05  0.2594432E+04  0.7818609E-02  0.8370095E-01
        1   -1    0    0  501    0  0.00000000000E+00  0.00000000000E+00  0.16520040276E+04  0.16520040276E+04  0.50400001928E-02 0.  1.
       -1   -1    0    0    0  501  0.00000000000E+00  0.00000000000E+00 -0.10186229490E+04  0.10186229490E+04  0.50400001928E-02 0. -1.
    10030    2    1    2    0    0  0.00000000000E+00  0.00000000000E+00  0.63338107859E+03  0.26706269767E+04  0.25944318950E+04 0.  0.
        2    1    3    3  502    0 -0.31978142549E+03  0.35409469518E+03  0.15584036234E+04  0.16298052236E+04  0.25500000920E-02 0.  1.
       -2    1    3    3    0  502  0.31978142549E+03 -0.35409469518E+03 -0.92502254485E+03  0.10408217531E+04  0.25500000920E-02 0. -1.
</event>
<event>
 5   0  0.3441646E-05  0.2530593E+04  0.7818609E-02  0.8392167E-01
       -2   -1    0    0    0  501  0.00000000000E+00  0.00000000000E+00  0.62489347649E+03  0.62489347649E+03  0.25500000920E-02 0.  1.
        2   -1    0    0  501    0  0.00000000000E+00  0.00000000000E+00 -0.25619975541E+04  0.25619975541E+04  0.25500000920E-02 0. -1.
    10030    2    1    2    0    0  0.00000000000E+00  0.00000000000E+00 -0.19371040776E+04  0.31868910306E+04  0.25305932572E+04 0.  0.
        4    1    3    3  502    0 -0.39208258812E+03  0.49608181646E+03  0.41165148667E+03  0.75450943262E+03  0.12699999809E+01 0.  1.
       -4    1    3    3    0  502  0.39208258812E+03 -0.49608181646E+03 -0.23487555643E+04  0.24323815980E+04  0.12699999809E+01 0. -1.
</event>
<event>
 5   0  0.3441646E-05  0.2701911E+04  0.7818609E-02  0.8334385E-01
       -2   -1    0    0    0  501  0.00000000000E+00  0.00000000000E+00  0.24788781748E+04  0.24788781748E+04  0.25500000920E-02 0. -1.
        2   -1    0    0  501    0  0.00000000000E+00  0.00000000000E+00 -0.73625295290E+03  0.73625295291E+03  0.25500000920E-02 0.  1.
    10030    2    1    2    0    0  0.00000000000E+00  0.00000000000E+00  0.17426252219E+04  0.32151311277E+04  0.27019114538E+04 0.  0.
        4    1    3    3  502    0 -0.17246436462E+03  0.51013938489E+03 -0.60301843311E+03  0.80846706344E+03  0.12699999809E+01 0.  1.
       -4    1    3    3    0  502  0.17246436462E+03 -0.51013938489E+03  0.23456436550E+04  0.24066640643E+04  0.12699999809E+01 0. -1.
</event>
<event>
 5   0  0.3499642E-05  0.2466458E+04  0.7818609E-02  0.8415033E-01
        2   -1    0    0  501    0  0.00000000000E+00  0.00000000000E+00  0.25509001503E+04  0.25509001503E+04  0.25500000920E-02 0.  1.
       -2   -1    0    0    0  501  0.00000000000E+00  0.00000000000E+00 -0.59620269012E+03  0.59620269013E+03  0.25500000920E-02 0. -1.
    10030    2    1    2    0    0  0.00000000000E+00  0.00000000000E+00  0.19546974601E+04  0.31471028404E+04  0.24664578098E+04 0.  0.
        2    1    3    3  502    0  0.27565190363E+02 -0.11699714845E+04  0.48109944793E+03  0.12653259631E+04  0.25500000920E-02 0. -1.
       -2    1    3    3    0  502 -0.27565190363E+02  0.11699714845E+04  0.14735980122E+04  0.18817768773E+04  0.25500000920E-02 0.  1.
</event>
<event>
 5   0  0.3849687E-05  0.2656281E+04  0.7818609E-02  0.8349331E-01
        2   -1    0    0  501    0  0.00000000000E+00  0.00000000000E+00  0.24318006583E+04  0.24318006583E+04  0.25500000920E-02 0.  1.
       -2   -1    0    0    0  501  0.00000000000E+00  0.00000000000E+00 -0.72537089621E+03  0.72537089622E+03  0.25500000920E-02 0. -1.
    10030    2    1    2    0    0  0.00000000000E+00  0.00000000000E+00  0.17064297621E+04  0.31571715545E+04  0.26562811771E+04 0.  0.
        1    1    3    3  502    0  0.11904197444E+04  0.11845371067E+03  0.16751607333E+03  0.12079702332E+04  0.50400001928E-02 0. -1.
       -1    1    3    3    0  502 -0.11904197444E+04 -0.11845371067E+03  0.15389136887E+04  0.19492013213E+04  0.50400001928E-02 0.  1.
</event>
<event>
 5   0  0.3441646E-05  0.2581962E+04  0.7818609E-02  0.8374354E-01
        2   -1    0    0  501    0  0.00000000000E+00  0.00000000000E+00  0.14648513682E+04  0.14648513682E+04  0.25500000920E-02 0.  1.
       -2   -1    0    0    0  501  0.00000000000E+00  0.00000000000E+00 -0.11377482605E+04  0.11377482605E+04  0.25500000920E-02 0. -1.
    10030    2    1    2    0    0  0.00000000000E+00  0.00000000000E+00  0.32710310779E+03  0.26025996287E+04  0.25819621190E+04 0.  0.
        4    1    3    3  502    0 -0.48601427720E+01 -0.10281185210E+04 -0.62344450224E+03  0.12023876140E+04  0.12699999809E+01 0. -1.
       -4    1    3    3    0  502  0.48601427720E+01  0.10281185210E+04  0.95054761003E+03  0.14002120147E+04  0.12699999809E+01 0.  1.
</event>
<event>
 5   0  0.3647623E-05  0.2581294E+04  0.7818609E-02  0.8374583E-01
        2   -1    0    0  501    0  0.00000000000E+00  0.00000000000E+00  0.21131484919E+04  0.21131484919E+04  0.25500000920E-02 0. -1.
       -2   -1    0    0    0  501  0.00000000000E+00  0.00000000000E+00 -0.78828790594E+03  0.78828790595E+03  0.25500000920E-02 0.  1.
    10030    2    1    2    0    0  0.00000000000E+00  0.00000000000E+00  0.13248605860E+04  0.29014363979E+04  0.25812937839E+04 0.  0.
        3    1    3    3  502    0  0.76777923340E+03  0.17784199508E+03 -0.48641727342E+03  0.92612877104E+03  0.10100000352E+00 0.  1.
       -3    1    3    3    0  502 -0.76777923340E+03 -0.17784199508E+03  0.18112778594E+04  0.19753076268E+04  0.10100000352E+00 0. -1.
</event>
<event>
 5   0  0.1497497E-05  0.2620970E+04  0.7818609E-02  0.8361113E-01
        1   -1    0    0  501    0  0.00000000000E+00  0.00000000000E+00  0.14484671421E+04  0.14484671421E+04  0.50400001928E-02 0. -1.
       -1   -1    0    0    0  501  0.00000000000E+00  0.00000000000E+00 -0.11856467792E+04  0.11856467792E+04  0.50400001928E-02 0.  1.
    10030    2    1    2    0    0  0.00000000000E+00  0.00000000000E+00  0.26282036287E+03  0.26341139213E+04  0.26209695929E+04 0.  0.
        3    1    3    3  502    0  0.65716739186E+02  0.44143831406E+03  0.13697355333E+04  0.14406116466E+04  0.10100000352E+00 0. -1.
       -3    1    3    3    0  502 -0.65716739186E+02 -0.44143831406E+03 -0.11069151704E+04  0.11935022747E+04  0.10100000352E+00 0.  1.
</event>
<event>
 5   0  0.1497497E-05  0.2584557E+04  0.7818609E-02  0.8373466E-01
       -1   -1    0    0    0  501  0.00000000000E+00  0.00000000000E+00  0.93658723521E+03  0.93658723522E+03  0.50400001928E-02 0.  1.
        1   -1    0    0  501    0  0.00000000000E+00  0.00000000000E+00 -0.17830520813E+04  0.17830520814E+04  0.50400001928E-02 0. -1.
    10030    2    1    2    0    0  0.00000000000E+00  0.00000000000E+00 -0.84646484614E+03  0.27196393166E+04  0.25845570755E+04 0.  0.
        3    1    3    3  502    0 -0.68023261722E+03 -0.73911532563E+03 -0.12787284683E+04  0.16260856017E+04  0.10100000352E+00 0.  1.
       -3    1    3    3    0  502  0.68023261722E+03  0.73911532563E+03  0.43226362216E+03  0.10935537149E+04  0.10100000352E+00 0. -1.
</event>
<event>
 5   0  0.1533248E-05  0.2615925E+04  0.7818609E-02  0.8362812E-01
        1   -1    0    0  501    0  0.00000000000E+00  0.00000000000E+00  0.16226515965E+04  0.16226515965E+04  0.50400001928E-02 0. -1.
       -1   -1    0    0    0  501  0.00000000000E+00  0.00000000000E+00 -0.10543025396E+04  0.10543025397E+04  0.50400001928E-02 0.  1.
    10030    2    1    2    0    0  0.00000000000E+00  0.00000000000E+00  0.56834905684E+03  0.26769541361E+04  0.26159248454E+04 0.  0.
        4    1    3    3  502    0  0.23565627058E+03  0.12752543606E+04  0.45831065638E+03  0.13754482297E+04  0.12699999809E+01 0.  1.
       -4    1    3    3    0  502 -0.23565627058E+03 -0.12752543606E+04  0.11003840046E+03  0.13015059064E+04  0.12699999809E+01 0. -1.
</event>
<event>
 5   0  0.1451052E-05  0.2533161E+04  0.7818609E-02  0.8391266E-01
       -1   -1    0    0    0  501  0.00000000000E+00  0.00000000000E+00  0.12254383346E+04  0.12254383346E+04  0.50400001928E-02 0.  1.
        1   -1    0    0  501    0  0.00000000000E+00  0.00000000000E+00 -0.13091035229E+04  0.13091035229E+04  0.50400001928E-02 0. -1.
    10030    2    1    2    0    0  0.00000000000E+00  0.00000000000E+00 -0.83665188348E+02  0.25345418575E+04  0.25331605878E+04 0.  0.
        1    1    3    3  502    0 -0.16001005270E+03 -0.11796479977E+04 -0.47456469581E+03  0.12815554089E+04  0.50400001928E-02 0. -1.
       -1    1    3    3    0  502  0.16001005270E+03  0.11796479977E+04  0.39089950747E+03  0.12529864486E+04  0.50400001928E-02 0.  1.
</event>
<event>
 5   0  0.3849687E-05  0.2570323E+04  0.7818609E-02  0.8378352E-01
       -2   -1    0    0    0  501  0.00000000000E+00  0.00000000000E+00  0.57442266946E+03  0.57442266946E+03  0.25500000920E-02 0. -1.
        2   -1    0    0  501    0  0.00000000000E+00  0.00000000000E+00 -0.28753044390E+04  0.28753044390E+04  0.25500000920E-02 0.  1.
    10030    2    1    2    0    0  0.00000000000E+00  0.00000000000E+00 -0.23008817696E+04  0.34497271085E+04  0.25703229769E+04 0.  0.
        1    1    3    3  502    0  0.82926064239E+03 -0.95838369220E+03 -0.86425529853E+03  0.15339849202E+04  0.50400001928E-02 0. -1.
       -1    1    3    3    0  502 -0.82926064239E+03  0.95838369220E+03 -0.14366264710E+04  0.19157421882E+04  0.50400001928E-02 0.  1.
</event>
<event>
 5   0  0.3441646E-05  0.2705846E+04  0.7818609E-02  0.8333111E-01
        2   -1    0    0  501    0  0.00000000000E+00  0.00000000000E+00  0.19073059288E+04  0.19073059288E+04  0.25500000920E-02 0. -1.
       -2   -1    0    0    0  501  0.00000000000E+00  0.00000000000E+00 -0.95967886919E+03  0.95967886919E+03  0.25500000920E-02 0.  1.
    10030    2    1    2    0    0  0.00000000000E+00  0.00000000000E+00  0.94762705966E+03  0.28669847980E+04  0.27058464088E+04 0.  0.
        4    1    3    3  502    0  0.11837890610E+04 -0.35192675242E+03  0.10591530246E+04  0.16269651878E+04  0.12699999809E+01 0. -1.
       -4    1    3    3    0  502 -0.11837890610E+04  0.35192675242E+03 -0.11152596492E+03  0.12400196102E+04  0.12699999809E+01 0.  1.
</event>
<event>
 5   0  0.3499642E-05  0.2598949E+04  0.7818609E-02  0.8368558E-01
       -2   -1    0    0    0  501  0.00000000000E+00  0.00000000000E+00  0.11645866379E+04  0.11645866380E+04  0.25500000920E-02 0. -1.
        2   -1    0    0  501    0  0.00000000000E+00  0.00000000000E+00 -0.14499856524E+04  0.14499856524E+04  0.25500000920E-02 0.  1.
    10030    2    1    2    0    0  0.00000000000E+00  0.00000000000E+00 -0.28539901447E+03  0.26145722904E+04  0.25989489537E+04 0.  0.
        2    1    3    3  502    0 -0.95441259413E+03  0.27247420655E+03 -0.98648363389E+03  0.13993911365E+04  0.25500000920E-02 0.  1.
       -2    1    3    3    0  502  0.95441259413E+03 -0.27247420655E+03  0.70108461942E+03  0.12151811538E+04  0.25500000920E-02 0. -1.
</event>
<event>
 5   0  0.1474554E-05  0.2605703E+04  0.7818609E-02  0.8366267E-01
        1   -1    0    0  501    0  0.00000000000E+00  0.00000000000E+00  0.13975521182E+04  0.13975521182E+04  0.50400001928E-02 0. -1.
       -1   -1    0    0    0  501  0.00000000000E+00  0.00000000000E+00 -0.12145681248E+04  0.12145681248E+04  0.50400001928E-02 0.  1.
    10030    2    1    2    0    0  0.00000000000E+00  0.00000000000E+00  0.18298399337E+03  0.26121202429E+04  0.26057031722E+04 0.  0.
        5    1    3    3  502    0  0.67212018531E+03 -0.27940366167E+03 -0.99171903586E+03  0.12301791275E+04  0.46999998093E+01 0.  1.
       -5    1    3    3    0  502 -0.67212018531E+03  0.27940366167E+03  0.11747030292E+04  0.13819411154E+04  0.46999998093E+01 0. -1.
</event>
<event>
 5   0  0.1497497E-05  0.2215276E+04  0.7818609E-02  0.8512097E-01
        1   -1    0    0  501    0  0.00000000000E+00  0.00000000000E+00  0.92869585687E+03  0.92869585689E+03  0.50400001928E-02 0.  1.
       -1   -1    0    0    0  501  0.00000000000E+00  0.00000000000E+00 -0.13210583371E+04  0.13210583372E+04  0.50400001928E-02 0. -1.
    10030    2    1    2    0    0  0.00000000000E+00  0.00000000000E+00 -0.39236248027E+03  0.22497541940E+04  0.22152755173E+04 0.  0.
        3    1    3    3  502    0 -0.40018563144E+03  0.78486085302E+02  0.84967855330E+03  0.94247666249E+03  0.10100000352E+00 0.  1.
       -3    1    3    3    0  502  0.40018563144E+03 -0.78486085302E+02 -0.12420410336E+04  0.13072775315E+04  0.10100000352E+00 0. -1.
</event>
<event>
 5   0  0.3849687E-05  0.2575132E+04  0.7818609E-02  0.8376698E-01
        2   -1    0    0  501    0  0.00000000000E+00  0.00000000000E+00  0.13113573707E+04  0.13113573707E+04  0.25500000920E-02 0.  1.
       -2   -1    0    0    0  501  0.00000000000E+00  0.00000000000E+00 -0.12642061329E+04  0.12642061329E+04  0.25500000920E-02 0. -1.
    10030    2    1    2    0    0  0.00000000000E+00  0.00000000000E+00  0.47151237854E+02  0.25755635036E+04  0.25751318649E+04 0.  0.
        1    1    3    3  502    0  0.39734560654E+03  0.58286813958E+03  0.11008853271E+04  0.13075042266E+04  0.50400001928E-02 0.  1.
       -1    1    3    3    0  502 -0.39734560654E+03 -0.58286813958E+03 -0.10537340892E+04  0.12680592770E+04  0.50400001928E-02 0. -1.
</event>
<event>
 5   0  0.1533248E-05  0.2502995E+04  0.7818609E-02  0.8401919E-01
       -1   -1    0    0    0  501  0.00000000000E+00  0.00000000000E+00  0.13214738080E+04  0.13214738080E+04  0.50400001928E-02 0. -1.
        1   -1    0    0  501    0  0.00000000000E+00  0.00000000000E+00 -0.11852270241E+04  0.11852270242E+04  0.50400001928E-02 0.  1.
    10030    2    1    2    0    0  0.00000000000E+00  0.00000000000E+00  0.13624678386E+03  0.25067008322E+04  0.25029953807E+04 0.  0.
        4    1    3    3  502    0 -0.87011255417E+03 -0.88975781698E+03  0.20053116996E+03  0.12605471799E+04  0.12699999809E+01 0. -1.
       -4    1    3    3    0  502  0.87011255417E+03  0.88975781698E+03 -0.64284386096E+02  0.12461536522E+04  0.12699999809E+01 0.  1.
</event>
<event>
 5   0  0.1497497E-05  0.2398272E+04  0.7818609E-02  0.8440151E-01
       -1   -1    0    0    0  501  0.00000000000E+00  0.00000000000E+00  0.13466999283E+04  0.13466999283E+04  0.50400001928E-02 0.  1.
        1   -1    0    0  501    0  0.00000000000E+00  0.00000000000E+00 -0.10677417017E+04  0.10677417018E+04  0.50400001928E-02 0. -1.
    10030    2    1    2    0    0  0.00000000000E+00  0.00000000000E+00  0.27895822658E+03  0.24144416301E+04  0.23982724393E+04 0.  0.
        3    1    3    3  502    0  0.67159154456E+03 -0.65101433730E+02  0.11374515935E+04  0.13225239269E+04  0.10100000352E+00 0.  1.
       -3    1    3    3    0  502 -0.67159154456E+03  0.65101433730E+02 -0.85849336691E+03  0.10919177032E+04  0.10100000352E+00 0. -1.
</event>
<event>
 5   0  0.1451052E-05  0.2177229E+04  0.7818609E-02  0.8527966E-01
        1   -1    0    0  501    0  0.00000000000E+00  0.00000000000E+00  0.74530589126E+03  0.74530589128E+03  0.50400001928E-02 0.  1.
       -1   -1    0    0    0  501  0.00000000000E+00  0.00000000000E+00 -0.15900606108E+04  0.15900606108E+04  0.50400001928E-02 0. -1.
    10030    2    1    2    0    0  0.00000000000E+00  0.00000000000E+00 -0.84475471956E+03  0.23353665021E+04  0.21772290102E+04 0.  0.
        1    1    3    3  502    0 -0.54548835440E+03 -0.90861679819E+03 -0.68933036648E+03  0.12642461726E+04  0.50400001928E-02 0.  1.
       -1    1    3    3    0  502  0.54548835440E+03  0.90861679819E+03 -0.15542435308E+03  0.10711203295E+04  0.50400001928E-02 0. -1.
</event>
<event>
 5   0  0.1474554E-05  0.2542445E+04  0.7818609E-02  0.8388018E-01
        1   -1    0    0  501    0  0.00000000000E+00  0.00000000000E+00  0.27082915237E+04  0.27082915237E+04  0.50400001928E-02 0. -1.
       -1   -1    0    0    0  501  0.00000000000E+00  0.00000000000E+00 -0.59668859881E+03  0.59668859883E+03  0.50400001928E-02 0.  1.
    10030    2    1    2    0    0  0.00000000000E+00  0.00000000000E+00  0.21116029249E+04  0.33049801226E+04  0.25424450236E+04 0.  0.
        5    1    3    3  502    0 -0.72296733058E+03 -0.19807947927E+03 -0.27879958159E+03  0.79979280935E+03  0.46999998093E+01 0.  1.
       -5    1    3    3    0  502  0.72296733058E+03  0.19807947927E+03  0.23904025065E+04  0.25051873132E+04  0.46999998093E+01 0. -1.
</event>
<event>
 5   0  0.1497497E-05  0.2574459E+04  0.7818609E-02  0.8376929E-01
        1   -1    0    0  501    0  0.00000000000E+00  0.00000000000E+00  0.16364553045E+04  0.16364553045E+04  0.50400001928E-02 0. -1.
       -1   -1    0    0    0  501  0.00000000000E+00  0.00000000000E+00 -0.10125297901E+04  0.10125297901E+04  0.50400001928E-02 0.  1.
    10030    2    1    2    0    0  0.00000000000E+00  0.00000000000E+00  0.62392551440E+03  0.26489850946E+04  0.25744589692E+04 0.  0.
        3    1    3    3  502    0 -0.42158452303E+03  0.27106310031E+02 -0.93916872445E+03  0.10298088004E+04  0.10100000352E+00 0.  1.
       -3    1    3    3    0  502  0.42158452303E+03 -0.27106310031E+02  0.15630942389E+04  0.16191762942E+04  0.10100000352E+00 0. -1.
</event>
<event>
 5   0  0.3441646E-05  0.1788554E+04  0.7818609E-02  0.8712410E-01
       -2   -1    0    0    0  501  0.00000000000E+00  0.00000000000E+00  0.63613307674E+03  0.63613307675E+03  0.25500000920E-02 0. -1.
        2   -1    0    0  501    0  0.00000000000E+00  0.00000000000E+00 -0.12571767980E+04  0.12571767980E+04  0.25500000920E-02 0.  1.
    10030    2    1    2    0    0  0.00000000000E+00  0.00000000000E+00 -0.62104372127E+03  0.18933098748E+04  0.17885544381E+04 0.  0.
        4    1    3    3  502    0 -0.82506583278E+03  0.19036193609E+03 -0.59942150132E+01  0.84676374429E+03  0.12699999809E+01 0. -1.
       -4    1    3    3    0  502  0.82506583278E+03 -0.19036193609E+03 -0.61504950625E+03  0.10465461305E+04  0.12699999809E+01 0.  1.
</event>
<event>
 5   0  0.3849687E-05  0.2751391E+04  0.7818609E-02  0.8318520E-01
       -2   -1    0    0    0  501  0.00000000000E+00  0.00000000000E+00  0.97240900075E+03  0.97240900076E+03  0.25500000920E-02 0. -1.
        2   -1    0    0  501    0  0.00000000000E+00  0.00000000000E+00 -0.19462372577E+04  0.19462372577E+04  0.25500000920E-02 0.  1.
    10030    2    1    2    0    0  0.00000000000E+00  0.00000000000E+00 -0.97382825699E+03  0.29186462585E+04  0.27513913768E+04 0.  0.
        1    1    3    3  502    0 -0.37062467325E+03  0.11796190473E+04  0.15279970592E+03  0.12458778011E+04  0.50400001928E-02 0. -1.
       -1    1    3    3    0  502  0.37062467325E+03 -0.11796190473E+04 -0.11266279629E+04  0.16727684574E+04  0.50400001928E-02 0.  1.
</event>
<event>
 5   0  0.1533248E-05  0.2598981E+04  0.7818609E-02  0.8368547E-01
        1   -1    0    0  501    0  0.00000000000E+00  0.00000000000E+00  0.16486727386E+04  0.16486727386E+04  0.50400001928E-02 0. -1.
       -1   -1    0    0    0  501  0.00000000000E+00  0.00000000000E+00 -0.10242635746E+04  0.10242635746E+04  0.50400001928E-02 0.  1.
    10030    2    1    2    0    0  0.00000000000E+00  0.00000000000E+00  0.62440916404E+03  0.26729363132E+04  0.25989809023E+04 0.  0.
        4    1    3    3  502    0 -0.38928205281E+02 -0.12664010546E+04  0.60918932170E+03  0.14058450408E+04  0.12699999809E+01 0. -1.
       -4    1    3    3    0  502  0.38928205281E+02  0.12664010546E+04  0.15219842343E+02  0.12670912724E+04  0.12699999809E+01 0.  1.
</event>
<event>
 5   0  0.3508470E-05  0.2663390E+04  0.7818609E-02  0.8346982E-01
        2   -1    0    0  501    0  0.00000000000E+00  0.00000000000E+00  0.14813950928E+04  0.14813950928E+04  0.25500000920E-02 0.  1.
       -2   -1    0    0    0  501  0.00000000000E+00  0.00000000000E+00 -0.11971222090E+04  0.11971222090E+04  0.25500000920E-02 0. -1.
    10030    2    1    2    0    0  0.00000000000E+00  0.00000000000E+00  0.28427288385E+03  0.26785173018E+04  0.26633895441E+04 0.  0.
        5    1    3    3  502    0  0.11087419657E+04 -0.70084829952E+03  0.37342486759E+03  0.13638054506E+04  0.46999998093E+01 0.  1.
       -5    1    3    3    0  502 -0.11087419657E+04  0.70084829952E+03 -0.89151983741E+02  0.13147118512E+04  0.46999998093E+01 0. -1.
</event>
<event>
 5   0  0.1533248E-05  0.2595975E+04  0.7818609E-02  0.8369570E-01
       -1   -1    0    0    0  501  0.00000000000E+00  0.00000000000E+00  0.77412542484E+03  0.77412542485E+03  0.50400001928E-02 0.  1.
        1   -1    0    0  501    0  0.00000000000E+00  0.00000000000E+00 -0.21763554860E+04  0.21763554860E+04  0.50400001928E-02 0. -1.
    10030    2    1    2    0    0  0.00000000000E+00  0.00000000000E+00 -0.14022300612E+04  0.29504809109E+04  0.25959754353E+04 0.  0.
        4    1    3    3  502    0 -0.81609508737E+03 -0.96902388798E+03 -0.38014604955E+03  0.13226984233E+04  0.12699999809E+01 0.  1.
       -4    1    3    3    0  502  0.81609508737E+03  0.96902388798E+03 -0.10220840116E+04  0.16277824876E+04  0.12699999809E+01 0. -1.
</event>
<event>
 5   0  0.1451052E-05  0.2637222E+04  0.7818609E-02  0.8355667E-01
        1   -1    0    0  501    0  0.00000000000E+00  0.00000000000E+00  0.14208933183E+04  0.14208933183E+04  0.50400001928E-02 0.  1.
       -1   -1    0    0    0  501  0.00000000000E+00  0.00000000000E+00 -0.12236911738E+04  0.12236911738E+04  0.50400001928E-02 0. -1.
    10030    2    1    2    0    0  0.00000000000E+00  0.00000000000E+00  0.19720214446E+03  0.26445844921E+04  0.26372217294E+04 0.  0.
        1    1    3    3  502    0 -0.54110729364E+03  0.11985137586E+04  0.19635285893E+03  0.13295814297E+04  0.50400001928E-02 0.  1.
       -1    1    3    3    0  502  0.54110729364E+03 -0.11985137586E+04  0.84928552291E+00  0.13150030624E+04  0.50400001928E-02 0. -1.
</event>
<event>
 5   0  0.1451052E-05  0.2601997E+04  0.7818609E-02  0.8367523E-01
       -1   -1    0    0    0  501  0.00000000000E+00  0.00000000000E+00  0.81401400455E+03  0.81401400456E+03  0.50400001928E-02 0.  1.
        1   -1    0    0  501    0  0.00000000000E+00  0.00000000000E+00 -0.20793223050E+04  0.20793223050E+04  0.50400001928E-02 0. -1.
    10030    2    1    2    0    0  0.00000000000E+00  0.00000000000E+00 -0.12653083004E+04  0.28933363095E+04  0.26019972915E+04 0.  0.
        1    1    3    3  502    0 -0.22306925063E+03  0.10122746973E+04 -0.15069021166E+04  0.18289926031E+04  0.50400001928E-02 0. -1.
       -1    1    3    3    0  502  0.22306925063E+03 -0.10122746973E+04  0.24159381614E+03  0.10643437064E+04  0.50400001928E-02 0.  1.
</event>
<event>
 5   0  0.1497497E-05  0.2891260E+04  0.7818609E-02  0.8275483E-01
        1   -1    0    0  501    0  0.00000000000E+00  0.00000000000E+00  0.14878041962E+04  0.14878041962E+04  0.50400001928E-02 0. -1.
       -1   -1    0    0    0  501  0.00000000000E+00  0.00000000000E+00 -0.14046509155E+04  0.14046509155E+04  0.50400001928E-02 0.  1.
    10030    2    1    2    0    0  0.00000000000E+00  0.00000000000E+00  0.83153280653E+02  0.28924551117E+04  0.28912596053E+04 0.  0.
        3    1    3    3  502    0 -0.14837544128E+03 -0.60526791770E+03 -0.12633710113E+04  0.14087124782E+04  0.10100000352E+00 0.  1.
       -3    1    3    3    0  502  0.14837544128E+03  0.60526791770E+03  0.13465242919E+04  0.14837426336E+04  0.10100000352E+00 0. -1.
</event>
<event>
 5   0  0.3508470E-05  0.2472028E+04  0.7818609E-02  0.8413019E-01
        2   -1    0    0  501    0  0.00000000000E+00  0.00000000000E+00  0.10520233255E+04  0.10520233255E+04  0.25500000920E-02 0. -1.
       -2   -1    0    0    0  501  0.00000000000E+00  0.00000000000E+00 -0.14521835109E+04  0.14521835109E+04  0.25500000920E-02 0.  1.
    10030    2    1    2    0    0  0.00000000000E+00  0.00000000000E+00 -0.40016018539E+03  0.25042068365E+04  0.24720282575E+04 0.  0.
        5    1    3    3  502    0 -0.41204827447E+03  0.11621156633E+04 -0.28729516357E+03  0.12660399663E+04  0.46999998093E+01 0.  1.
       -5    1    3    3    0  502  0.41204827447E+03 -0.11621156633E+04 -0.11286502182E+03  0.12381668702E+04  0.46999998093E+01 0. -1.
</event>
<event>
 5   0  0.3849687E-05  0.2451838E+04  0.7818609E-02  0.8420347E-01
       -2   -1    0    0    0  501  0.00000000000E+00  0.00000000000E+00  0.11798147880E+04  0.11798147880E+04  0.25500000920E-02 0. -1.
        2   -1    0    0  501    0  0.00000000000E+00  0.00000000000E+00 -0.12738248755E+04  0.12738248755E+04  0.25500000920E-02 0.  1.
    10030    2    1    2    0    0  0.00000000000E+00  0.00000000000E+00 -0.94010087416E+02  0.24536396635E+04  0.24518380252E+04 0.  0.
        1    1    3    3  502    0 -0.19486043812E+02 -0.11164645011E+04  0.45933585512E+03  0.12074196106E+04  0.50400001928E-02 0. -1.
       -1    1    3    3    0  502  0.19486043812E+02  0.11164645011E+04 -0.55334594254E+03  0.12462200529E+04  0.50400001928E-02 0.  1.
</event>
<event>
 5   0  0.1533248E-05  0.2589538E+04  0.7818609E-02  0.8371763E-01
        1   -1    0    0  501    0  0.00000000000E+00  0.00000000000E+00  0.71727416669E+03  0.71727416671E+03  0.50400001928E-02 0.  1.
       -1   -1    0    0    0  501  0.00000000000E+00  0.00000000000E+00 -0.23372195135E+04  0.23372195135E+04  0.50400001928E-02 0. -1.
    10030    2    1    2    0    0  0.00000000000E+00  0.00000000000E+00 -0.16199453468E+04  0.30544936802E+04  0.25895383210E+04 0.  0.
        4    1    3    3  502    0 -0.12697628200E+03 -0.11799262043E+04 -0.19924660600E+03  0.12033493453E+04  0.12699999809E+01 0. -1.
       -4    1    3    3    0  502  0.12697628200E+03  0.11799262043E+04 -0.14206987408E+04  0.18511443350E+04  0.12699999809E+01 0.  1.
</event>
<event>
 5   0  0.1497497E-05  0.2477231E+04  0.7818609E-02  0.8411142E-01
        1   -1    0    0  501    0  0.00000000000E+00  0.00000000000E+00  0.14150488378E+04  0.14150488379E+04  0.50400001928E-02 0.  1.
       -1   -1    0    0    0  501  0.00000000000E+00  0.00000000000E+00 -0.10841808097E+04  0.10841808097E+04  0.50400001928E-02 0. -1.
    10030    2    1    2    0    0  0.00000000000E+00  0.00000000000E+00  0.33086802813E+03  0.24992296476E+04  0.24772313536E+04 0.  0.
        3    1    3    3  502    0  0.49823322119E+03  0.45633076877E+03  0.12127734675E+04  0.13882700050E+04  0.10100000352E+00 0.  1.
       -3    1    3    3    0  502 -0.49823322119E+03 -0.45633076877E+03 -0.88190543935E+03  0.11109596426E+04  0.10100000352E+00 0. -1.
</event>
<event>
 5   0  0.3508470E-05  0.2579510E+04  0.7818609E-02  0.8375194E-01
       -2   -1    0    0    0  501  0.00000000000E+00  0.00000000000E+00  0.10465539743E+04  0.10465539743E+04  0.25500000920E-02 0.  1.
        2   -1    0    0  501    0  0.00000000000E+00  0.00000000000E+00 -0.15894723256E+04  0.15894723256E+04  0.25500000920E-02 0. -1.
    10030    2    1    2    0    0  0.00000000000E+00  0.00000000000E+00 -0.54291835124E+03  0.26360262999E+04  0.25795104802E+04 0.  0.
        5    1    3    3  502    0 -0.12747108553E+03  0.14663075500E+03 -0.15744226723E+04  0.15863726854E+04  0.46999998093E+01 0. -1.
       -5    1    3    3    0  502  0.12747108553E+03 -0.14663075500E+03  0.10315043211E+04  0.10496536145E+04  0.46999998093E+01 0.  1.
</event>
<event>
 5   0  0.1497497E-05  0.2044246E+04  0.7818609E-02  0.8586209E-01
        1   -1    0    0  501    0  0.00000000000E+00  0.00000000000E+00  0.79702778646E+03  0.79702778648E+03  0.50400001928E-02 0. -1.
       -1   -1    0    0    0  501  0.00000000000E+00  0.00000000000E+00 -0.13107887932E+04  0.13107887932E+04  0.50400001928E-02 0.  1.
    10030    2    1    2    0    0  0.00000000000E+00  0.00000000000E+00 -0.51376100670E+03  0.21078165797E+04  0.20442456705E+04 0.  0.
        3    1    3    3  502    0  0.38963775825E+03 -0.57466372676E+03  0.51656571640E+03  0.86538785008E+03  0.10100000352E+00 0. -1.
       -3    1    3    3    0  502 -0.38963775825E+03  0.57466372676E+03 -0.10303267231E+04  0.12424287296E+04  0.10100000352E+00 0.  1.
</event>
<event>
 5   0  0.1497497E-05  0.2064044E+04  0.7818609E-02  0.8577250E-01
        1   -1    0    0  501    0  0.00000000000E+00  0.00000000000E+00  0.11253446881E+04  0.11253446881E+04  0.50400001928E-02 0.  1.
       -1   -1    0    0    0  501  0.00000000000E+00  0.00000000000E+00 -0.94643877407E+03  0.94643877408E+03  0.50400001928E-02 0. -1.
    10030    2    1    2    0    0  0.00000000000E+00  0.00000000000E+00  0.17890591399E+03  0.20717834621E+04  0.20640444249E+04 0.  0.
        3    1    3    3  502    0 -0.90115537447E+03 -0.48698974562E+03 -0.36835381188E+02  0.10249862813E+04  0.10100000352E+00 0. -1.
       -3    1    3    3    0  502  0.90115537447E+03  0.48698974562E+03  0.21574129518E+03  0.10467971809E+04  0.10100000352E+00 0.  1.
</event>
<event>
 5   0  0.3441646E-05  0.2771550E+04  0.7818609E-02  0.8312156E-01
       -2   -1    0    0    0  501  0.00000000000E+00  0.00000000000E+00  0.98780351045E+03  0.98780351045E+03  0.25500000920E-02 0. -1.
        2   -1    0    0  501    0  0.00000000000E+00  0.00000000000E+00 -0.19440835895E+04  0.19440835895E+04  0.25500000920E-02 0.  1.
    10030    2    1    2    0    0  0.00000000000E+00  0.00000000000E+00 -0.95628007905E+03  0.29318870999E+04  0.27715501758E+04 0.  0.
        4    1    3    3  502    0 -0.18179652314E+03  0.27530166556E+03  0.94565430107E+03  0.10015511235E+04  0.12699999809E+01 0. -1.
       -4    1    3    3    0  502  0.18179652314E+03 -0.27530166556E+03 -0.19019343801E+04  0.19303359765E+04  0.12699999809E+01 0.  1.
</event>
<event>
 5   0  0.3499642E-05  0.2573511E+04  0.7818609E-02  0.8377255E-01
       -2   -1    0    0    0  501  0.00000000000E+00  0.00000000000E+00  0.17975470344E+04  0.17975470344E+04  0.25500000920E-02 0. -1.
        2   -1    0    0  501    0  0.00000000000E+00  0.00000000000E+00 -0.92111050144E+03  0.92111050144E+03  0.25500000920E-02 0.  1.
    10030    2    1    2    0    0  0.00000000000E+00  0.00000000000E+00  0.87643653297E+03  0.27186575359E+04  0.25735107929E+04 0.  0.
        2    1    3    3  502    0 -0.11704453880E+04 -0.41752807323E+03  0.85520790456E+02  0.12456267113E+04  0.25500000920E-02 0.  1.
       -2    1    3    3    0  502  0.11704453880E+04  0.41752807323E+03  0.79091574251E+03  0.14730308246E+04  0.25500000920E-02 0. -1.
</event>
<event>
 5   0  0.1435062E-05  0.2567308E+04  0.7818609E-02  0.8379391E-01
        1   -1    0    0  501    0  0.00000000000E+00  0.00000000000E+00  0.17348033776E+04  0.17348033776E+04  0.50400001928E-02 0.  1.
       -1   -1    0    0    0  501  0.00000000000E+00  0.00000000000E+00 -0.94982963614E+03  0.94982963616E+03  0.50400001928E-02 0. -1.
    10030    2    1    2    0    0  0.00000000000E+00  0.00000000000E+00  0.78497374150E+03  0.26846330138E+04  0.25673080540E+04 0.  0.
        2    1    3    3  502    0  0.63291856492E+03  0.72011380998E+03  0.12850867981E+04  0.16033084194E+04  0.25500000920E-02 0.  1.
       -2    1    3    3    0  502 -0.63291856492E+03 -0.72011380998E+03 -0.50011305656E+03  0.10813245944E+04  0.25500000920E-02 0. -1.
</event>
<event>
 5   0  0.3499642E-05  0.2620455E+04  0.7818609E-02  0.8361286E-01
        2   -1    0    0  501    0  0.00000000000E+00  0.00000000000E+00  0.11064700077E+04  0.11064700077E+04  0.25500000920E-02 0.  1.
       -2   -1    0    0    0  501  0.00000000000E+00  0.00000000000E+00 -0.15515070404E+04  0.15515070404E+04  0.25500000920E-02 0. -1.
    10030    2    1    2    0    0  0.00000000000E+00  0.00000000000E+00 -0.44503703270E+03  0.26579770481E+04  0.26204549277E+04 0.  0.
        2    1    3    3  502    0 -0.61191934335E+02  0.10966736787E+04 -0.94707060426E+03  0.14503035337E+04  0.25500000920E-02 0. -1.
       -2    1    3    3    0  502  0.61191934335E+02 -0.10966736787E+04  0.50203357156E+03  0.12076735144E+04  0.25500000920E-02 0.  1.
</event>
<event>
 5   0  0.1435062E-05  0.2613782E+04  0.7818609E-02  0.8363535E-01
        1   -1    0    0  501    0  0.00000000000E+00  0.00000000000E+00  0.94603586702E+03  0.94603586704E+03  0.50400001928E-02 0.  1.
       -1   -1    0    0    0  501  0.00000000000E+00  0.00000000000E+00 -0.18053899189E+04  0.18053899189E+04  0.50400001928E-02 0. -1.
    10030    2    1    2    0    0  0.00000000000E+00  0.00000000000E+00 -0.85935405189E+03  0.27514257860E+04  0.26137816414E+04 0.  0.
        2    1    3    3  502    0 -0.91375777487E+03 -0.65219213093E+03  0.27462768518E+03  0.11557370861E+04  0.25500000920E-02 0.  1.
       -2    1    3    3    0  502  0.91375777487E+03  0.65219213093E+03 -0.11339817371E+04  0.15956886998E+04  0.25500000920E-02 0. -1.
</event>
<event>
 5   0  0.1451052E-05  0.2604947E+04  0.7818609E-02  0.8366523E-01
        1   -1    0    0  501    0  0.00000000000E+00  0.00000000000E+00  0.10100343122E+04  0.10100343123E+04  0.50400001928E-02 0.  1.
       -1   -1    0    0    0  501  0.00000000000E+00  0.00000000000E+00 -0.16795834996E+04  0.16795834996E+04  0.50400001928E-02 0. -1.
    10030    2    1    2    0    0  0.00000000000E+00  0.00000000000E+00 -0.66954918737E+03  0.26896178119E+04  0.26049468055E+04 0.  0.
        1    1    3    3  502    0  0.82514657965E+03 -0.48240986000E+03 -0.12483222689E+04  0.15722260136E+04  0.50400001928E-02 0. -1.
       -1    1    3    3    0  502 -0.82514657965E+03  0.48240986000E+03  0.57877308149E+03  0.11173917983E+04  0.50400001928E-02 0.  1.
</event>
<event>
 5   0  0.3499642E-05  0.2539188E+04  0.7818609E-02  0.8389156E-01
       -2   -1    0    0    0  501  0.00000000000E+00  0.00000000000E+00  0.91147243055E+03  0.91147243056E+03  0.25500000920E-02 0. -1.
        2   -1    0    0  501    0  0.00000000000E+00  0.00000000000E+00 -0.17684230157E+04  0.17684230157E+04  0.25500000920E-02 0.  1.
    10030    2    1    2    0    0  0.00000000000E+00  0.00000000000E+00 -0.85695058516E+03  0.26798954463E+04  0.25391879209E+04 0.  0.
        2    1    3    3  502    0  0.10760918201E+04  0.58663777510E+03 -0.78829809010E+02  0.12281415323E+04  0.25500000920E-02 0. -1.
       -2    1    3    3    0  502 -0.10760918201E+04 -0.58663777510E+03 -0.77812077615E+03  0.14517539140E+04  0.25500000920E-02 0.  1.
</event>
<event>
 5   0  0.3441646E-05  0.2639402E+04  0.7818609E-02  0.8354939E-01
        2   -1    0    0  501    0  0.00000000000E+00  0.00000000000E+00  0.12736669422E+04  0.12736669422E+04  0.25500000920E-02 0. -1.
       -2   -1    0    0    0  501  0.00000000000E+00  0.00000000000E+00 -0.13673985759E+04  0.13673985759E+04  0.25500000920E-02 0.  1.
    10030    2    1    2    0    0  0.00000000000E+00  0.00000000000E+00 -0.93731633730E+02  0.26410655181E+04  0.26394017223E+04 0.  0.
        4    1    3    3  502    0 -0.84908377541E+03  0.43146064841E+03 -0.96095532398E+03  0.13529738713E+04  0.12699999809E+01 0.  1.
       -4    1    3    3    0  502  0.84908377541E+03 -0.43146064841E+03  0.86722369025E+03  0.12880916468E+04  0.12699999809E+01 0. -1.
</event>
<event>
 5   0  0.3849687E-05  0.2603341E+04  0.7818609E-02  0.8367067E-01
        2   -1    0    0  501    0  0.00000000000E+00  0.00000000000E+00  0.16566680634E+04  0.16566680634E+04  0.25500000920E-02 0. -1.
       -2   -1    0    0    0  501  0.00000000000E+00  0.00000000000E+00 -0.10227431620E+04  0.10227431620E+04  0.25500000920E-02 0.  1.
    10030    2    1    2    0    0  0.00000000000E+00  0.00000000000E+00  0.63392490141E+03  0.26794112255E+04  0.26033408794E+04 0.  0.
        1    1    3    3  502    0 -0.31723291292E+03  0.60334080671E+03 -0.82435377973E+03  0.10696803281E+04  0.50400001928E-02 0.  1.
       -1    1    3    3    0  502  0.31723291292E+03 -0.60334080671E+03  0.14582786811E+04  0.16097308974E+04  0.50400001928E-02 0. -1.
</event>
<event>
 5   0  0.3849687E-05  0.2454337E+04  0.7818609E-02  0.8419436E-01
        2   -1    0    0  501    0  0.00000000000E+00  0.00000000000E+00  0.10655329128E+04  0.10655329128E+04  0.25500000920E-02 0.  1.
       -2   -1    0    0    0  501  0.00000000000E+00  0.00000000000E+00 -0.14133236368E+04  0.14133236368E+04  0.25500000920E-02 0. -1.
    10030    2    1    2    0    0  0.00000000000E+00  0.00000000000E+00 -0.34779072399E+03  0.24788565497E+04  0.24543372641E+04 0.  0.
        1    1    3    3  502    0  0.54398497007E+03  0.25207249836E+03  0.90754082778E+03  0.10876996581E+04  0.50400001928E-02 0.  1.
       -1    1    3    3    0  502 -0.54398497007E+03 -0.25207249836E+03 -0.12553315518E+04  0.13911568916E+04  0.50400001928E-02 0. -1.
</event>
<event>
 5   0  0.1435062E-05  0.2599294E+04  0.7818609E-02  0.8368441E-01
       -1   -1    0    0    0  501  0.00000000000E+00  0.00000000000E+00  0.14755575129E+04  0.14755575129E+04  0.50400001928E-02 0.  1.
        1   -1    0    0  501    0  0.00000000000E+00  0.00000000000E+00 -0.11447077344E+04  0.11447077344E+04  0.50400001928E-02 0. -1.
    10030    2    1    2    0    0  0.00000000000E+00  0.00000000000E+00  0.33084977845E+03  0.26202652473E+04  0.25992938253E+04 0.  0.
        2    1    3    3  502    0  0.78306775290E+03  0.77842489953E+03  0.85647868791E+03  0.13973890556E+04  0.25500000920E-02 0.  1.
       -2    1    3    3    0  502 -0.78306775290E+03 -0.77842489953E+03 -0.52562890946E+03  0.12228761917E+04  0.25500000920E-02 0. -1.
</event>
<event>
 5   0  0.1435062E-05  0.2624792E+04  0.7818609E-02  0.8359828E-01
       -1   -1    0    0    0  501  0.00000000000E+00  0.00000000000E+00  0.12279478184E+04  0.12279478184E+04  0.50400001928E-02 0.  1.
        1   -1    0    0  501    0  0.00000000000E+00  0.00000000000E+00 -0.14026521729E+04  0.14026521729E+04  0.50400001928E-02 0. -1.
    10030    2    1    2    0    0  0.00000000000E+00  0.00000000000E+00 -0.17470435453E+03  0.26305999914E+04  0.26247923162E+04 0.  0.
        2    1    3    3  502    0  0.36042977826E+03  0.27237766922E+03  0.11475610466E+04  0.12332864937E+04  0.25500000920E-02 0.  1.
       -2    1    3    3    0  502 -0.36042977826E+03 -0.27237766922E+03 -0.13222654011E+04  0.13973134977E+04  0.25500000920E-02 0. -1.
</event>
<event>
 5   0  0.3849687E-05  0.2587690E+04  0.7818609E-02  0.8372395E-01
       -2   -1    0    0    0  501  0.00000000000E+00  0.00000000000E+00  0.89625850917E+03  0.89625850918E+03  0.25500000920E-02 0.  1.
        2   -1    0    0  501    0  0.00000000000E+00  0.00000000000E+00 -0.18678039541E+04  0.18678039541E+04  0.25500000920E-02 0. -1.
    10030    2    1    2    0    0  0.00000000000E+00  0.00000000000E+00 -0.97154544497E+03  0.27640624633E+04  0.25876902345E+04 0.  0.
        1    1    3    3  502    0 -0.34791930009E+02  0.12833114092E+04 -0.65779771665E+03  0.14424966161E+04  0.50400001928E-02 0.  1.
       -1    1    3    3    0  502  0.34791930009E+02 -0.12833114092E+04 -0.31374772832E+03  0.13215658472E+04  0.50400001928E-02 0. -1.
</event>
<event>
 5   0  0.3508470E-05  0.2660648E+04  0.7818609E-02  0.8347888E-01
        2   -1    0    0  501    0  0.00000000000E+00  0.00000000000E+00  0.21433048355E+04  0.21433048355E+04  0.25500000920E-02 0. -1.
       -2   -1    0    0    0  501  0.00000000000E+00  0.00000000000E+00 -0.82571611163E+03  0.82571611163E+03  0.25500000920E-02 0.  1.
    10030    2    1    2    0    0  0.00000000000E+00  0.00000000000E+00  0.13175887239E+04  0.29690209471E+04  0.26606475413E+04 0.  0.
        5    1    3    3  502    0  0.62985139888E+03 -0.17894272866E+03  0.19510286748E+04  0.20579767406E+04  0.46999998093E+01 0. -1.
       -5    1    3    3    0  502 -0.62985139888E+03  0.17894272866E+03 -0.63343995095E+03  0.91104420654E+03  0.46999998093E+01 0.  1.
</event>
<event>
 5   0  0.3441646E-05  0.1932193E+04  0.7818609E-02  0.8638996E-01
       -2   -1    0    0    0  501  0.00000000000E+00  0.00000000000E+00  0.68729057304E+03  0.68729057305E+03  0.25500000920E-02 0. -1.
        2   -1    0    0  501    0  0.00000000000E+00  0.00000000000E+00 -0.13580024868E+04  0.13580024868E+04  0.25500000920E-02 0.  1.
    10030    2    1    2    0    0  0.00000000000E+00  0.00000000000E+00 -0.67071191375E+03  0.20452930598E+04  0.19321928551E+04 0.  0.
        4    1    3    3  502    0 -0.15164204166E+03 -0.10282542150E+03  0.66873114146E+03  0.69337675802E+03  0.12699999809E+01 0. -1.
       -4    1    3    3    0  502  0.15164204166E+03  0.10282542150E+03 -0.13394430552E+04  0.13519163018E+04  0.12699999809E+01 0.  1.
</event>
<event>
 5   0  0.1451052E-05  0.2587024E+04  0.7818609E-02  0.8372622E-01
       -1   -1    0    0    0  501  0.00000000000E+00  0.00000000000E+00  0.75494678344E+03  0.75494678346E+03  0.50400001928E-02 0.  1.
        1   -1    0    0  501    0  0.00000000000E+00  0.00000000000E+00 -0.22162799451E+04  0.22162799451E+04  0.50400001928E-02 0. -1.
    10030    2    1    2    0    0  0.00000000000E+00  0.00000000000E+00 -0.14613331617E+04  0.29712267286E+04  0.25870240940E+04 0.  0.
        1    1    3    3  502    0  0.82375895716E+03  0.96513704696E+02  0.40936028879E+03  0.92491597497E+03  0.50400001928E-02 0.  1.
       -1    1    3    3    0  502 -0.82375895716E+03 -0.96513704696E+02 -0.18706934504E+04  0.20463107536E+04  0.50400001928E-02 0. -1.
</event>
<event>
 5   0  0.3647623E-05  0.2641293E+04  0.7818609E-02  0.8354309E-01
       -2   -1    0    0    0  501  0.00000000000E+00  0.00000000000E+00  0.88665545655E+03  0.88665545656E+03  0.25500000920E-02 0.  1.
        2   -1    0    0  501    0  0.00000000000E+00  0.00000000000E+00 -0.19670627848E+04  0.19670627848E+04  0.25500000920E-02 0. -1.
    10030    2    1    2    0    0  0.00000000000E+00  0.00000000000E+00 -0.10804073282E+04  0.28537182413E+04  0.26412928285E+04 0.  0.
        3    1    3    3  502    0 -0.22114200210E+03 -0.23461616802E+03  0.84348198504E+03  0.90300077556E+03  0.10100000352E+00 0.  1.
       -3    1    3    3    0  502  0.22114200210E+03  0.23461616802E+03 -0.19238893133E+04  0.19507174658E+04  0.10100000352E+00 0. -1.
</event>
<event>
 5   0  0.3849687E-05  0.2531821E+04  0.7818609E-02  0.8391736E-01
        2   -1    0    0  501    0  0.00000000000E+00  0.00000000000E+00  0.92716994866E+03  0.92716994866E+03  0.25500000920E-02 0. -1.
       -2   -1    0    0    0  501  0.00000000000E+00  0.00000000000E+00 -0.17284097571E+04  0.17284097571E+04  0.25500000920E-02 0.  1.
    10030    2    1    2    0    0  0.00000000000E+00  0.00000000000E+00 -0.80123980847E+03  0.26555797058E+04  0.25318211515E+04 0.  0.
        1    1    3    3  502    0  0.44334719854E+03 -0.92974293746E+03 -0.11724931098E+04  0.15606789423E+04  0.50400001928E-02 0.  1.
       -1    1    3    3    0  502 -0.44334719854E+03  0.92974293746E+03  0.37125330134E+03  0.10949007635E+04  0.50400001928E-02 0. -1.
</event>
<event>
 5   0  0.1533248E-05  0.2571807E+04  0.7818609E-02  0.8377841E-01
        1   -1    0    0  501    0  0.00000000000E+00  0.00000000000E+00  0.21135055603E+04  0.21135055603E+04  0.50400001928E-02 0. -1.
       -1   -1    0    0    0  501  0.00000000000E+00  0.00000000000E+00 -0.78237183414E+03  0.78237183415E+03  0.50400001928E-02 0.  1.
    10030    2    1    2    0    0  0.00000000000E+00  0.00000000000E+00  0.13311337262E+04  0.28958773945E+04  0.25718065415E+04 0.  0.
        4    1    3    3  502    0 -0.32725575234E+03  0.72598145021E+03 -0.47131211127E+03  0.92535512784E+03  0.12699999809E+01 0.  1.
       -4    1    3    3    0  502  0.32725575234E+03 -0.72598145021E+03  0.18024458374E+04  0.19705222666E+04  0.12699999809E+01 0. -1.
</event>
<event>
 5   0  0.3647623E-05  0.2033813E+04  0.7818609E-02  0.8590973E-01
       -2   -1    0    0    0  501  0.00000000000E+00  0.00000000000E+00  0.82344651751E+03  0.82344651752E+03  0.25500000920E-02 0. -1.
        2   -1    0    0  501    0  0.00000000000E+00  0.00000000000E+00 -0.12558181211E+04  0.12558181211E+04  0.25500000920E-02 0.  1.
    10030    2    1    2    0    0  0.00000000000E+00  0.00000000000E+00 -0.43237160362E+03  0.20792646387E+04  0.20338132249E+04 0.  0.
        3    1    3    3  502    0 -0.10071181833E+04  0.47374355201E+02 -0.80680605169E+02  0.10114547617E+04  0.10100000352E+00 0. -1.
       -3    1    3    3    0  502  0.10071181833E+04 -0.47374355201E+02 -0.35169099845E+03  0.10678098770E+04  0.10100000352E+00 0.  1.
</event>
<event>
 5   0  0.3849687E-05  0.2677147E+04  0.7818609E-02  0.8342458E-01
       -2   -1    0    0    0  501  0.00000000000E+00  0.00000000000E+00  0.83600082989E+03  0.83600082990E+03  0.25500000920E-02 0. -1.
        2   -1    0    0  501    0  0.00000000000E+00  0.00000000000E+00 -0.21432739992E+04  0.21432739993E+04  0.25500000920E-02 0.  1.
    10030    2    1    2    0    0  0.00000000000E+00  0.00000000000E+00 -0.13072731694E+04  0.29792748291E+04  0.26771468709E+04 0.  0.
        1    1    3    3  502    0 -0.77683117475E+03 -0.55605044242E+03  0.38979137069E+03  0.10317926542E+04  0.50400001928E-02 0. -1.
       -1    1    3    3    0  502  0.77683117475E+03  0.55605044242E+03 -0.16970645400E+04  0.19474821749E+04  0.50400001928E-02 0.  1.
</event>
<event>
 5   0  0.1435062E-05  0.2612656E+04  0.7818609E-02  0.8363915E-01
        1   -1    0    0  501    0  0.00000000000E+00  0.00000000000E+00  0.18167630049E+04  0.18167630049E+04  0.50400001928E-02 0. -1.
       -1   -1    0    0    0  501  0.00000000000E+00  0.00000000000E+00 -0.93930385990E+03  0.93930385992E+03  0.50400001928E-02 0.  1.
    10030    2    1    2    0    0  0.00000000000E+00  0.00000000000E+00  0.87745914498E+03  0.27560668648E+04  0.26126557393E+04 0.  0.
        2    1    3    3  502    0 -0.71367427424E+03  0.10596021006E+04  0.72647497511E+03  0.14696439946E+04  0.25500000920E-02 0. -1.
       -2    1    3    3    0  502  0.71367427424E+03 -0.10596021006E+04  0.15098416987E+03  0.12864228702E+04  0.25500000920E-02 0.  1.
</event>
<event>
 5   0  0.3508470E-05  0.2616705E+04  0.7818609E-02  0.8362549E-01
       -2   -1    0    0    0  501  0.00000000000E+00  0.00000000000E+00  0.13776807797E+04  0.13776807798E+04  0.25500000920E-02 0.  1.
        2   -1    0    0  501    0  0.00000000000E+00  0.00000000000E+00 -0.12425131524E+04  0.12425131524E+04  0.25500000920E-02 0. -1.
    10030    2    1    2    0    0  0.00000000000E+00  0.00000000000E+00  0.13516762731E+03  0.26201939322E+04  0.26167051715E+04 0.  0.
        5    1    3    3  502    0  0.36356244140E+03 -0.81646995092E+02 -0.11882495960E+04  0.12453124400E+04  0.46999998093E+01 0. -1.
       -5    1    3    3    0  502 -0.36356244140E+03  0.81646995092E+02  0.13234172234E+04  0.13748814922E+04  0.46999998093E+01 0.  1.
</event>
<event>
 5   0  0.1451052E-05  0.2596418E+04  0.7818609E-02  0.8369419E-01
        1   -1    0    0  501    0  0.00000000000E+00  0.00000000000E+00  0.19803285303E+04  0.19803285303E+04  0.50400001928E-02 0. -1.
       -1   -1    0    0    0  501  0.00000000000E+00  0.00000000000E+00 -0.85104412455E+03  0.85104412456E+03  0.50400001928E-02 0.  1.
    10030    2    1    2    0    0  0.00000000000E+00  0.00000000000E+00  0.11292844057E+04  0.28313726548E+04  0.25964182717E+04 0.  0.
        1    1    3    3  502    0 -0.85594393364E+03 -0.72333401959E+03 -0.15002088480E+03  0.11306451200E+04  0.50400001928E-02 0.  1.
       -1    1    3    3    0  502  0.85594393364E+03  0.72333401959E+03  0.12793052905E+04  0.17007275349E+04  0.50400001928E-02 0. -1.
</event>
<event>
 5   0  0.3849687E-05  0.2354020E+04  0.7818609E-02  0.8456921E-01
        2   -1    0    0  501    0  0.00000000000E+00  0.00000000000E+00  0.11064321203E+04  0.11064321203E+04  0.25500000920E-02 0. -1.
       -2   -1    0    0    0  501  0.00000000000E+00  0.00000000000E+00 -0.12520900923E+04  0.12520900923E+04  0.25500000920E-02 0.  1.
    10030    2    1    2    0    0  0.00000000000E+00  0.00000000000E+00 -0.14565797199E+03  0.23585222125E+04  0.23540201321E+04 0.  0.
        1    1    3    3  502    0 -0.40413629225E+03 -0.11054526307E+04 -0.71810187642E+02  0.11791981872E+04  0.50400001928E-02 0. -1.
       -1    1    3    3    0  502  0.40413629225E+03  0.11054526307E+04 -0.73847784349E+02  0.11793240254E+04  0.50400001928E-02 0.  1.
</event>
<event>
 5   0  0.3499642E-05  0.2306081E+04  0.7818609E-02  0.8475527E-01
       -2   -1    0    0    0  501  0.00000000000E+00  0.00000000000E+00  0.86486118991E+03  0.86486118992E+03  0.25500000920E-02 0. -1.
        2   -1    0    0  501    0  0.00000000000E+00  0.00000000000E+00 -0.15372438940E+04  0.15372438940E+04  0.25500000920E-02 0.  1.
    10030    2    1    2    0    0  0.00000000000E+00  0.00000000000E+00 -0.67238270410E+03  0.24021050839E+04  0.23060811637E+04 0.  0.
        2    1    3    3  502    0 -0.96969597360E+03  0.59533506485E+03 -0.53041860078E+03  0.12554194569E+04  0.25500000920E-02 0. -1.
       -2    1    3    3    0  502  0.96969597360E+03 -0.59533506485E+03 -0.14196410332E+03  0.11466856271E+04  0.25500000920E-02 0.  1.
</event>
<event>
 5   0  0.1474554E-05  0.2570642E+04  0.7818609E-02  0.8378242E-01
        1   -1    0    0  501    0  0.00000000000E+00  0.00000000000E+00  0.18664704523E+04  0.18664704523E+04  0.50400001928E-02 0. -1.
       -1   -1    0    0    0  501  0.00000000000E+00  0.00000000000E+00 -0.88511996464E+03  0.88511996466E+03  0.50400001928E-02 0.  1.
    10030    2    1    2    0    0  0.00000000000E+00  0.00000000000E+00  0.98135048761E+03  0.27515904169E+04  0.25706421460E+04 0.  0.
        5    1    3    3  502    0 -0.45392375451E+03 -0.54036830258E+03 -0.65917680404E+03  0.96570224517E+03  0.46999998093E+01 0.  1.
       -5    1    3    3    0  502  0.45392375451E+03  0.54036830258E+03  0.16405272917E+04  0.17858881717E+04  0.46999998093E+01 0. -1.
</event>
<event>
 5   0  0.1497497E-05  0.2618626E+04  0.7818609E-02  0.8361902E-01
       -1   -1    0    0    0  501  0.00000000000E+00  0.00000000000E+00  0.11254663595E+04  0.11254663595E+04  0.50400001928E-02 0.  1.
        1   -1    0    0  501    0  0.00000000000E+00  0.00000000000E+00 -0.15231913681E+04  0.15231913681E+04  0.50400001928E-02 0. -1.
    10030    2    1    2    0    0  0.00000000000E+00  0.00000000000E+00 -0.39772500860E+03  0.26486577277E+04  0.26186260855E+04 0.  0.
        3    1    3    3  502    0 -0.94146794951E+03 -0.56633091285E+03  0.52149056537E+03  0.12161599495E+04  0.10100000352E+00 0.  1.
       -3    1    3    3    0  502  0.94146794951E+03  0.56633091285E+03 -0.91921557396E+03  0.14324977782E+04  0.10100000352E+00 0. -1.
</event>
<event>
 5   0  0.3647623E-05  0.2529201E+04  0.7818609E-02  0.8392656E-01
       -2   -1    0    0    0  501  0.00000000000E+00  0.00000000000E+00  0.11525819589E+04  0.11525819589E+04  0.25500000920E-02 0. -1.
        2   -1    0    0  501    0  0.00000000000E+00  0.00000000000E+00 -0.13875057886E+04  0.13875057886E+04  0.25500000920E-02 0.  1.
    10030    2    1    2    0    0  0.00000000000E+00  0.00000000000E+00 -0.23492382970E+03  0.25400877475E+04  0.25292007748E+04 0.  0.
        3    1    3    3  502    0  0.67470926658E+03  0.10658875496E+04 -0.28393823970E+02  0.12618062776E+04  0.10100000352E+00 0.  1.
       -3    1    3    3    0  502 -0.67470926658E+03 -0.10658875496E+04 -0.20653000573E+03  0.12782814699E+04  0.10100000352E+00 0. -1.
</event>
<event>
 5   0  0.3508470E-05  0.2667474E+04  0.7818609E-02  0.8345636E-01
        2   -1    0    0  501    0  0.00000000000E+00  0.00000000000E+00  0.16438435998E+04  0.16438435998E+04  0.25500000920E-02 0. -1.
       -2   -1    0    0    0  501  0.00000000000E+00  0.00000000000E+00 -0.10821311297E+04  0.10821311297E+04  0.25500000920E-02 0.  1.
    10030    2    1    2    0    0  0.00000000000E+00  0.00000000000E+00  0.56171247010E+03  0.27259747295E+04  0.26674739599E+04 0.  0.
        5    1    3    3  502    0 -0.86307170267E+03  0.24908728841E+03  0.12883243520E+04  0.15705855491E+04  0.46999998093E+01 0. -1.
       -5    1    3    3    0  502  0.86307170267E+03 -0.24908728841E+03 -0.72661188188E+03  0.11553891804E+04  0.46999998093E+01 0.  1.
</event>
<event>
 5   0  0.1474554E-05  0.2612812E+04  0.7818609E-02  0.8363862E-01
        1   -1    0    0  501    0  0.00000000000E+00  0.00000000000E+00  0.14094056608E+04  0.14094056608E+04  0.50400001928E-02 0. -1.
       -1   -1    0    0    0  501  0.00000000000E+00  0.00000000000E+00 -0.12109338141E+04  0.12109338141E+04  0.50400001928E-02 0.  1.
    10030    2    1    2    0    0  0.00000000000E+00  0.00000000000E+00  0.19847184672E+03  0.26203394749E+04  0.26128122569E+04 0.  0.
        5    1    3    3  502    0 -0.98437445188E+03  0.32338608283E+03  0.89720604514E+03  0.13706102282E+04  0.46999998093E+01 0. -1.
       -5    1    3    3    0  502  0.98437445188E+03 -0.32338608283E+03 -0.69873419843E+03  0.12497292467E+04  0.46999998093E+01 0.  1.
</event>
<event>
 5   0  0.3849687E-05  0.2223668E+04  0.7818609E-02  0.8508641E-01
       -2   -1    0    0    0  501  0.00000000000E+00  0.00000000000E+00  0.58202491608E+03  0.58202491609E+03  0.25500000920E-02 0.  1.
        2   -1    0    0  501    0  0.00000000000E+00  0.00000000000E+00 -0.21239216655E+04  0.21239216655E+04  0.25500000920E-02 0. -1.
    10030    2    1    2    0    0  0.00000000000E+00  0.00000000000E+00 -0.15418967495E+04  0.27059465816E+04  0.22236684368E+04 0.  0.
        1    1    3    3  502    0  0.62040723321E+03  0.78043532738E+03 -0.17208453255E+03  0.10117299648E+04  0.50400001928E-02 0.  1.
       -1    1    3    3    0  502 -0.62040723321E+03 -0.78043532738E+03 -0.13698122169E+04  0.16942166169E+04  0.50400001928E-02 0. -1.
</event>
<event>
 5   0  0.1451052E-05  0.2828104E+04  0.7818609E-02  0.8294596E-01
       -1   -1    0    0    0  501  0.00000000000E+00  0.00000000000E+00  0.11244018275E+04  0.11244018276E+04  0.50400001928E-02 0. -1.
        1   -1    0    0  501    0  0.00000000000E+00  0.00000000000E+00 -0.17783170731E+04  0.17783170731E+04  0.50400001928E-02 0.  1.
    10030    2    1    2    0    0  0.00000000000E+00  0.00000000000E+00 -0.65391524554E+03  0.29027189007E+04  0.28281039351E+04 0.  0.
        1    1    3    3  502    0  0.69411579044E+03 -0.11965809662E+04 -0.26067546281E+02  0.13835758946E+04  0.50400001928E-02 0. -1.
       -1    1    3    3    0  502 -0.69411579044E+03  0.11965809662E+04 -0.62784769926E+03  0.15191430060E+04  0.50400001928E-02 0.  1.
</event>
<event>
 5   0  0.3647623E-05  0.2428478E+04  0.7818609E-02  0.8428918E-01
       -2   -1    0    0    0  501  0.00000000000E+00  0.00000000000E+00  0.15684024531E+04  0.15684024531E+04  0.25500000920E-02 0. -1.
        2   -1    0    0  501    0  0.00000000000E+00  0.00000000000E+00 -0.94004985086E+03  0.94004985087E+03  0.25500000920E-02 0.  1.
    10030    2    1    2    0    0  0.00000000000E+00  0.00000000000E+00  0.62835260219E+03  0.25084523039E+04  0.24284781177E+04 0.  0.
        3    1    3    3  502    0  0.18894633321E+03 -0.11644436959E+04  0.61130653696E+03  0.13286555348E+04  0.10100000352E+00 0. -1.
       -3    1    3    3    0  502 -0.18894633321E+03  0.11644436959E+04  0.17046065224E+02  0.11797967691E+04  0.10100000352E+00 0.  1.
</event>
<event>
 5   0  0.3441646E-05  0.2581303E+04  0.7818609E-02  0.8374580E-01
        2   -1    0    0  501    0  0.00000000000E+00  0.00000000000E+00  0.13199547688E+04  0.13199547688E+04  0.25500000920E-02 0.  1.
       -2   -1    0    0    0  501  0.00000000000E+00  0.00000000000E+00 -0.12619989505E+04  0.12619989505E+04  0.25500000920E-02 0. -1.
    10030    2    1    2    0    0  0.00000000000E+00  0.00000000000E+00  0.57955818258E+02  0.25819537193E+04  0.25813031848E+04 0.  0.
        4    1    3    3  502    0  0.66726945858E+03 -0.90161976842E+03 -0.60962890290E+03  0.12766423733E+04  0.12699999809E+01 0. -1.
       -4    1    3    3    0  502 -0.66726945858E+03  0.90161976842E+03  0.66758472116E+03  0.13053113460E+04  0.12699999809E+01 0.  1.
</event>
<event>
 5   0  0.3499642E-05  0.2641467E+04  0.7818609E-02  0.8354251E-01
        2   -1    0    0  501    0  0.00000000000E+00  0.00000000000E+00  0.95947596043E+03  0.95947596043E+03  0.25500000920E-02 0. -1.
       -2   -1    0    0    0  501  0.00000000000E+00  0.00000000000E+00 -0.18180099195E+04  0.18180099195E+04  0.25500000920E-02 0.  1.
    10030    2    1    2    0    0  0.00000000000E+00  0.00000000000E+00 -0.85853395904E+03  0.27774858799E+04  0.26414668755E+04 0.  0.
        2    1    3    3  502    0 -0.18685721199E+03 -0.55563644562E+03  0.81518345013E+03  0.10040774546E+04  0.25500000920E-02 0. -1.
       -2    1    3    3    0  502  0.18685721199E+03  0.55563644562E+03 -0.16737174092E+04  0.17734084254E+04  0.25500000920E-02 0.  1.
</event>
<event>
 5   0  0.3499642E-05  0.2652426E+04  0.7818609E-02  0.8350608E-01
        2   -1    0    0  501    0  0.00000000000E+00  0.00000000000E+00  0.16037109929E+04  0.16037109929E+04  0.25500000920E-02 0.  1.
       -2   -1    0    0    0  501  0.00000000000E+00  0.00000000000E+00 -0.10967321366E+04  0.10967321366E+04  0.25500000920E-02 0. -1.
    10030    2    1    2    0    0  0.00000000000E+00  0.00000000000E+00  0.50697885630E+03  0.27004431296E+04  0.26524263487E+04 0.  0.
        2    1    3    3  502    0  0.46052332287E+03 -0.42448739417E+01 -0.10127055595E+04  0.11125072135E+04  0.25500000920E-02 0. -1.
       -2    1    3    3    0  502 -0.46052332287E+03  0.42448739417E+01  0.15196844158E+04  0.15879359161E+04  0.25500000920E-02 0.  1.
</event>
<event>
 5   0  0.3849687E-05  0.2541402E+04  0.7818609E-02  0.8388383E-01
       -2   -1    0    0    0  501  0.00000000000E+00  0.00000000000E+00  0.69336974886E+03  0.69336974887E+03  0.25500000920E-02 0.  1.
        2   -1    0    0  501    0  0.00000000000E+00  0.00000000000E+00 -0.23287442114E+04  0.23287442114E+04  0.25500000920E-02 0. -1.
    10030    2    1    2    0    0  0.00000000000E+00  0.00000000000E+00 -0.16353744625E+04  0.30221139603E+04  0.25414018093E+04 0.  0.
        1    1    3    3  502    0  0.87637584807E+03  0.45210603119E+03 -0.17706771517E+04  0.20267540714E+04  0.50400001928E-02 0. -1.
       -1    1    3    3    0  502 -0.87637584807E+03 -0.45210603119E+03  0.13530268919E+03  0.99535988881E+03  0.50400001928E-02 0.  1.
</event>
<event>
 5   0  0.1474554E-05  0.2584584E+04  0.7818609E-02  0.8373457E-01
       -1   -1    0    0    0  501  0.00000000000E+00  0.00000000000E+00  0.15173319014E+04  0.15173319014E+04  0.50400001928E-02 0.  1.
        1   -1    0    0  501    0  0.00000000000E+00  0.00000000000E+00 -0.11006283575E+04  0.11006283575E+04  0.50400001928E-02 0. -1.
    10030    2    1    2    0    0  0.00000000000E+00  0.00000000000E+00  0.41670354395E+03  0.26179602589E+04  0.25845839266E+04 0.  0.
        5    1    3    3  502    0  0.59323915726E+03 -0.29991331706E+03 -0.91416298203E+03  0.11303082514E+04  0.46999998093E+01 0. -1.
       -5    1    3    3    0  502 -0.59323915726E+03  0.29991331706E+03  0.13308665260E+04  0.14876520075E+04  0.46999998093E+01 0.  1.
</event>
<event>
 5   0  0.1451052E-05  0.2400220E+04  0.7818609E-02  0.8439421E-01
        1   -1    0    0  501    0  0.00000000000E+00  0.00000000000E+00  0.13421774206E+04  0.13421774206E+04  0.50400001928E-02 0.  1.
       -1   -1    0    0    0  501  0.00000000000E+00  0.00000000000E+00 -0.10730798003E+04  0.10730798003E+04  0.50400001928E-02 0. -1.
    10030    2    1    2    0    0  0.00000000000E+00  0.00000000000E+00  0.26909762038E+03  0.24152572209E+04  0.24002195554E+04 0.  0.
        1    1    3    3  502    0  0.49199327768E+03  0.74650548590E+03 -0.67105151824E+03  0.11178720705E+04  0.50400001928E-02 0. -1.
       -1    1    3    3    0  502 -0.49199327768E+03 -0.74650548590E+03  0.94014913862E+03  0.12973851505E+04  0.50400001928E-02 0.  1.
</event>
<event>
 5   0  0.3849687E-05  0.2512644E+04  0.7818609E-02  0.8398495E-01
       -2   -1    0    0    0  501  0.00000000000E+00  0.00000000000E+00  0.86910395977E+03  0.86910395977E+03  0.25500000920E-02 0.  1.
        2   -1    0    0  501    0  0.00000000000E+00  0.00000000000E+00 -0.18160598945E+04  0.18160598945E+04  0.25500000920E-02 0. -1.
    10030    2    1    2    0    0  0.00000000000E+00  0.00000000000E+00 -0.94695593471E+03  0.26851638543E+04  0.25126439027E+04 0.  0.
        1    1    3    3  502    0 -0.92028714178E+03 -0.65689338545E+03 -0.10587173096E+04  0.15489737522E+04  0.50400001928E-02 0. -1.
       -1    1    3    3    0  502  0.92028714178E+03  0.65689338545E+03  0.11176137489E+03  0.11361901021E+04  0.50400001928E-02 0.  1.
</event>
<event>
 5   0  0.1435062E-05  0.2553996E+04  0.7818609E-02  0.8383998E-01
        1   -1    0    0  501    0  0.00000000000E+00  0.00000000000E+00  0.12768130639E+04  0.12768130639E+04  0.50400001928E-02 0.  1.
       -1   -1    0    0    0  501  0.00000000000E+00  0.00000000000E+00 -0.12771828651E+04  0.12771828651E+04  0.50400001928E-02 0. -1.
    10030    2    1    2    0    0  0.00000000000E+00  0.00000000000E+00 -0.36980123074E+00  0.25539959290E+04  0.25539959022E+04 0.  0.
        2    1    3    3  502    0 -0.11614313783E+04 -0.18771335020E+03  0.49636783963E+03  0.12769260670E+04  0.25500000920E-02 0. -1.
       -2    1    3    3    0  502  0.11614313783E+04  0.18771335020E+03 -0.49673764086E+03  0.12770698620E+04  0.25500000920E-02 0.  1.
</event>
<event>
 5   0  0.1497497E-05  0.2834637E+04  0.7818609E-02  0.8292595E-01
        1   -1    0    0  501    0  0.00000000000E+00  0.00000000000E+00  0.10202399272E+04  0.10202399272E+04  0.50400001928E-02 0. -1.
       -1   -1    0    0    0  501  0.00000000000E+00  0.00000000000E+00 -0.19689411297E+04  0.19689411297E+04  0.50400001928E-02 0.  1.
    10030    2    1    2    0    0  0.00000000000E+00  0.00000000000E+00 -0.94870120250E+03  0.29891810569E+04  0.28346374405E+04 0.  0.
        3    1    3    3  502    0 -0.76052860790E+03  0.90649951082E+03  0.34834187002E+03  0.12334857904E+04  0.10100000352E+00 0. -1.
       -3    1    3    3    0  502  0.76052860790E+03 -0.90649951082E+03 -0.12970430725E+04  0.17556952665E+04  0.10100000352E+00 0.  1.
</event>
<event>
 5   0  0.1533248E-05  0.2644681E+04  0.7818609E-02  0.8353181E-01
        1   -1    0    0  501    0  0.00000000000E+00  0.00000000000E+00  0.14942536159E+04  0.14942536159E+04  0.50400001928E-02 0.  1.
       -1   -1    0    0    0  501  0.00000000000E+00  0.00000000000E+00 -0.11702059116E+04  0.11702059116E+04  0.50400001928E-02 0. -1.
    10030    2    1    2    0    0  0.00000000000E+00  0.00000000000E+00  0.32404770431E+03  0.26644595276E+04  0.26446810128E+04 0.  0.
        4    1    3    3  502    0 -0.22580450421E+03  0.12079573549E+04  0.65397283317E+03  0.13920598855E+04  0.12699999809E+01 0.  1.
       -4    1    3    3    0  502  0.22580450421E+03 -0.12079573549E+04 -0.32992512886E+03  0.12723996420E+04  0.12699999809E+01 0. -1.
</event>
<event>
 5   0  0.3849687E-05  0.2540326E+04  0.7818609E-02  0.8388758E-01
       -2   -1    0    0    0  501  0.00000000000E+00  0.00000000000E+00  0.14557013528E+04  0.14557013528E+04  0.25500000920E-02 0. -1.
        2   -1    0    0  501    0  0.00000000000E+00  0.00000000000E+00 -0.11082725429E+04  0.11082725429E+04  0.25500000920E-02 0.  1.
    10030    2    1    2    0    0  0.00000000000E+00  0.00000000000E+00  0.34742880992E+03  0.25639738958E+04  0.25403258374E+04 0.  0.
        1    1    3    3  502    0  0.10105440671E+04 -0.32804207960E+03 -0.52882772712E+03  0.11867896538E+04  0.50400001928E-02 0.  1.
       -1    1    3    3    0  502 -0.10105440671E+04  0.32804207960E+03  0.87625653703E+03  0.13771842419E+04  0.50400001928E-02 0. -1.
</event>
<event>
 5   0  0.1435062E-05  0.2579298E+04  0.7818609E-02  0.8375267E-01
        1   -1    0    0  501    0  0.00000000000E+00  0.00000000000E+00  0.16158431493E+04  0.16158431493E+04  0.50400001928E-02 0. -1.
       -1   -1    0    0    0  501  0.00000000000E+00  0.00000000000E+00 -0.10293042442E+04  0.10293042443E+04  0.50400001928E-02 0.  1.
    10030    2    1    2    0    0  0.00000000000E+00  0.00000000000E+00  0.58653890505E+03  0.26451473936E+04  0.25792977429E+04 0.  0.
        2    1    3    3  502    0  0.23863437803E+03 -0.40885261062E+03  0.15235155112E+04  0.15953702819E+04  0.25500000920E-02 0. -1.
       -2    1    3    3    0  502 -0.23863437803E+03  0.40885261062E+03 -0.93697660616E+03  0.10497771116E+04  0.25500000920E-02 0.  1.
</event>
<event>
 5   0  0.1474554E-05  0.2541262E+04  0.7818609E-02  0.8388432E-01
        1   -1    0    0  501    0  0.00000000000E+00  0.00000000000E+00  0.16835533988E+04  0.16835533988E+04  0.50400001928E-02 0.  1.
       -1   -1    0    0    0  501  0.00000000000E+00  0.00000000000E+00 -0.95898527212E+03  0.95898527213E+03  0.50400001928E-02 0. -1.
    10030    2    1    2    0    0  0.00000000000E+00  0.00000000000E+00  0.72456812665E+03  0.26425386709E+04  0.25412618238E+04 0.  0.
        5    1    3    3  502    0  0.98027024939E+03 -0.54172299260E+03 -0.26170333397E+03  0.11501757638E+04  0.46999998093E+01 0. -1.
       -5    1    3    3    0  502 -0.98027024939E+03  0.54172299260E+03  0.98627146062E+03  0.14923629071E+04  0.46999998093E+01 0.  1.
</event>
<event>
 5   0  0.1474554E-05  0.2484243E+04  0.7818609E-02  0.8408620E-01
       -1   -1    0    0    0  501  0.00000000000E+00  0.00000000000E+00  0.10836930677E+04  0.10836930677E+04  0.50400001928E-02 0. -1.
        1   -1    0    0  501    0  0.00000000000E+00  0.00000000000E+00 -0.14237115750E+04  0.14237115751E+04  0.50400001928E-02 0.  1.
    10030    2    1    2    0    0  0.00000000000E+00  0.00000000000E+00 -0.34001850731E+03  0.25074046428E+04  0.24842434376E+04 0.  0.
        5    1    3    3  502    0 -0.39511889490E+03 -0.13652235796E+02  0.10184828795E+04  0.10925359447E+04  0.46999998093E+01 0. -1.
       -5    1    3    3    0  502  0.39511889490E+03  0.13652235796E+02 -0.13585013868E+04  0.14148686980E+04  0.46999998093E+01 0.  1.
</event>
<event>
 5   0  0.3849687E-05  0.2405158E+04  0.7818609E-02  0.8437575E-01
        2   -1    0    0  501    0  0.00000000000E+00  0.00000000000E+00  0.18349607155E+04  0.18349607155E+04  0.25500000920E-02 0.  1.
       -2   -1    0    0    0  501  0.00000000000E+00  0.00000000000E+00 -0.78813490490E+03  0.78813490490E+03  0.25500000920E-02 0. -1.
    10030    2    1    2    0    0  0.00000000000E+00  0.00000000000E+00  0.10468258106E+04  0.26230956204E+04  0.24051582809E+04 0.  0.
        1    1    3    3  502    0 -0.27250510747E+03  0.52169514315E+03 -0.62031241738E+03  0.85510955507E+03  0.50400001928E-02 0. -1.
       -1    1    3    3    0  502  0.27250510747E+03 -0.52169514315E+03  0.16671382280E+04  0.17679860654E+04  0.50400001928E-02 0.  1.
</event>
<event>
 5   0  0.1474554E-05  0.2564350E+04  0.7818609E-02  0.8380412E-01
       -1   -1    0    0    0  501  0.00000000000E+00  0.00000000000E+00  0.67459097541E+03  0.67459097543E+03  0.50400001928E-02 0.  1.
        1   -1    0    0  501    0  0.00000000000E+00  0.00000000000E+00 -0.24369925812E+04  0.24369925812E+04  0.50400001928E-02 0. -1.
    10030    2    1    2    0    0  0.00000000000E+00  0.00000000000E+00 -0.17624016057E+04  0.31115835566E+04  0.25643503680E+04 0.  0.
        5    1    3    3  502    0  0.42657107617E+03 -0.47521509256E+03  0.46789019837E+03  0.79166634067E+03  0.46999998093E+01 0.  1.
       -5    1    3    3    0  502 -0.42657107617E+03  0.47521509256E+03 -0.22302918041E+04  0.23199172159E+04  0.46999998093E+01 0. -1.
</event>
<event>
 5   0  0.3499642E-05  0.2508476E+04  0.7818609E-02  0.8399972E-01
       -2   -1    0    0    0  501  0.00000000000E+00  0.00000000000E+00  0.12366039105E+04  0.12366039105E+04  0.25500000920E-02 0.  1.
        2   -1    0    0  501    0  0.00000000000E+00  0.00000000000E+00 -0.12721238925E+04  0.12721238925E+04  0.25500000920E-02 0. -1.
    10030    2    1    2    0    0  0.00000000000E+00  0.00000000000E+00 -0.35519982077E+02  0.25087278030E+04  0.25084763344E+04 0.  0.
        2    1    3    3  502    0  0.26373520627E+03 -0.11709779128E+04 -0.38162038908E+03  0.12595156421E+04  0.25500000920E-02 0. -1.
       -2    1    3    3    0  502 -0.26373520627E+03  0.11709779128E+04  0.34610040700E+03  0.12492121609E+04  0.25500000920E-02 0.  1.
</event>
<event>
 5   0  0.1435062E-05  0.2598257E+04  0.7818609E-02  0.8368794E-01
       -1   -1    0    0    0  501  0.00000000000E+00  0.00000000000E+00  0.97475500398E+03  0.97475500399E+03  0.50400001928E-02 0. -1.
        1   -1    0    0  501    0  0.00000000000E+00  0.00000000000E+00 -0.17314450572E+04  0.17314450572E+04  0.50400001928E-02 0.  1.
    10030    2    1    2    0    0  0.00000000000E+00  0.00000000000E+00 -0.75669005321E+03  0.27062000612E+04  0.25982569031E+04 0.  0.
        2    1    3    3  502    0 -0.12340124400E+04  0.40256613714E+03 -0.43432294781E+03  0.13687522127E+04  0.25500000920E-02 0.  1.
       -2    1    3    3    0  502  0.12340124400E+04 -0.40256613714E+03 -0.32236710539E+03  0.13374478485E+04  0.25500000920E-02 0. -1.
</event>
<event>
 5   0  0.3508470E-05  0.2165423E+04  0.7818609E-02  0.8532959E-01
        2   -1    0    0  501    0  0.00000000000E+00  0.00000000000E+00  0.12320420624E+04  0.12320420624E+04  0.25500000920E-02 0. -1.
       -2   -1    0    0    0  501  0.00000000000E+00  0.00000000000E+00 -0.95148042897E+03  0.95148042898E+03  0.25500000920E-02 0.  1.
    10030    2    1    2    0    0  0.00000000000E+00  0.00000000000E+00  0.28056163340E+03  0.21835224913E+04  0.21654227394E+04 0.  0.
        5    1    3    3  502    0 -0.94510069107E+03  0.37063793299E+03  0.51979624729E+03  0.11405253273E+04  0.46999998093E+01 0. -1.
       -5    1    3    3    0  502  0.94510069107E+03 -0.37063793299E+03 -0.23923461390E+03  0.10429971640E+04  0.46999998093E+01 0.  1.
</event>
<event>
 5   0  0.3441646E-05  0.2593313E+04  0.7818609E-02  0.8370476E-01
        2   -1    0    0  501    0  0.00000000000E+00  0.00000000000E+00  0.22935191842E+04  0.22935191842E+04  0.25500000920E-02 0. -1.
       -2   -1    0    0    0  501  0.00000000000E+00  0.00000000000E+00 -0.73307347392E+03  0.73307347392E+03  0.25500000920E-02 0.  1.
    10030    2    1    2    0    0  0.00000000000E+00  0.00000000000E+00  0.15604457103E+04  0.30265926581E+04  0.25933129976E+04 0.  0.
        4    1    3    3  502    0 -0.10265657300E+02  0.75198725772E+03  0.20129809464E+04  0.21488797367E+04  0.12699999809E+01 0. -1.
       -4    1    3    3    0  502  0.10265657300E+02 -0.75198725772E+03 -0.45253523613E+03  0.87771292137E+03  0.12699999809E+01 0.  1.
</event>
<event>
 5   0  0.3441646E-05  0.2589968E+04  0.7818609E-02  0.8371617E-01
        2   -1    0    0  501    0  0.00000000000E+00  0.00000000000E+00  0.14498580104E+04  0.14498580104E+04  0.25500000920E-02 0. -1.
       -2   -1    0    0    0  501  0.00000000000E+00  0.00000000000E+00 -0.11566537310E+04  0.11566537310E+04  0.25500000920E-02 0.  1.
    10030    2    1    2    0    0  0.00000000000E+00  0.00000000000E+00  0.29320427937E+03  0.26065117414E+04  0.25899680903E+04 0.  0.
        4    1    3    3  502    0 -0.87815647931E+02  0.65253197261E+03  0.12688359916E+04  0.14294949981E+04  0.12699999809E+01 0. -1.
       -4    1    3    3    0  502  0.87815647931E+02 -0.65253197261E+03 -0.97563171219E+03  0.11770167433E+04  0.12699999809E+01 0.  1.
</event>
<event>
 5   0  0.1217200E-05  0.2603483E+04  0.7818609E-02  0.8367019E-01
        3   -1    0    0  501    0  0.00000000000E+00  0.00000000000E+00  0.29609744638E+04  0.29609744655E+04  0.10100000352E+00 0.  1.
       -3   -1    0    0    0  501  0.00000000000E+00  0.00000000000E+00 -0.57228817922E+03  0.57228818813E+03  0.10100000352E+00 0. -1.
    10030    2    1    2    0    0  0.00000000000E+00  0.00000000000E+00  0.23886862846E+04  0.35332626536E+04  0.26034828237E+04 0.  0.
        2    1    3    3  502    0 -0.12866035791E+01 -0.66881186846E+03  0.27099713968E+04  0.27912821323E+04  0.25500000920E-02 0.  1.
       -2    1    3    3    0  502  0.12866035791E+01  0.66881186846E+03 -0.32128511220E+03  0.74198052135E+03  0.25500000920E-02 0. -1.
</event>
<event>
 5   0  0.1217200E-05  0.2612751E+04  0.7818609E-02  0.8363883E-01
       -3   -1    0    0    0  501  0.00000000000E+00  0.00000000000E+00  0.11175736674E+04  0.11175736719E+04  0.10100000352E+00 0.  1.
        3   -1    0    0  501    0  0.00000000000E+00  0.00000000000E+00 -0.15270736664E+04  0.15270736697E+04  0.10100000352E+00 0. -1.
    10030    2    1    2    0    0  0.00000000000E+00  0.00000000000E+00 -0.40949999900E+03  0.26446473417E+04  0.26127512917E+04 0.  0.
        1    1    3    3  502    0  0.59413652048E+03  0.13335368646E+03  0.96514330391E+03  0.11411761511E+04  0.50400001928E-02 0.  1.
       -1    1    3    3    0  502 -0.59413652048E+03 -0.13335368646E+03 -0.13746433029E+04  0.15034711906E+04  0.50400001928E-02 0. -1.
</event>
<event>
 5   0  0.1474554E-05  0.2590539E+04  0.7818609E-02  0.8371422E-01
       -1   -1    0    0    0  501  0.00000000000E+00  0.00000000000E+00  0.70723732814E+03  0.70723732815E+03  0.50400001928E-02 0. -1.
        1   -1    0    0  501    0  0.00000000000E+00  0.00000000000E+00 -0.23722214946E+04  0.23722214946E+04  0.50400001928E-02 0.  1.
    10030    2    1    2    0    0  0.00000000000E+00  0.00000000000E+00 -0.16649841664E+04  0.30794588227E+04  0.25905393968E+04 0.  0.
        5    1    3    3  502    0 -0.15895210810E+03  0.12469879471E+03  0.68838252423E+03  0.71743163559E+03  0.46999998093E+01 0. -1.
       -5    1    3    3    0  502  0.15895210810E+03 -0.12469879471E+03 -0.23533666907E+04  0.23620271871E+04  0.46999998093E+01 0.  1.
</event>
<event>
 5   0  0.3441646E-05  0.2623328E+04  0.7818609E-02  0.8360320E-01
        2   -1    0    0  501    0  0.00000000000E+00  0.00000000000E+00  0.19483995322E+04  0.19483995322E+04  0.25500000920E-02 0.  1.
       -2   -1    0    0    0  501  0.00000000000E+00  0.00000000000E+00 -0.88301324422E+03  0.88301324423E+03  0.25500000920E-02 0. -1.
    10030    2    1    2    0    0  0.00000000000E+00  0.00000000000E+00  0.10653862880E+04  0.28314127765E+04  0.26233281091E+04 0.  0.
        4    1    3    3  502    0 -0.66223175993E+03  0.98022600045E+03 -0.78880065519E+02  0.11855874466E+04  0.12699999809E+01 0. -1.
       -4    1    3    3    0  502  0.66223175993E+03 -0.98022600045E+03  0.11442663535E+04  0.16458253299E+04  0.12699999809E+01 0.  1.
</event>
<event>
 5   0  0.3508470E-05  0.2631678E+04  0.7818609E-02  0.8357520E-01
       -2   -1    0    0    0  501  0.00000000000E+00  0.00000000000E+00  0.11315821445E+04  0.11315821445E+04  0.25500000920E-02 0. -1.
        2   -1    0    0  501    0  0.00000000000E+00  0.00000000000E+00 -0.15300988330E+04  0.15300988330E+04  0.25500000920E-02 0.  1.
    10030    2    1    2    0    0  0.00000000000E+00  0.00000000000E+00 -0.39851668853E+03  0.26616809775E+04  0.26316781860E+04 0.  0.
        5    1    3    3  502    0  0.34785729669E+03 -0.29368127442E+03 -0.14479007445E+04  0.15177918322E+04  0.46999998093E+01 0.  1.
       -5    1    3    3    0  502 -0.34785729669E+03  0.29368127442E+03  0.10493840560E+04  0.11438891453E+04  0.46999998093E+01 0. -1.
</event>
<event>
 5   0  0.1474554E-05  0.2681258E+04  0.7818609E-02  0.8341112E-01
       -1   -1    0    0    0  501  0.00000000000E+00  0.00000000000E+00  0.12861929181E+04  0.12861929181E+04  0.50400001928E-02 0.  1.
        1   -1    0    0  501    0  0.00000000000E+00  0.00000000000E+00 -0.13973692470E+04  0.13973692470E+04  0.50400001928E-02 0. -1.
    10030    2    1    2    0    0  0.00000000000E+00  0.00000000000E+00 -0.11117632887E+03  0.26835621652E+04  0.26812582341E+04 0.  0.
        5    1    3    3  502    0 -0.49134288486E+02  0.95442502813E+03 -0.99656783518E+03  0.13807645899E+04  0.46999998093E+01 0. -1.
       -5    1    3    3    0  502  0.49134288486E+02 -0.95442502813E+03  0.88539150631E+03  0.13027975753E+04  0.46999998093E+01 0.  1.
</event>
<event>
 5   0  0.3441646E-05  0.2607483E+04  0.7818609E-02  0.8365664E-01
        2   -1    0    0  501    0  0.00000000000E+00  0.00000000000E+00  0.17993205986E+04  0.17993205986E+04  0.25500000920E-02 0. -1.
       -2   -1    0    0    0  501  0.00000000000E+00  0.00000000000E+00 -0.94465773590E+03  0.94465773591E+03  0.25500000920E-02 0.  1.
    10030    2    1    2    0    0  0.00000000000E+00  0.00000000000E+00  0.85466286265E+03  0.27439783345E+04  0.26074831718E+04 0.  0.
        4    1    3    3  502    0 -0.99971511972E+03  0.10021824637E+03 -0.44698282458E+03  0.10996678025E+04  0.12699999809E+01 0.  1.
       -4    1    3    3    0  502  0.99971511972E+03 -0.10021824637E+03  0.13016456872E+04  0.16443105320E+04  0.12699999809E+01 0. -1.
</event>
<event>
 5   0  0.3849687E-05  0.2511307E+04  0.7818609E-02  0.8398969E-01
       -2   -1    0    0    0  501  0.00000000000E+00  0.00000000000E+00  0.66900081840E+03  0.66900081841E+03  0.25500000920E-02 0.  1.
        2   -1    0    0  501    0  0.00000000000E+00  0.00000000000E+00 -0.23567463228E+04  0.23567463228E+04  0.25500000920E-02 0. -1.
    10030    2    1    2    0    0  0.00000000000E+00  0.00000000000E+00 -0.16877455044E+04  0.30257471413E+04  0.25113066071E+04 0.  0.
        1    1    3    3  502    0 -0.11886025531E+04  0.24294580334E+03 -0.45370503442E+03  0.12952401132E+04  0.50400001928E-02 0.  1.
       -1    1    3    3    0  502  0.11886025531E+04 -0.24294580334E+03 -0.12340404700E+04  0.17305070281E+04  0.50400001928E-02 0. -1.
</event>
<event>
 5   0  0.1497497E-05  0.2686252E+04  0.7818609E-02  0.8339479E-01
        1   -1    0    0  501    0  0.00000000000E+00  0.00000000000E+00  0.19098739463E+04  0.19098739463E+04  0.50400001928E-02 0. -1.
       -1   -1    0    0    0  501  0.00000000000E+00  0.00000000000E+00 -0.94455863167E+03  0.94455863168E+03  0.50400001928E-02 0.  1.
    10030    2    1    2    0    0  0.00000000000E+00  0.00000000000E+00  0.96531531459E+03  0.28544325779E+04  0.26862523495E+04 0.  0.
        3    1    3    3  502    0 -0.90797259894E+03  0.74097771568E+03 -0.21456665011E+03  0.11914281653E+04  0.10100000352E+00 0.  1.
       -3    1    3    3    0  502  0.90797259894E+03 -0.74097771568E+03  0.11798819647E+04  0.16630044126E+04  0.10100000352E+00 0. -1.
</event>
<event>
 5   0  0.3647623E-05  0.2651494E+04  0.7818609E-02  0.8350917E-01
       -2   -1    0    0    0  501  0.00000000000E+00  0.00000000000E+00  0.10868045307E+04  0.10868045307E+04  0.25500000920E-02 0. -1.
        2   -1    0    0  501    0  0.00000000000E+00  0.00000000000E+00 -0.16172224277E+04  0.16172224277E+04  0.25500000920E-02 0.  1.
    10030    2    1    2    0    0  0.00000000000E+00  0.00000000000E+00 -0.53041789700E+03  0.27040269584E+04  0.26514936633E+04 0.  0.
        3    1    3    3  502    0 -0.28605413532E+03  0.82596248250E+03  0.75131654072E+03  0.11526133547E+04  0.10100000352E+00 0. -1.
       -3    1    3    3    0  502  0.28605413532E+03 -0.82596248250E+03 -0.12817344377E+04  0.15514136037E+04  0.10100000352E+00 0.  1.
</event>
<event>
 5   0  0.1497497E-05  0.2666660E+04  0.7818609E-02  0.8345904E-01
        1   -1    0    0  501    0  0.00000000000E+00  0.00000000000E+00  0.85682967714E+03  0.85682967716E+03  0.50400001928E-02 0.  1.
       -1   -1    0    0    0  501  0.00000000000E+00  0.00000000000E+00 -0.20748214802E+04  0.20748214802E+04  0.50400001928E-02 0. -1.
    10030    2    1    2    0    0  0.00000000000E+00  0.00000000000E+00 -0.12179918031E+04  0.29316511574E+04  0.26666597976E+04 0.  0.
        3    1    3    3  502    0  0.29200218137E+03  0.68857949381E+02  0.81924106520E+03  0.87244634462E+03  0.10100000352E+00 0.  1.
       -3    1    3    3    0  502 -0.29200218137E+03 -0.68857949381E+02 -0.20372328683E+04  0.20592048128E+04  0.10100000352E+00 0. -1.
</event>
<event>
 5   0  0.1474554E-05  0.2555685E+04  0.7818609E-02  0.8383412E-01
        1   -1    0    0  501    0  0.00000000000E+00  0.00000000000E+00  0.13638052830E+04  0.13638052830E+04  0.50400001928E-02 0.  1.
       -1   -1    0    0    0  501  0.00000000000E+00  0.00000000000E+00 -0.11972981255E+04  0.11972981255E+04  0.50400001928E-02 0. -1.
    10030    2    1    2    0    0  0.00000000000E+00  0.00000000000E+00  0.16650715751E+03  0.25611034085E+04  0.25556850424E+04 0.  0.
        5    1    3    3  502    0 -0.18535717080E+03  0.35986284243E+03 -0.11313395220E+04  0.12015863474E+04  0.46999998093E+01 0. -1.
       -5    1    3    3    0  502  0.18535717080E+03 -0.35986284243E+03  0.12978466795E+04  0.13595170612E+04  0.46999998093E+01 0.  1.
</event>
<event>
 5   0  0.1451052E-05  0.2013000E+04  0.7818609E-02  0.8600567E-01
       -1   -1    0    0    0  501  0.00000000000E+00  0.00000000000E+00  0.27066972716E+04  0.27066972716E+04  0.50400001928E-02 0. -1.
        1   -1    0    0  501    0  0.00000000000E+00  0.00000000000E+00 -0.37427244233E+03  0.37427244236E+03  0.50400001928E-02 0.  1.
    10030    2    1    2    0    0  0.00000000000E+00  0.00000000000E+00  0.23324248292E+04  0.30809697139E+04  0.20129999489E+04 0.  0.
        1    1    3    3  502    0 -0.82111001219E+02  0.25467160834E+03 -0.31883572356E+03  0.41624039119E+03  0.50400001928E-02 0.  1.
       -1    1    3    3    0  502  0.82111001219E+02 -0.25467160834E+03  0.26512605528E+04  0.26647293227E+04  0.50400001928E-02 0. -1.
</event>
<event>
 5   0  0.1451052E-05  0.2538890E+04  0.7818609E-02  0.8389260E-01
        1   -1    0    0  501    0  0.00000000000E+00  0.00000000000E+00  0.21552847058E+04  0.21552847058E+04  0.50400001928E-02 0.  1.
       -1   -1    0    0    0  501  0.00000000000E+00  0.00000000000E+00 -0.74769280218E+03  0.74769280220E+03  0.50400001928E-02 0. -1.
    10030    2    1    2    0    0  0.00000000000E+00  0.00000000000E+00  0.14075919036E+04  0.29029775080E+04  0.25388901994E+04 0.  0.
        1    1    3    3  502    0 -0.22505594517E+03 -0.53844356873E+03 -0.58522128027E+03  0.82647177936E+03  0.50400001928E-02 0. -1.
       -1    1    3    3    0  502  0.22505594517E+03  0.53844356873E+03  0.19928131839E+04  0.20765057286E+04  0.50400001928E-02 0.  1.
</event>
<event>
 5   0  0.3647623E-05  0.2611076E+04  0.7818609E-02  0.8364449E-01
       -2   -1    0    0    0  501  0.00000000000E+00  0.00000000000E+00  0.14085650139E+04  0.14085650139E+04  0.25500000920E-02 0.  1.
        2   -1    0    0  501    0  0.00000000000E+00  0.00000000000E+00 -0.12100462756E+04  0.12100462756E+04  0.25500000920E-02 0. -1.
    10030    2    1    2    0    0  0.00000000000E+00  0.00000000000E+00  0.19851873830E+03  0.26186112895E+04  0.26110755248E+04 0.  0.
        3    1    3    3  502    0  0.72709484449E+03  0.40759677549E+03 -0.90844243461E+03  0.12329110720E+04  0.10100000352E+00 0. -1.
       -3    1    3    3    0  502 -0.72709484449E+03 -0.40759677549E+03  0.11069611729E+04  0.13857002175E+04  0.10100000352E+00 0.  1.
</event>
<event>
 5   0  0.1451052E-05  0.2792801E+04  0.7818609E-02  0.8305507E-01
        1   -1    0    0  501    0  0.00000000000E+00  0.00000000000E+00  0.18392178255E+04  0.18392178255E+04  0.50400001928E-02 0. -1.
       -1   -1    0    0    0  501  0.00000000000E+00  0.00000000000E+00 -0.10601978596E+04  0.10601978596E+04  0.50400001928E-02 0.  1.
    10030    2    1    2    0    0  0.00000000000E+00  0.00000000000E+00  0.77901996592E+03  0.28994156851E+04  0.27928013191E+04 0.  0.
        1    1    3    3  502    0  0.61046707220E+03  0.79180594545E+03  0.14015615896E+04  0.17216275994E+04  0.50400001928E-02 0. -1.
       -1    1    3    3    0  502 -0.61046707220E+03 -0.79180594545E+03 -0.62254162372E+03  0.11777880857E+04  0.50400001928E-02 0.  1.
</event>
<event>
 5   0  0.1435062E-05  0.2500198E+04  0.7818609E-02  0.8402915E-01
       -1   -1    0    0    0  501  0.00000000000E+00  0.00000000000E+00  0.10242226958E+04  0.10242226959E+04  0.50400001928E-02 0.  1.
        1   -1    0    0  501    0  0.00000000000E+00  0.00000000000E+00 -0.15257885535E+04  0.15257885535E+04  0.50400001928E-02 0. -1.
    10030    2    1    2    0    0  0.00000000000E+00  0.00000000000E+00 -0.50156585762E+03  0.25500112493E+04  0.25001978046E+04 0.  0.
        2    1    3    3  502    0 -0.11436506841E+04 -0.47488676413E+03 -0.76221131851E+02  0.12406707811E+04  0.25500000920E-02 0. -1.
       -2    1    3    3    0  502  0.11436506841E+04  0.47488676413E+03 -0.42534472577E+03  0.13093404683E+04  0.25500000920E-02 0.  1.
</event>
<event>
 5   0  0.1474554E-05  0.2529446E+04  0.7818609E-02  0.8392570E-01
       -1   -1    0    0    0  501  0.00000000000E+00  0.00000000000E+00  0.10469862224E+04  0.10469862224E+04  0.50400001928E-02 0.  1.
        1   -1    0    0  501    0  0.00000000000E+00  0.00000000000E+00 -0.15277414831E+04  0.15277414831E+04  0.50400001928E-02 0. -1.
    10030    2    1    2    0    0  0.00000000000E+00  0.00000000000E+00 -0.48075526078E+03  0.25747277055E+04  0.25294460138E+04 0.  0.
        5    1    3    3  502    0  0.39768578793E+03  0.44220159713E+03  0.89576038853E+03  0.10752232336E+04  0.46999998093E+01 0.  1.
       -5    1    3    3    0  502 -0.39768578793E+03 -0.44220159713E+03 -0.13765156493E+04  0.14995044719E+04  0.46999998093E+01 0. -1.
</event>
<event>
 5   0  0.3441646E-05  0.2587492E+04  0.7818609E-02  0.8372462E-01
        2   -1    0    0  501    0  0.00000000000E+00  0.00000000000E+00  0.28203753726E+04  0.28203753726E+04  0.25500000920E-02 0. -1.
       -2   -1    0    0    0  501  0.00000000000E+00  0.00000000000E+00 -0.59345949914E+03  0.59345949914E+03  0.25500000920E-02 0.  1.
    10030    2    1    2    0    0  0.00000000000E+00  0.00000000000E+00  0.22269158734E+04  0.34138348717E+04  0.25874918790E+04 0.  0.
        4    1    3    3  502    0  0.95278739343E+03 -0.74554253775E+02 -0.37047810122E+02  0.95641847899E+03  0.12699999809E+01 0.  1.
       -4    1    3    3    0  502 -0.95278739343E+03  0.74554253775E+02  0.22639636835E+04  0.24574163927E+04  0.12699999809E+01 0. -1.
</event>
<event>
 5   0  0.3647623E-05  0.2569076E+04  0.7818609E-02  0.8378782E-01
        2   -1    0    0  501    0  0.00000000000E+00  0.00000000000E+00  0.88793897994E+03  0.88793897994E+03  0.25500000920E-02 0. -1.
       -2   -1    0    0    0  501  0.00000000000E+00  0.00000000000E+00 -0.18582783392E+04  0.18582783392E+04  0.25500000920E-02 0.  1.
    10030    2    1    2    0    0  0.00000000000E+00  0.00000000000E+00 -0.97033935923E+03  0.27462173191E+04  0.25690759217E+04 0.  0.
        3    1    3    3  502    0  0.41521450832E+03  0.23148888556E+03  0.79044706527E+03  0.92238645114E+03  0.10100000352E+00 0. -1.
       -3    1    3    3    0  502 -0.41521450832E+03 -0.23148888556E+03 -0.17607864245E+04  0.18238308680E+04  0.10100000352E+00 0.  1.
</event>
<event>
 5   0  0.1451052E-05  0.2579925E+04  0.7818609E-02  0.8375052E-01
        1   -1    0    0  501    0  0.00000000000E+00  0.00000000000E+00  0.18833317982E+04  0.18833317982E+04  0.50400001928E-02 0. -1.
       -1   -1    0    0    0  501  0.00000000000E+00  0.00000000000E+00 -0.88354222371E+03  0.88354222372E+03  0.50400001928E-02 0.  1.
    10030    2    1    2    0    0  0.00000000000E+00  0.00000000000E+00  0.99978957445E+03  0.27668740219E+04  0.25799249330E+04 0.  0.
        1    1    3    3  502    0  0.24549698550E+03  0.10364966389E+04  0.12802242815E+04  0.16654033335E+04  0.50400001928E-02 0. -1.
       -1    1    3    3    0  502 -0.24549698550E+03 -0.10364966389E+04 -0.28043470705E+03  0.11014706884E+04  0.50400001928E-02 0.  1.
</event>
<event>
 5   0  0.1435062E-05  0.2587762E+04  0.7818609E-02  0.8372370E-01
       -1   -1    0    0    0  501  0.00000000000E+00  0.00000000000E+00  0.13291841617E+04  0.13291841617E+04  0.50400001928E-02 0. -1.
        1   -1    0    0  501    0  0.00000000000E+00  0.00000000000E+00 -0.12595155441E+04  0.12595155441E+04  0.50400001928E-02 0.  1.
    10030    2    1    2    0    0  0.00000000000E+00  0.00000000000E+00  0.69668617598E+02  0.25886997059E+04  0.25877620545E+04 0.  0.
        2    1    3    3  502    0 -0.30691312984E+03  0.97265681375E+03  0.83128305410E+03  0.13157843526E+04  0.25500000920E-02 0. -1.
       -2    1    3    3    0  502  0.30691312984E+03 -0.97265681375E+03 -0.76161443651E+03  0.12729153532E+04  0.25500000920E-02 0.  1.
</event>
<event>
 5   0  0.1533248E-05  0.2659223E+04  0.7818609E-02  0.8348358E-01
        1   -1    0    0  501    0  0.00000000000E+00  0.00000000000E+00  0.11956655253E+04  0.11956655253E+04  0.50400001928E-02 0.  1.
       -1   -1    0    0    0  501  0.00000000000E+00  0.00000000000E+00 -0.14785629854E+04  0.14785629854E+04  0.50400001928E-02 0. -1.
    10030    2    1    2    0    0  0.00000000000E+00  0.00000000000E+00 -0.28289746009E+03  0.26742285107E+04  0.26592230359E+04 0.  0.
        4    1    3    3  502    0  0.19343349032E+03 -0.38089095385E+03  0.11247712727E+04  0.12031651851E+04  0.12699999809E+01 0.  1.
       -4    1    3    3    0  502 -0.19343349032E+03  0.38089095385E+03 -0.14076687328E+04  0.14710633256E+04  0.12699999809E+01 0. -1.
</event>
<event>
 5   0  0.1497497E-05  0.2602498E+04  0.7818609E-02  0.8367353E-01
       -1   -1    0    0    0  501  0.00000000000E+00  0.00000000000E+00  0.78441421152E+03  0.78441421154E+03  0.50400001928E-02 0.  1.
        1   -1    0    0  501    0  0.00000000000E+00  0.00000000000E+00 -0.21586152918E+04  0.21586152918E+04  0.50400001928E-02 0. -1.
    10030    2    1    2    0    0  0.00000000000E+00  0.00000000000E+00 -0.13742010803E+04  0.29430295033E+04  0.26024976558E+04 0.  0.
        3    1    3    3  502    0 -0.19373229100E+03  0.30499170616E+03 -0.21007494714E+04  0.21315957622E+04  0.10100000352E+00 0. -1.
       -3    1    3    3    0  502  0.19373229100E+03 -0.30499170616E+03  0.72654839116E+03  0.81143374117E+03  0.10100000352E+00 0.  1.
</event>
<event>
 5   0  0.1451052E-05  0.2649532E+04  0.7818609E-02  0.8351568E-01
       -1   -1    0    0    0  501  0.00000000000E+00  0.00000000000E+00  0.67024642627E+03  0.67024642628E+03  0.50400001928E-02 0.  1.
        1   -1    0    0  501    0  0.00000000000E+00  0.00000000000E+00 -0.26184469815E+04  0.26184469815E+04  0.50400001928E-02 0. -1.
    10030    2    1    2    0    0  0.00000000000E+00  0.00000000000E+00 -0.19482005553E+04  0.32886934078E+04  0.26495318317E+04 0.  0.
        1    1    3    3  502    0 -0.18479444727E+03  0.13057263063E+04 -0.81741642472E+03  0.15515282099E+04  0.50400001928E-02 0.  1.
       -1    1    3    3    0  502  0.18479444727E+03 -0.13057263063E+04 -0.11307841305E+04  0.17371651979E+04  0.50400001928E-02 0. -1.
</event>
<event>
 5   0  0.3441646E-05  0.2605345E+04  0.7818609E-02  0.8366388E-01
       -2   -1    0    0    0  501  0.00000000000E+00  0.00000000000E+00  0.72972621673E+03  0.72972621673E+03  0.25500000920E-02 0. -1.
        2   -1    0    0  501    0  0.00000000000E+00  0.00000000000E+00 -0.23254680660E+04  0.23254680660E+04  0.25500000920E-02 0.  1.
    10030    2    1    2    0    0  0.00000000000E+00  0.00000000000E+00 -0.15957418493E+04  0.30551942828E+04  0.26053445177E+04 0.  0.
        4    1    3    3  502    0  0.52664831302E+03  0.70040996025E+03  0.33241000764E+03  0.93724627719E+03  0.12699999809E+01 0. -1.
       -4    1    3    3    0  502 -0.52664831302E+03 -0.70040996025E+03 -0.19281518570E+04  0.21179480056E+04  0.12699999809E+01 0.  1.
</event>
<event>
 5   0  0.3441646E-05  0.1648211E+04  0.7818609E-02  0.8791466E-01
       -2   -1    0    0    0  501  0.00000000000E+00  0.00000000000E+00  0.78106784428E+03  0.78106784429E+03  0.25500000920E-02 0.  1.
        2   -1    0    0  501    0  0.00000000000E+00  0.00000000000E+00 -0.86951421719E+03  0.86951421719E+03  0.25500000920E-02 0. -1.
    10030    2    1    2    0    0  0.00000000000E+00  0.00000000000E+00 -0.88446372908E+02  0.16505820615E+04  0.16482106603E+04 0.  0.
        4    1    3    3  502    0 -0.28606260162E+03  0.45609494979E+03 -0.66905483028E+03  0.85877260907E+03  0.12699999809E+01 0. -1.
       -4    1    3    3    0  502  0.28606260162E+03 -0.45609494979E+03  0.58060845737E+03  0.79180945241E+03  0.12699999809E+01 0.  1.
</event>
<event>
 5   0  0.1451052E-05  0.2654588E+04  0.7818609E-02  0.8349892E-01
       -1   -1    0    0    0  501  0.00000000000E+00  0.00000000000E+00  0.11411382550E+04  0.11411382550E+04  0.50400001928E-02 0.  1.
        1   -1    0    0  501    0  0.00000000000E+00  0.00000000000E+00 -0.15438175536E+04  0.15438175536E+04  0.50400001928E-02 0. -1.
    10030    2    1    2    0    0  0.00000000000E+00  0.00000000000E+00 -0.40267929861E+03  0.26849558087E+04  0.26545879298E+04 0.  0.
        1    1    3    3  502    0  0.11790852211E+04 -0.15663517286E+03  0.39440845010E+03  0.12531299061E+04  0.50400001928E-02 0. -1.
       -1    1    3    3    0  502 -0.11790852211E+04  0.15663517286E+03 -0.79708774871E+03  0.14318259026E+04  0.50400001928E-02 0.  1.
</event>
<event>
 5   0  0.1533248E-05  0.2185563E+04  0.7818609E-02  0.8524461E-01
       -1   -1    0    0    0  501  0.00000000000E+00  0.00000000000E+00  0.73307014436E+03  0.73307014438E+03  0.50400001928E-02 0.  1.
        1   -1    0    0  501    0  0.00000000000E+00  0.00000000000E+00 -0.16290006000E+04  0.16290006000E+04  0.50400001928E-02 0. -1.
    10030    2    1    2    0    0  0.00000000000E+00  0.00000000000E+00 -0.89593045567E+03  0.23620707444E+04  0.21855632730E+04 0.  0.
        4    1    3    3  502    0  0.11185821867E+02 -0.93461786854E+03 -0.10598460556E+04  0.14131209988E+04  0.12699999809E+01 0. -1.
       -4    1    3    3    0  502 -0.11185821867E+02  0.93461786854E+03  0.16391559997E+03  0.94894974557E+03  0.12699999809E+01 0.  1.
</event>
<event>
 5   0  0.3441646E-05  0.2603224E+04  0.7818609E-02  0.8367107E-01
       -2   -1    0    0    0  501  0.00000000000E+00  0.00000000000E+00  0.16649044841E+04  0.16649044841E+04  0.25500000920E-02 0.  1.
        2   -1    0    0  501    0  0.00000000000E+00  0.00000000000E+00 -0.10175924793E+04  0.10175924793E+04  0.25500000920E-02 0. -1.
    10030    2    1    2    0    0  0.00000000000E+00  0.00000000000E+00  0.64731200482E+03  0.26824969634E+04  0.26032243713E+04 0.  0.
        4    1    3    3  502    0  0.12538326059E+04 -0.44495913766E+02 -0.33476284317E+02  0.12550690676E+04  0.12699999809E+01 0. -1.
       -4    1    3    3    0  502 -0.12538326059E+04  0.44495913766E+02  0.68078828914E+03  0.14274278958E+04  0.12699999809E+01 0.  1.
</event>
<event>
 5   0  0.3441646E-05  0.2510198E+04  0.7818609E-02  0.8399362E-01
        2   -1    0    0  501    0  0.00000000000E+00  0.00000000000E+00  0.14989051990E+04  0.14989051990E+04  0.25500000920E-02 0. -1.
       -2   -1    0    0    0  501  0.00000000000E+00  0.00000000000E+00 -0.10509492126E+04  0.10509492126E+04  0.25500000920E-02 0.  1.
    10030    2    1    2    0    0  0.00000000000E+00  0.00000000000E+00  0.44795598643E+03  0.25498544116E+04  0.25101977920E+04 0.  0.
        4    1    3    3  502    0  0.47696811319E+03  0.11179958180E+04  0.54174330529E+03  0.13307519122E+04  0.12699999809E+01 0. -1.
       -4    1    3    3    0  502 -0.47696811319E+03 -0.11179958180E+04 -0.93787318860E+02  0.12191024995E+04  0.12699999809E+01 0.  1.
</event>
<event>
 5   0  0.3508470E-05  0.2610288E+04  0.7818609E-02  0.8364715E-01
       -2   -1    0    0    0  501  0.00000000000E+00  0.00000000000E+00  0.67612595928E+03  0.67612595928E+03  0.25500000920E-02 0. -1.
        2   -1    0    0  501    0  0.00000000000E+00  0.00000000000E+00 -0.25193541938E+04  0.25193541938E+04  0.25500000920E-02 0.  1.
    10030    2    1    2    0    0  0.00000000000E+00  0.00000000000E+00 -0.18432282345E+04  0.31954801531E+04  0.26102879313E+04 0.  0.
        5    1    3    3  502    0  0.73203573212E+03 -0.41165742518E+03 -0.21446009991E+04  0.23031877223E+04  0.46999998093E+01 0.  1.
       -5    1    3    3    0  502 -0.73203573212E+03  0.41165742518E+03  0.30137276458E+03  0.89229243079E+03  0.46999998093E+01 0. -1.
</event>
<event>
 5   0  0.3849687E-05  0.2810991E+04  0.7818609E-02  0.8299864E-01
        2   -1    0    0  501    0  0.00000000000E+00  0.00000000000E+00  0.15169234304E+04  0.15169234304E+04  0.25500000920E-02 0.  1.
       -2   -1    0    0    0  501  0.00000000000E+00  0.00000000000E+00 -0.13022525149E+04  0.13022525149E+04  0.25500000920E-02 0. -1.
    10030    2    1    2    0    0  0.00000000000E+00  0.00000000000E+00  0.21467091551E+03  0.28191759453E+04  0.28109908233E+04 0.  0.
        1    1    3    3  502    0  0.17308287708E+03 -0.12311464042E+04  0.76478849215E+03  0.14596508447E+04  0.50400001928E-02 0.  1.
       -1    1    3    3    0  502 -0.17308287708E+03  0.12311464042E+04 -0.55011757663E+03  0.13595251005E+04  0.50400001928E-02 0. -1.
</event>
<event>
 5   0  0.1474554E-05  0.2617092E+04  0.7818609E-02  0.8362418E-01
       -1   -1    0    0    0  501  0.00000000000E+00  0.00000000000E+00  0.83760300136E+03  0.83760300138E+03  0.50400001928E-02 0.  1.
        1   -1    0    0  501    0  0.00000000000E+00  0.00000000000E+00 -0.20442776591E+04  0.20442776591E+04  0.50400001928E-02 0. -1.
    10030    2    1    2    0    0  0.00000000000E+00  0.00000000000E+00 -0.12066746578E+04  0.28818806605E+04  0.26170923583E+04 0.  0.
        5    1    3    3  502    0  0.13894778453E+03  0.88082299788E+03 -0.16578915874E+04  0.18824936244E+04  0.46999998093E+01 0. -1.
       -5    1    3    3    0  502 -0.13894778453E+03 -0.88082299788E+03  0.45121692960E+03  0.99938703612E+03  0.46999998093E+01 0.  1.
</event>
<event>
 5   0  0.3508470E-05  0.2588244E+04  0.7818609E-02  0.8372206E-01
        2   -1    0    0  501    0  0.00000000000E+00  0.00000000000E+00  0.19277274291E+04  0.19277274291E+04  0.25500000920E-02 0. -1.
       -2   -1    0    0    0  501  0.00000000000E+00  0.00000000000E+00 -0.86876980966E+03  0.86876980966E+03  0.25500000920E-02 0.  1.
    10030    2    1    2    0    0  0.00000000000E+00  0.00000000000E+00  0.10589576194E+04  0.27964972388E+04  0.25882437224E+04 0.  0.
        5    1    3    3  502    0  0.74779787143E+03  0.23914931398E+03 -0.58205033968E+03  0.97734269261E+03  0.46999998093E+01 0.  1.
       -5    1    3    3    0  502 -0.74779787143E+03 -0.23914931398E+03  0.16410079591E+04  0.18191545461E+04  0.46999998093E+01 0. -1.
</event>
<event>
 5   0  0.1435062E-05  0.2495162E+04  0.7818609E-02  0.8404711E-01
        1   -1    0    0  501    0  0.00000000000E+00  0.00000000000E+00  0.12789684893E+04  0.12789684894E+04  0.50400001928E-02 0.  1.
       -1   -1    0    0    0  501  0.00000000000E+00  0.00000000000E+00 -0.12169633498E+04  0.12169633498E+04  0.50400001928E-02 0. -1.
    10030    2    1    2    0    0  0.00000000000E+00  0.00000000000E+00  0.62005139507E+02  0.24959318392E+04  0.24951615396E+04 0.  0.
        2    1    3    3  502    0 -0.58858170145E+02  0.17942065058E+03  0.12645911818E+04  0.12786113214E+04  0.25500000920E-02 0.  1.
       -2    1    3    3    0  502  0.58858170145E+02 -0.17942065058E+03 -0.12025860423E+04  0.12173205178E+04  0.25500000920E-02 0. -1.
</event>
<event>
 5   0  0.3508470E-05  0.2630114E+04  0.7818609E-02  0.8358044E-01
        2   -1    0    0  501    0  0.00000000000E+00  0.00000000000E+00  0.11322733244E+04  0.11322733244E+04  0.25500000920E-02 0. -1.
       -2   -1    0    0    0  501  0.00000000000E+00  0.00000000000E+00 -0.15273472004E+04  0.15273472004E+04  0.25500000920E-02 0.  1.
    10030    2    1    2    0    0  0.00000000000E+00  0.00000000000E+00 -0.39507387596E+03  0.26596205248E+04  0.26301136798E+04 0.  0.
        5    1    3    3  502    0 -0.12359484010E+04  0.17203561396E+03  0.22207343709E+03  0.12674791532E+04  0.46999998093E+01 0. -1.
       -5    1    3    3    0  502  0.12359484010E+04 -0.17203561396E+03 -0.61714731305E+03  0.13921413716E+04  0.46999998093E+01 0.  1.
</event>
<event>
 5   0  0.1497497E-05  0.2598664E+04  0.7818609E-02  0.8368655E-01
       -1   -1    0    0    0  501  0.00000000000E+00  0.00000000000E+00  0.10089619616E+04  0.10089619617E+04  0.50400001928E-02 0. -1.
        1   -1    0    0  501    0  0.00000000000E+00  0.00000000000E+00 -0.16732683937E+04  0.16732683937E+04  0.50400001928E-02 0.  1.
    10030    2    1    2    0    0  0.00000000000E+00  0.00000000000E+00 -0.66430643206E+03  0.26822303554E+04  0.25986643961E+04 0.  0.
        3    1    3    3  502    0  0.42180046563E+03 -0.42166466963E+03  0.85932803850E+03  0.10460217084E+04  0.10100000352E+00 0. -1.
       -3    1    3    3    0  502 -0.42180046563E+03  0.42166466963E+03 -0.15236344706E+04  0.16362086470E+04  0.10100000352E+00 0.  1.
</event>
<event>
 5   0  0.1533248E-05  0.2552725E+04  0.7818609E-02  0.8384439E-01
       -1   -1    0    0    0  501  0.00000000000E+00  0.00000000000E+00  0.13343432293E+04  0.13343432293E+04  0.50400001928E-02 0. -1.
        1   -1    0    0  501    0  0.00000000000E+00  0.00000000000E+00 -0.12209010015E+04  0.12209010015E+04  0.50400001928E-02 0.  1.
    10030    2    1    2    0    0  0.00000000000E+00  0.00000000000E+00  0.11344222774E+03  0.25552442308E+04  0.25527248070E+04 0.  0.
        4    1    3    3  502    0 -0.66991835288E+01 -0.10349255466E+04  0.80444135475E+03  0.13108177876E+04  0.12699999809E+01 0. -1.
       -4    1    3    3    0  502  0.66991835288E+01  0.10349255466E+04 -0.69099912701E+03  0.12444264432E+04  0.12699999809E+01 0.  1.
</event>
<event>
 5   0  0.1497497E-05  0.2599624E+04  0.7818609E-02  0.8368329E-01
        1   -1    0    0  501    0  0.00000000000E+00  0.00000000000E+00  0.14148276235E+04  0.14148276235E+04  0.50400001928E-02 0. -1.
       -1   -1    0    0    0  501  0.00000000000E+00  0.00000000000E+00 -0.11941465604E+04  0.11941465604E+04  0.50400001928E-02 0.  1.
    10030    2    1    2    0    0  0.00000000000E+00  0.00000000000E+00  0.22068106308E+03  0.26089741840E+04  0.25996242346E+04 0.  0.
        3    1    3    3  502    0 -0.59559273296E+02 -0.48145361215E+03  0.13205660157E+04  0.14068544700E+04  0.10100000352E+00 0. -1.
       -3    1    3    3    0  502  0.59559273296E+02  0.48145361215E+03 -0.10998849526E+04  0.12021197140E+04  0.10100000352E+00 0.  1.
</event>
<event>
 5   0  0.1497497E-05  0.2464491E+04  0.7818609E-02  0.8415746E-01
        1   -1    0    0  501    0  0.00000000000E+00  0.00000000000E+00  0.19260331964E+04  0.19260331964E+04  0.50400001928E-02 0. -1.
       -1   -1    0    0    0  501  0.00000000000E+00  0.00000000000E+00 -0.78837126461E+03  0.78837126462E+03  0.50400001928E-02 0.  1.
    10030    2    1    2    0    0  0.00000000000E+00  0.00000000000E+00  0.11376619318E+04  0.27144044610E+04  0.24644912065E+04 0.  0.
        3    1    3    3  502    0  0.10148836578E+04  0.29689230673E+03 -0.12801622302E+03  0.10651394482E+04  0.10100000352E+00 0.  1.
       -3    1    3    3    0  502 -0.10148836578E+04 -0.29689230673E+03  0.12656781548E+04  0.16492650128E+04  0.10100000352E+00 0. -1.
</event>
<event>
 5   0  0.3499642E-05  0.2572220E+04  0.7818609E-02  0.8377699E-01
        2   -1    0    0  501    0  0.00000000000E+00  0.00000000000E+00  0.12010872757E+04  0.12010872757E+04  0.25500000920E-02 0.  1.
       -2   -1    0    0    0  501  0.00000000000E+00  0.00000000000E+00 -0.13771512616E+04  0.13771512616E+04  0.25500000920E-02 0. -1.
    10030    2    1    2    0    0  0.00000000000E+00  0.00000000000E+00 -0.17606398586E+03  0.25782385373E+04  0.25722199416E+04 0.  0.
        2    1    3    3  502    0  0.12008134195E+04 -0.11410818381E+03  0.35922425583E+03  0.12585768201E+04  0.25500000920E-02 0.  1.
       -2    1    3    3    0  502 -0.12008134195E+04  0.11410818381E+03 -0.53528824169E+03  0.13196617172E+04  0.25500000920E-02 0. -1.
</event>
<event>
 5   0  0.1474554E-05  0.2610402E+04  0.7818609E-02  0.8364677E-01
       -1   -1    0    0    0  501  0.00000000000E+00  0.00000000000E+00  0.97024319412E+03  0.97024319413E+03  0.50400001928E-02 0. -1.
        1   -1    0    0  501    0  0.00000000000E+00  0.00000000000E+00 -0.17557959125E+04  0.17557959125E+04  0.50400001928E-02 0.  1.
    10030    2    1    2    0    0  0.00000000000E+00  0.00000000000E+00 -0.78555271834E+03  0.27260391066E+04  0.26104015280E+04 0.  0.
        5    1    3    3  502    0  0.25325312964E+03 -0.48078213534E+02 -0.17289395095E+04  0.17480568011E+04  0.46999998093E+01 0.  1.
       -5    1    3    3    0  502 -0.25325312964E+03  0.48078213534E+02  0.94338679113E+03  0.97798230555E+03  0.46999998093E+01 0. -1.
</event>
<event>
 5   0  0.1435062E-05  0.2513777E+04  0.7818609E-02  0.8398094E-01
       -1   -1    0    0    0  501  0.00000000000E+00  0.00000000000E+00  0.13295412508E+04  0.13295412508E+04  0.50400001928E-02 0. -1.
        1   -1    0    0  501    0  0.00000000000E+00  0.00000000000E+00 -0.11882054209E+04  0.11882054210E+04  0.50400001928E-02 0.  1.
    10030    2    1    2    0    0  0.00000000000E+00  0.00000000000E+00  0.14133582989E+03  0.25177466718E+04  0.25137765387E+04 0.  0.
        2    1    3    3  502    0 -0.10653088032E+04  0.58986116316E+03  0.38252614954E+03  0.12763797606E+04  0.25500000920E-02 0.  1.
       -2    1    3    3    0  502  0.10653088032E+04 -0.58986116316E+03 -0.24119031965E+03  0.12413669113E+04  0.25500000920E-02 0. -1.
</event>
<event>
 5   0  0.1497497E-05  0.2704133E+04  0.7818609E-02  0.8333665E-01
       -1   -1    0    0    0  501  0.00000000000E+00  0.00000000000E+00  0.19897582844E+04  0.19897582844E+04  0.50400001928E-02 0.  1.
        1   -1    0    0  501    0  0.00000000000E+00  0.00000000000E+00 -0.91874693955E+03  0.91874693956E+03  0.50400001928E-02 0. -1.
    10030    2    1    2    0    0  0.00000000000E+00  0.00000000000E+00  0.10710113448E+04  0.29085052240E+04  0.27041333800E+04 0.  0.
        3    1    3    3  502    0  0.13396707197E+04 -0.53414464414E+02  0.72338903950E+03  0.15234377095E+04  0.10100000352E+00 0.  1.
       -3    1    3    3    0  502 -0.13396707197E+04  0.53414464414E+02  0.34762230535E+03  0.13850675144E+04  0.10100000352E+00 0. -1.
</event>
<event>
 5   0  0.3849687E-05  0.2578284E+04  0.7818609E-02  0.8375615E-01
        2   -1    0    0  501    0  0.00000000000E+00  0.00000000000E+00  0.12811870446E+04  0.12811870446E+04  0.25500000920E-02 0.  1.
       -2   -1    0    0    0  501  0.00000000000E+00  0.00000000000E+00 -0.12971465054E+04  0.12971465054E+04  0.25500000920E-02 0. -1.
    10030    2    1    2    0    0  0.00000000000E+00  0.00000000000E+00 -0.15959460722E+02  0.25783335500E+04  0.25782841563E+04 0.  0.
        1    1    3    3  502    0 -0.73223833415E+03 -0.67012694576E+03 -0.83057934270E+03  0.12942585314E+04  0.50400001928E-02 0. -1.
       -1    1    3    3    0  502  0.73223833415E+03  0.67012694576E+03  0.81461988198E+03  0.12840750187E+04  0.50400001928E-02 0.  1.
</event>
<event>
 5   0  0.3499642E-05  0.2312608E+04  0.7818609E-02  0.8472966E-01
       -2   -1    0    0    0  501  0.00000000000E+00  0.00000000000E+00  0.83748860073E+03  0.83748860074E+03  0.25500000920E-02 0.  1.
        2   -1    0    0  501    0  0.00000000000E+00  0.00000000000E+00 -0.15964863290E+04  0.15964863290E+04  0.25500000920E-02 0. -1.
    10030    2    1    2    0    0  0.00000000000E+00  0.00000000000E+00 -0.75899772822E+03  0.24339749297E+04  0.23126081395E+04 0.  0.
        2    1    3    3  502    0 -0.27019883472E+03  0.14132784125E+03  0.79441001657E+03  0.85092199609E+03  0.25500000920E-02 0.  1.
       -2    1    3    3    0  502  0.27019883472E+03 -0.14132784125E+03 -0.15534077448E+04  0.15830529336E+04  0.25500000920E-02 0. -1.
</event>
<event>
 5   0  0.1497497E-05  0.2583358E+04  0.7818609E-02  0.8373876E-01
       -1   -1    0    0    0  501  0.00000000000E+00  0.00000000000E+00  0.13510446791E+04  0.13510446791E+04  0.50400001928E-02 0. -1.
        1   -1    0    0  501    0  0.00000000000E+00  0.00000000000E+00 -0.12349216053E+04  0.12349216053E+04  0.50400001928E-02 0.  1.
    10030    2    1    2    0    0  0.00000000000E+00  0.00000000000E+00  0.11612307376E+03  0.25859662844E+04  0.25833577096E+04 0.  0.
        3    1    3    3  502    0  0.28018557139E+03  0.25691129454E+03  0.12937823973E+04  0.13484733106E+04  0.10100000352E+00 0. -1.
       -3    1    3    3    0  502 -0.28018557139E+03 -0.25691129454E+03 -0.11776593235E+04  0.12374929738E+04  0.10100000352E+00 0.  1.
</event>
<event>
 5   0  0.3849687E-05  0.2634422E+04  0.7818609E-02  0.8356602E-01
        2   -1    0    0  501    0  0.00000000000E+00  0.00000000000E+00  0.23927736634E+04  0.23927736634E+04  0.25500000920E-02 0. -1.
       -2   -1    0    0    0  501  0.00000000000E+00  0.00000000000E+00 -0.72511851366E+03  0.72511851366E+03  0.25500000920E-02 0.  1.
    10030    2    1    2    0    0  0.00000000000E+00  0.00000000000E+00  0.16676551498E+04  0.31178921771E+04  0.26344217448E+04 0.  0.
        1    1    3    3  502    0 -0.10586229222E+04  0.66482330260E+03  0.34245704167E+03  0.12961285972E+04  0.50400001928E-02 0.  1.
       -1    1    3    3    0  502  0.10586229222E+04 -0.66482330260E+03  0.13251981081E+04  0.18217635799E+04  0.50400001928E-02 0. -1.
</event>
<event>
 5   0  0.1451052E-05  0.2527781E+04  0.7818609E-02  0.8393155E-01
        1   -1    0    0  501    0  0.00000000000E+00  0.00000000000E+00  0.20079125528E+04  0.20079125528E+04  0.50400001928E-02 0. -1.
       -1   -1    0    0    0  501  0.00000000000E+00  0.00000000000E+00 -0.79556189455E+03  0.79556189456E+03  0.50400001928E-02 0.  1.
    10030    2    1    2    0    0  0.00000000000E+00  0.00000000000E+00  0.12123506582E+04  0.28034744473E+04  0.25277806191E+04 0.  0.
        1    1    3    3  502    0  0.11490631651E+04 -0.38165054998E+03  0.10082256171E+04  0.15756021689E+04  0.50400001928E-02 0. -1.
       -1    1    3    3    0  502 -0.11490631651E+04  0.38165054998E+03  0.20412504112E+03  0.12278722784E+04  0.50400001928E-02 0.  1.
</event>
<event>
 5   0  0.1497497E-05  0.2339666E+04  0.7818609E-02  0.8462444E-01
        1   -1    0    0  501    0  0.00000000000E+00  0.00000000000E+00  0.68739026778E+03  0.68739026780E+03  0.50400001928E-02 0. -1.
       -1   -1    0    0    0  501  0.00000000000E+00  0.00000000000E+00 -0.19908768685E+04  0.19908768685E+04  0.50400001928E-02 0.  1.
    10030    2    1    2    0    0  0.00000000000E+00  0.00000000000E+00 -0.13034866007E+04  0.26782671363E+04  0.23396661162E+04 0.  0.
        3    1    3    3  502    0  0.36337091265E+03 -0.85812285966E+03 -0.14612617395E+04  0.17331183295E+04  0.10100000352E+00 0.  1.
       -3    1    3    3    0  502 -0.36337091265E+03  0.85812285966E+03  0.15777513878E+03  0.94514880683E+03  0.10100000352E+00 0. -1.
</event>
<event>
 5   0  0.3441646E-05  0.2612407E+04  0.7818609E-02  0.8363999E-01
       -2   -1    0    0    0  501  0.00000000000E+00  0.00000000000E+00  0.11067445817E+04  0.11067445817E+04  0.25500000920E-02 0.  1.
        2   -1    0    0  501    0  0.00000000000E+00  0.00000000000E+00 -0.15416096862E+04  0.15416096862E+04  0.25500000920E-02 0. -1.
    10030    2    1    2    0    0  0.00000000000E+00  0.00000000000E+00 -0.43486510446E+03  0.26483542679E+04  0.26124074470E+04 0.  0.
        4    1    3    3  502    0  0.88573771375E+03 -0.42296959137E+03  0.65624510418E+03  0.11807175032E+04  0.12699999809E+01 0.  1.
       -4    1    3    3    0  502 -0.88573771375E+03  0.42296959137E+03 -0.10911102086E+04  0.14676367647E+04  0.12699999809E+01 0. -1.
</event>
<event>
 5   0  0.1217200E-05  0.2578136E+04  0.7818609E-02  0.8375666E-01
        4   -1    0    0  501    0  0.00000000000E+00  0.00000000000E+00  0.21258722940E+04  0.21258726733E+04  0.12699999809E+01 0. -1.
       -4   -1    0    0    0  501  0.00000000000E+00  0.00000000000E+00 -0.78165304205E+03  0.78165407377E+03  0.12699999809E+01 0.  1.
    10030    2    1    2    0    0  0.00000000000E+00  0.00000000000E+00  0.13442192519E+04  0.29075267471E+04  0.25781362237E+04 0.  0.
        4    1    3    3  502    0  0.11074877944E+04  0.55048948428E+03  0.10820434975E+04  0.16432856205E+04  0.12699999809E+01 0. -1.
       -4    1    3    3    0  502 -0.11074877944E+04 -0.55048948428E+03  0.26217575447E+03  0.12642411266E+04  0.12699999809E+01 0.  1.
</event>
<event>
 5   0  0.3849687E-05  0.2180324E+04  0.7818609E-02  0.8526663E-01
       -2   -1    0    0    0  501  0.00000000000E+00  0.00000000000E+00  0.42643814295E+03  0.42643814296E+03  0.25500000920E-02 0.  1.
        2   -1    0    0  501    0  0.00000000000E+00  0.00000000000E+00 -0.27869286005E+04  0.27869286005E+04  0.25500000920E-02 0. -1.
    10030    2    1    2    0    0  0.00000000000E+00  0.00000000000E+00 -0.23604904575E+04  0.32133667434E+04  0.21803235145E+04 0.  0.
        1    1    3    3  502    0 -0.55002044283E+03  0.10868137941E+02 -0.25673528206E+04  0.26256315639E+04  0.50400001928E-02 0. -1.
       -1    1    3    3    0  502  0.55002044283E+03 -0.10868137941E+02  0.20686236309E+03  0.58773517951E+03  0.50400001928E-02 0.  1.
</event>
<event>
 5   0  0.3508470E-05  0.2607363E+04  0.7818609E-02  0.8365704E-01
        2   -1    0    0  501    0  0.00000000000E+00  0.00000000000E+00  0.15233731922E+04  0.15233731922E+04  0.25500000920E-02 0.  1.
       -2   -1    0    0    0  501  0.00000000000E+00  0.00000000000E+00 -0.11156727931E+04  0.11156727931E+04  0.25500000920E-02 0. -1.
    10030    2    1    2    0    0  0.00000000000E+00  0.00000000000E+00  0.40770039914E+03  0.26390459853E+04  0.26073634378E+04 0.  0.
        5    1    3    3  502    0 -0.13752693558E+03  0.77972651582E+03  0.12521363254E+04  0.14814704063E+04  0.46999998093E+01 0.  1.
       -5    1    3    3    0  502  0.13752693558E+03 -0.77972651582E+03 -0.84443592623E+03  0.11575755790E+04  0.46999998093E+01 0. -1.
</event>
<event>
 5   0  0.3441646E-05  0.2781641E+04  0.7818609E-02  0.8308991E-01
       -2   -1    0    0    0  501  0.00000000000E+00  0.00000000000E+00  0.94743425969E+03  0.94743425969E+03  0.25500000920E-02 0. -1.
        2   -1    0    0  501    0  0.00000000000E+00  0.00000000000E+00 -0.20417059180E+04  0.20417059180E+04  0.25500000920E-02 0.  1.
    10030    2    1    2    0    0  0.00000000000E+00  0.00000000000E+00 -0.10942716583E+04  0.29891401777E+04  0.27816413391E+04 0.  0.
        4    1    3    3  502    0 -0.11920270612E+03  0.26695730320E+03 -0.20083115681E+04  0.20294808337E+04  0.12699999809E+01 0.  1.
       -4    1    3    3    0  502  0.11920270612E+03 -0.26695730320E+03  0.91403990980E+03  0.95965934398E+03  0.12699999809E+01 0. -1.
</event>
<event>
 5   0  0.1497497E-05  0.2661877E+04  0.7818609E-02  0.8347481E-01
       -1   -1    0    0    0  501  0.00000000000E+00  0.00000000000E+00  0.10141697509E+04  0.10141697509E+04  0.50400001928E-02 0. -1.
        1   -1    0    0  501    0  0.00000000000E+00  0.00000000000E+00 -0.17466483800E+04  0.17466483800E+04  0.50400001928E-02 0.  1.
    10030    2    1    2    0    0  0.00000000000E+00  0.00000000000E+00 -0.73247862915E+03  0.27608181309E+04  0.26618774972E+04 0.  0.
        3    1    3    3  502    0 -0.66638253344E+03 -0.73442871013E+03 -0.12868969571E+04  0.16246707357E+04  0.10100000352E+00 0.  1.
       -3    1    3    3    0  502  0.66638253344E+03  0.73442871013E+03  0.55441832792E+03  0.11361473952E+04  0.10100000352E+00 0. -1.
</event>
<event>
 5   0  0.1497497E-05  0.2590512E+04  0.7818609E-02  0.8371431E-01
       -1   -1    0    0    0  501  0.00000000000E+00  0.00000000000E+00  0.89413892688E+03  0.89413892690E+03  0.50400001928E-02 0.  1.
        1   -1    0    0  501    0  0.00000000000E+00  0.00000000000E+00 -0.18763174410E+04  0.18763174410E+04  0.50400001928E-02 0. -1.
    10030    2    1    2    0    0  0.00000000000E+00  0.00000000000E+00 -0.98217851414E+03  0.27704563679E+04  0.25905122762E+04 0.  0.
        3    1    3    3  502    0  0.57791539987E+03  0.11455173657E+04 -0.68087658858E+03  0.14525113368E+04  0.10100000352E+00 0. -1.
       -3    1    3    3    0  502 -0.57791539987E+03 -0.11455173657E+04 -0.30130192556E+03  0.13179450311E+04  0.10100000352E+00 0.  1.
</event>
<event>
 5   0  0.3647623E-05  0.2605285E+04  0.7818609E-02  0.8366408E-01
       -2   -1    0    0    0  501  0.00000000000E+00  0.00000000000E+00  0.11882528208E+04  0.11882528208E+04  0.25500000920E-02 0.  1.
        2   -1    0    0  501    0  0.00000000000E+00  0.00000000000E+00 -0.14280438176E+04  0.14280438176E+04  0.25500000920E-02 0. -1.
    10030    2    1    2    0    0  0.00000000000E+00  0.00000000000E+00 -0.23979099671E+03  0.26162966384E+04  0.26052847019E+04 0.  0.
        3    1    3    3  502    0  0.78380285564E+03  0.83768889647E+03  0.49980882980E+03  0.12513506624E+04  0.10100000352E+00 0.  1.
       -3    1    3    3    0  502 -0.78380285564E+03 -0.83768889647E+03 -0.73959982651E+03  0.13649459760E+04  0.10100000352E+00 0. -1.
</event>
<event>
 5   0  0.3441646E-05  0.2582826E+04  0.7818609E-02  0.8374058E-01
        2   -1    0    0  501    0  0.00000000000E+00  0.00000000000E+00  0.16856992061E+04  0.16856992061E+04  0.25500000920E-02 0. -1.
       -2   -1    0    0    0  501  0.00000000000E+00  0.00000000000E+00 -0.98935055412E+03  0.98935055413E+03  0.25500000920E-02 0.  1.
    10030    2    1    2    0    0  0.00000000000E+00  0.00000000000E+00  0.69634865200E+03  0.26750497602E+04  0.25828259281E+04 0.  0.
        4    1    3    3  502    0 -0.39046102572E+03 -0.11781655256E+04 -0.21228989491E+02  0.12413646125E+04  0.12699999809E+01 0.  1.
       -4    1    3    3    0  502  0.39046102572E+03  0.11781655256E+04  0.71757764149E+03  0.14336851477E+04  0.12699999809E+01 0. -1.
</event>
<event>
 5   0  0.1435062E-05  0.2640496E+04  0.7818609E-02  0.8354574E-01
       -1   -1    0    0    0  501  0.00000000000E+00  0.00000000000E+00  0.55143807874E+03  0.55143807877E+03  0.50400001928E-02 0. -1.
        1   -1    0    0  501    0  0.00000000000E+00  0.00000000000E+00 -0.31609264834E+04  0.31609264834E+04  0.50400001928E-02 0.  1.
    10030    2    1    2    0    0  0.00000000000E+00  0.00000000000E+00 -0.26094884047E+04  0.37123645622E+04  0.26404963375E+04 0.  0.
        2    1    3    3  502    0  0.57998051955E+03  0.11737892263E+04 -0.15437393018E+04  0.20241762726E+04  0.25500000920E-02 0. -1.
       -2    1    3    3    0  502 -0.57998051955E+03 -0.11737892263E+04 -0.10657491029E+04  0.16881882896E+04  0.25500000920E-02 0.  1.
</event>
<event>
 5   0  0.1451052E-05  0.2576570E+04  0.7818609E-02  0.8376204E-01
        1   -1    0    0  501    0  0.00000000000E+00  0.00000000000E+00  0.12998492815E+04  0.12998492815E+04  0.50400001928E-02 0.  1.
       -1   -1    0    0    0  501  0.00000000000E+00  0.00000000000E+00 -0.12768238093E+04  0.12768238093E+04  0.50400001928E-02 0. -1.
    10030    2    1    2    0    0  0.00000000000E+00  0.00000000000E+00  0.23025472191E+02  0.25766730908E+04  0.25765702095E+04 0.  0.
        1    1    3    3  502    0  0.34096440080E+03  0.10532707695E+04 -0.64733257021E+03  0.12824490216E+04  0.50400001928E-02 0. -1.
       -1    1    3    3    0  502 -0.34096440080E+03 -0.10532707695E+04  0.67035804240E+03  0.12942240693E+04  0.50400001928E-02 0.  1.
</event>
<event>
 5   0  0.1435062E-05  0.2171775E+04  0.7818609E-02  0.8530269E-01
        1   -1    0    0  501    0  0.00000000000E+00  0.00000000000E+00  0.18000184858E+04  0.18000184858E+04  0.50400001928E-02 0.  1.
       -1   -1    0    0    0  501  0.00000000000E+00  0.00000000000E+00 -0.65507732994E+03  0.65507732996E+03  0.50400001928E-02 0. -1.
    10030    2    1    2    0    0  0.00000000000E+00  0.00000000000E+00  0.11449411559E+04  0.24550958158E+04  0.21717746693E+04 0.  0.
        2    1    3    3  502    0 -0.10736382370E+04 -0.14349489750E+03  0.65901844338E+03  0.12679097595E+04  0.25500000920E-02 0.  1.
       -2    1    3    3    0  502  0.10736382370E+04  0.14349489750E+03  0.48592271251E+03  0.11871860563E+04  0.25500000920E-02 0. -1.
</event>
<event>
 5   0  0.3441646E-05  0.2576912E+04  0.7818609E-02  0.8376086E-01
        2   -1    0    0  501    0  0.00000000000E+00  0.00000000000E+00  0.17700916372E+04  0.17700916372E+04  0.25500000920E-02 0.  1.
       -2   -1    0    0    0  501  0.00000000000E+00  0.00000000000E+00 -0.93787176261E+03  0.93787176261E+03  0.25500000920E-02 0. -1.
    10030    2    1    2    0    0  0.00000000000E+00  0.00000000000E+00  0.83221987459E+03  0.27079633998E+04  0.25769120775E+04 0.  0.
        4    1    3    3  502    0 -0.15679954386E+03 -0.72161277864E+03 -0.69342986705E+03  0.10129944189E+04  0.12699999809E+01 0. -1.
       -4    1    3    3    0  502  0.15679954386E+03  0.72161277864E+03  0.15256497416E+04  0.16949689809E+04  0.12699999809E+01 0.  1.
</event>
<event>
 5   0  0.3441646E-05  0.2585431E+04  0.7818609E-02  0.8373167E-01
        2   -1    0    0  501    0  0.00000000000E+00  0.00000000000E+00  0.23954936922E+04  0.23954936922E+04  0.25500000920E-02 0.  1.
       -2   -1    0    0    0  501  0.00000000000E+00  0.00000000000E+00 -0.69760690850E+03  0.69760690851E+03  0.25500000920E-02 0. -1.
    10030    2    1    2    0    0  0.00000000000E+00  0.00000000000E+00  0.16978867837E+04  0.30931006007E+04  0.25854306790E+04 0.  0.
        4    1    3    3  502    0 -0.57230086877E+03 -0.67828179374E+03  0.19734669760E+04  0.21638317852E+04  0.12699999809E+01 0.  1.
       -4    1    3    3    0  502  0.57230086877E+03  0.67828179374E+03 -0.27558019238E+03  0.92926881550E+03  0.12699999809E+01 0. -1.
</event>
<event>
 5   0  0.3508470E-05  0.2499788E+04  0.7818609E-02  0.8403061E-01
        2   -1    0    0  501    0  0.00000000000E+00  0.00000000000E+00  0.85741390223E+03  0.85741390223E+03  0.25500000920E-02 0.  1.
       -2   -1    0    0    0  501  0.00000000000E+00  0.00000000000E+00 -0.18220315015E+04  0.18220315015E+04  0.25500000920E-02 0. -1.
    10030    2    1    2    0    0  0.00000000000E+00  0.00000000000E+00 -0.96461759927E+03  0.26794454037E+04  0.24997881028E+04 0.  0.
        5    1    3    3  502    0  0.50840409562E+03  0.10909949968E+04 -0.84336838508E+03  0.14697064776E+04  0.46999998093E+01 0. -1.
       -5    1    3    3    0  502 -0.50840409562E+03 -0.10909949968E+04 -0.12124921420E+03  0.12097389261E+04  0.46999998093E+01 0.  1.
</event>
<event>
 5   0  0.1497497E-05  0.2546901E+04  0.7818609E-02  0.8386465E-01
       -1   -1    0    0    0  501  0.00000000000E+00  0.00000000000E+00  0.16836415043E+04  0.16836415043E+04  0.50400001928E-02 0. -1.
        1   -1    0    0  501    0  0.00000000000E+00  0.00000000000E+00 -0.96319572517E+03  0.96319572519E+03  0.50400001928E-02 0.  1.
    10030    2    1    2    0    0  0.00000000000E+00  0.00000000000E+00  0.72044577914E+03  0.26468372295E+04  0.25469010972E+04 0.  0.
        3    1    3    3  502    0 -0.82307292741E+03  0.62013418199E+03  0.11376821035E+04  0.15350361645E+04  0.10100000352E+00 0.  1.
       -3    1    3    3    0  502  0.82307292741E+03 -0.62013418199E+03 -0.41723632439E+03  0.11118010650E+04  0.10100000352E+00 0. -1.
</event>
<event>
 5   0  0.1435062E-05  0.2579420E+04  0.7818609E-02  0.8375226E-01
       -1   -1    0    0    0  501  0.00000000000E+00  0.00000000000E+00  0.14976403153E+04  0.14976403153E+04  0.50400001928E-02 0. -1.
        1   -1    0    0  501    0  0.00000000000E+00  0.00000000000E+00 -0.11106481260E+04  0.11106481260E+04  0.50400001928E-02 0.  1.
    10030    2    1    2    0    0  0.00000000000E+00  0.00000000000E+00  0.38699218927E+03  0.26082884413E+04  0.25794196321E+04 0.  0.
        2    1    3    3  502    0 -0.81785426773E+03 -0.13446747880E+02 -0.81480225826E+03  0.11545428266E+04  0.25500000920E-02 0.  1.
       -2    1    3    3    0  502  0.81785426773E+03  0.13446747880E+02  0.12017944475E+04  0.14537456147E+04  0.25500000920E-02 0. -1.
</event>
<event>
 5   0  0.3849687E-05  0.2616059E+04  0.7818609E-02  0.8362767E-01
        2   -1    0    0  501    0  0.00000000000E+00  0.00000000000E+00  0.21479576270E+04  0.21479576270E+04  0.25500000920E-02 0.  1.
       -2   -1    0    0    0  501  0.00000000000E+00  0.00000000000E+00 -0.79654335580E+03  0.79654335580E+03  0.25500000920E-02 0. -1.
    10030    2    1    2    0    0  0.00000000000E+00  0.00000000000E+00  0.13514142712E+04  0.29445009828E+04  0.26160591555E+04 0.  0.
        1    1    3    3  502    0  0.10167074660E+04 -0.38949575154E+03  0.14916639660E+04  0.18467437287E+04  0.50400001928E-02 0.  1.
       -1    1    3    3    0  502 -0.10167074660E+04  0.38949575154E+03 -0.14024969482E+03  0.10977572541E+04  0.50400001928E-02 0. -1.
</event>
<event>
 5   0  0.1533248E-05  0.2573042E+04  0.7818609E-02  0.8377416E-01
       -1   -1    0    0    0  501  0.00000000000E+00  0.00000000000E+00  0.78750474603E+03  0.78750474605E+03  0.50400001928E-02 0.  1.
        1   -1    0    0  501    0  0.00000000000E+00  0.00000000000E+00 -0.21017483848E+04  0.21017483848E+04  0.50400001928E-02 0. -1.
    10030    2    1    2    0    0  0.00000000000E+00  0.00000000000E+00 -0.13142436388E+04  0.28892531308E+04  0.25730424233E+04 0.  0.
        4    1    3    3  502    0 -0.13755682140E+03  0.25988746626E+03 -0.20635083427E+04  0.20843540169E+04  0.12699999809E+01 0. -1.
       -4    1    3    3    0  502  0.13755682140E+03 -0.25988746626E+03  0.74926470395E+03  0.80489911400E+03  0.12699999809E+01 0.  1.
</event>
<event>
 5   0  0.3441646E-05  0.2537188E+04  0.7818609E-02  0.8389856E-01
       -2   -1    0    0    0  501  0.00000000000E+00  0.00000000000E+00  0.93036861287E+03  0.93036861288E+03  0.25500000920E-02 0. -1.
        2   -1    0    0  501    0  0.00000000000E+00  0.00000000000E+00 -0.17297778355E+04  0.17297778355E+04  0.25500000920E-02 0.  1.
    10030    2    1    2    0    0  0.00000000000E+00  0.00000000000E+00 -0.79940922262E+03  0.26601464484E+04  0.25371882117E+04 0.  0.
        4    1    3    3  502    0  0.18455101861E+03  0.10685765523E+04  0.29054244426E+03  0.11226448465E+04  0.12699999809E+01 0. -1.
       -4    1    3    3    0  502 -0.18455101861E+03 -0.10685765523E+04 -0.10899516669E+04  0.15375016018E+04  0.12699999809E+01 0.  1.
</event>
<event>
 5   0  0.3499642E-05  0.2595333E+04  0.7818609E-02  0.8369788E-01
       -2   -1    0    0    0  501  0.00000000000E+00  0.00000000000E+00  0.71864668565E+03  0.71864668565E+03  0.25500000920E-02 0. -1.
        2   -1    0    0  501    0  0.00000000000E+00  0.00000000000E+00 -0.23432073411E+04  0.23432073411E+04  0.25500000920E-02 0.  1.
    10030    2    1    2    0    0  0.00000000000E+00  0.00000000000E+00 -0.16245606554E+04  0.30618540267E+04  0.25953328800E+04 0.  0.
        2    1    3    3  502    0 -0.95911337258E+03 -0.77315300890E+03 -0.12933453545E+04  0.17861708324E+04  0.25500000920E-02 0.  1.
       -2    1    3    3    0  502  0.95911337258E+03  0.77315300890E+03 -0.33121530094E+03  0.12756831943E+04  0.25500000920E-02 0. -1.
</event>
<event>
 5   0  0.1533248E-05  0.2766387E+04  0.7818609E-02  0.8313780E-01
        1   -1    0    0  501    0  0.00000000000E+00  0.00000000000E+00  0.17534846137E+04  0.17534846137E+04  0.50400001928E-02 0. -1.
       -1   -1    0    0    0  501  0.00000000000E+00  0.00000000000E+00 -0.10910985998E+04  0.10910985998E+04  0.50400001928E-02 0.  1.
    10030    2    1    2    0    0  0.00000000000E+00  0.00000000000E+00  0.66238601393E+03  0.28445832135E+04  0.27663872519E+04 0.  0.
        4    1    3    3  502    0  0.57646514442E+03  0.12104698641E+04 -0.18528924212E+02  0.13408558046E+04  0.12699999809E+01 0.  1.
       -4    1    3    3    0  502 -0.57646514442E+03 -0.12104698641E+04  0.68091493815E+03  0.15037274090E+04  0.12699999809E+01 0. -1.
</event>
<event>
 5   0  0.3441646E-05  0.2617505E+04  0.7818609E-02  0.8362279E-01
        2   -1    0    0  501    0  0.00000000000E+00  0.00000000000E+00  0.70166493713E+03  0.70166493713E+03  0.25500000920E-02 0. -1.
       -2   -1    0    0    0  501  0.00000000000E+00  0.00000000000E+00 -0.24410990150E+04  0.24410990150E+04  0.25500000920E-02 0.  1.
    10030    2    1    2    0    0  0.00000000000E+00  0.00000000000E+00 -0.17394340779E+04  0.31427639522E+04  0.26175053673E+04 0.  0.
        4    1    3    3  502    0  0.86855347773E+03  0.48202737138E+03  0.15339062286E+03  0.10051198070E+04  0.12699999809E+01 0. -1.
       -4    1    3    3    0  502 -0.86855347773E+03 -0.48202737138E+03 -0.18928247007E+04  0.21376441451E+04  0.12699999809E+01 0.  1.
</event>
<event>
 5   0  0.1497497E-05  0.2573591E+04  0.7818609E-02  0.8377227E-01
       -1   -1    0    0    0  501  0.00000000000E+00  0.00000000000E+00  0.13298311370E+04  0.13298311370E+04  0.50400001928E-02 0. -1.
        1   -1    0    0  501    0  0.00000000000E+00  0.00000000000E+00 -0.12451524707E+04  0.12451524707E+04  0.50400001928E-02 0.  1.
    10030    2    1    2    0    0  0.00000000000E+00  0.00000000000E+00  0.84678666292E+02  0.25749836077E+04  0.25735908967E+04 0.  0.
        3    1    3    3  502    0 -0.69807108521E+03  0.10425530563E+04  0.32819028217E+03  0.12968920490E+04  0.10100000352E+00 0. -1.
       -3    1    3    3    0  502  0.69807108521E+03 -0.10425530563E+04 -0.24351161587E+03  0.12780915587E+04  0.10100000352E+00 0.  1.
</event>
<event>
 5   0  0.3508470E-05  0.2594856E+04  0.7818609E-02  0.8369951E-01
       -2   -1    0    0    0  501  0.00000000000E+00  0.00000000000E+00  0.63617222726E+03  0.63617222726E+03  0.25500000920E-02 0.  1.
        2   -1    0    0  501    0  0.00000000000E+00  0.00000000000E+00 -0.26460113669E+04  0.26460113669E+04  0.25500000920E-02 0. -1.
    10030    2    1    2    0    0  0.00000000000E+00  0.00000000000E+00 -0.20098391396E+04  0.32821835942E+04  0.25948556373E+04 0.  0.
        5    1    3    3  502    0 -0.10020951855E+04 -0.39080463550E+03 -0.87227848317E+02  0.10791449446E+04  0.46999998093E+01 0.  1.
       -5    1    3    3    0  502  0.10020951855E+04  0.39080463550E+03 -0.19226112913E+04  0.22030386496E+04  0.46999998093E+01 0. -1.
</event>
<event>
 5   0  0.3508470E-05  0.2601345E+04  0.7818609E-02  0.8367744E-01
       -2   -1    0    0    0  501  0.00000000000E+00  0.00000000000E+00  0.15755986327E+04  0.15755986327E+04  0.25500000920E-02 0.  1.
        2   -1    0    0  501    0  0.00000000000E+00  0.00000000000E+00 -0.10737183666E+04  0.10737183666E+04  0.25500000920E-02 0. -1.
    10030    2    1    2    0    0  0.00000000000E+00  0.00000000000E+00  0.50188026602E+03  0.26493169993E+04  0.26013451830E+04 0.  0.
        5    1    3    3  502    0  0.63408549293E+03  0.11221427741E+04  0.73198712544E+02  0.12909875907E+04  0.46999998093E+01 0.  1.
       -5    1    3    3    0  502 -0.63408549293E+03 -0.11221427741E+04  0.42868155348E+03  0.13583294086E+04  0.46999998093E+01 0. -1.
</event>
<event>
 5   0  0.3849687E-05  0.2552072E+04  0.7818609E-02  0.8384666E-01
       -2   -1    0    0    0  501  0.00000000000E+00  0.00000000000E+00  0.65843785487E+03  0.65843785488E+03  0.25500000920E-02 0.  1.
        2   -1    0    0  501    0  0.00000000000E+00  0.00000000000E+00 -0.24729256349E+04  0.24729256349E+04  0.25500000920E-02 0. -1.
    10030    2    1    2    0    0  0.00000000000E+00  0.00000000000E+00 -0.18144877800E+04  0.31313634897E+04  0.25520719820E+04 0.  0.
        1    1    3    3  502    0  0.10993006738E+04 -0.13619782445E+03 -0.16844771031E+04  0.20160542973E+04  0.50400001928E-02 0. -1.
       -1    1    3    3    0  502 -0.10993006738E+04  0.13619782445E+03 -0.13001067693E+03  0.11153091925E+04  0.50400001928E-02 0.  1.
</event>
<event>
 5   0  0.1533248E-05  0.2752943E+04  0.7818609E-02  0.8318028E-01
        1   -1    0    0  501    0  0.00000000000E+00  0.00000000000E+00  0.15679242599E+04  0.15679242599E+04  0.50400001928E-02 0. -1.
       -1   -1    0    0    0  501  0.00000000000E+00  0.00000000000E+00 -0.12083964289E+04  0.12083964289E+04  0.50400001928E-02 0.  1.
    10030    2    1    2    0    0  0.00000000000E+00  0.00000000000E+00  0.35952783100E+03  0.27763206888E+04  0.27529432079E+04 0.  0.
        4    1    3    3  502    0 -0.95029117305E+03  0.43240295163E+03  0.10844023423E+04  0.15053091640E+04  0.12699999809E+01 0. -1.
       -4    1    3    3    0  502  0.95029117305E+03 -0.43240295163E+03 -0.72487451133E+03  0.12710115248E+04  0.12699999809E+01 0.  1.
</event>
<event>
 5   0  0.1497497E-05  0.2611571E+04  0.7818609E-02  0.8364281E-01
       -1   -1    0    0    0  501  0.00000000000E+00  0.00000000000E+00  0.11039520929E+04  0.11039520929E+04  0.50400001928E-02 0.  1.
        1   -1    0    0  501    0  0.00000000000E+00  0.00000000000E+00 -0.15445194415E+04  0.15445194415E+04  0.50400001928E-02 0. -1.
    10030    2    1    2    0    0  0.00000000000E+00  0.00000000000E+00 -0.44056734861E+03  0.26484715344E+04  0.26115707687E+04 0.  0.
        3    1    3    3  502    0 -0.85811481501E+03 -0.50486849555E+03  0.63653425129E+03  0.11817060112E+04  0.10100000352E+00 0.  1.
       -3    1    3    3    0  502  0.85811481501E+03  0.50486849555E+03 -0.10771015999E+04  0.14667655233E+04  0.10100000352E+00 0. -1.
</event>
<event>
 5   0  0.1497497E-05  0.2433689E+04  0.7818609E-02  0.8426998E-01
        1   -1    0    0  501    0  0.00000000000E+00  0.00000000000E+00  0.86661359880E+03  0.86661359881E+03  0.50400001928E-02 0. -1.
       -1   -1    0    0    0  501  0.00000000000E+00  0.00000000000E+00 -0.17086161206E+04  0.17086161206E+04  0.50400001928E-02 0.  1.
    10030    2    1    2    0    0  0.00000000000E+00  0.00000000000E+00 -0.84200252179E+03  0.25752297194E+04  0.24336885300E+04 0.  0.
        3    1    3    3  502    0  0.55373394923E+03  0.41357167442E+03  0.63876881415E+03  0.94111020850E+03  0.10100000352E+00 0. -1.
       -3    1    3    3    0  502 -0.55373394923E+03 -0.41357167442E+03 -0.14807713359E+04  0.16341195109E+04  0.10100000352E+00 0.  1.
</event>
<event>
 5   0  0.3441646E-05  0.2539033E+04  0.7818609E-02  0.8389210E-01
       -2   -1    0    0    0  501  0.00000000000E+00  0.00000000000E+00  0.97921274572E+03  0.97921274573E+03  0.25500000920E-02 0. -1.
        2   -1    0    0  501    0  0.00000000000E+00  0.00000000000E+00 -0.16458853622E+04  0.16458853623E+04  0.25500000920E-02 0.  1.
    10030    2    1    2    0    0  0.00000000000E+00  0.00000000000E+00 -0.66667261652E+03  0.26250981080E+04  0.25390328275E+04 0.  0.
        4    1    3    3  502    0 -0.10584799670E+04 -0.48966077836E+03  0.18518415073E+03  0.11808650647E+04  0.12699999809E+01 0. -1.
       -4    1    3    3    0  502  0.10584799670E+04  0.48966077836E+03 -0.85185676725E+03  0.14442330433E+04  0.12699999809E+01 0.  1.
</event>
<event>
 5   0  0.1474554E-05  0.2534031E+04  0.7818609E-02  0.8390961E-01
       -1   -1    0    0    0  501  0.00000000000E+00  0.00000000000E+00  0.11349243305E+04  0.11349243305E+04  0.50400001928E-02 0. -1.
        1   -1    0    0  501    0  0.00000000000E+00  0.00000000000E+00 -0.14144804198E+04  0.14144804198E+04  0.50400001928E-02 0.  1.
    10030    2    1    2    0    0  0.00000000000E+00  0.00000000000E+00 -0.27955608928E+03  0.25494047503E+04  0.25340309734E+04 0.  0.
        5    1    3    3  502    0 -0.53472371622E+03  0.11373206901E+04  0.22065414638E+02  0.12569553601E+04  0.46999998093E+01 0. -1.
       -5    1    3    3    0  502  0.53472371622E+03 -0.11373206901E+04 -0.30162150392E+03  0.12924493902E+04  0.46999998093E+01 0.  1.
</event>
<event>
 5   0  0.1533248E-05  0.2695037E+04  0.7818609E-02  0.8336617E-01
       -1   -1    0    0    0  501  0.00000000000E+00  0.00000000000E+00  0.14003774517E+04  0.14003774517E+04  0.50400001928E-02 0. -1.
        1   -1    0    0  501    0  0.00000000000E+00  0.00000000000E+00 -0.12966543227E+04  0.12966543227E+04  0.50400001928E-02 0.  1.
    10030    2    1    2    0    0  0.00000000000E+00  0.00000000000E+00  0.10372312903E+03  0.26970317744E+04  0.26950365313E+04 0.  0.
        4    1    3    3  502    0  0.79123322942E+03 -0.25278822888E+03 -0.10099856913E+04  0.13076790973E+04  0.12699999809E+01 0.  1.
       -4    1    3    3    0  502 -0.79123322942E+03  0.25278822888E+03  0.11137088203E+04  0.13893526771E+04  0.12699999809E+01 0. -1.
</event>
<event>
 5   0  0.1435062E-05  0.2384388E+04  0.7818609E-02  0.8445372E-01
       -1   -1    0    0    0  501  0.00000000000E+00  0.00000000000E+00  0.14073263543E+04  0.14073263544E+04  0.50400001928E-02 0.  1.
        1   -1    0    0  501    0  0.00000000000E+00  0.00000000000E+00 -0.10099483982E+04  0.10099483982E+04  0.50400001928E-02 0. -1.
    10030    2    1    2    0    0  0.00000000000E+00  0.00000000000E+00  0.39737795613E+03  0.24172747526E+04  0.23843883890E+04 0.  0.
        2    1    3    3  502    0  0.32748624976E+03 -0.62265379319E+03  0.11744513655E+04  0.13690438269E+04  0.25500000920E-02 0.  1.
       -2    1    3    3    0  502 -0.32748624976E+03  0.62265379319E+03 -0.77707340939E+03  0.10482309257E+04  0.25500000920E-02 0. -1.
</event>
<event>
 5   0  0.3647623E-05  0.2595505E+04  0.7818609E-02  0.8369730E-01
       -2   -1    0    0    0  501  0.00000000000E+00  0.00000000000E+00  0.12464541969E+04  0.12464541969E+04  0.25500000920E-02 0. -1.
        2   -1    0    0  501    0  0.00000000000E+00  0.00000000000E+00 -0.13511621421E+04  0.13511621421E+04  0.25500000920E-02 0.  1.
    10030    2    1    2    0    0  0.00000000000E+00  0.00000000000E+00 -0.10470794518E+03  0.25976163389E+04  0.25955051321E+04 0.  0.
        3    1    3    3  502    0  0.95798687300E+03 -0.86087161539E+03  0.10690725289E+03  0.12923884702E+04  0.10100000352E+00 0.  1.
       -3    1    3    3    0  502 -0.95798687300E+03  0.86087161539E+03 -0.21161519806E+03  0.13052278687E+04  0.10100000352E+00 0. -1.
</event>
<event>
 5   0  0.3441646E-05  0.2586401E+04  0.7818609E-02  0.8372835E-01
        2   -1    0    0  501    0  0.00000000000E+00  0.00000000000E+00  0.15429014851E+04  0.15429014851E+04  0.25500000920E-02 0.  1.
       -2   -1    0    0    0  501  0.00000000000E+00  0.00000000000E+00 -0.10839106591E+04  0.10839106591E+04  0.25500000920E-02 0. -1.
    10030    2    1    2    0    0  0.00000000000E+00  0.00000000000E+00  0.45899082600E+03  0.26268121442E+04  0.25864008704E+04 0.  0.
        4    1    3    3  502    0  0.62938601612E+03  0.60503359157E+03 -0.73944090570E+03  0.11441009003E+04  0.12699999809E+01 0. -1.
       -4    1    3    3    0  502 -0.62938601612E+03 -0.60503359157E+03  0.11984317317E+04  0.14827112439E+04  0.12699999809E+01 0.  1.
</event>
<event>
 5   0  0.3849687E-05  0.2452996E+04  0.7818609E-02  0.8419925E-01
       -2   -1    0    0    0  501  0.00000000000E+00  0.00000000000E+00  0.74861837919E+03  0.74861837919E+03  0.25500000920E-02 0.  1.
        2   -1    0    0  501    0  0.00000000000E+00  0.00000000000E+00 -0.20094315901E+04  0.20094315901E+04  0.25500000920E-02 0. -1.
    10030    2    1    2    0    0  0.00000000000E+00  0.00000000000E+00 -0.12608132109E+04  0.27580499693E+04  0.24529960620E+04 0.  0.
        1    1    3    3  502    0 -0.24809754185E+03 -0.10826273799E+02  0.72005558959E+03  0.76167555469E+03  0.50400001928E-02 0.  1.
       -1    1    3    3    0  502  0.24809754185E+03  0.10826273799E+02 -0.19808688005E+04  0.19963744146E+04  0.50400001928E-02 0. -1.
</event>
<event>
 5   0  0.3647623E-05  0.2856942E+04  0.7818609E-02  0.8285805E-01
        2   -1    0    0  501    0  0.00000000000E+00  0.00000000000E+00  0.15145117930E+04  0.15145117930E+04  0.25500000920E-02 0.  1.
       -2   -1    0    0    0  501  0.00000000000E+00  0.00000000000E+00 -0.13473181296E+04  0.13473181296E+04  0.25500000920E-02 0. -1.
    10030    2    1    2    0    0  0.00000000000E+00  0.00000000000E+00  0.16719366343E+03  0.28618299226E+04  0.28569418589E+04 0.  0.
        3    1    3    3  502    0 -0.10082327962E+04  0.45955972998E+03  0.98669392465E+03  0.14836756478E+04  0.10100000352E+00 0.  1.
       -3    1    3    3    0  502  0.10082327962E+04 -0.45955972998E+03 -0.81950026122E+03  0.13781542748E+04  0.10100000352E+00 0. -1.
</event>
<event>
 5   0  0.1474554E-05  0.2595310E+04  0.7818609E-02  0.8369796E-01
        1   -1    0    0  501    0  0.00000000000E+00  0.00000000000E+00  0.17551827623E+04  0.17551827623E+04  0.50400001928E-02 0.  1.
       -1   -1    0    0    0  501  0.00000000000E+00  0.00000000000E+00 -0.95939190556E+03  0.95939190557E+03  0.50400001928E-02 0. -1.
    10030    2    1    2    0    0  0.00000000000E+00  0.00000000000E+00  0.79579085672E+03  0.27145746678E+04  0.25953097194E+04 0.  0.
        5    1    3    3  502    0 -0.12370100608E+04 -0.75930852181E+02  0.80018226743E+03  0.14752196907E+04  0.46999998093E+01 0.  1.
       -5    1    3    3    0  502  0.12370100608E+04  0.75930852181E+02 -0.43914107172E+01  0.12393549771E+04  0.46999998093E+01 0. -1.
</event>
<event>
 5   0  0.1533248E-05  0.2605264E+04  0.7818609E-02  0.8366415E-01
       -1   -1    0    0    0  501  0.00000000000E+00  0.00000000000E+00  0.72504398634E+03  0.72504398636E+03  0.50400001928E-02 0. -1.
        1   -1    0    0  501    0  0.00000000000E+00  0.00000000000E+00 -0.23403415383E+04  0.23403415383E+04  0.50400001928E-02 0.  1.
    10030    2    1    2    0    0  0.00000000000E+00  0.00000000000E+00 -0.16152975520E+04  0.30653855247E+04  0.26052643308E+04 0.  0.
        4    1    3    3  502    0  0.80724800574E+03  0.98042284960E+03 -0.46669379692E+03  0.13530273537E+04  0.12699999809E+01 0. -1.
       -4    1    3    3    0  502 -0.80724800574E+03 -0.98042284960E+03 -0.11486037550E+04  0.17123581710E+04  0.12699999809E+01 0.  1.
</event>
<event>
 5   0  0.1474554E-05  0.2626501E+04  0.7818609E-02  0.8359255E-01
       -1   -1    0    0    0  501  0.00000000000E+00  0.00000000000E+00  0.15810051415E+04  0.15810051415E+04  0.50400001928E-02 0. -1.
        1   -1    0    0  501    0  0.00000000000E+00  0.00000000000E+00 -0.10908422838E+04  0.10908422838E+04  0.50400001928E-02 0.  1.
    10030    2    1    2    0    0  0.00000000000E+00  0.00000000000E+00  0.49016285767E+03  0.26718474253E+04  0.26265012920E+04 0.  0.
        5    1    3    3  502    0  0.38951527611E+03 -0.74767281074E+03  0.12693758950E+04  0.15238353044E+04  0.46999998093E+01 0. -1.
       -5    1    3    3    0  502 -0.38951527611E+03  0.74767281074E+03 -0.77921303730E+03  0.11480121209E+04  0.46999998093E+01 0.  1.
</event>
<event>
 5   0  0.1451052E-05  0.2596521E+04  0.7818609E-02  0.8369384E-01
        1   -1    0    0  501    0  0.00000000000E+00  0.00000000000E+00  0.10784186671E+04  0.10784186671E+04  0.50400001928E-02 0. -1.
       -1   -1    0    0    0  501  0.00000000000E+00  0.00000000000E+00 -0.15629179636E+04  0.15629179637E+04  0.50400001928E-02 0.  1.
    10030    2    1    2    0    0  0.00000000000E+00  0.00000000000E+00 -0.48449929654E+03  0.26413366308E+04  0.25965206775E+04 0.  0.
        1    1    3    3  502    0 -0.89791598495E+03 -0.19359642403E+03 -0.11755529734E+04  0.14918637621E+04  0.50400001928E-02 0.  1.
       -1    1    3    3    0  502  0.89791598495E+03  0.19359642403E+03  0.69105367687E+03  0.11494728686E+04  0.50400001928E-02 0. -1.
</event>
<event>
 5   0  0.3441646E-05  0.2722259E+04  0.7818609E-02  0.8327819E-01
        2   -1    0    0  501    0  0.00000000000E+00  0.00000000000E+00  0.18346311859E+04  0.18346311860E+04  0.25500000920E-02 0. -1.
       -2   -1    0    0    0  501  0.00000000000E+00  0.00000000000E+00 -0.10098339862E+04  0.10098339862E+04  0.25500000920E-02 0.  1.
    10030    2    1    2    0    0  0.00000000000E+00  0.00000000000E+00  0.82479719977E+03  0.28444651721E+04  0.27222585650E+04 0.  0.
        4    1    3    3  502    0  0.85817117359E+03  0.72382147922E+03 -0.39175804069E+03  0.11890547810E+04  0.12699999809E+01 0.  1.
       -4    1    3    3    0  502 -0.85817117359E+03 -0.72382147922E+03  0.12165552405E+04  0.16554103911E+04  0.12699999809E+01 0. -1.
</event>
<event>
 5   0  0.3849687E-05  0.2602409E+04  0.7818609E-02  0.8367383E-01
       -2   -1    0    0    0  501  0.00000000000E+00  0.00000000000E+00  0.17668273713E+04  0.17668273713E+04  0.25500000920E-02 0.  1.
        2   -1    0    0  501    0  0.00000000000E+00  0.00000000000E+00 -0.95829014427E+03  0.95829014427E+03  0.25500000920E-02 0. -1.
    10030    2    1    2    0    0  0.00000000000E+00  0.00000000000E+00  0.80853722700E+03  0.27251175155E+04  0.26024090812E+04 0.  0.
        1    1    3    3  502    0  0.39927376585E+03 -0.50695124940E+03 -0.77892687427E+03  0.10115068882E+04  0.50400001928E-02 0. -1.
       -1    1    3    3    0  502 -0.39927376585E+03  0.50695124940E+03  0.15874641013E+04  0.17136106274E+04  0.50400001928E-02 0.  1.
</event>
<event>
 5   0  0.3499642E-05  0.2586844E+04  0.7818609E-02  0.8372684E-01
        2   -1    0    0  501    0  0.00000000000E+00  0.00000000000E+00  0.18812100308E+04  0.18812100308E+04  0.25500000920E-02 0.  1.
       -2   -1    0    0    0  501  0.00000000000E+00  0.00000000000E+00 -0.88928929273E+03  0.88928929274E+03  0.25500000920E-02 0. -1.
    10030    2    1    2    0    0  0.00000000000E+00  0.00000000000E+00  0.99192073802E+03  0.27704993235E+04  0.25868435884E+04 0.  0.
        2    1    3    3  502    0 -0.12641689640E+04  0.59777324633E+02  0.78182492954E+03  0.14875976333E+04  0.25500000920E-02 0. -1.
       -2    1    3    3    0  502  0.12641689640E+04 -0.59777324633E+02  0.21009580848E+03  0.12829016902E+04  0.25500000920E-02 0.  1.
</event>
<event>
 5   0  0.1497497E-05  0.2597625E+04  0.7818609E-02  0.8369008E-01
        1   -1    0    0  501    0  0.00000000000E+00  0.00000000000E+00  0.20872654085E+04  0.20872654085E+04  0.50400001928E-02 0.  1.
       -1   -1    0    0    0  501  0.00000000000E+00  0.00000000000E+00 -0.80819311482E+03  0.80819311484E+03  0.50400001928E-02 0. -1.
    10030    2    1    2    0    0  0.00000000000E+00  0.00000000000E+00  0.12790722936E+04  0.28954585233E+04  0.25976247088E+04 0.  0.
        3    1    3    3  502    0 -0.11905727058E+04  0.35510805458E+03  0.10615603924E+04  0.16341589809E+04  0.10100000352E+00 0.  1.
       -3    1    3    3    0  502  0.11905727058E+04 -0.35510805458E+03  0.21751190127E+03  0.12612995424E+04  0.10100000352E+00 0. -1.
</event>
<event>
 5   0  0.3647623E-05  0.2619495E+04  0.7818609E-02  0.8361609E-01
        2   -1    0    0  501    0  0.00000000000E+00  0.00000000000E+00  0.18194014235E+04  0.18194014235E+04  0.25500000920E-02 0.  1.
       -2   -1    0    0    0  501  0.00000000000E+00  0.00000000000E+00 -0.94285881992E+03  0.94285881993E+03  0.25500000920E-02 0. -1.
    10030    2    1    2    0    0  0.00000000000E+00  0.00000000000E+00  0.87654260358E+03  0.27622602434E+04  0.26194951263E+04 0.  0.
        3    1    3    3  502    0 -0.38337903609E+03  0.10738088309E+03  0.17540454110E+04  0.17986621288E+04  0.10100000352E+00 0.  1.
       -3    1    3    3    0  502  0.38337903609E+03 -0.10738088309E+03 -0.87750280742E+03  0.96359811467E+03  0.10100000352E+00 0. -1.
</event>
<event>
 5   0  0.3508470E-05  0.2626322E+04  0.7818609E-02  0.8359315E-01
        2   -1    0    0  501    0  0.00000000000E+00  0.00000000000E+00  0.13231171465E+04  0.13231171465E+04  0.25500000920E-02 0. -1.
       -2   -1    0    0    0  501  0.00000000000E+00  0.00000000000E+00 -0.13032800579E+04  0.13032800579E+04  0.25500000920E-02 0.  1.
    10030    2    1    2    0    0  0.00000000000E+00  0.00000000000E+00  0.19837088675E+02  0.26263972044E+04  0.26263222889E+04 0.  0.
        5    1    3    3  502    0  0.10062737629E+04  0.41317819809E+03  0.74551208716E+03  0.13187545152E+04  0.46999998093E+01 0. -1.
       -5    1    3    3    0  502 -0.10062737629E+04 -0.41317819809E+03 -0.72567499849E+03  0.13076426892E+04  0.46999998093E+01 0.  1.
</event>
<event>
 5   0  0.3849687E-05  0.2592976E+04  0.7818609E-02  0.8370591E-01
        2   -1    0    0  501    0  0.00000000000E+00  0.00000000000E+00  0.19567060185E+04  0.19567060185E+04  0.25500000920E-02 0. -1.
       -2   -1    0    0    0  501  0.00000000000E+00  0.00000000000E+00 -0.85903622736E+03  0.85903622736E+03  0.25500000920E-02 0.  1.
    10030    2    1    2    0    0  0.00000000000E+00  0.00000000000E+00  0.10976697912E+04  0.28157422459E+04  0.25929761713E+04 0.  0.
        1    1    3    3  502    0  0.78108498643E+03 -0.21951481762E+03 -0.54927914547E+03  0.97978981974E+03  0.50400001928E-02 0.  1.
       -1    1    3    3    0  502 -0.78108498643E+03  0.21951481762E+03  0.16469489367E+04  0.18359524262E+04  0.50400001928E-02 0. -1.
</event>
<event>
 5   0  0.1497497E-05  0.2556707E+04  0.7818609E-02  0.8383057E-01
       -1   -1    0    0    0  501  0.00000000000E+00  0.00000000000E+00  0.80784892135E+03  0.80784892137E+03  0.50400001928E-02 0.  1.
        1   -1    0    0  501    0  0.00000000000E+00  0.00000000000E+00 -0.20228874513E+04  0.20228874513E+04  0.50400001928E-02 0. -1.
    10030    2    1    2    0    0  0.00000000000E+00  0.00000000000E+00 -0.12150385300E+04  0.28307363727E+04  0.25567068237E+04 0.  0.
        3    1    3    3  502    0  0.87959164454E+03 -0.18928971437E+03 -0.16129681779E+04  0.18469375762E+04  0.10100000352E+00 0.  1.
       -3    1    3    3    0  502 -0.87959164454E+03  0.18928971437E+03  0.39792964795E+03  0.98379879652E+03  0.10100000352E+00 0. -1.
</event>
<event>
 5   0  0.1533248E-05  0.2464612E+04  0.7818609E-02  0.8415702E-01
        1   -1    0    0  501    0  0.00000000000E+00  0.00000000000E+00  0.16525521892E+04  0.16525521892E+04  0.50400001928E-02 0. -1.
       -1   -1    0    0    0  501  0.00000000000E+00  0.00000000000E+00 -0.91892925297E+03  0.91892925298E+03  0.50400001928E-02 0.  1.
    10030    2    1    2    0    0  0.00000000000E+00  0.00000000000E+00  0.73362293624E+03  0.25714814422E+04  0.24646123823E+04 0.  0.
        4    1    3    3  502    0 -0.84339095420E+03  0.89182903730E+03  0.48067467233E+03  0.13182249758E+04  0.12699999809E+01 0. -1.
       -4    1    3    3    0  502  0.84339095420E+03 -0.89182903730E+03  0.25294826391E+03  0.12532564664E+04  0.12699999809E+01 0.  1.
</event>
<event>
 5   0  0.1497497E-05  0.2579796E+04  0.7818609E-02  0.8375096E-01
        1   -1    0    0  501    0  0.00000000000E+00  0.00000000000E+00  0.16073063662E+04  0.16073063662E+04  0.50400001928E-02 0.  1.
       -1   -1    0    0    0  501  0.00000000000E+00  0.00000000000E+00 -0.10351711275E+04  0.10351711276E+04  0.50400001928E-02 0. -1.
    10030    2    1    2    0    0  0.00000000000E+00  0.00000000000E+00  0.57213523866E+03  0.26424774938E+04  0.25797962272E+04 0.  0.
        3    1    3    3  502    0 -0.98099385934E+03  0.73687861599E+03  0.69385887178E+03  0.14095315502E+04  0.10100000352E+00 0. -1.
       -3    1    3    3    0  502  0.98099385934E+03 -0.73687861599E+03 -0.12172363312E+03  0.12329459436E+04  0.10100000352E+00 0.  1.
</event>
<event>
 5   0  0.3441646E-05  0.2381466E+04  0.7818609E-02  0.8446475E-01
        2   -1    0    0  501    0  0.00000000000E+00  0.00000000000E+00  0.26097235933E+04  0.26097235933E+04  0.25500000920E-02 0. -1.
       -2   -1    0    0    0  501  0.00000000000E+00  0.00000000000E+00 -0.54329333666E+03  0.54329333667E+03  0.25500000920E-02 0.  1.
    10030    2    1    2    0    0  0.00000000000E+00  0.00000000000E+00  0.20664302567E+04  0.31530169300E+04  0.23814663036E+04 0.  0.
        4    1    3    3  502    0 -0.11450058598E+04 -0.30152486804E+03  0.86632960036E+03  0.14671347090E+04  0.12699999809E+01 0. -1.
       -4    1    3    3    0  502  0.11450058598E+04  0.30152486804E+03  0.12001006563E+04  0.16858822210E+04  0.12699999809E+01 0.  1.
</event>
<event>
 5   0  0.3508470E-05  0.2505240E+04  0.7818609E-02  0.8401121E-01
        2   -1    0    0  501    0  0.00000000000E+00  0.00000000000E+00  0.11106002190E+04  0.11106002190E+04  0.25500000920E-02 0. -1.
       -2   -1    0    0    0  501  0.00000000000E+00  0.00000000000E+00 -0.14128009110E+04  0.14128009110E+04  0.25500000920E-02 0.  1.
    10030    2    1    2    0    0  0.00000000000E+00  0.00000000000E+00 -0.30220069195E+03  0.25234011300E+04  0.25052401092E+04 0.  0.
        5    1    3    3  502    0 -0.11758774454E+03  0.66418154912E+02  0.11032370373E+04  0.11114820284E+04  0.46999998093E+01 0. -1.
       -5    1    3    3    0  502  0.11758774454E+03 -0.66418154912E+02 -0.14054377292E+04  0.14119191017E+04  0.46999998093E+01 0.  1.
</event>
<event>
 5   0  0.3499642E-05  0.2402162E+04  0.7818609E-02  0.8438695E-01
       -2   -1    0    0    0  501  0.00000000000E+00  0.00000000000E+00  0.17290118397E+04  0.17290118397E+04  0.25500000920E-02 0.  1.
        2   -1    0    0  501    0  0.00000000000E+00  0.00000000000E+00 -0.83434699585E+03  0.83434699585E+03  0.25500000920E-02 0. -1.
    10030    2    1    2    0    0  0.00000000000E+00  0.00000000000E+00  0.89466484381E+03  0.25633588355E+04  0.24021622212E+04 0.  0.
        2    1    3    3  502    0  0.51815101386E+03  0.74892210314E+03  0.12829722664E+04  0.15733348741E+04  0.25500000920E-02 0.  1.
       -2    1    3    3    0  502 -0.51815101386E+03 -0.74892210314E+03 -0.38830742258E+03  0.99002396141E+03  0.25500000920E-02 0. -1.
</event>
<event>
 5   0  0.3647623E-05  0.2598071E+04  0.7818609E-02  0.8368857E-01
        2   -1    0    0  501    0  0.00000000000E+00  0.00000000000E+00  0.17807484705E+04  0.17807484705E+04  0.25500000920E-02 0. -1.
       -2   -1    0    0    0  501  0.00000000000E+00  0.00000000000E+00 -0.94763161464E+03  0.94763161464E+03  0.25500000920E-02 0.  1.
    10030    2    1    2    0    0  0.00000000000E+00  0.00000000000E+00  0.83311685585E+03  0.27283800851E+04  0.25980712449E+04 0.  0.
        3    1    3    3  502    0  0.42126221593E+03  0.59921484604E+03 -0.71008485076E+03  0.10201670411E+04  0.10100000352E+00 0.  1.
       -3    1    3    3    0  502 -0.42126221593E+03 -0.59921484604E+03  0.15432017066E+04  0.17082130440E+04  0.10100000352E+00 0. -1.
</event>
<event>
 5   0  0.3499642E-05  0.2609425E+04  0.7818609E-02  0.8365007E-01
        2   -1    0    0  501    0  0.00000000000E+00  0.00000000000E+00  0.19601412438E+04  0.19601412438E+04  0.25500000920E-02 0. -1.
       -2   -1    0    0    0  501  0.00000000000E+00  0.00000000000E+00 -0.86844487341E+03  0.86844487342E+03  0.25500000920E-02 0.  1.
    10030    2    1    2    0    0  0.00000000000E+00  0.00000000000E+00  0.10916963704E+04  0.28285861173E+04  0.26094249285E+04 0.  0.
        2    1    3    3  502    0  0.66572239389E+03  0.70524227103E+03 -0.40022067433E+03  0.10491565921E+04  0.25500000920E-02 0.  1.
       -2    1    3    3    0  502 -0.66572239389E+03 -0.70524227103E+03  0.14919170448E+04  0.17794295252E+04  0.25500000920E-02 0. -1.
</event>
<event>
 5   0  0.3647623E-05  0.2435386E+04  0.7818609E-02  0.8426373E-01
       -2   -1    0    0    0  501  0.00000000000E+00  0.00000000000E+00  0.13275390988E+04  0.13275390988E+04  0.25500000920E-02 0.  1.
        2   -1    0    0  501    0  0.00000000000E+00  0.00000000000E+00 -0.11169359370E+04  0.11169359370E+04  0.25500000920E-02 0. -1.
    10030    2    1    2    0    0  0.00000000000E+00  0.00000000000E+00  0.21060316174E+03  0.24444750358E+04  0.24353859055E+04 0.  0.
        3    1    3    3  502    0 -0.56327850014E+03 -0.63491493933E+03 -0.77109880368E+03  0.11467314525E+04  0.10100000352E+00 0. -1.
       -3    1    3    3    0  502  0.56327850014E+03  0.63491493933E+03  0.98170196542E+03  0.12977435833E+04  0.10100000352E+00 0.  1.
</event>
<event>
 5   0  0.3647623E-05  0.2446273E+04  0.7818609E-02  0.8422380E-01
        2   -1    0    0  501    0  0.00000000000E+00  0.00000000000E+00  0.16886938690E+04  0.16886938690E+04  0.25500000920E-02 0. -1.
       -2   -1    0    0    0  501  0.00000000000E+00  0.00000000000E+00 -0.88592915069E+03  0.88592915070E+03  0.25500000920E-02 0.  1.
    10030    2    1    2    0    0  0.00000000000E+00  0.00000000000E+00  0.80276471829E+03  0.25746230197E+04  0.24462731860E+04 0.  0.
        3    1    3    3  502    0  0.75442419958E+03 -0.18438308494E+03 -0.59313545228E+03  0.97722191434E+03  0.10100000352E+00 0.  1.
       -3    1    3    3    0  502 -0.75442419958E+03  0.18438308494E+03  0.13959001706E+04  0.15974011053E+04  0.10100000352E+00 0. -1.
</event>
<event>
 5   0  0.3441646E-05  0.2644427E+04  0.7818609E-02  0.8353265E-01
        2   -1    0    0  501    0  0.00000000000E+00  0.00000000000E+00  0.22825822902E+04  0.22825822902E+04  0.25500000920E-02 0. -1.
       -2   -1    0    0    0  501  0.00000000000E+00  0.00000000000E+00 -0.76590825427E+03  0.76590825427E+03  0.25500000920E-02 0.  1.
    10030    2    1    2    0    0  0.00000000000E+00  0.00000000000E+00  0.15166740359E+04  0.30484905444E+04  0.26444270586E+04 0.  0.
        4    1    3    3  502    0  0.33696978807E+03 -0.65696992205E+03 -0.50611431234E+03  0.89516000056E+03  0.12699999809E+01 0.  1.
       -4    1    3    3    0  502 -0.33696978807E+03  0.65696992205E+03  0.20227883482E+04  0.21533305439E+04  0.12699999809E+01 0. -1.
</event>
<event>
 5   0  0.1474554E-05  0.2567978E+04  0.7818609E-02  0.8379160E-01
        1   -1    0    0  501    0  0.00000000000E+00  0.00000000000E+00  0.14094615142E+04  0.14094615142E+04  0.50400001928E-02 0. -1.
       -1   -1    0    0    0  501  0.00000000000E+00  0.00000000000E+00 -0.11696863003E+04  0.11696863003E+04  0.50400001928E-02 0.  1.
    10030    2    1    2    0    0  0.00000000000E+00  0.00000000000E+00  0.23977521389E+03  0.25791478145E+04  0.25679780559E+04 0.  0.
        5    1    3    3  502    0  0.12752228090E+04  0.11787579144E+03  0.27194139434E+02  0.12809564888E+04  0.46999998093E+01 0.  1.
       -5    1    3    3    0  502 -0.12752228090E+04 -0.11787579144E+03  0.21258107446E+03  0.12981913257E+04  0.46999998093E+01 0. -1.
</event>
<event>
 5   0  0.1435062E-05  0.2616702E+04  0.7818609E-02  0.8362550E-01
        1   -1    0    0  501    0  0.00000000000E+00  0.00000000000E+00  0.21876313561E+04  0.21876313561E+04  0.50400001928E-02 0. -1.
       -1   -1    0    0    0  501  0.00000000000E+00  0.00000000000E+00 -0.78248234705E+03  0.78248234707E+03  0.50400001928E-02 0.  1.
    10030    2    1    2    0    0  0.00000000000E+00  0.00000000000E+00  0.14051490090E+04  0.29701137032E+04  0.26167024424E+04 0.  0.
        2    1    3    3  502    0  0.77888938826E+03 -0.95590979796E+03  0.20605791914E+03  0.12501568250E+04  0.25500000920E-02 0.  1.
       -2    1    3    3    0  502 -0.77888938826E+03  0.95590979796E+03  0.11990910899E+04  0.17199568782E+04  0.25500000920E-02 0. -1.
</event>
<event>
 5   0  0.1435062E-05  0.2502575E+04  0.7818609E-02  0.8402069E-01
        1   -1    0    0  501    0  0.00000000000E+00  0.00000000000E+00  0.17136861852E+04  0.17136861852E+04  0.50400001928E-02 0. -1.
       -1   -1    0    0    0  501  0.00000000000E+00  0.00000000000E+00 -0.91365639760E+03  0.91365639761E+03  0.50400001928E-02 0.  1.
    10030    2    1    2    0    0  0.00000000000E+00  0.00000000000E+00  0.80002978760E+03  0.26273425828E+04  0.25025749512E+04 0.  0.
        2    1    3    3  502    0  0.12209961399E+04  0.25305705662E+02  0.68608543936E+03  0.14007802049E+04  0.25500000920E-02 0.  1.
       -2    1    3    3    0  502 -0.12209961399E+04 -0.25305705662E+02  0.11394434824E+03  0.12265623779E+04  0.25500000920E-02 0. -1.
</event>
<event>
 5   0  0.1497497E-05  0.2646895E+04  0.7818609E-02  0.8352444E-01
        1   -1    0    0  501    0  0.00000000000E+00  0.00000000000E+00  0.13013531142E+04  0.13013531143E+04  0.50400001928E-02 0.  1.
       -1   -1    0    0    0  501  0.00000000000E+00  0.00000000000E+00 -0.13459165661E+04  0.13459165661E+04  0.50400001928E-02 0. -1.
    10030    2    1    2    0    0  0.00000000000E+00  0.00000000000E+00 -0.44563451875E+02  0.26472696804E+04  0.26468945690E+04 0.  0.
        3    1    3    3  502    0 -0.54059262046E+03 -0.99785331566E+03 -0.70323141759E+03  0.13350977709E+04  0.10100000352E+00 0. -1.
       -3    1    3    3    0  502  0.54059262046E+03  0.99785331566E+03  0.65866796572E+03  0.13121719095E+04  0.10100000352E+00 0.  1.
</event>
<event>
 5   0  0.3849687E-05  0.2550429E+04  0.7818609E-02  0.8385237E-01
       -2   -1    0    0    0  501  0.00000000000E+00  0.00000000000E+00  0.99261491998E+03  0.99261491998E+03  0.25500000920E-02 0. -1.
        2   -1    0    0  501    0  0.00000000000E+00  0.00000000000E+00 -0.16382708251E+04  0.16382708251E+04  0.25500000920E-02 0.  1.
    10030    2    1    2    0    0  0.00000000000E+00  0.00000000000E+00 -0.64565590512E+03  0.26308857451E+04  0.25504290337E+04 0.  0.
        1    1    3    3  502    0 -0.80488288114E+03  0.79750550365E+03 -0.92636683013E+03  0.14635596963E+04  0.50400001928E-02 0. -1.
       -1    1    3    3    0  502  0.80488288114E+03 -0.79750550365E+03  0.28071092501E+03  0.11673260488E+04  0.50400001928E-02 0.  1.
</event>
<event>
 5   0  0.1497497E-05  0.2614824E+04  0.7818609E-02  0.8363183E-01
        1   -1    0    0  501    0  0.00000000000E+00  0.00000000000E+00  0.13390838327E+04  0.13390838327E+04  0.50400001928E-02 0. -1.
       -1   -1    0    0    0  501  0.00000000000E+00  0.00000000000E+00 -0.12764890056E+04  0.12764890056E+04  0.50400001928E-02 0.  1.
    10030    2    1    2    0    0  0.00000000000E+00  0.00000000000E+00  0.62594827041E+02  0.26155728383E+04  0.26148237341E+04 0.  0.
        3    1    3    3  502    0 -0.11251581854E+04  0.66545615118E+03  0.86425555309E+01  0.13072442523E+04  0.10100000352E+00 0.  1.
       -3    1    3    3    0  502  0.11251581854E+04 -0.66545615118E+03  0.53952271511E+02  0.13083285860E+04  0.10100000352E+00 0. -1.
</event>
<event>
 5   0  0.3647623E-05  0.3060518E+04  0.7818609E-02  0.8226658E-01
        2   -1    0    0  501    0  0.00000000000E+00  0.00000000000E+00  0.18858502691E+04  0.18858502691E+04  0.25500000920E-02 0. -1.
       -2   -1    0    0    0  501  0.00000000000E+00  0.00000000000E+00 -0.12417174213E+04  0.12417174213E+04  0.25500000920E-02 0.  1.
    10030    2    1    2    0    0  0.00000000000E+00  0.00000000000E+00  0.64413284782E+03  0.31275676904E+04  0.30605183437E+04 0.  0.
        3    1    3    3  502    0 -0.82605669485E+03 -0.10055872343E+04 -0.50062827125E+03  0.13943471681E+04  0.10100000352E+00 0.  1.
       -3    1    3    3    0  502  0.82605669485E+03  0.10055872343E+04  0.11447611191E+04  0.17332205223E+04  0.10100000352E+00 0. -1.
</event>
<event>
 5   0  0.1451052E-05  0.2630840E+04  0.7818609E-02  0.8357800E-01
       -1   -1    0    0    0  501  0.00000000000E+00  0.00000000000E+00  0.10060180366E+04  0.10060180366E+04  0.50400001928E-02 0.  1.
        1   -1    0    0  501    0  0.00000000000E+00  0.00000000000E+00 -0.17199785519E+04  0.17199785519E+04  0.50400001928E-02 0. -1.
    10030    2    1    2    0    0  0.00000000000E+00  0.00000000000E+00 -0.71396051530E+03  0.27259965886E+04  0.26308397487E+04 0.  0.
        1    1    3    3  502    0  0.60565399341E+03 -0.79587764137E+03  0.52837903334E+03  0.11311155479E+04  0.50400001928E-02 0.  1.
       -1    1    3    3    0  502 -0.60565399341E+03  0.79587764137E+03 -0.12423395486E+04  0.15948810407E+04  0.50400001928E-02 0. -1.
</event>
<event>
 5   0  0.3441646E-05  0.2588537E+04  0.7818609E-02  0.8372105E-01
        2   -1    0    0  501    0  0.00000000000E+00  0.00000000000E+00  0.22930411042E+04  0.22930411042E+04  0.25500000920E-02 0.  1.
       -2   -1    0    0    0  501  0.00000000000E+00  0.00000000000E+00 -0.73052809572E+03  0.73052809572E+03  0.25500000920E-02 0. -1.
    10030    2    1    2    0    0  0.00000000000E+00  0.00000000000E+00  0.15625130085E+04  0.30235691999E+04  0.25885370009E+04 0.  0.
        4    1    3    3  502    0 -0.33252718322E+02 -0.11983623762E+04  0.21147349485E+03  0.12173334711E+04  0.12699999809E+01 0.  1.
       -4    1    3    3    0  502  0.33252718322E+02  0.11983623762E+04  0.13510395136E+04  0.18062357288E+04  0.12699999809E+01 0. -1.
</event>
<event>
 5   0  0.3441646E-05  0.2567052E+04  0.7818609E-02  0.8379480E-01
       -2   -1    0    0    0  501  0.00000000000E+00  0.00000000000E+00  0.87158125798E+03  0.87158125798E+03  0.25500000920E-02 0.  1.
        2   -1    0    0  501    0  0.00000000000E+00  0.00000000000E+00 -0.18901730671E+04  0.18901730671E+04  0.25500000920E-02 0. -1.
    10030    2    1    2    0    0  0.00000000000E+00  0.00000000000E+00 -0.10185918091E+04  0.27617543251E+04  0.25670523326E+04 0.  0.
        4    1    3    3  502    0 -0.49306391504E+03  0.46612132675E+03 -0.16814536201E+04  0.18131930413E+04  0.12699999809E+01 0. -1.
       -4    1    3    3    0  502  0.49306391504E+03 -0.46612132675E+03  0.66286181103E+03  0.94856128373E+03  0.12699999809E+01 0.  1.
</event>
<event>
 5   0  0.1474554E-05  0.2580551E+04  0.7818609E-02  0.8374838E-01
       -1   -1    0    0    0  501  0.00000000000E+00  0.00000000000E+00  0.12386469990E+04  0.12386469990E+04  0.50400001928E-02 0. -1.
        1   -1    0    0  501    0  0.00000000000E+00  0.00000000000E+00 -0.13440557097E+04  0.13440557097E+04  0.50400001928E-02 0.  1.
    10030    2    1    2    0    0  0.00000000000E+00  0.00000000000E+00 -0.10540871069E+03  0.25827027088E+04  0.25805507717E+04 0.  0.
        5    1    3    3  502    0  0.77619182319E+02  0.87786247665E+03 -0.99589206360E+03  0.13298459902E+04  0.46999998093E+01 0.  1.
       -5    1    3    3    0  502 -0.77619182319E+02 -0.87786247665E+03  0.89048335291E+03  0.12528567185E+04  0.46999998093E+01 0. -1.
</event>
<event>
 5   0  0.1497497E-05  0.2623152E+04  0.7818609E-02  0.8360379E-01
        1   -1    0    0  501    0  0.00000000000E+00  0.00000000000E+00  0.95217795297E+03  0.95217795299E+03  0.50400001928E-02 0. -1.
       -1   -1    0    0    0  501  0.00000000000E+00  0.00000000000E+00 -0.18066280215E+04  0.18066280215E+04  0.50400001928E-02 0.  1.
    10030    2    1    2    0    0  0.00000000000E+00  0.00000000000E+00 -0.85445006855E+03  0.27588059745E+04  0.26231518228E+04 0.  0.
        3    1    3    3  502    0 -0.25494600260E+03 -0.10379874218E+04 -0.12266772593E+04  0.16270072098E+04  0.10100000352E+00 0.  1.
       -3    1    3    3    0  502  0.25494600260E+03  0.10379874218E+04  0.37222719077E+03  0.11317987647E+04  0.10100000352E+00 0. -1.
</event>
<event>
 5   0  0.1435062E-05  0.2614211E+04  0.7818609E-02  0.8363390E-01
       -1   -1    0    0    0  501  0.00000000000E+00  0.00000000000E+00  0.10465212233E+04  0.10465212234E+04  0.50400001928E-02 0. -1.
        1   -1    0    0  501    0  0.00000000000E+00  0.00000000000E+00 -0.16325755647E+04  0.16325755648E+04  0.50400001928E-02 0.  1.
    10030    2    1    2    0    0  0.00000000000E+00  0.00000000000E+00 -0.58605434140E+03  0.26790967881E+04  0.26142111447E+04 0.  0.
        2    1    3    3  502    0 -0.49983395023E+03 -0.45432959045E+03  0.85379929088E+03  0.10886792841E+04  0.25500000920E-02 0. -1.
       -2    1    3    3    0  502  0.49983395023E+03  0.45432959045E+03 -0.14398536323E+04  0.15904175040E+04  0.25500000920E-02 0.  1.
</event>
<event>
 5   0  0.3441646E-05  0.2586310E+04  0.7818609E-02  0.8372866E-01
        2   -1    0    0  501    0  0.00000000000E+00  0.00000000000E+00  0.18897305737E+04  0.18897305737E+04  0.25500000920E-02 0.  1.
       -2   -1    0    0    0  501  0.00000000000E+00  0.00000000000E+00 -0.88491465098E+03  0.88491465098E+03  0.25500000920E-02 0. -1.
    10030    2    1    2    0    0  0.00000000000E+00  0.00000000000E+00  0.10048159227E+04  0.27746452247E+04  0.25863103225E+04 0.  0.
        4    1    3    3  502    0  0.86154225455E+03  0.46451176045E+03  0.14090661093E+04  0.17156617223E+04  0.12699999809E+01 0.  1.
       -4    1    3    3    0  502 -0.86154225455E+03 -0.46451176045E+03 -0.40425018664E+03  0.10589835024E+04  0.12699999809E+01 0. -1.
</event>
<event>
 5   0  0.1497497E-05  0.2582454E+04  0.7818609E-02  0.8374186E-01
       -1   -1    0    0    0  501  0.00000000000E+00  0.00000000000E+00  0.11990780202E+04  0.11990780202E+04  0.50400001928E-02 0. -1.
        1   -1    0    0  501    0  0.00000000000E+00  0.00000000000E+00 -0.13904580818E+04  0.13904580818E+04  0.50400001928E-02 0.  1.
    10030    2    1    2    0    0  0.00000000000E+00  0.00000000000E+00 -0.19138006163E+03  0.25895361020E+04  0.25824544325E+04 0.  0.
        3    1    3    3  502    0  0.10426735475E+04 -0.72329237755E+03  0.14360158784E+03  0.12770831673E+04  0.10100000352E+00 0.  1.
       -3    1    3    3    0  502 -0.10426735475E+04  0.72329237755E+03 -0.33498164947E+03  0.13124529347E+04  0.10100000352E+00 0. -1.
</event>
<event>
 5   0  0.3499642E-05  0.2649770E+04  0.7818609E-02  0.8351489E-01
       -2   -1    0    0    0  501  0.00000000000E+00  0.00000000000E+00  0.68809271247E+03  0.68809271248E+03  0.25500000920E-02 0.  1.
        2   -1    0    0  501    0  0.00000000000E+00  0.00000000000E+00 -0.25509930763E+04  0.25509930763E+04  0.25500000920E-02 0. -1.
    10030    2    1    2    0    0  0.00000000000E+00  0.00000000000E+00 -0.18629003639E+04  0.32390857888E+04  0.26497696092E+04 0.  0.
        2    1    3    3  502    0  0.19211463124E+03  0.77901960942E+03  0.35732426186E+03  0.87832807738E+03  0.25500000920E-02 0.  1.
       -2    1    3    3    0  502 -0.19211463124E+03 -0.77901960942E+03 -0.22202246257E+04  0.23607577114E+04  0.25500000920E-02 0. -1.
</event>
<event>
 5   0  0.3441646E-05  0.2540833E+04  0.7818609E-02  0.8388581E-01
        2   -1    0    0  501    0  0.00000000000E+00  0.00000000000E+00  0.14338955074E+04  0.14338955074E+04  0.25500000920E-02 0. -1.
       -2   -1    0    0    0  501  0.00000000000E+00  0.00000000000E+00 -0.11255756762E+04  0.11255756762E+04  0.25500000920E-02 0.  1.
    10030    2    1    2    0    0  0.00000000000E+00  0.00000000000E+00  0.30831983122E+03  0.25594711836E+04  0.25408328597E+04 0.  0.
        4    1    3    3  502    0  0.12002952239E+04 -0.15698562495E+03  0.54247852206E+03  0.13265133512E+04  0.12699999809E+01 0. -1.
       -4    1    3    3    0  502 -0.12002952239E+04  0.15698562495E+03 -0.23415869085E+03  0.12329578324E+04  0.12699999809E+01 0.  1.
</event>
<event>
 5   0  0.1474554E-05  0.2118921E+04  0.7818609E-02  0.8552954E-01
        1   -1    0    0  501    0  0.00000000000E+00  0.00000000000E+00  0.12799635340E+04  0.12799635340E+04  0.50400001928E-02 0.  1.
       -1   -1    0    0    0  501  0.00000000000E+00  0.00000000000E+00 -0.87694406568E+03  0.87694406570E+03  0.50400001928E-02 0. -1.
    10030    2    1    2    0    0  0.00000000000E+00  0.00000000000E+00  0.40301946830E+03  0.21569075997E+04  0.21189208814E+04 0.  0.
        5    1    3    3  502    0 -0.53021023762E+03  0.72007026404E+03  0.77985936233E+03  0.11865187720E+04  0.46999998093E+01 0.  1.
       -5    1    3    3    0  502  0.53021023762E+03 -0.72007026404E+03 -0.37683989403E+03  0.97038882772E+03  0.46999998093E+01 0. -1.
</event>
<event>
 5   0  0.1435062E-05  0.2574132E+04  0.7818609E-02  0.8377042E-01
        1   -1    0    0  501    0  0.00000000000E+00  0.00000000000E+00  0.18365214224E+04  0.18365214224E+04  0.50400001928E-02 0.  1.
       -1   -1    0    0    0  501  0.00000000000E+00  0.00000000000E+00 -0.90199781612E+03  0.90199781613E+03  0.50400001928E-02 0. -1.
    10030    2    1    2    0    0  0.00000000000E+00  0.00000000000E+00  0.93452360628E+03  0.27385192385E+04  0.25741315524E+04 0.  0.
        2    1    3    3  502    0  0.10469645857E+04  0.34241333878E+03 -0.24095080870E+03  0.11275810527E+04  0.25500000920E-02 0. -1.
       -2    1    3    3    0  502 -0.10469645857E+04 -0.34241333878E+03  0.11754744150E+04  0.16109381858E+04  0.25500000920E-02 0.  1.
</event>
<event>
 5   0  0.3499642E-05  0.2604134E+04  0.7818609E-02  0.8366798E-01
       -2   -1    0    0    0  501  0.00000000000E+00  0.00000000000E+00  0.94379590250E+03  0.94379590250E+03  0.25500000920E-02 0. -1.
        2   -1    0    0  501    0  0.00000000000E+00  0.00000000000E+00 -0.17963401471E+04  0.17963401471E+04  0.25500000920E-02 0.  1.
    10030    2    1    2    0    0  0.00000000000E+00  0.00000000000E+00 -0.85254424459E+03  0.27401360496E+04  0.26041339983E+04 0.  0.
        2    1    3    3  502    0 -0.82141620074E+03  0.14843288774E+03 -0.14777721072E+04  0.16972234084E+04  0.25500000920E-02 0.  1.
       -2    1    3    3    0  502  0.82141620074E+03 -0.14843288774E+03  0.62522786264E+03  0.10429126412E+04  0.25500000920E-02 0. -1.
</event>
<event>
 5   0  0.3647623E-05  0.2846017E+04  0.7818609E-02  0.8289123E-01
       -2   -1    0    0    0  501  0.00000000000E+00  0.00000000000E+00  0.15337516028E+04  0.15337516028E+04  0.25500000920E-02 0.  1.
        2   -1    0    0  501    0  0.00000000000E+00  0.00000000000E+00 -0.13202618183E+04  0.13202618183E+04  0.25500000920E-02 0. -1.
    10030    2    1    2    0    0  0.00000000000E+00  0.00000000000E+00  0.21348978455E+03  0.28540134211E+04  0.28460173436E+04 0.  0.
        3    1    3    3  502    0 -0.25287907010E+02 -0.81776456247E+03 -0.10608180280E+04  0.13396690847E+04  0.10100000352E+00 0. -1.
       -3    1    3    3    0  502  0.25287907010E+02  0.81776456247E+03  0.12743078125E+04  0.15143443364E+04  0.10100000352E+00 0.  1.
</event>
<event>
 5   0  0.3508470E-05  0.2536263E+04  0.7818609E-02  0.8390179E-01
       -2   -1    0    0    0  501  0.00000000000E+00  0.00000000000E+00  0.77263834305E+03  0.77263834305E+03  0.25500000920E-02 0. -1.
        2   -1    0    0  501    0  0.00000000000E+00  0.00000000000E+00 -0.20813847001E+04  0.20813847001E+04  0.25500000920E-02 0.  1.
    10030    2    1    2    0    0  0.00000000000E+00  0.00000000000E+00 -0.13087463570E+04  0.28540230431E+04  0.25362630983E+04 0.  0.
        5    1    3    3  502    0 -0.10120355963E+04  0.38897057528E+02  0.20439566858E+03  0.10332128089E+04  0.46999998093E+01 0. -1.
       -5    1    3    3    0  502  0.10120355963E+04 -0.38897057528E+02 -0.15131420256E+04  0.18208102342E+04  0.46999998093E+01 0.  1.
</event>
<event>
 5   0  0.1435062E-05  0.2305879E+04  0.7818609E-02  0.8475607E-01
       -1   -1    0    0    0  501  0.00000000000E+00  0.00000000000E+00  0.79635320162E+03  0.79635320163E+03  0.50400001928E-02 0. -1.
        1   -1    0    0  501    0  0.00000000000E+00  0.00000000000E+00 -0.16691961656E+04  0.16691961656E+04  0.50400001928E-02 0.  1.
    10030    2    1    2    0    0  0.00000000000E+00  0.00000000000E+00 -0.87284296398E+03  0.24655493672E+04  0.23058791908E+04 0.  0.
        2    1    3    3  502    0  0.86906967809E+03  0.20728130588E+03 -0.12155936595E+04  0.15086137976E+04  0.25500000920E-02 0.  1.
       -2    1    3    3    0  502 -0.86906967809E+03 -0.20728130588E+03  0.34275069557E+03  0.95693556965E+03  0.25500000920E-02 0. -1.
</event>
<event>
 5   0  0.3499642E-05  0.2592970E+04  0.7818609E-02  0.8370593E-01
        2   -1    0    0  501    0  0.00000000000E+00  0.00000000000E+00  0.11729645590E+04  0.11729645591E+04  0.25500000920E-02 0. -1.
       -2   -1    0    0    0  501  0.00000000000E+00  0.00000000000E+00 -0.14330129556E+04  0.14330129556E+04  0.25500000920E-02 0.  1.
    10030    2    1    2    0    0  0.00000000000E+00  0.00000000000E+00 -0.26004839654E+03  0.26059775146E+04  0.25929700419E+04 0.  0.
        2    1    3    3  502    0 -0.10990612843E+04  0.68535272213E+03 -0.72911764869E+02  0.12972895536E+04  0.25500000920E-02 0. -1.
       -2    1    3    3    0  502  0.10990612843E+04 -0.68535272213E+03 -0.18713663167E+03  0.13086879610E+04  0.25500000920E-02 0.  1.
</event>
<event>
 5   0  0.1435062E-05  0.2637696E+04  0.7818609E-02  0.8355508E-01
        1   -1    0    0  501    0  0.00000000000E+00  0.00000000000E+00  0.19098099284E+04  0.19098099284E+04  0.50400001928E-02 0. -1.
       -1   -1    0    0    0  501  0.00000000000E+00  0.00000000000E+00 -0.91075048823E+03  0.91075048824E+03  0.50400001928E-02 0.  1.
    10030    2    1    2    0    0  0.00000000000E+00  0.00000000000E+00  0.99905944015E+03  0.28205604166E+04  0.26376962105E+04 0.  0.
        2    1    3    3  502    0  0.83083875009E+03  0.92819407391E+03  0.36468972262E+02  0.12462613103E+04  0.25500000920E-02 0.  1.
       -2    1    3    3    0  502 -0.83083875009E+03 -0.92819407391E+03  0.96259046789E+03  0.15742991064E+04  0.25500000920E-02 0. -1.
</event>
<event>
 5   0  0.3508470E-05  0.2550707E+04  0.7818609E-02  0.8385140E-01
        2   -1    0    0  501    0  0.00000000000E+00  0.00000000000E+00  0.19949127847E+04  0.19949127847E+04  0.25500000920E-02 0. -1.
       -2   -1    0    0    0  501  0.00000000000E+00  0.00000000000E+00 -0.81533694536E+03  0.81533694537E+03  0.25500000920E-02 0.  1.
    10030    2    1    2    0    0  0.00000000000E+00  0.00000000000E+00  0.11795758394E+04  0.28102497301E+04  0.25507066442E+04 0.  0.
        5    1    3    3  502    0 -0.10002901086E+04  0.25738819257E+03 -0.23444957028E+03  0.10591589466E+04  0.46999998093E+01 0.  1.
       -5    1    3    3    0  502  0.10002901086E+04 -0.25738819257E+03  0.14140254096E+04  0.17510907835E+04  0.46999998093E+01 0. -1.
</event>
<event>
 5   0  0.1451052E-05  0.2610986E+04  0.7818609E-02  0.8364479E-01
        1   -1    0    0  501    0  0.00000000000E+00  0.00000000000E+00  0.19076429899E+04  0.19076429899E+04  0.50400001928E-02 0. -1.
       -1   -1    0    0    0  501  0.00000000000E+00  0.00000000000E+00 -0.89341264486E+03  0.89341264488E+03  0.50400001928E-02 0.  1.
    10030    2    1    2    0    0  0.00000000000E+00  0.00000000000E+00  0.10142303451E+04  0.28010556348E+04  0.26109863034E+04 0.  0.
        1    1    3    3  502    0  0.16586097818E+03  0.34130035158E+03  0.18471728840E+04  0.18857474532E+04  0.50400001928E-02 0. -1.
       -1    1    3    3    0  502 -0.16586097818E+03 -0.34130035158E+03 -0.83294253892E+03  0.91530818157E+03  0.50400001928E-02 0.  1.
</event>
<event>
 5   0  0.1435062E-05  0.2663612E+04  0.7818609E-02  0.8346909E-01
       -1   -1    0    0    0  501  0.00000000000E+00  0.00000000000E+00  0.91161331382E+03  0.91161331383E+03  0.50400001928E-02 0.  1.
        1   -1    0    0  501    0  0.00000000000E+00  0.00000000000E+00 -0.19456798770E+04  0.19456798770E+04  0.50400001928E-02 0. -1.
    10030    2    1    2    0    0  0.00000000000E+00  0.00000000000E+00 -0.10340665632E+04  0.28572931909E+04  0.26636123444E+04 0.  0.
        2    1    3    3  502    0  0.10936694976E+04 -0.16630988719E+03  0.27846593561E+03  0.11407520440E+04  0.25500000920E-02 0.  1.
       -2    1    3    3    0  502 -0.10936694976E+04  0.16630988719E+03 -0.13125324988E+04  0.17165411469E+04  0.25500000920E-02 0. -1.
</event>
<event>
 5   0  0.1451052E-05  0.2538209E+04  0.7818609E-02  0.8389499E-01
       -1   -1    0    0    0  501  0.00000000000E+00  0.00000000000E+00  0.93907692176E+03  0.93907692177E+03  0.50400001928E-02 0.  1.
        1   -1    0    0  501    0  0.00000000000E+00  0.00000000000E+00 -0.17151158995E+04  0.17151158996E+04  0.50400001928E-02 0. -1.
    10030    2    1    2    0    0  0.00000000000E+00  0.00000000000E+00 -0.77603897779E+03  0.26541928213E+04  0.25382086277E+04 0.  0.
        1    1    3    3  502    0 -0.19952172330E+03  0.86139151914E+03  0.56397767883E+03  0.10487492978E+04  0.50400001928E-02 0.  1.
       -1    1    3    3    0  502  0.19952172330E+03 -0.86139151914E+03 -0.13400166566E+04  0.16054435236E+04  0.50400001928E-02 0. -1.
</event>
<event>
 5   0  0.3508470E-05  0.2594084E+04  0.7818609E-02  0.8370214E-01
        2   -1    0    0  501    0  0.00000000000E+00  0.00000000000E+00  0.10310920336E+04  0.10310920336E+04  0.25500000920E-02 0. -1.
       -2   -1    0    0    0  501  0.00000000000E+00  0.00000000000E+00 -0.16315879194E+04  0.16315879194E+04  0.25500000920E-02 0.  1.
    10030    2    1    2    0    0  0.00000000000E+00  0.00000000000E+00 -0.60049588575E+03  0.26626799530E+04  0.25940835036E+04 0.  0.
        5    1    3    3  502    0  0.36001475258E+03  0.15661852867E+02  0.97866897049E+03  0.10429146463E+04  0.46999998093E+01 0. -1.
       -5    1    3    3    0  502 -0.36001475258E+03 -0.15661852867E+02 -0.15791648562E+04  0.16197653067E+04  0.46999998093E+01 0.  1.
</event>
<event>
 5   0  0.1474554E-05  0.2589879E+04  0.7818609E-02  0.8371647E-01
       -1   -1    0    0    0  501  0.00000000000E+00  0.00000000000E+00  0.13873332083E+04  0.13873332083E+04  0.50400001928E-02 0.  1.
        1   -1    0    0  501    0  0.00000000000E+00  0.00000000000E+00 -0.12086986012E+04  0.12086986012E+04  0.50400001928E-02 0. -1.
    10030    2    1    2    0    0  0.00000000000E+00  0.00000000000E+00  0.17863460704E+03  0.25960318095E+04  0.25898785364E+04 0.  0.
        5    1    3    3  502    0 -0.45752221332E+03  0.11416849705E+04  0.49534075566E+03  0.13259546379E+04  0.46999998093E+01 0. -1.
       -5    1    3    3    0  502  0.45752221332E+03 -0.11416849705E+04 -0.31670614862E+03  0.12700771717E+04  0.46999998093E+01 0.  1.
</event>
<event>
 5   0  0.1497497E-05  0.2628265E+04  0.7818609E-02  0.8358663E-01
       -1   -1    0    0    0  501  0.00000000000E+00  0.00000000000E+00  0.94158931268E+03  0.94158931270E+03  0.50400001928E-02 0.  1.
        1   -1    0    0  501    0  0.00000000000E+00  0.00000000000E+00 -0.18340743543E+04  0.18340743543E+04  0.50400001928E-02 0. -1.
    10030    2    1    2    0    0  0.00000000000E+00  0.00000000000E+00 -0.89248504158E+03  0.27756636670E+04  0.26282654437E+04 0.  0.
        3    1    3    3  502    0 -0.73114685154E+03 -0.10083870624E+04 -0.37900452374E+01  0.12455659600E+04  0.10100000352E+00 0.  1.
       -3    1    3    3    0  502  0.73114685154E+03  0.10083870624E+04 -0.88869499635E+03  0.15300977070E+04  0.10100000352E+00 0. -1.
</event>
<event>
 5   0  0.3849687E-05  0.2046952E+04  0.7818609E-02  0.8584978E-01
        2   -1    0    0  501    0  0.00000000000E+00  0.00000000000E+00  0.18812533214E+04  0.18812533214E+04  0.25500000920E-02 0.  1.
       -2   -1    0    0    0  501  0.00000000000E+00  0.00000000000E+00 -0.55681148990E+03  0.55681148990E+03  0.25500000920E-02 0. -1.
    10030    2    1    2    0    0  0.00000000000E+00  0.00000000000E+00  0.13244418315E+04  0.24380648113E+04  0.20469523343E+04 0.  0.
        1    1    3    3  502    0 -0.78854055450E+03 -0.38284953051E+03  0.12915002850E+04  0.15608789047E+04  0.50400001928E-02 0.  1.
       -1    1    3    3    0  502  0.78854055450E+03  0.38284953051E+03  0.32941546470E+02  0.87718590652E+03  0.50400001928E-02 0. -1.
</event>
<event>
 5   0  0.1497497E-05  0.2718995E+04  0.7818609E-02  0.8328868E-01
        1   -1    0    0  501    0  0.00000000000E+00  0.00000000000E+00  0.89437506328E+03  0.89437506329E+03  0.50400001928E-02 0. -1.
       -1   -1    0    0    0  501  0.00000000000E+00  0.00000000000E+00 -0.20665079597E+04  0.20665079597E+04  0.50400001928E-02 0.  1.
    10030    2    1    2    0    0  0.00000000000E+00  0.00000000000E+00 -0.11721328964E+04  0.29608830230E+04  0.27189948049E+04 0.  0.
        3    1    3    3  502    0  0.84364210893E+03  0.92817623485E+03 -0.11571127969E+04  0.17065031983E+04  0.10100000352E+00 0. -1.
       -3    1    3    3    0  502 -0.84364210893E+03 -0.92817623485E+03 -0.15020099466E+02  0.12543798246E+04  0.10100000352E+00 0.  1.
</event>
<event>
 5   0  0.3647623E-05  0.2579500E+04  0.7818609E-02  0.8375198E-01
        2   -1    0    0  501    0  0.00000000000E+00  0.00000000000E+00  0.97543616252E+03  0.97543616252E+03  0.25500000920E-02 0. -1.
       -2   -1    0    0    0  501  0.00000000000E+00  0.00000000000E+00 -0.17053443427E+04  0.17053443427E+04  0.25500000920E-02 0.  1.
    10030    2    1    2    0    0  0.00000000000E+00  0.00000000000E+00 -0.72990818018E+03  0.26807805052E+04  0.25794995960E+04 0.  0.
        3    1    3    3  502    0  0.11886769740E+03  0.99754395704E+03 -0.12055579314E+04  0.15692652459E+04  0.10100000352E+00 0.  1.
       -3    1    3    3    0  502 -0.11886769740E+03 -0.99754395704E+03  0.47564975123E+03  0.11115152593E+04  0.10100000352E+00 0. -1.
</event>
<event>
 5   0  0.1451052E-05  0.2360505E+04  0.7818609E-02  0.8454440E-01
        1   -1    0    0  501    0  0.00000000000E+00  0.00000000000E+00  0.76163463430E+03  0.76163463431E+03  0.50400001928E-02 0. -1.
       -1   -1    0    0    0  501  0.00000000000E+00  0.00000000000E+00 -0.18289549015E+04  0.18289549016E+04  0.50400001928E-02 0.  1.
    10030    2    1    2    0    0  0.00000000000E+00  0.00000000000E+00 -0.10673202672E+04  0.25905895359E+04  0.23605045203E+04 0.  0.
        1    1    3    3  502    0 -0.11026703140E+04  0.56947261377E+02 -0.76038203052E+02  0.11067549956E+04  0.50400001928E-02 0. -1.
       -1    1    3    3    0  502  0.11026703140E+04 -0.56947261377E+02 -0.99128206420E+03  0.14838345402E+04  0.50400001928E-02 0.  1.
</event>
<event>
 5   0  0.1451052E-05  0.2674998E+04  0.7818609E-02  0.8343163E-01
        1   -1    0    0  501    0  0.00000000000E+00  0.00000000000E+00  0.82374282137E+03  0.82374282138E+03  0.50400001928E-02 0. -1.
       -1   -1    0    0    0  501  0.00000000000E+00  0.00000000000E+00 -0.21716778691E+04  0.21716778691E+04  0.50400001928E-02 0.  1.
    10030    2    1    2    0    0  0.00000000000E+00  0.00000000000E+00 -0.13479350477E+04  0.29954206905E+04  0.26749983589E+04 0.  0.
        1    1    3    3  502    0  0.10693301985E+04 -0.76486397266E+03 -0.94921603027E+03  0.16215717814E+04  0.50400001928E-02 0.  1.
       -1    1    3    3    0  502 -0.10693301985E+04  0.76486397266E+03 -0.39871901748E+03  0.13738489091E+04  0.50400001928E-02 0. -1.
</event>
<event>
 5   0  0.3849687E-05  0.2642178E+04  0.7818609E-02  0.8354014E-01
        2   -1    0    0  501    0  0.00000000000E+00  0.00000000000E+00  0.25082237792E+04  0.25082237792E+04  0.25500000920E-02 0. -1.
       -2   -1    0    0    0  501  0.00000000000E+00  0.00000000000E+00 -0.69582174353E+03  0.69582174354E+03  0.25500000920E-02 0.  1.
    10030    2    1    2    0    0  0.00000000000E+00  0.00000000000E+00  0.18124020356E+04  0.32040455227E+04  0.26421783764E+04 0.  0.
        1    1    3    3  502    0 -0.51306722640E+03  0.39747888736E+03 -0.48916648797E+03  0.81271846151E+03  0.50400001928E-02 0.  1.
       -1    1    3    3    0  502  0.51306722640E+03 -0.39747888736E+03  0.23015685236E+04  0.23913270612E+04  0.50400001928E-02 0. -1.
</event>
<event>
 5   0  0.1497497E-05  0.2586868E+04  0.7818609E-02  0.8372675E-01
        1   -1    0    0  501    0  0.00000000000E+00  0.00000000000E+00  0.16978482233E+04  0.16978482233E+04  0.50400001928E-02 0.  1.
       -1   -1    0    0    0  501  0.00000000000E+00  0.00000000000E+00 -0.98534841174E+03  0.98534841175E+03  0.50400001928E-02 0. -1.
    10030    2    1    2    0    0  0.00000000000E+00  0.00000000000E+00  0.71249981153E+03  0.26831966350E+04  0.25868684158E+04 0.  0.
        3    1    3    3  502    0  0.68571646774E+03 -0.77048090983E+03 -0.45327658584E+03  0.11266355134E+04  0.10100000352E+00 0. -1.
       -3    1    3    3    0  502 -0.68571646774E+03  0.77048090983E+03  0.11657763974E+04  0.15565611216E+04  0.10100000352E+00 0.  1.
</event>
<event>
 5   0  0.1451052E-05  0.2605536E+04  0.7818609E-02  0.8366323E-01
       -1   -1    0    0    0  501  0.00000000000E+00  0.00000000000E+00  0.12801143208E+04  0.12801143209E+04  0.50400001928E-02 0.  1.
        1   -1    0    0  501    0  0.00000000000E+00  0.00000000000E+00 -0.13258224110E+04  0.13258224110E+04  0.50400001928E-02 0. -1.
    10030    2    1    2    0    0  0.00000000000E+00  0.00000000000E+00 -0.45708090143E+02  0.26059367318E+04  0.26055358414E+04 0.  0.
        1    1    3    3  502    0  0.84647782612E+03  0.96025504728E+03 -0.26494456537E+03  0.13072146299E+04  0.50400001928E-02 0. -1.
       -1    1    3    3    0  502 -0.84647782612E+03 -0.96025504728E+03  0.21923647522E+03  0.12987221019E+04  0.50400001928E-02 0.  1.
</event>
<event>
 5   0  0.3647623E-05  0.2606582E+04  0.7818609E-02  0.8365969E-01
       -2   -1    0    0    0  501  0.00000000000E+00  0.00000000000E+00  0.10123793542E+04  0.10123793542E+04  0.25500000920E-02 0.  1.
        2   -1    0    0  501    0  0.00000000000E+00  0.00000000000E+00 -0.16777978401E+04  0.16777978401E+04  0.25500000920E-02 0. -1.
    10030    2    1    2    0    0  0.00000000000E+00  0.00000000000E+00 -0.66541848586E+03  0.26901771943E+04  0.26065823554E+04 0.  0.
        3    1    3    3  502    0  0.51002360383E+03 -0.79662839826E+03  0.59260816179E+03  0.11162102512E+04  0.10100000352E+00 0.  1.
       -3    1    3    3    0  502 -0.51002360383E+03  0.79662839826E+03 -0.12580266476E+04  0.15739669430E+04  0.10100000352E+00 0. -1.
</event>
<event>
 5   0  0.3508470E-05  0.2564911E+04  0.7818609E-02  0.8380219E-01
       -2   -1    0    0    0  501  0.00000000000E+00  0.00000000000E+00  0.84705435472E+03  0.84705435472E+03  0.25500000920E-02 0. -1.
        2   -1    0    0  501    0  0.00000000000E+00  0.00000000000E+00 -0.19416613651E+04  0.19416613651E+04  0.25500000920E-02 0.  1.
    10030    2    1    2    0    0  0.00000000000E+00  0.00000000000E+00 -0.10946070104E+04  0.27887157198E+04  0.25649114719E+04 0.  0.
        5    1    3    3  502    0 -0.60042066231E+03 -0.67703536890E+03  0.44071788967E+03  0.10065466759E+04  0.46999998093E+01 0. -1.
       -5    1    3    3    0  502  0.60042066231E+03  0.67703536890E+03 -0.15353249000E+04  0.17821690439E+04  0.46999998093E+01 0.  1.
</event>
<event>
 5   0  0.3499642E-05  0.2561931E+04  0.7818609E-02  0.8381249E-01
        2   -1    0    0  501    0  0.00000000000E+00  0.00000000000E+00  0.14370359954E+04  0.14370359954E+04  0.25500000920E-02 0. -1.
       -2   -1    0    0    0  501  0.00000000000E+00  0.00000000000E+00 -0.11418448644E+04  0.11418448644E+04  0.25500000920E-02 0.  1.
    10030    2    1    2    0    0  0.00000000000E+00  0.00000000000E+00  0.29519113109E+03  0.25788808598E+04  0.25619306558E+04 0.  0.
        2    1    3    3  502    0 -0.54310261722E+03 -0.25531804225E+02  0.13151227410E+04  0.14230812168E+04  0.25500000920E-02 0. -1.
       -2    1    3    3    0  502  0.54310261722E+03  0.25531804225E+02 -0.10199316099E+04  0.11557996430E+04  0.25500000920E-02 0.  1.
</event>
<event>
 5   0  0.3499642E-05  0.2580863E+04  0.7818609E-02  0.8374731E-01
       -2   -1    0    0    0  501  0.00000000000E+00  0.00000000000E+00  0.11562407063E+04  0.11562407063E+04  0.25500000920E-02 0.  1.
        2   -1    0    0  501    0  0.00000000000E+00  0.00000000000E+00 -0.14401962787E+04  0.14401962787E+04  0.25500000920E-02 0. -1.
    10030    2    1    2    0    0  0.00000000000E+00  0.00000000000E+00 -0.28395557243E+03  0.25964369850E+04  0.25808630824E+04 0.  0.
        2    1    3    3  502    0  0.11528554840E+04 -0.45221833913E+03 -0.50698442956E+03  0.13381369157E+04  0.25500000920E-02 0. -1.
       -2    1    3    3    0  502 -0.11528554840E+04  0.45221833913E+03  0.22302885713E+03  0.12583000693E+04  0.25500000920E-02 0.  1.
</event>
<event>
 5   0  0.3647623E-05  0.1632757E+04  0.7818609E-02  0.8800673E-01
       -2   -1    0    0    0  501  0.00000000000E+00  0.00000000000E+00  0.41773907572E+03  0.41773907573E+03  0.25500000920E-02 0. -1.
        2   -1    0    0  501    0  0.00000000000E+00  0.00000000000E+00 -0.15954305650E+04  0.15954305650E+04  0.25500000920E-02 0.  1.
    10030    2    1    2    0    0  0.00000000000E+00  0.00000000000E+00 -0.11776914893E+04  0.20131696408E+04  0.16327567971E+04 0.  0.
        3    1    3    3  502    0  0.35426722762E+03  0.53439497252E+03  0.34259170167E+02  0.64207239169E+03  0.10100000352E+00 0. -1.
       -3    1    3    3    0  502 -0.35426722762E+03 -0.53439497252E+03 -0.12119506595E+04  0.13710972491E+04  0.10100000352E+00 0.  1.
</event>
<event>
 5   0  0.1435062E-05  0.2590631E+04  0.7818609E-02  0.8371390E-01
        1   -1    0    0  501    0  0.00000000000E+00  0.00000000000E+00  0.13395909735E+04  0.13395909735E+04  0.50400001928E-02 0.  1.
       -1   -1    0    0    0  501  0.00000000000E+00  0.00000000000E+00 -0.12525036936E+04  0.12525036936E+04  0.50400001928E-02 0. -1.
    10030    2    1    2    0    0  0.00000000000E+00  0.00000000000E+00  0.87087279947E+02  0.25920946671E+04  0.25906313071E+04 0.  0.
        2    1    3    3  502    0 -0.77444858271E+03 -0.78931541563E+02  0.10794263955E+04  0.13308501564E+04  0.25500000920E-02 0.  1.
       -2    1    3    3    0  502  0.77444858271E+03  0.78931541563E+02 -0.99233911557E+03  0.12612445107E+04  0.25500000920E-02 0. -1.
</event>
<event>
 5   0  0.3849687E-05  0.2042326E+04  0.7818609E-02  0.8587084E-01
       -2   -1    0    0    0  501  0.00000000000E+00  0.00000000000E+00  0.50028071003E+03  0.50028071004E+03  0.25500000920E-02 0.  1.
        2   -1    0    0  501    0  0.00000000000E+00  0.00000000000E+00 -0.20843776185E+04  0.20843776185E+04  0.25500000920E-02 0. -1.
    10030    2    1    2    0    0  0.00000000000E+00  0.00000000000E+00 -0.15840969085E+04  0.25846583286E+04  0.20423260415E+04 0.  0.
        1    1    3    3  502    0 -0.15867468817E+03  0.76728798480E+03  0.36730232613E+02  0.78438359130E+03  0.50400001928E-02 0.  1.
       -1    1    3    3    0  502  0.15867468817E+03 -0.76728798480E+03 -0.16208271411E+04  0.18002747373E+04  0.50400001928E-02 0. -1.
</event>
<event>
 5   0  0.1497497E-05  0.2537735E+04  0.7818609E-02  0.8389664E-01
        1   -1    0    0  501    0  0.00000000000E+00  0.00000000000E+00  0.19292353128E+04  0.19292353128E+04  0.50400001928E-02 0.  1.
       -1   -1    0    0    0  501  0.00000000000E+00  0.00000000000E+00 -0.83454033937E+03  0.83454033938E+03  0.50400001928E-02 0. -1.
    10030    2    1    2    0    0  0.00000000000E+00  0.00000000000E+00  0.10946949735E+04  0.27637756522E+04  0.25377349686E+04 0.  0.
        3    1    3    3  502    0  0.36953779580E+03 -0.87578377080E+03  0.14627311671E+04  0.17444591922E+04  0.10100000352E+00 0.  1.
       -3    1    3    3    0  502 -0.36953779580E+03  0.87578377080E+03 -0.36803619363E+03  0.10193164601E+04  0.10100000352E+00 0. -1.
</event>
<event>
 5   0  0.1497497E-05  0.2528450E+04  0.7818609E-02  0.8392920E-01
       -1   -1    0    0    0  501  0.00000000000E+00  0.00000000000E+00  0.11012501875E+04  0.11012501875E+04  0.50400001928E-02 0. -1.
        1   -1    0    0  501    0  0.00000000000E+00  0.00000000000E+00 -0.14513184161E+04  0.14513184161E+04  0.50400001928E-02 0.  1.
    10030    2    1    2    0    0  0.00000000000E+00  0.00000000000E+00 -0.35006822865E+03  0.25525686036E+04  0.25284498634E+04 0.  0.
        3    1    3    3  502    0  0.17602590677E+03 -0.17109134554E+02 -0.14387683448E+04  0.14495972553E+04  0.10100000352E+00 0.  1.
       -3    1    3    3    0  502 -0.17602590677E+03  0.17109134554E+02  0.10887001161E+04  0.11029713484E+04  0.10100000352E+00 0. -1.
</event>
<event>
 5   0  0.1533248E-05  0.2580305E+04  0.7818609E-02  0.8374922E-01
       -1   -1    0    0    0  501  0.00000000000E+00  0.00000000000E+00  0.91285817067E+03  0.91285817068E+03  0.50400001928E-02 0. -1.
        1   -1    0    0  501    0  0.00000000000E+00  0.00000000000E+00 -0.18233865044E+04  0.18233865044E+04  0.50400001928E-02 0.  1.
    10030    2    1    2    0    0  0.00000000000E+00  0.00000000000E+00 -0.91052833375E+03  0.27362446751E+04  0.25803048416E+04 0.  0.
        4    1    3    3  502    0 -0.97668149059E+03 -0.75477753012E+03 -0.85330986880E+03  0.15005782882E+04  0.12699999809E+01 0.  1.
       -4    1    3    3    0  502  0.97668149059E+03  0.75477753012E+03 -0.57218464953E+02  0.12356663869E+04  0.12699999809E+01 0. -1.
</event>
<event>
 5   0  0.3441646E-05  0.2591619E+04  0.7818609E-02  0.8371053E-01
       -2   -1    0    0    0  501  0.00000000000E+00  0.00000000000E+00  0.10886626833E+04  0.10886626833E+04  0.25500000920E-02 0. -1.
        2   -1    0    0  501    0  0.00000000000E+00  0.00000000000E+00 -0.15423719739E+04  0.15423719739E+04  0.25500000920E-02 0.  1.
    10030    2    1    2    0    0  0.00000000000E+00  0.00000000000E+00 -0.45370929061E+03  0.26310346571E+04  0.25916194255E+04 0.  0.
        4    1    3    3  502    0  0.16409651323E+03  0.23881454161E+03 -0.15090601113E+04  0.15366275032E+04  0.12699999809E+01 0.  1.
       -4    1    3    3    0  502 -0.16409651323E+03 -0.23881454161E+03  0.10553508207E+04  0.10944071540E+04  0.12699999809E+01 0. -1.
</event>
<event>
 5   0  0.1497497E-05  0.2359810E+04  0.7818609E-02  0.8454705E-01
        1   -1    0    0  501    0  0.00000000000E+00  0.00000000000E+00  0.17675421506E+04  0.17675421506E+04  0.50400001928E-02 0.  1.
       -1   -1    0    0    0  501  0.00000000000E+00  0.00000000000E+00 -0.78763402274E+03  0.78763402275E+03  0.50400001928E-02 0. -1.
    10030    2    1    2    0    0  0.00000000000E+00  0.00000000000E+00  0.97990812784E+03  0.25551761733E+04  0.23598104453E+04 0.  0.
        3    1    3    3  502    0  0.60127069344E+02 -0.55053598493E+03 -0.63815965407E+03  0.84495732996E+03  0.10100000352E+00 0. -1.
       -3    1    3    3    0  502 -0.60127069344E+02  0.55053598493E+03  0.16180677819E+04  0.17102188434E+04  0.10100000352E+00 0.  1.
</event>
<event>
 5   0  0.3508470E-05  0.2575416E+04  0.7818609E-02  0.8376600E-01
        2   -1    0    0  501    0  0.00000000000E+00  0.00000000000E+00  0.10562679374E+04  0.10562679374E+04  0.25500000920E-02 0.  1.
       -2   -1    0    0    0  501  0.00000000000E+00  0.00000000000E+00 -0.15698588042E+04  0.15698588042E+04  0.25500000920E-02 0. -1.
    10030    2    1    2    0    0  0.00000000000E+00  0.00000000000E+00 -0.51359086681E+03  0.26261267416E+04  0.25754157110E+04 0.  0.
        5    1    3    3  502    0 -0.10521070626E+04 -0.74171164786E+03 -0.29067603898E+03  0.13196893913E+04  0.46999998093E+01 0.  1.
       -5    1    3    3    0  502  0.10521070626E+04  0.74171164786E+03 -0.22291482784E+03  0.13064373503E+04  0.46999998093E+01 0. -1.
</event>
<event>
 5   0  0.1497497E-05  0.2548828E+04  0.7818609E-02  0.8385794E-01
       -1   -1    0    0    0  501  0.00000000000E+00  0.00000000000E+00  0.10777459345E+04  0.10777459345E+04  0.50400001928E-02 0.  1.
        1   -1    0    0  501    0  0.00000000000E+00  0.00000000000E+00 -0.15069698916E+04  0.15069698916E+04  0.50400001928E-02 0. -1.
    10030    2    1    2    0    0  0.00000000000E+00  0.00000000000E+00 -0.42922395708E+03  0.25847158260E+04  0.25488277102E+04 0.  0.
        3    1    3    3  502    0 -0.91064582886E-01  0.36140791582E+03 -0.14539138701E+04  0.14981592845E+04  0.10100000352E+00 0. -1.
       -3    1    3    3    0  502  0.91064582886E-01 -0.36140791582E+03  0.10246899130E+04  0.10865565415E+04  0.10100000352E+00 0.  1.
</event>
<event>
 5   0  0.3849687E-05  0.2618595E+04  0.7818609E-02  0.8361912E-01
       -2   -1    0    0    0  501  0.00000000000E+00  0.00000000000E+00  0.12155574462E+04  0.12155574462E+04  0.25500000920E-02 0.  1.
        2   -1    0    0  501    0  0.00000000000E+00  0.00000000000E+00 -0.14102663311E+04  0.14102663311E+04  0.25500000920E-02 0. -1.
    10030    2    1    2    0    0  0.00000000000E+00  0.00000000000E+00 -0.19470888489E+03  0.26258237773E+04  0.26185948444E+04 0.  0.
        1    1    3    3  502    0  0.12039012146E+03  0.14580134408E+03 -0.13965034514E+04  0.14092457923E+04  0.50400001928E-02 0. -1.
       -1    1    3    3    0  502 -0.12039012146E+03 -0.14580134408E+03  0.12017945665E+04  0.12165779849E+04  0.50400001928E-02 0.  1.
</event>
<event>
 5   0  0.1497497E-05  0.2541576E+04  0.7818609E-02  0.8388322E-01
        1   -1    0    0  501    0  0.00000000000E+00  0.00000000000E+00  0.23016679338E+04  0.23016679338E+04  0.50400001928E-02 0.  1.
       -1   -1    0    0    0  501  0.00000000000E+00  0.00000000000E+00 -0.70162237034E+03  0.70162237035E+03  0.50400001928E-02 0. -1.
    10030    2    1    2    0    0  0.00000000000E+00  0.00000000000E+00  0.16000455634E+04  0.30032903041E+04  0.25415756620E+04 0.  0.
        3    1    3    3  502    0  0.16869216564E+03 -0.13186988552E+03  0.22801987636E+04  0.22902299284E+04  0.10100000352E+00 0.  1.
       -3    1    3    3    0  502 -0.16869216564E+03  0.13186988552E+03 -0.68015320017E+03  0.71306037567E+03  0.10100000352E+00 0. -1.
</event>
<event>
 5   0  0.3508470E-05  0.2453248E+04  0.7818609E-02  0.8419833E-01
        2   -1    0    0  501    0  0.00000000000E+00  0.00000000000E+00  0.12500926648E+04  0.12500926648E+04  0.25500000920E-02 0.  1.
       -2   -1    0    0    0  501  0.00000000000E+00  0.00000000000E+00 -0.12035962328E+04  0.12035962328E+04  0.25500000920E-02 0. -1.
    10030    2    1    2    0    0  0.00000000000E+00  0.00000000000E+00  0.46496431941E+02  0.24536888976E+04  0.24532483136E+04 0.  0.
        5    1    3    3  502    0 -0.51726490875E+03  0.67182586675E+03 -0.86329223840E+03  0.12100448586E+04  0.46999998093E+01 0. -1.
       -5    1    3    3    0  502  0.51726490875E+03 -0.67182586675E+03  0.90978867034E+03  0.12436440390E+04  0.46999998093E+01 0.  1.
</event>
<event>
 5   0  0.3647623E-05  0.2631115E+04  0.7818609E-02  0.8357708E-01
       -2   -1    0    0    0  501  0.00000000000E+00  0.00000000000E+00  0.10454310741E+04  0.10454310741E+04  0.25500000920E-02 0. -1.
        2   -1    0    0  501    0  0.00000000000E+00  0.00000000000E+00 -0.16554815110E+04  0.16554815110E+04  0.25500000920E-02 0.  1.
    10030    2    1    2    0    0  0.00000000000E+00  0.00000000000E+00 -0.61005043689E+03  0.27009125851E+04  0.26311152116E+04 0.  0.
        3    1    3    3  502    0 -0.27035240451E+03  0.10123968901E+04  0.51147022247E+03  0.11660358847E+04  0.10100000352E+00 0. -1.
       -3    1    3    3    0  502  0.27035240451E+03 -0.10123968901E+04 -0.11215206594E+04  0.15348767004E+04  0.10100000352E+00 0.  1.
</event>
<event>
 5   0  0.3647623E-05  0.2574666E+04  0.7818609E-02  0.8376858E-01
        2   -1    0    0  501    0  0.00000000000E+00  0.00000000000E+00  0.17890375055E+04  0.17890375055E+04  0.25500000920E-02 0.  1.
       -2   -1    0    0    0  501  0.00000000000E+00  0.00000000000E+00 -0.92632294521E+03  0.92632294521E+03  0.25500000920E-02 0. -1.
    10030    2    1    2    0    0  0.00000000000E+00  0.00000000000E+00  0.86271456030E+03  0.27153604507E+04  0.25746661851E+04 0.  0.
        3    1    3    3  502    0  0.55824281583E+03  0.35897656360E+03 -0.73197339344E+03  0.98807098609E+03  0.10100000352E+00 0. -1.
       -3    1    3    3    0  502 -0.55824281583E+03 -0.35897656360E+03  0.15946879537E+04  0.17272894646E+04  0.10100000352E+00 0.  1.
</event>
<event>
 5   0  0.1451052E-05  0.2575183E+04  0.7818609E-02  0.8376680E-01
        1   -1    0    0  501    0  0.00000000000E+00  0.00000000000E+00  0.23824216124E+04  0.23824216124E+04  0.50400001928E-02 0.  1.
       -1   -1    0    0    0  501  0.00000000000E+00  0.00000000000E+00 -0.69588515062E+03  0.69588515064E+03  0.50400001928E-02 0. -1.
    10030    2    1    2    0    0  0.00000000000E+00  0.00000000000E+00  0.16865364617E+04  0.30783067630E+04  0.25751829625E+04 0.  0.
        1    1    3    3  502    0 -0.71260878373E+03 -0.25330037981E+03 -0.40240064781E+03  0.85667884440E+03  0.50400001928E-02 0. -1.
       -1    1    3    3    0  502  0.71260878373E+03  0.25330037981E+03  0.20889371095E+04  0.22216279186E+04  0.50400001928E-02 0.  1.
</event>
<event>
 5   0  0.1533248E-05  0.2628074E+04  0.7818609E-02  0.8358727E-01
        1   -1    0    0  501    0  0.00000000000E+00  0.00000000000E+00  0.17619994894E+04  0.17619994894E+04  0.50400001928E-02 0.  1.
       -1   -1    0    0    0  501  0.00000000000E+00  0.00000000000E+00 -0.97996210612E+03  0.97996210613E+03  0.50400001928E-02 0. -1.
    10030    2    1    2    0    0  0.00000000000E+00  0.00000000000E+00  0.78203738329E+03  0.27419615955E+04  0.26280736144E+04 0.  0.
        4    1    3    3  502    0 -0.97193995902E+03 -0.85103282549E+03  0.64178178144E+03  0.14425011688E+04  0.12699999809E+01 0.  1.
       -4    1    3    3    0  502  0.97193995902E+03  0.85103282549E+03  0.14025560185E+03  0.12994604268E+04  0.12699999809E+01 0. -1.
</event>
<event>
 5   0  0.1451052E-05  0.2074168E+04  0.7818609E-02  0.8572709E-01
       -1   -1    0    0    0  501  0.00000000000E+00  0.00000000000E+00  0.51394199793E+03  0.51394199796E+03  0.50400001928E-02 0. -1.
        1   -1    0    0  501    0  0.00000000000E+00  0.00000000000E+00 -0.20927336426E+04  0.20927336426E+04  0.50400001928E-02 0.  1.
    10030    2    1    2    0    0  0.00000000000E+00  0.00000000000E+00 -0.15787916447E+04  0.26066756406E+04  0.20741684690E+04 0.  0.
        1    1    3    3  502    0  0.83750240128E+03 -0.35845804716E+03 -0.14122603936E+04  0.16805897367E+04  0.50400001928E-02 0.  1.
       -1    1    3    3    0  502 -0.83750240128E+03  0.35845804716E+03 -0.16653125104E+03  0.92608590385E+03  0.50400001928E-02 0. -1.
</event>
<event>
 5   0  0.1217200E-05  0.1814634E+04  0.7818609E-02  0.8698556E-01
       -3   -1    0    0    0  501  0.00000000000E+00  0.00000000000E+00  0.44696950162E+03  0.44696951303E+03  0.10100000352E+00 0. -1.
        3   -1    0    0  501    0  0.00000000000E+00  0.00000000000E+00 -0.18417899156E+04  0.18417899184E+04  0.10100000352E+00 0.  1.
    10030    2    1    2    0    0  0.00000000000E+00  0.00000000000E+00 -0.13948204140E+04  0.22887594314E+04  0.18146337778E+04 0.  0.
        1    1    3    3  502    0  0.30013205768E+02  0.90385350019E+03 -0.60496616254E+03  0.10880422787E+04  0.50400001928E-02 0.  1.
       -1    1    3    3    0  502 -0.30013205768E+02 -0.90385350019E+03 -0.78985425146E+03  0.12007171527E+04  0.50400001928E-02 0. -1.
</event>
<event>
 5   0  0.1474554E-05  0.2538007E+04  0.7818609E-02  0.8389569E-01
        1   -1    0    0  501    0  0.00000000000E+00  0.00000000000E+00  0.12265689044E+04  0.12265689045E+04  0.50400001928E-02 0.  1.
       -1   -1    0    0    0  501  0.00000000000E+00  0.00000000000E+00 -0.13129060225E+04  0.13129060225E+04  0.50400001928E-02 0. -1.
    10030    2    1    2    0    0  0.00000000000E+00  0.00000000000E+00 -0.86337118036E+02  0.25394749269E+04  0.25380068571E+04 0.  0.
        5    1    3    3  502    0 -0.96542130084E+02  0.75321907119E+03  0.97412414548E+03  0.12351515263E+04  0.46999998093E+01 0.  1.
       -5    1    3    3    0  502  0.96542130084E+02 -0.75321907119E+03 -0.10604612635E+04  0.13043234007E+04  0.46999998093E+01 0. -1.
</event>
<event>
 5   0  0.1533248E-05  0.2656785E+04  0.7818609E-02  0.8349165E-01
       -1   -1    0    0    0  501  0.00000000000E+00  0.00000000000E+00  0.16696478874E+04  0.16696478874E+04  0.50400001928E-02 0. -1.
        1   -1    0    0  501    0  0.00000000000E+00  0.00000000000E+00 -0.10568852382E+04  0.10568852382E+04  0.50400001928E-02 0.  1.
    10030    2    1    2    0    0  0.00000000000E+00  0.00000000000E+00  0.61276264922E+03  0.27265331256E+04  0.26567846772E+04 0.  0.
        4    1    3    3  502    0  0.23314219888E+03 -0.24027492261E+03 -0.10128776340E+04  0.10667755329E+04  0.12699999809E+01 0.  1.
       -4    1    3    3    0  502 -0.23314219888E+03  0.24027492261E+03  0.16256402832E+04  0.16597575927E+04  0.12699999809E+01 0. -1.
</event>
<event>
 5   0  0.1435062E-05  0.2634074E+04  0.7818609E-02  0.8356718E-01
       -1   -1    0    0    0  501  0.00000000000E+00  0.00000000000E+00  0.14008857507E+04  0.14008857507E+04  0.50400001928E-02 0.  1.
        1   -1    0    0  501    0  0.00000000000E+00  0.00000000000E+00 -0.12382065699E+04  0.12382065699E+04  0.50400001928E-02 0. -1.
    10030    2    1    2    0    0  0.00000000000E+00  0.00000000000E+00  0.16267918085E+03  0.26390923206E+04  0.26340736058E+04 0.  0.
        2    1    3    3  502    0  0.62871055477E+03  0.11353127826E+04  0.30620844598E+03  0.13334075478E+04  0.25500000920E-02 0. -1.
       -2    1    3    3    0  502 -0.62871055477E+03 -0.11353127826E+04 -0.14352926513E+03  0.13056847728E+04  0.25500000920E-02 0.  1.
</event>
<event>
 5   0  0.3499642E-05  0.2593931E+04  0.7818609E-02  0.8370266E-01
       -2   -1    0    0    0  501  0.00000000000E+00  0.00000000000E+00  0.13951600686E+04  0.13951600686E+04  0.25500000920E-02 0. -1.
        2   -1    0    0  501    0  0.00000000000E+00  0.00000000000E+00 -0.12056822159E+04  0.12056822159E+04  0.25500000920E-02 0.  1.
    10030    2    1    2    0    0  0.00000000000E+00  0.00000000000E+00  0.18947785269E+03  0.26008422846E+04  0.25939311349E+04 0.  0.
        2    1    3    3  502    0  0.89587271328E+03 -0.22027151070E+03 -0.81928861497E+03  0.12338319543E+04  0.25500000920E-02 0.  1.
       -2    1    3    3    0  502 -0.89587271328E+03  0.22027151070E+03  0.10087664677E+04  0.13670103303E+04  0.25500000920E-02 0. -1.
</event>
<event>
 5   0  0.1474554E-05  0.2576530E+04  0.7818609E-02  0.8376217E-01
       -1   -1    0    0    0  501  0.00000000000E+00  0.00000000000E+00  0.23426835899E+04  0.23426835900E+04  0.50400001928E-02 0.  1.
        1   -1    0    0  501    0  0.00000000000E+00  0.00000000000E+00 -0.70842962024E+03  0.70842962026E+03  0.50400001928E-02 0. -1.
    10030    2    1    2    0    0  0.00000000000E+00  0.00000000000E+00  0.16342539697E+04  0.30511132102E+04  0.25765297949E+04 0.  0.
        5    1    3    3  502    0 -0.10634663691E+04  0.45851068157E+03  0.14853440902E+04  0.18834707111E+04  0.46999998093E+01 0.  1.
       -5    1    3    3    0  502  0.10634663691E+04 -0.45851068157E+03  0.14890987949E+03  0.11676424991E+04  0.46999998093E+01 0. -1.
</event>
<event>
 5   0  0.1497497E-05  0.2635659E+04  0.7818609E-02  0.8356189E-01
       -1   -1    0    0    0  501  0.00000000000E+00  0.00000000000E+00  0.17499239607E+04  0.17499239607E+04  0.50400001928E-02 0.  1.
        1   -1    0    0  501    0  0.00000000000E+00  0.00000000000E+00 -0.99242860596E+03  0.99242860597E+03  0.50400001928E-02 0. -1.
    10030    2    1    2    0    0  0.00000000000E+00  0.00000000000E+00  0.75749535474E+03  0.27423525667E+04  0.26356590044E+04 0.  0.
        3    1    3    3  502    0 -0.12558705359E+04  0.17610376029E+03  0.58383609973E+01  0.12681709009E+04  0.10100000352E+00 0. -1.
       -3    1    3    3    0  502  0.12558705359E+04 -0.17610376029E+03  0.75165699375E+03  0.14741816658E+04  0.10100000352E+00 0.  1.
</event>
<event>
 5   0  0.3499642E-05  0.2443553E+04  0.7818609E-02  0.8423376E-01
        2   -1    0    0  501    0  0.00000000000E+00  0.00000000000E+00  0.71783461108E+03  0.71783461108E+03  0.25500000920E-02 0. -1.
       -2   -1    0    0    0  501  0.00000000000E+00  0.00000000000E+00 -0.20795014328E+04  0.20795014328E+04  0.25500000920E-02 0.  1.
    10030    2    1    2    0    0  0.00000000000E+00  0.00000000000E+00 -0.13616668218E+04  0.27973360439E+04  0.24435532344E+04 0.  0.
        2    1    3    3  502    0 -0.12039070840E+04  0.49830788354E+02 -0.91224575097E+03  0.15113132318E+04  0.25500000920E-02 0.  1.
       -2    1    3    3    0  502  0.12039070840E+04 -0.49830788354E+02 -0.44942107080E+03  0.12860228121E+04  0.25500000920E-02 0. -1.
</event>
<event>
 5   0  0.1435062E-05  0.2773802E+04  0.7818609E-02  0.8311448E-01
        1   -1    0    0  501    0  0.00000000000E+00  0.00000000000E+00  0.11490783687E+04  0.11490783688E+04  0.50400001928E-02 0. -1.
       -1   -1    0    0    0  501  0.00000000000E+00  0.00000000000E+00 -0.16739452324E+04  0.16739452324E+04  0.50400001928E-02 0.  1.
    10030    2    1    2    0    0  0.00000000000E+00  0.00000000000E+00 -0.52486686364E+03  0.28230236012E+04  0.27738019086E+04 0.  0.
        2    1    3    3  502    0 -0.35427166914E+02  0.13385193505E+04  0.10537287301E+03  0.13431279084E+04  0.25500000920E-02 0.  1.
       -2    1    3    3    0  502  0.35427166914E+02 -0.13385193505E+04 -0.63023973665E+03  0.14798956928E+04  0.25500000920E-02 0. -1.
</event>
<event>
 5   0  0.1474554E-05  0.2588388E+04  0.7818609E-02  0.8372156E-01
        1   -1    0    0  501    0  0.00000000000E+00  0.00000000000E+00  0.31619358076E+04  0.31619358076E+04  0.50400001928E-02 0.  1.
       -1   -1    0    0    0  501  0.00000000000E+00  0.00000000000E+00 -0.52971906956E+03  0.52971906958E+03  0.50400001928E-02 0. -1.
    10030    2    1    2    0    0  0.00000000000E+00  0.00000000000E+00  0.26322167380E+04  0.36916548772E+04  0.25883876789E+04 0.  0.
        5    1    3    3  502    0  0.11271642110E+04  0.63511439121E+03  0.13622390526E+04  0.18787194508E+04  0.46999998093E+01 0. -1.
       -5    1    3    3    0  502 -0.11271642110E+04 -0.63511439121E+03  0.12699776855E+04  0.18129354263E+04  0.46999998093E+01 0.  1.
</event>
<event>
 5   0  0.3849687E-05  0.2634118E+04  0.7818609E-02  0.8356704E-01
        2   -1    0    0  501    0  0.00000000000E+00  0.00000000000E+00  0.23070391189E+04  0.23070391189E+04  0.25500000920E-02 0.  1.
       -2   -1    0    0    0  501  0.00000000000E+00  0.00000000000E+00 -0.75189202267E+03  0.75189202267E+03  0.25500000920E-02 0. -1.
    10030    2    1    2    0    0  0.00000000000E+00  0.00000000000E+00  0.15551470962E+04  0.30589311415E+04  0.26341179241E+04 0.  0.
        1    1    3    3  502    0 -0.13510187816E+03  0.99282540557E+03 -0.21508736708E+03  0.10248011412E+04  0.50400001928E-02 0. -1.
       -1    1    3    3    0  502  0.13510187816E+03 -0.99282540557E+03  0.17702344633E+04  0.20341300004E+04  0.50400001928E-02 0.  1.
</event>
<event>
 5   0  0.3499642E-05  0.2647285E+04  0.7818609E-02  0.8352315E-01
       -2   -1    0    0    0  501  0.00000000000E+00  0.00000000000E+00  0.84268669879E+03  0.84268669880E+03  0.25500000920E-02 0.  1.
        2   -1    0    0  501    0  0.00000000000E+00  0.00000000000E+00 -0.20790994687E+04  0.20790994687E+04  0.25500000920E-02 0. -1.
    10030    2    1    2    0    0  0.00000000000E+00  0.00000000000E+00 -0.12364127699E+04  0.29217861675E+04  0.26472849999E+04 0.  0.
        2    1    3    3  502    0  0.62542465038E+03  0.96670788745E+03  0.10245379314E+03  0.11559311886E+04  0.25500000920E-02 0.  1.
       -2    1    3    3    0  502 -0.62542465038E+03 -0.96670788745E+03 -0.13388665630E+04  0.17658549789E+04  0.25500000920E-02 0. -1.
</event>
<event>
 5   0  0.3441646E-05  0.2505502E+04  0.7818609E-02  0.8401028E-01
       -2   -1    0    0    0  501  0.00000000000E+00  0.00000000000E+00  0.95576038506E+03  0.95576038506E+03  0.25500000920E-02 0. -1.
        2   -1    0    0  501    0  0.00000000000E+00  0.00000000000E+00 -0.16420271442E+04  0.16420271442E+04  0.25500000920E-02 0.  1.
    10030    2    1    2    0    0  0.00000000000E+00  0.00000000000E+00 -0.68626675917E+03  0.25977875293E+04  0.25055015431E+04 0.  0.
        4    1    3    3  502    0  0.40435184225E+03  0.11554008516E+04 -0.66994191969E+02  0.12259450946E+04  0.12699999809E+01 0. -1.
       -4    1    3    3    0  502 -0.40435184225E+03 -0.11554008516E+04 -0.61927256720E+03  0.13718424347E+04  0.12699999809E+01 0.  1.
</event>
<event>
 5   0  0.3508470E-05  0.2006315E+04  0.7818609E-02  0.8603674E-01
        2   -1    0    0  501    0  0.00000000000E+00  0.00000000000E+00  0.23949750885E+04  0.23949750885E+04  0.25500000920E-02 0.  1.
       -2   -1    0    0    0  501  0.00000000000E+00  0.00000000000E+00 -0.42018189305E+03  0.42018189306E+03  0.25500000920E-02 0. -1.
    10030    2    1    2    0    0  0.00000000000E+00  0.00000000000E+00  0.19747931955E+04  0.28151569816E+04  0.20063151961E+04 0.  0.
        5    1    3    3  502    0 -0.18383453151E+03  0.31516384975E+03 -0.32376212179E+03  0.48781901221E+03  0.46999998093E+01 0. -1.
       -5    1    3    3    0  502  0.18383453151E+03 -0.31516384975E+03  0.22985553173E+04  0.23273379694E+04  0.46999998093E+01 0.  1.
</event>
<event>
 5   0  0.3441646E-05  0.2581006E+04  0.7818609E-02  0.8374682E-01
        2   -1    0    0  501    0  0.00000000000E+00  0.00000000000E+00  0.23349033322E+04  0.23349033322E+04  0.25500000920E-02 0.  1.
       -2   -1    0    0    0  501  0.00000000000E+00  0.00000000000E+00 -0.71326222677E+03  0.71326222678E+03  0.25500000920E-02 0. -1.
    10030    2    1    2    0    0  0.00000000000E+00  0.00000000000E+00  0.16216411054E+04  0.30481655590E+04  0.25810062766E+04 0.  0.
        4    1    3    3  502    0 -0.11099325473E+03 -0.73761468657E+03  0.20545205066E+04  0.21857381027E+04  0.12699999809E+01 0.  1.
       -4    1    3    3    0  502  0.11099325473E+03  0.73761468657E+03 -0.43287940123E+03  0.86242745628E+03  0.12699999809E+01 0. -1.
</event>
<event>
 5   0  0.3849687E-05  0.2589094E+04  0.7818609E-02  0.8371915E-01
        2   -1    0    0  501    0  0.00000000000E+00  0.00000000000E+00  0.18937546309E+04  0.18937546309E+04  0.25500000920E-02 0. -1.
       -2   -1    0    0    0  501  0.00000000000E+00  0.00000000000E+00 -0.88493631925E+03  0.88493631926E+03  0.25500000920E-02 0.  1.
    10030    2    1    2    0    0  0.00000000000E+00  0.00000000000E+00  0.10088183116E+04  0.27786909502E+04  0.25890942452E+04 0.  0.
        1    1    3    3  502    0 -0.96205272622E+03 -0.83047813173E+03  0.24018358940E+03  0.12934169985E+04  0.50400001928E-02 0.  1.
       -1    1    3    3    0  502  0.96205272622E+03  0.83047813173E+03  0.76863472225E+03  0.14852739517E+04  0.50400001928E-02 0. -1.
</event>
<event>
 5   0  0.1435062E-05  0.2579397E+04  0.7818609E-02  0.8375233E-01
        1   -1    0    0  501    0  0.00000000000E+00  0.00000000000E+00  0.10875216472E+04  0.10875216472E+04  0.50400001928E-02 0.  1.
       -1   -1    0    0    0  501  0.00000000000E+00  0.00000000000E+00 -0.15294610878E+04  0.15294610878E+04  0.50400001928E-02 0. -1.
    10030    2    1    2    0    0  0.00000000000E+00  0.00000000000E+00 -0.44193944061E+03  0.26169827350E+04  0.25793968610E+04 0.  0.
        2    1    3    3  502    0  0.14541507952E+02  0.12112832828E+04 -0.67002899615E+03  0.13843256489E+04  0.25500000920E-02 0. -1.
       -2    1    3    3    0  502 -0.14541507952E+02 -0.12112832828E+04  0.22808955555E+03  0.12326570861E+04  0.25500000920E-02 0.  1.
</event>
<event>
 5   0  0.3499642E-05  0.2573653E+04  0.7818609E-02  0.8377206E-01
       -2   -1    0    0    0  501  0.00000000000E+00  0.00000000000E+00  0.59783657570E+03  0.59783657571E+03  0.25500000920E-02 0. -1.
        2   -1    0    0  501    0  0.00000000000E+00  0.00000000000E+00 -0.27698590633E+04  0.27698590633E+04  0.25500000920E-02 0.  1.
    10030    2    1    2    0    0  0.00000000000E+00  0.00000000000E+00 -0.21720224876E+04  0.33676956390E+04  0.25736534791E+04 0.  0.
        2    1    3    3  502    0  0.68265421274E+03  0.10777894689E+04 -0.86597569287E+03  0.15419341147E+04  0.25500000920E-02 0.  1.
       -2    1    3    3    0  502 -0.68265421274E+03 -0.10777894689E+04 -0.13060467947E+04  0.18257615243E+04  0.25500000920E-02 0. -1.
</event>
<event>
 5   0  0.3647623E-05  0.2573591E+04  0.7818609E-02  0.8377227E-01
       -2   -1    0    0    0  501  0.00000000000E+00  0.00000000000E+00  0.10709931162E+04  0.10709931162E+04  0.25500000920E-02 0. -1.
        2   -1    0    0  501    0  0.00000000000E+00  0.00000000000E+00 -0.15460814110E+04  0.15460814110E+04  0.25500000920E-02 0.  1.
    10030    2    1    2    0    0  0.00000000000E+00  0.00000000000E+00 -0.47508829482E+03  0.26170745272E+04  0.25735909141E+04 0.  0.
        3    1    3    3  502    0  0.19397954531E+03 -0.25476272341E+03 -0.15049208070E+04  0.15386093574E+04  0.10100000352E+00 0.  1.
       -3    1    3    3    0  502 -0.19397954531E+03  0.25476272341E+03  0.10298325121E+04  0.10784651698E+04  0.10100000352E+00 0. -1.
</event>
<event>
 5   0  0.3508470E-05  0.2549451E+04  0.7818609E-02  0.8385577E-01
        2   -1    0    0  501    0  0.00000000000E+00  0.00000000000E+00  0.97482684887E+03  0.97482684888E+03  0.25500000920E-02 0.  1.
       -2   -1    0    0    0  501  0.00000000000E+00  0.00000000000E+00 -0.16668860322E+04  0.16668860322E+04  0.25500000920E-02 0. -1.
    10030    2    1    2    0    0  0.00000000000E+00  0.00000000000E+00 -0.69205918332E+03  0.26417128811E+04  0.25494511238E+04 0.  0.
        5    1    3    3  502    0  0.20409324092E+03 -0.30422930391E+03 -0.16111536769E+04  0.16522856233E+04  0.46999998093E+01 0. -1.
       -5    1    3    3    0  502 -0.20409324092E+03  0.30422930391E+03  0.91909449357E+03  0.98942725779E+03  0.46999998093E+01 0.  1.
</event>
<event>
 5   0  0.3849687E-05  0.2562232E+04  0.7818609E-02  0.8381144E-01
       -2   -1    0    0    0  501  0.00000000000E+00  0.00000000000E+00  0.78996731437E+03  0.78996731437E+03  0.25500000920E-02 0. -1.
        2   -1    0    0  501    0  0.00000000000E+00  0.00000000000E+00 -0.20776285939E+04  0.20776285939E+04  0.25500000920E-02 0.  1.
    10030    2    1    2    0    0  0.00000000000E+00  0.00000000000E+00 -0.12876612795E+04  0.28675959082E+04  0.25622323709E+04 0.  0.
        1    1    3    3  502    0 -0.95437983204E+03  0.14622456817E+03  0.29856580787E+03  0.10106255636E+04  0.50400001928E-02 0. -1.
       -1    1    3    3    0  502  0.95437983204E+03 -0.14622456817E+03 -0.15862270874E+04  0.18569703446E+04  0.50400001928E-02 0.  1.
</event>
<event>
 5   0  0.1451052E-05  0.2508032E+04  0.7818609E-02  0.8400130E-01
       -1   -1    0    0    0  501  0.00000000000E+00  0.00000000000E+00  0.18293359978E+04  0.18293359978E+04  0.50400001928E-02 0. -1.
        1   -1    0    0  501    0  0.00000000000E+00  0.00000000000E+00 -0.85963191780E+03  0.85963191782E+03  0.50400001928E-02 0.  1.
    10030    2    1    2    0    0  0.00000000000E+00  0.00000000000E+00  0.96970407995E+03  0.26889679156E+04  0.25080315884E+04 0.  0.
        1    1    3    3  502    0 -0.63098052147E+03 -0.50981548315E+03 -0.54043678143E+03  0.97474107336E+03  0.50400001928E-02 0.  1.
       -1    1    3    3    0  502  0.63098052147E+03  0.50981548315E+03  0.15101408614E+04  0.17142268422E+04  0.50400001928E-02 0. -1.
</event>
<event>
 5   0  0.3499642E-05  0.2568262E+04  0.7818609E-02  0.8379062E-01
        2   -1    0    0  501    0  0.00000000000E+00  0.00000000000E+00  0.30115144512E+04  0.30115144512E+04  0.25500000920E-02 0.  1.
       -2   -1    0    0    0  501  0.00000000000E+00  0.00000000000E+00 -0.54756260784E+03  0.54756260785E+03  0.25500000920E-02 0. -1.
    10030    2    1    2    0    0  0.00000000000E+00  0.00000000000E+00  0.24639518433E+04  0.35590770590E+04  0.25682622191E+04 0.  0.
        2    1    3    3  502    0 -0.10433150888E+04 -0.20557330334E+03  0.22295785986E+04  0.24701796463E+04  0.25500000920E-02 0.  1.
       -2    1    3    3    0  502  0.10433150888E+04  0.20557330334E+03  0.23437324477E+03  0.10888974128E+04  0.25500000920E-02 0. -1.
</event>
<event>
 5   0  0.1474554E-05  0.2591720E+04  0.7818609E-02  0.8371019E-01
        1   -1    0    0  501    0  0.00000000000E+00  0.00000000000E+00  0.30323120900E+04  0.30323120900E+04  0.50400001928E-02 0. -1.
       -1   -1    0    0    0  501  0.00000000000E+00  0.00000000000E+00 -0.55378638927E+03  0.55378638929E+03  0.50400001928E-02 0.  1.
    10030    2    1    2    0    0  0.00000000000E+00  0.00000000000E+00  0.24785257007E+04  0.35860984793E+04  0.25917200184E+04 0.  0.
        5    1    3    3  502    0  0.10023548369E+04 -0.62342014481E+03  0.19790609935E+04  0.23043594342E+04  0.46999998093E+01 0. -1.
       -5    1    3    3    0  502 -0.10023548369E+04  0.62342014481E+03  0.49946470718E+03  0.12817390451E+04  0.46999998093E+01 0.  1.
</event>
<event>
 5   0  0.3508470E-05  0.2598778E+04  0.7818609E-02  0.8368616E-01
        2   -1    0    0  501    0  0.00000000000E+00  0.00000000000E+00  0.14241818573E+04  0.14241818573E+04  0.25500000920E-02 0.  1.
       -2   -1    0    0    0  501  0.00000000000E+00  0.00000000000E+00 -0.11855307879E+04  0.11855307879E+04  0.25500000920E-02 0. -1.
    10030    2    1    2    0    0  0.00000000000E+00  0.00000000000E+00  0.23865106937E+03  0.26097126452E+04  0.25987777431E+04 0.  0.
        5    1    3    3  502    0  0.61516070465E+03  0.10612931197E+04  0.54964180376E+03  0.13442075661E+04  0.46999998093E+01 0.  1.
       -5    1    3    3    0  502 -0.61516070465E+03 -0.10612931197E+04 -0.31099073439E+03  0.12655050791E+04  0.46999998093E+01 0. -1.
</event>
<event>
 5   0  0.1533248E-05  0.2571547E+04  0.7818609E-02  0.8377931E-01
        1   -1    0    0  501    0  0.00000000000E+00  0.00000000000E+00  0.11168139642E+04  0.11168139642E+04  0.50400001928E-02 0.  1.
       -1   -1    0    0    0  501  0.00000000000E+00  0.00000000000E+00 -0.14802941736E+04  0.14802941736E+04  0.50400001928E-02 0. -1.
    10030    2    1    2    0    0  0.00000000000E+00  0.00000000000E+00 -0.36348020943E+03  0.25971081378E+04  0.25715467751E+04 0.  0.
        4    1    3    3  502    0 -0.44393751203E+03  0.18774396549E+03 -0.13855968394E+04  0.14670407375E+04  0.12699999809E+01 0. -1.
       -4    1    3    3    0  502  0.44393751203E+03 -0.18774396549E+03  0.10221166300E+04  0.11300674003E+04  0.12699999809E+01 0.  1.
</event>
<event>
 5   0  0.3441646E-05  0.2598561E+04  0.7818609E-02  0.8368690E-01
        2   -1    0    0  501    0  0.00000000000E+00  0.00000000000E+00  0.13978410730E+04  0.13978410730E+04  0.25500000920E-02 0.  1.
       -2   -1    0    0    0  501  0.00000000000E+00  0.00000000000E+00 -0.12076692058E+04  0.12076692058E+04  0.25500000920E-02 0. -1.
    10030    2    1    2    0    0  0.00000000000E+00  0.00000000000E+00  0.19017186719E+03  0.26055102789E+04  0.25985608467E+04 0.  0.
        4    1    3    3  502    0  0.94277769435E+03 -0.60278328188E+03  0.75711721429E+03  0.13510757029E+04  0.12699999809E+01 0.  1.
       -4    1    3    3    0  502 -0.94277769435E+03  0.60278328188E+03 -0.56694534709E+03  0.12544345760E+04  0.12699999809E+01 0. -1.
</event>
<event>
 5   0  0.1451052E-05  0.2563138E+04  0.7818609E-02  0.8380831E-01
       -1   -1    0    0    0  501  0.00000000000E+00  0.00000000000E+00  0.14531234776E+04  0.14531234776E+04  0.50400001928E-02 0. -1.
        1   -1    0    0  501    0  0.00000000000E+00  0.00000000000E+00 -0.11302682016E+04  0.11302682016E+04  0.50400001928E-02 0.  1.
    10030    2    1    2    0    0  0.00000000000E+00  0.00000000000E+00  0.32285527596E+03  0.25833916792E+04  0.25631381233E+04 0.  0.
        1    1    3    3  502    0 -0.97499662566E+03  0.80501710321E+03  0.37224134889E+03  0.13180419486E+04  0.50400001928E-02 0.  1.
       -1    1    3    3    0  502  0.97499662566E+03 -0.80501710321E+03 -0.49386072934E+02  0.12653497306E+04  0.50400001928E-02 0. -1.
</event>
<event>
 5   0  0.3849687E-05  0.2595605E+04  0.7818609E-02  0.8369696E-01
       -2   -1    0    0    0  501  0.00000000000E+00  0.00000000000E+00  0.11053482569E+04  0.11053482569E+04  0.25500000920E-02 0.  1.
        2   -1    0    0  501    0  0.00000000000E+00  0.00000000000E+00 -0.15237650107E+04  0.15237650107E+04  0.25500000920E-02 0. -1.
    10030    2    1    2    0    0  0.00000000000E+00  0.00000000000E+00 -0.41841675384E+03  0.26291132676E+04  0.25956047454E+04 0.  0.
        1    1    3    3  502    0  0.21146642599E+03  0.11379970973E+04 -0.80375752474E+03  0.14091776330E+04  0.50400001928E-02 0. -1.
       -1    1    3    3    0  502 -0.21146642599E+03 -0.11379970973E+04  0.38534077089E+03  0.12199356346E+04  0.50400001928E-02 0.  1.
</event>
<event>
 5   0  0.1533248E-05  0.2525471E+04  0.7818609E-02  0.8393967E-01
       -1   -1    0    0    0  501  0.00000000000E+00  0.00000000000E+00  0.14750488659E+04  0.14750488659E+04  0.50400001928E-02 0.  1.
        1   -1    0    0  501    0  0.00000000000E+00  0.00000000000E+00 -0.10809818093E+04  0.10809818093E+04  0.50400001928E-02 0. -1.
    10030    2    1    2    0    0  0.00000000000E+00  0.00000000000E+00  0.39406705661E+03  0.25560306752E+04  0.25254710388E+04 0.  0.
        4    1    3    3  502    0  0.15255084222E+03 -0.58567324363E+02 -0.10702350045E+04  0.10826386602E+04  0.12699999809E+01 0. -1.
       -4    1    3    3    0  502 -0.15255084222E+03  0.58567324363E+02  0.14643020611E+04  0.14733920150E+04  0.12699999809E+01 0.  1.
</event>
<event>
 5   0  0.3647623E-05  0.2591573E+04  0.7818609E-02  0.8371069E-01
        2   -1    0    0  501    0  0.00000000000E+00  0.00000000000E+00  0.16301807602E+04  0.16301807602E+04  0.25500000920E-02 0. -1.
       -2   -1    0    0    0  501  0.00000000000E+00  0.00000000000E+00 -0.10299859264E+04  0.10299859264E+04  0.25500000920E-02 0.  1.
    10030    2    1    2    0    0  0.00000000000E+00  0.00000000000E+00  0.60019483380E+03  0.26601666866E+04  0.25915734530E+04 0.  0.
        3    1    3    3  502    0  0.12259019308E+04 -0.40677584707E+03  0.19361605623E+03  0.13060586975E+04  0.10100000352E+00 0. -1.
       -3    1    3    3    0  502 -0.12259019308E+04  0.40677584707E+03  0.40657877757E+03  0.13541079892E+04  0.10100000352E+00 0.  1.
</event>
<event>
 5   0  0.1497497E-05  0.2475138E+04  0.7818609E-02  0.8411897E-01
        1   -1    0    0  501    0  0.00000000000E+00  0.00000000000E+00  0.11528406623E+04  0.11528406623E+04  0.50400001928E-02 0.  1.
       -1   -1    0    0    0  501  0.00000000000E+00  0.00000000000E+00 -0.13285242766E+04  0.13285242766E+04  0.50400001928E-02 0. -1.
    10030    2    1    2    0    0  0.00000000000E+00  0.00000000000E+00 -0.17568361430E+03  0.24813649390E+04  0.24751378200E+04 0.  0.
        3    1    3    3  502    0  0.98549972943E+03  0.74838711522E+03 -0.10473072958E+03  0.12418782255E+04  0.10100000352E+00 0. -1.
       -3    1    3    3    0  502 -0.98549972943E+03 -0.74838711522E+03 -0.70952884724E+02  0.12394867135E+04  0.10100000352E+00 0.  1.
</event>
<event>
 5   0  0.3849687E-05  0.2669246E+04  0.7818609E-02  0.8345053E-01
        2   -1    0    0  501    0  0.00000000000E+00  0.00000000000E+00  0.13670959717E+04  0.13670959717E+04  0.25500000920E-02 0.  1.
       -2   -1    0    0    0  501  0.00000000000E+00  0.00000000000E+00 -0.13029214491E+04  0.13029214491E+04  0.25500000920E-02 0. -1.
    10030    2    1    2    0    0  0.00000000000E+00  0.00000000000E+00  0.64174522624E+02  0.26700174208E+04  0.26692460842E+04 0.  0.
        1    1    3    3  502    0 -0.80630939572E+03 -0.16365164314E+03  0.10832486565E+04  0.13602736320E+04  0.50400001928E-02 0.  1.
       -1    1    3    3    0  502  0.80630939572E+03  0.16365164314E+03 -0.10190741339E+04  0.13097437888E+04  0.50400001928E-02 0. -1.
</event>
<event>
 5   0  0.1533248E-05  0.2651572E+04  0.7818609E-02  0.8350891E-01
       -1   -1    0    0    0  501  0.00000000000E+00  0.00000000000E+00  0.15555891887E+04  0.15555891887E+04  0.50400001928E-02 0.  1.
        1   -1    0    0  501    0  0.00000000000E+00  0.00000000000E+00 -0.11299308054E+04  0.11299308054E+04  0.50400001928E-02 0. -1.
    10030    2    1    2    0    0  0.00000000000E+00  0.00000000000E+00  0.42565838330E+03  0.26855199942E+04  0.26515717188E+04 0.  0.
        4    1    3    3  502    0 -0.51085690570E+03  0.85634308915E+02  0.14488633439E+04  0.15386730047E+04  0.12699999809E+01 0.  1.
       -4    1    3    3    0  502  0.51085690570E+03 -0.85634308915E+02 -0.10232049606E+04  0.11468469895E+04  0.12699999809E+01 0. -1.
</event>
<event>
 5   0  0.3647623E-05  0.1992860E+04  0.7818609E-02  0.8609966E-01
       -2   -1    0    0    0  501  0.00000000000E+00  0.00000000000E+00  0.98891965481E+03  0.98891965482E+03  0.25500000920E-02 0. -1.
        2   -1    0    0  501    0  0.00000000000E+00  0.00000000000E+00 -0.10039974583E+04  0.10039974583E+04  0.25500000920E-02 0.  1.
    10030    2    1    2    0    0  0.00000000000E+00  0.00000000000E+00 -0.15077803478E+02  0.19929171131E+04  0.19928600753E+04 0.  0.
        3    1    3    3  502    0  0.64496897700E+03 -0.39325204460E+03 -0.65735797513E+03  0.10013748896E+04  0.10100000352E+00 0.  1.
       -3    1    3    3    0  502 -0.64496897700E+03  0.39325204460E+03  0.64228017166E+03  0.99154222350E+03  0.10100000352E+00 0. -1.
</event>
<event>
 5   0  0.1533248E-05  0.2600325E+04  0.7818609E-02  0.8368091E-01
       -1   -1    0    0    0  501  0.00000000000E+00  0.00000000000E+00  0.69909864403E+03  0.69909864404E+03  0.50400001928E-02 0.  1.
        1   -1    0    0  501    0  0.00000000000E+00  0.00000000000E+00 -0.24180031226E+04  0.24180031226E+04  0.50400001928E-02 0. -1.
    10030    2    1    2    0    0  0.00000000000E+00  0.00000000000E+00 -0.17189044785E+04  0.31171017666E+04  0.26003251368E+04 0.  0.
        4    1    3    3  502    0  0.12753041981E+04 -0.22966696223E+03 -0.98672937736E+03  0.16287369918E+04  0.12699999809E+01 0. -1.
       -4    1    3    3    0  502 -0.12753041981E+04  0.22966696223E+03 -0.73217510118E+03  0.14883647748E+04  0.12699999809E+01 0.  1.
</event>
<event>
 5   0  0.1217200E-05  0.2599890E+04  0.7818609E-02  0.8368239E-01
        3   -1    0    0  501    0  0.00000000000E+00  0.00000000000E+00  0.21396150751E+04  0.21396150775E+04  0.10100000352E+00 0. -1.
       -3   -1    0    0    0  501  0.00000000000E+00  0.00000000000E+00 -0.78979489443E+03  0.78979490089E+03  0.10100000352E+00 0.  1.
    10030    2    1    2    0    0  0.00000000000E+00  0.00000000000E+00  0.13498201807E+04  0.29294099784E+04  0.25998900556E+04 0.  0.
        1    1    3    3  502    0 -0.93513615817E+03  0.16267293390E+03  0.16756938952E+04  0.19258484229E+04  0.50400001928E-02 0. -1.
       -1    1    3    3    0  502  0.93513615817E+03 -0.16267293390E+03 -0.32587371451E+03  0.10035615555E+04  0.50400001928E-02 0.  1.
</event>
<event>
 5   0  0.1533248E-05  0.2585937E+04  0.7818609E-02  0.8372994E-01
        1   -1    0    0  501    0  0.00000000000E+00  0.00000000000E+00  0.55433208264E+03  0.55433208266E+03  0.50400001928E-02 0.  1.
       -1   -1    0    0    0  501  0.00000000000E+00  0.00000000000E+00 -0.30158224265E+04  0.30158224265E+04  0.50400001928E-02 0. -1.
    10030    2    1    2    0    0  0.00000000000E+00  0.00000000000E+00 -0.24614903438E+04  0.35701545092E+04  0.25859366787E+04 0.  0.
        4    1    3    3  502    0  0.20404656840E+03 -0.97184521540E+03 -0.23739381257E+04  0.25732667880E+04  0.12699999809E+01 0. -1.
       -4    1    3    3    0  502 -0.20404656840E+03  0.97184521540E+03 -0.87552218157E+02  0.99688772115E+03  0.12699999809E+01 0.  1.
</event>
<event>
 5   0  0.1474554E-05  0.2647884E+04  0.7818609E-02  0.8352116E-01
       -1   -1    0    0    0  501  0.00000000000E+00  0.00000000000E+00  0.55839536020E+03  0.55839536022E+03  0.50400001928E-02 0. -1.
        1   -1    0    0  501    0  0.00000000000E+00  0.00000000000E+00 -0.31390338584E+04  0.31390338584E+04  0.50400001928E-02 0.  1.
    10030    2    1    2    0    0  0.00000000000E+00  0.00000000000E+00 -0.25806384982E+04  0.36974292187E+04  0.26478836395E+04 0.  0.
        5    1    3    3  502    0  0.37164084549E+03  0.92157898668E+03 -0.68693610658E+02  0.99607512211E+03  0.46999998093E+01 0. -1.
       -5    1    3    3    0  502 -0.37164084549E+03 -0.92157898668E+03 -0.25119448876E+04  0.27013540966E+04  0.46999998093E+01 0.  1.
</event>
<event>
 5   0  0.3499642E-05  0.2497962E+04  0.7818609E-02  0.8403712E-01
       -2   -1    0    0    0  501  0.00000000000E+00  0.00000000000E+00  0.13154481869E+04  0.13154481869E+04  0.25500000920E-02 0. -1.
        2   -1    0    0  501    0  0.00000000000E+00  0.00000000000E+00 -0.11858720093E+04  0.11858720093E+04  0.25500000920E-02 0.  1.
    10030    2    1    2    0    0  0.00000000000E+00  0.00000000000E+00  0.12957617759E+03  0.25013201961E+04  0.24979617166E+04 0.  0.
        2    1    3    3  502    0  0.66428926630E+03 -0.48827239105E+03  0.10042728543E+04  0.12993283353E+04  0.25500000920E-02 0. -1.
       -2    1    3    3    0  502 -0.66428926630E+03  0.48827239105E+03 -0.87469667669E+03  0.12019918608E+04  0.25500000920E-02 0.  1.
</event>
<event>
 5   0  0.3441646E-05  0.2719364E+04  0.7818609E-02  0.8328749E-01
       -2   -1    0    0    0  501  0.00000000000E+00  0.00000000000E+00  0.93768137540E+03  0.93768137540E+03  0.25500000920E-02 0. -1.
        2   -1    0    0  501    0  0.00000000000E+00  0.00000000000E+00 -0.19716025866E+04  0.19716025866E+04  0.25500000920E-02 0.  1.
    10030    2    1    2    0    0  0.00000000000E+00  0.00000000000E+00 -0.10339212112E+04  0.29092839620E+04  0.27193639147E+04 0.  0.
        4    1    3    3  502    0 -0.31377707338E+03  0.11738385875E+04  0.13588750171E+03  0.12226283602E+04  0.12699999809E+01 0. -1.
       -4    1    3    3    0  502  0.31377707338E+03 -0.11738385875E+04 -0.11698087129E+04  0.16866556018E+04  0.12699999809E+01 0.  1.
</event>
<event>
 5   0  0.3508470E-05  0.2631607E+04  0.7818609E-02  0.8357544E-01
       -2   -1    0    0    0  501  0.00000000000E+00  0.00000000000E+00  0.10818608766E+04  0.10818608766E+04  0.25500000920E-02 0. -1.
        2   -1    0    0  501    0  0.00000000000E+00  0.00000000000E+00 -0.16003335000E+04  0.16003335000E+04  0.25500000920E-02 0.  1.
    10030    2    1    2    0    0  0.00000000000E+00  0.00000000000E+00 -0.51847262338E+03  0.26821943767E+04  0.26316065080E+04 0.  0.
        5    1    3    3  502    0 -0.97598075136E+03  0.26788522636E+02 -0.11582697757E+04  0.15148818486E+04  0.46999998093E+01 0.  1.
       -5    1    3    3    0  502  0.97598075136E+03 -0.26788522636E+02  0.63979715234E+03  0.11673125280E+04  0.46999998093E+01 0. -1.
</event>
<event>
 5   0  0.3508470E-05  0.2613865E+04  0.7818609E-02  0.8363507E-01
       -2   -1    0    0    0  501  0.00000000000E+00  0.00000000000E+00  0.80041359067E+03  0.80041359067E+03  0.25500000920E-02 0. -1.
        2   -1    0    0  501    0  0.00000000000E+00  0.00000000000E+00 -0.21339877749E+04  0.21339877749E+04  0.25500000920E-02 0.  1.
    10030    2    1    2    0    0  0.00000000000E+00  0.00000000000E+00 -0.13335741842E+04  0.29344013656E+04  0.26138651972E+04 0.  0.
        5    1    3    3  502    0  0.46500273326E+03  0.84341413438E+03  0.32499450591E+03  0.10164735426E+04  0.46999998093E+01 0. -1.
       -5    1    3    3    0  502 -0.46500273326E+03 -0.84341413438E+03 -0.16585686901E+04  0.19179278229E+04  0.46999998093E+01 0.  1.
</event>
<event>
 5   0  0.1533248E-05  0.2584700E+04  0.7818609E-02  0.8373417E-01
       -1   -1    0    0    0  501  0.00000000000E+00  0.00000000000E+00  0.16030849612E+04  0.16030849612E+04  0.50400001928E-02 0. -1.
        1   -1    0    0  501    0  0.00000000000E+00  0.00000000000E+00 -0.10418467297E+04  0.10418467297E+04  0.50400001928E-02 0.  1.
    10030    2    1    2    0    0  0.00000000000E+00  0.00000000000E+00  0.56123823151E+03  0.26449316909E+04  0.25847002335E+04 0.  0.
        4    1    3    3  502    0 -0.11626592895E+04  0.50630680749E+03  0.25728298981E+02  0.12683795824E+04  0.12699999809E+01 0.  1.
       -4    1    3    3    0  502  0.11626592895E+04 -0.50630680749E+03  0.53550993253E+03  0.13765521085E+04  0.12699999809E+01 0. -1.
</event>
<event>
 5   0  0.1451052E-05  0.2444006E+04  0.7818609E-02  0.8423210E-01
       -1   -1    0    0    0  501  0.00000000000E+00  0.00000000000E+00  0.88399442969E+03  0.88399442970E+03  0.50400001928E-02 0. -1.
        1   -1    0    0  501    0  0.00000000000E+00  0.00000000000E+00 -0.16892537485E+04  0.16892537486E+04  0.50400001928E-02 0.  1.
    10030    2    1    2    0    0  0.00000000000E+00  0.00000000000E+00 -0.80525931886E+03  0.25732481783E+04  0.24440056498E+04 0.  0.
        1    1    3    3  502    0 -0.86958909838E+03  0.85658180046E+03 -0.34147797268E+03  0.12674875884E+04  0.50400001928E-02 0. -1.
       -1    1    3    3    0  502  0.86958909838E+03 -0.85658180046E+03 -0.46378134618E+03  0.13057605898E+04  0.50400001928E-02 0.  1.
</event>
<event>
 5   0  0.3647623E-05  0.2602273E+04  0.7818609E-02  0.8367429E-01
        2   -1    0    0  501    0  0.00000000000E+00  0.00000000000E+00  0.92475206816E+03  0.92475206817E+03  0.25500000920E-02 0. -1.
       -2   -1    0    0    0  501  0.00000000000E+00  0.00000000000E+00 -0.18307138103E+04  0.18307138103E+04  0.25500000920E-02 0.  1.
    10030    2    1    2    0    0  0.00000000000E+00  0.00000000000E+00 -0.90596174218E+03  0.27554658785E+04  0.26022731466E+04 0.  0.
        3    1    3    3  502    0  0.24587040874E+03 -0.59791739048E+03  0.74264984524E+03  0.98462493701E+03  0.10100000352E+00 0. -1.
       -3    1    3    3    0  502 -0.24587040874E+03  0.59791739048E+03 -0.16486115874E+04  0.17708409415E+04  0.10100000352E+00 0.  1.
</event>
<event>
 5   0  0.3849687E-05  0.2672057E+04  0.7818609E-02  0.8344129E-01
       -2   -1    0    0    0  501  0.00000000000E+00  0.00000000000E+00  0.28520894538E+04  0.28520894538E+04  0.25500000920E-02 0.  1.
        2   -1    0    0  501    0  0.00000000000E+00  0.00000000000E+00 -0.62584708746E+03  0.62584708747E+03  0.25500000920E-02 0. -1.
    10030    2    1    2    0    0  0.00000000000E+00  0.00000000000E+00  0.22262423663E+04  0.34779365412E+04  0.26720567942E+04 0.  0.
        1    1    3    3  502    0 -0.22943699363E+03 -0.88971132107E+03  0.23755641542E+04  0.25470635288E+04  0.50400001928E-02 0.  1.
       -1    1    3    3    0  502  0.22943699363E+03  0.88971132107E+03 -0.14932178792E+03  0.93087301243E+03  0.50400001928E-02 0. -1.
</event>
<event>
 5   0  0.3508470E-05  0.2615780E+04  0.7818609E-02  0.8362861E-01
        2   -1    0    0  501    0  0.00000000000E+00  0.00000000000E+00  0.15296740659E+04  0.15296740659E+04  0.25500000920E-02 0. -1.
       -2   -1    0    0    0  501  0.00000000000E+00  0.00000000000E+00 -0.11182618413E+04  0.11182618413E+04  0.25500000920E-02 0.  1.
    10030    2    1    2    0    0  0.00000000000E+00  0.00000000000E+00  0.41141222460E+03  0.26479359072E+04  0.26157799124E+04 0.  0.
        5    1    3    3  502    0 -0.10460954502E+04 -0.10788290689E+03 -0.58141254896E+03  0.12016726070E+04  0.46999998093E+01 0.  1.
       -5    1    3    3    0  502  0.10460954502E+04  0.10788290689E+03  0.99282477355E+03  0.14462633002E+04  0.46999998093E+01 0. -1.
</event>
<event>
 5   0  0.1497497E-05  0.2567386E+04  0.7818609E-02  0.8379364E-01
        1   -1    0    0  501    0  0.00000000000E+00  0.00000000000E+00  0.31616594208E+04  0.31616594208E+04  0.50400001928E-02 0. -1.
       -1   -1    0    0    0  501  0.00000000000E+00  0.00000000000E+00 -0.52120362724E+03  0.52120362726E+03  0.50400001928E-02 0.  1.
    10030    2    1    2    0    0  0.00000000000E+00  0.00000000000E+00  0.26404557935E+04  0.36828630481E+04  0.25673864986E+04 0.  0.
        3    1    3    3  502    0 -0.69350939119E+03  0.70763959977E+03  0.14942617082E+03  0.10020166014E+04  0.10100000352E+00 0. -1.
       -3    1    3    3    0  502  0.69350939119E+03 -0.70763959977E+03  0.24910296227E+04  0.26808464466E+04  0.10100000352E+00 0.  1.
</event>
<event>
 5   0  0.3499642E-05  0.2685731E+04  0.7818609E-02  0.8339650E-01
       -2   -1    0    0    0  501  0.00000000000E+00  0.00000000000E+00  0.11083778141E+04  0.11083778141E+04  0.25500000920E-02 0.  1.
        2   -1    0    0  501    0  0.00000000000E+00  0.00000000000E+00 -0.16269610239E+04  0.16269610239E+04  0.25500000920E-02 0. -1.
    10030    2    1    2    0    0  0.00000000000E+00  0.00000000000E+00 -0.51858320979E+03  0.27353388379E+04  0.26857308154E+04 0.  0.
        2    1    3    3  502    0  0.11847914074E+04  0.34136046537E+03 -0.80112376095E+03  0.14703934599E+04  0.25500000920E-02 0.  1.
       -2    1    3    3    0  502 -0.11847914074E+04 -0.34136046537E+03  0.28254055116E+03  0.12649453781E+04  0.25500000920E-02 0. -1.
</event>
<event>
 5   0  0.1451052E-05  0.2670330E+04  0.7818609E-02  0.8344697E-01
       -1   -1    0    0    0  501  0.00000000000E+00  0.00000000000E+00  0.12070090166E+04  0.12070090166E+04  0.50400001928E-02 0. -1.
        1   -1    0    0  501    0  0.00000000000E+00  0.00000000000E+00 -0.14769279716E+04  0.14769279716E+04  0.50400001928E-02 0.  1.
    10030    2    1    2    0    0  0.00000000000E+00  0.00000000000E+00 -0.26991895498E+03  0.26839369882E+04  0.26703298512E+04 0.  0.
        1    1    3    3  502    0  0.77357261827E+03 -0.46330647836E+03  0.85473976003E+03  0.12424361336E+04  0.50400001928E-02 0. -1.
       -1    1    3    3    0  502 -0.77357261827E+03  0.46330647836E+03 -0.11246587150E+04  0.14415008546E+04  0.50400001928E-02 0.  1.
</event>
<event>
 5   0  0.3647623E-05  0.2614902E+04  0.7818609E-02  0.8363157E-01
        2   -1    0    0  501    0  0.00000000000E+00  0.00000000000E+00  0.10167222727E+04  0.10167222727E+04  0.25500000920E-02 0.  1.
       -2   -1    0    0    0  501  0.00000000000E+00  0.00000000000E+00 -0.16813128534E+04  0.16813128534E+04  0.25500000920E-02 0. -1.
    10030    2    1    2    0    0  0.00000000000E+00  0.00000000000E+00 -0.66459058071E+03  0.26980351262E+04  0.26149020827E+04 0.  0.
        3    1    3    3  502    0 -0.24292167556E+03  0.40915337935E+02  0.99256071466E+03  0.10226738423E+04  0.10100000352E+00 0.  1.
       -3    1    3    3    0  502  0.24292167556E+03 -0.40915337935E+02 -0.16571512954E+04  0.16753612838E+04  0.10100000352E+00 0. -1.
</event>
<event>
 5   0  0.3499642E-05  0.2616137E+04  0.7818609E-02  0.8362740E-01
        2   -1    0    0  501    0  0.00000000000E+00  0.00000000000E+00  0.15615399919E+04  0.15615399919E+04  0.25500000920E-02 0.  1.
       -2   -1    0    0    0  501  0.00000000000E+00  0.00000000000E+00 -0.10957407062E+04  0.10957407062E+04  0.25500000920E-02 0. -1.
    10030    2    1    2    0    0  0.00000000000E+00  0.00000000000E+00  0.46579928568E+03  0.26572806982E+04  0.26161367958E+04 0.  0.
        2    1    3    3  502    0  0.12193300177E+04  0.40488224768E+03  0.48242058990E+03  0.13723793033E+04  0.25500000920E-02 0.  1.
       -2    1    3    3    0  502 -0.12193300177E+04 -0.40488224768E+03 -0.16621304221E+02  0.12849013948E+04  0.25500000920E-02 0. -1.
</event>
<event>
 5   0  0.1451052E-05  0.2589127E+04  0.7818609E-02  0.8371904E-01
        1   -1    0    0  501    0  0.00000000000E+00  0.00000000000E+00  0.17383982233E+04  0.17383982233E+04  0.50400001928E-02 0. -1.
       -1   -1    0    0    0  501  0.00000000000E+00  0.00000000000E+00 -0.96404526265E+03  0.96404526266E+03  0.50400001928E-02 0.  1.
    10030    2    1    2    0    0  0.00000000000E+00  0.00000000000E+00  0.77435296063E+03  0.27024434860E+04  0.25891269353E+04 0.  0.
        1    1    3    3  502    0 -0.81541652422E+03  0.23885914775E+03  0.14066197729E+04  0.16433310640E+04  0.50400001928E-02 0. -1.
       -1    1    3    3    0  502  0.81541652422E+03 -0.23885914775E+03 -0.63226681225E+03  0.10591124220E+04  0.50400001928E-02 0.  1.
</event>
<event>
 5   0  0.3508470E-05  0.2691408E+04  0.7818609E-02  0.8337798E-01
       -2   -1    0    0    0  501  0.00000000000E+00  0.00000000000E+00  0.74159379026E+03  0.74159379026E+03  0.25500000920E-02 0.  1.
        2   -1    0    0  501    0  0.00000000000E+00  0.00000000000E+00 -0.24419290909E+04  0.24419290909E+04  0.25500000920E-02 0. -1.
    10030    2    1    2    0    0  0.00000000000E+00  0.00000000000E+00 -0.17003353006E+04  0.31835228811E+04  0.26914081445E+04 0.  0.
        5    1    3    3  502    0  0.46361699931E+03 -0.55632828561E+03  0.49144082582E+03  0.87520172458E+03  0.46999998093E+01 0.  1.
       -5    1    3    3    0  502 -0.46361699931E+03  0.55632828561E+03 -0.21917761264E+04  0.23083211566E+04  0.46999998093E+01 0. -1.
</event>
<event>
 5   0  0.3499642E-05  0.2347601E+04  0.7818609E-02  0.8459386E-01
        2   -1    0    0  501    0  0.00000000000E+00  0.00000000000E+00  0.19398436059E+04  0.19398436059E+04  0.25500000920E-02 0. -1.
       -2   -1    0    0    0  501  0.00000000000E+00  0.00000000000E+00 -0.71026749626E+03  0.71026749626E+03  0.25500000920E-02 0.  1.
    10030    2    1    2    0    0  0.00000000000E+00  0.00000000000E+00  0.12295761096E+04  0.26501111022E+04  0.23476012107E+04 0.  0.
        2    1    3    3  502    0 -0.10059715516E+04  0.85467930371E+02 -0.61137823414E+02  0.10114451854E+04  0.25500000920E-02 0.  1.
       -2    1    3    3    0  502  0.10059715516E+04 -0.85467930371E+02  0.12907139331E+04  0.16386659167E+04  0.25500000920E-02 0. -1.
</event>
<event>
 5   0  0.3508470E-05  0.2614573E+04  0.7818609E-02  0.8363268E-01
       -2   -1    0    0    0  501  0.00000000000E+00  0.00000000000E+00  0.64767083797E+03  0.64767083798E+03  0.25500000920E-02 0. -1.
        2   -1    0    0  501    0  0.00000000000E+00  0.00000000000E+00 -0.26386831446E+04  0.26386831446E+04  0.25500000920E-02 0.  1.
    10030    2    1    2    0    0  0.00000000000E+00  0.00000000000E+00 -0.19910123066E+04  0.32863539825E+04  0.26145730997E+04 0.  0.
        5    1    3    3  502    0 -0.35538239971E+02 -0.40242500608E+03  0.56722976195E+03  0.69640544574E+03  0.46999998093E+01 0. -1.
       -5    1    3    3    0  502  0.35538239971E+02  0.40242500608E+03 -0.25582420685E+04  0.25899485368E+04  0.46999998093E+01 0.  1.
</event>
<event>
 5   0  0.1451052E-05  0.2509974E+04  0.7818609E-02  0.8399441E-01
        1   -1    0    0  501    0  0.00000000000E+00  0.00000000000E+00  0.11970723428E+04  0.11970723429E+04  0.50400001928E-02 0. -1.
       -1   -1    0    0    0  501  0.00000000000E+00  0.00000000000E+00 -0.13157038468E+04  0.13157038468E+04  0.50400001928E-02 0.  1.
    10030    2    1    2    0    0  0.00000000000E+00  0.00000000000E+00 -0.11863150398E+03  0.25127761897E+04  0.25099742520E+04 0.  0.
        1    1    3    3  502    0 -0.27809879179E+02 -0.10551685573E+04 -0.73892451805E+03  0.12884733280E+04  0.50400001928E-02 0.  1.
       -1    1    3    3    0  502  0.27809879179E+02  0.10551685573E+04  0.62029301407E+03  0.12243028616E+04  0.50400001928E-02 0. -1.
</event>
<event>
 5   0  0.3441646E-05  0.2732990E+04  0.7818609E-02  0.8324380E-01
        2   -1    0    0  501    0  0.00000000000E+00  0.00000000000E+00  0.20890005885E+04  0.20890005885E+04  0.25500000920E-02 0. -1.
       -2   -1    0    0    0  501  0.00000000000E+00  0.00000000000E+00 -0.89387641535E+03  0.89387641536E+03  0.25500000920E-02 0.  1.
    10030    2    1    2    0    0  0.00000000000E+00  0.00000000000E+00  0.11951241731E+04  0.29828770038E+04  0.27329898336E+04 0.  0.
        4    1    3    3  502    0  0.83644802396E+03 -0.66507830947E+03  0.15270972764E+04  0.18638675272E+04  0.12699999809E+01 0. -1.
       -4    1    3    3    0  502 -0.83644802396E+03  0.66507830947E+03 -0.33197310330E+03  0.11190094766E+04  0.12699999809E+01 0.  1.
</event>
<event>
 5   0  0.3647623E-05  0.2583034E+04  0.7818609E-02  0.8373987E-01
        2   -1    0    0  501    0  0.00000000000E+00  0.00000000000E+00  0.18692662546E+04  0.18692662546E+04  0.25500000920E-02 0. -1.
       -2   -1    0    0    0  501  0.00000000000E+00  0.00000000000E+00 -0.89233719628E+03  0.89233719628E+03  0.25500000920E-02 0.  1.
    10030    2    1    2    0    0  0.00000000000E+00  0.00000000000E+00  0.97692905830E+03  0.27616034509E+04  0.25830337270E+04 0.  0.
        3    1    3    3  502    0 -0.23020416976E+03 -0.78769415701E+03 -0.57775511643E+03  0.10036219555E+04  0.10100000352E+00 0.  1.
       -3    1    3    3    0  502  0.23020416976E+03  0.78769415701E+03  0.15546841747E+04  0.17579814954E+04  0.10100000352E+00 0. -1.
</event>
<event>
 5   0  0.3508470E-05  0.2582381E+04  0.7818609E-02  0.8374211E-01
       -2   -1    0    0    0  501  0.00000000000E+00  0.00000000000E+00  0.95861750518E+03  0.95861750518E+03  0.25500000920E-02 0.  1.
        2   -1    0    0  501    0  0.00000000000E+00  0.00000000000E+00 -0.17391426192E+04  0.17391426192E+04  0.25500000920E-02 0. -1.
    10030    2    1    2    0    0  0.00000000000E+00  0.00000000000E+00 -0.78052511400E+03  0.26977601244E+04  0.25823807301E+04 0.  0.
        5    1    3    3  502    0 -0.21398846072E+03 -0.12688804329E+04 -0.50132261902E+03  0.13810123362E+04  0.46999998093E+01 0.  1.
       -5    1    3    3    0  502  0.21398846072E+03  0.12688804329E+04 -0.27920249499E+03  0.13167477882E+04  0.46999998093E+01 0. -1.
</event>
<event>
 5   0  0.3647623E-05  0.2590727E+04  0.7818609E-02  0.8371358E-01
        2   -1    0    0  501    0  0.00000000000E+00  0.00000000000E+00  0.18474772697E+04  0.18474772697E+04  0.25500000920E-02 0. -1.
       -2   -1    0    0    0  501  0.00000000000E+00  0.00000000000E+00 -0.90824732987E+03  0.90824732988E+03  0.25500000920E-02 0.  1.
    10030    2    1    2    0    0  0.00000000000E+00  0.00000000000E+00  0.93922993978E+03  0.27557245995E+04  0.25907267684E+04 0.  0.
        3    1    3    3  502    0 -0.50815773769E+03  0.26539935759E+02 -0.79748580673E+03  0.94599803208E+03  0.10100000352E+00 0.  1.
       -3    1    3    3    0  502  0.50815773769E+03 -0.26539935759E+02  0.17367157465E+04  0.18097265675E+04  0.10100000352E+00 0. -1.
</event>
<event>
 5   0  0.1497497E-05  0.2528926E+04  0.7818609E-02  0.8392752E-01
        1   -1    0    0  501    0  0.00000000000E+00  0.00000000000E+00  0.14113902821E+04  0.14113902821E+04  0.50400001928E-02 0. -1.
       -1   -1    0    0    0  501  0.00000000000E+00  0.00000000000E+00 -0.11328309653E+04  0.11328309653E+04  0.50400001928E-02 0.  1.
    10030    2    1    2    0    0  0.00000000000E+00  0.00000000000E+00  0.27855931674E+03  0.25442212474E+04  0.25289259504E+04 0.  0.
        3    1    3    3  502    0  0.97835841759E+03 -0.41245087082E+03  0.83013936298E+03  0.13477508250E+04  0.10100000352E+00 0. -1.
       -3    1    3    3    0  502 -0.97835841759E+03  0.41245087082E+03 -0.55158004623E+03  0.11964704224E+04  0.10100000352E+00 0.  1.
</event>
<event>
 5   0  0.1497497E-05  0.2554718E+04  0.7818609E-02  0.8383747E-01
       -1   -1    0    0    0  501  0.00000000000E+00  0.00000000000E+00  0.17327629612E+04  0.17327629612E+04  0.50400001928E-02 0. -1.
        1   -1    0    0  501    0  0.00000000000E+00  0.00000000000E+00 -0.94164409495E+03  0.94164409496E+03  0.50400001928E-02 0.  1.
    10030    2    1    2    0    0  0.00000000000E+00  0.00000000000E+00  0.79111886625E+03  0.26744070562E+04  0.25547179965E+04 0.  0.
        3    1    3    3  502    0  0.23023948513E+03 -0.48400072971E+03 -0.81823576170E+03  0.97814963007E+03  0.10100000352E+00 0.  1.
       -3    1    3    3    0  502 -0.23023948513E+03  0.48400072971E+03  0.16093546279E+04  0.16962574261E+04  0.10100000352E+00 0. -1.
</event>
<event>
 5   0  0.3441646E-05  0.2581160E+04  0.7818609E-02  0.8374629E-01
       -2   -1    0    0    0  501  0.00000000000E+00  0.00000000000E+00  0.11199498575E+04  0.11199498575E+04  0.25500000920E-02 0.  1.
        2   -1    0    0  501    0  0.00000000000E+00  0.00000000000E+00 -0.14872066729E+04  0.14872066729E+04  0.25500000920E-02 0. -1.
    10030    2    1    2    0    0  0.00000000000E+00  0.00000000000E+00 -0.36725681539E+03  0.26071565303E+04  0.25811601278E+04 0.  0.
        4    1    3    3  502    0 -0.38965450709E+03 -0.40312691206E+03  0.99051339362E+03  0.11381829106E+04  0.12699999809E+01 0.  1.
       -4    1    3    3    0  502  0.38965450709E+03  0.40312691206E+03 -0.13577702090E+04  0.14689736197E+04  0.12699999809E+01 0. -1.
</event>
<event>
 5   0  0.1474554E-05  0.2595237E+04  0.7818609E-02  0.8369821E-01
        1   -1    0    0  501    0  0.00000000000E+00  0.00000000000E+00  0.19913368379E+04  0.19913368379E+04  0.50400001928E-02 0. -1.
       -1   -1    0    0    0  501  0.00000000000E+00  0.00000000000E+00 -0.84556954953E+03  0.84556954955E+03  0.50400001928E-02 0.  1.
    10030    2    1    2    0    0  0.00000000000E+00  0.00000000000E+00  0.11457672883E+04  0.28369063874E+04  0.25952370165E+04 0.  0.
        5    1    3    3  502    0 -0.73922592348E+02  0.95879380630E+03  0.15252428070E+04  0.18030911854E+04  0.46999998093E+01 0. -1.
       -5    1    3    3    0  502  0.73922592348E+02 -0.95879380630E+03 -0.37947551864E+03  0.10338152020E+04  0.46999998093E+01 0.  1.
</event>
<event>
 5   0  0.1474554E-05  0.2027091E+04  0.7818609E-02  0.8594059E-01
       -1   -1    0    0    0  501  0.00000000000E+00  0.00000000000E+00  0.13330541658E+04  0.13330541658E+04  0.50400001928E-02 0.  1.
        1   -1    0    0  501    0  0.00000000000E+00  0.00000000000E+00 -0.77061702086E+03  0.77061702087E+03  0.50400001928E-02 0. -1.
    10030    2    1    2    0    0  0.00000000000E+00  0.00000000000E+00  0.56243714497E+03  0.21036711867E+04  0.20270907527E+04 0.  0.
        5    1    3    3  502    0 -0.19997389015E+03  0.84361539881E+03 -0.26356635080E+03  0.90618199558E+03  0.46999998093E+01 0. -1.
       -5    1    3    3    0  502  0.19997389015E+03 -0.84361539881E+03  0.82600349577E+03  0.11974891911E+04  0.46999998093E+01 0.  1.
</event>
<event>
 5   0  0.1217200E-05  0.2544126E+04  0.7818609E-02  0.8387432E-01
       -3   -1    0    0    0  501  0.00000000000E+00  0.00000000000E+00  0.74424483030E+03  0.74424483716E+03  0.10100000352E+00 0.  1.
        3   -1    0    0  501    0  0.00000000000E+00  0.00000000000E+00 -0.21742091340E+04  0.21742091363E+04  0.10100000352E+00 0. -1.
    10030    2    1    2    0    0  0.00000000000E+00  0.00000000000E+00 -0.14299643037E+04  0.29184539735E+04  0.25441257212E+04 0.  0.
        5    1    3    3  502    0  0.94663821043E+03  0.36630900586E+02  0.25883700896E+03  0.98208167253E+03  0.46999998093E+01 0.  1.
       -5    1    3    3    0  502 -0.94663821043E+03 -0.36630900586E+02 -0.16888013126E+04  0.19363723009E+04  0.46999998093E+01 0. -1.
</event>
<event>
 5   0  0.1497497E-05  0.1927962E+04  0.7818609E-02  0.8641062E-01
        1   -1    0    0  501    0  0.00000000000E+00  0.00000000000E+00  0.12173479840E+04  0.12173479840E+04  0.50400001928E-02 0.  1.
       -1   -1    0    0    0  501  0.00000000000E+00  0.00000000000E+00 -0.76334696971E+03  0.76334696973E+03  0.50400001928E-02 0. -1.
    10030    2    1    2    0    0  0.00000000000E+00  0.00000000000E+00  0.45400101426E+03  0.19806949537E+04  0.19279615086E+04 0.  0.
        3    1    3    3  502    0  0.33423307444E+02 -0.30872284639E+03 -0.71055703197E+03  0.77544710925E+03  0.10100000352E+00 0. -1.
       -3    1    3    3    0  502 -0.33423307444E+02  0.30872284639E+03  0.11645580462E+04  0.12052478445E+04  0.10100000352E+00 0.  1.
</event>
<event>
 5   0  0.3849687E-05  0.2598973E+04  0.7818609E-02  0.8368550E-01
       -2   -1    0    0    0  501  0.00000000000E+00  0.00000000000E+00  0.12437878102E+04  0.12437878102E+04  0.25500000920E-02 0.  1.
        2   -1    0    0  501    0  0.00000000000E+00  0.00000000000E+00 -0.13576789791E+04  0.13576789791E+04  0.25500000920E-02 0. -1.
    10030    2    1    2    0    0  0.00000000000E+00  0.00000000000E+00 -0.11389116891E+03  0.26014667893E+04  0.25989725388E+04 0.  0.
        1    1    3    3  502    0 -0.68369768713E+03  0.10151948135E+04 -0.49394392117E+03  0.13198650060E+04  0.50400001928E-02 0. -1.
       -1    1    3    3    0  502  0.68369768713E+03 -0.10151948135E+04  0.38005275226E+03  0.12816017834E+04  0.50400001928E-02 0.  1.
</event>
<event>
 5   0  0.1435062E-05  0.2612713E+04  0.7818609E-02  0.8363896E-01
        1   -1    0    0  501    0  0.00000000000E+00  0.00000000000E+00  0.11021079798E+04  0.11021079798E+04  0.50400001928E-02 0. -1.
       -1   -1    0    0    0  501  0.00000000000E+00  0.00000000000E+00 -0.15484568999E+04  0.15484568999E+04  0.50400001928E-02 0.  1.
    10030    2    1    2    0    0  0.00000000000E+00  0.00000000000E+00 -0.44634892008E+03  0.26505648797E+04  0.26127125413E+04 0.  0.
        2    1    3    3  502    0 -0.74407501718E+03 -0.51329235698E+03 -0.11799445420E+04  0.14864002816E+04  0.25500000920E-02 0.  1.
       -2    1    3    3    0  502  0.74407501718E+03  0.51329235698E+03  0.73359562197E+03  0.11641645981E+04  0.25500000920E-02 0. -1.
</event>
<event>
 5   0  0.1497497E-05  0.2047100E+04  0.7818609E-02  0.8584911E-01
        1   -1    0    0  501    0  0.00000000000E+00  0.00000000000E+00  0.12117891392E+04  0.12117891392E+04  0.50400001928E-02 0. -1.
       -1   -1    0    0    0  501  0.00000000000E+00  0.00000000000E+00 -0.86455201490E+03  0.86455201491E+03  0.50400001928E-02 0.  1.
    10030    2    1    2    0    0  0.00000000000E+00  0.00000000000E+00  0.34723712433E+03  0.20763411542E+04  0.20471001363E+04 0.  0.
        3    1    3    3  502    0  0.86575151300E+03  0.44666476871E+03  0.49214194379E+03  0.10914388672E+04  0.10100000352E+00 0. -1.
       -3    1    3    3    0  502 -0.86575151300E+03 -0.44666476871E+03 -0.14490481946E+03  0.98490228692E+03  0.10100000352E+00 0.  1.
</event>
<event>
 5   0  0.1435062E-05  0.2325313E+04  0.7818609E-02  0.8468007E-01
       -1   -1    0    0    0  501  0.00000000000E+00  0.00000000000E+00  0.78271009430E+03  0.78271009432E+03  0.50400001928E-02 0. -1.
        1   -1    0    0  501    0  0.00000000000E+00  0.00000000000E+00 -0.17270382342E+04  0.17270382342E+04  0.50400001928E-02 0.  1.
    10030    2    1    2    0    0  0.00000000000E+00  0.00000000000E+00 -0.94432813988E+03  0.25097483285E+04  0.23253131051E+04 0.  0.
        2    1    3    3  502    0 -0.33217306901E+03  0.89668631714E+03 -0.11859708308E+04  0.15234540067E+04  0.25500000920E-02 0.  1.
       -2    1    3    3    0  502  0.33217306901E+03 -0.89668631714E+03  0.24164269091E+03  0.98629432179E+03  0.25500000920E-02 0. -1.
</event>
<event>
 5   0  0.1497497E-05  0.2592790E+04  0.7818609E-02  0.8370654E-01
        1   -1    0    0  501    0  0.00000000000E+00  0.00000000000E+00  0.14775041024E+04  0.14775041025E+04  0.50400001928E-02 0.  1.
       -1   -1    0    0    0  501  0.00000000000E+00  0.00000000000E+00 -0.11374859500E+04  0.11374859500E+04  0.50400001928E-02 0. -1.
    10030    2    1    2    0    0  0.00000000000E+00  0.00000000000E+00  0.34001815244E+03  0.26149900525E+04  0.25927901247E+04 0.  0.
        3    1    3    3  502    0  0.45328562119E+03 -0.11897955253E+04 -0.76127420518E+02  0.12754907451E+04  0.10100000352E+00 0.  1.
       -3    1    3    3    0  502 -0.45328562119E+03  0.11897955253E+04  0.41614557296E+03  0.13394993074E+04  0.10100000352E+00 0. -1.
</event>
<event>
 5   0  0.3508470E-05  0.2600057E+04  0.7818609E-02  0.8368182E-01
       -2   -1    0    0    0  501  0.00000000000E+00  0.00000000000E+00  0.73757775667E+03  0.73757775667E+03  0.25500000920E-02 0.  1.
        2   -1    0    0  501    0  0.00000000000E+00  0.00000000000E+00 -0.22913841303E+04  0.22913841303E+04  0.25500000920E-02 0. -1.
    10030    2    1    2    0    0  0.00000000000E+00  0.00000000000E+00 -0.15538063736E+04  0.30289618869E+04  0.26000568967E+04 0.  0.
        5    1    3    3  502    0 -0.28490348523E+02 -0.10119122816E+04 -0.17270946802E+04  0.20019131574E+04  0.46999998093E+01 0. -1.
       -5    1    3    3    0  502  0.28490348523E+02  0.10119122816E+04  0.17328830657E+03  0.10270487295E+04  0.46999998093E+01 0.  1.
</event>
<event>
 5   0  0.3849687E-05  0.2632020E+04  0.7818609E-02  0.8357405E-01
        2   -1    0    0  501    0  0.00000000000E+00  0.00000000000E+00  0.16376253865E+04  0.16376253865E+04  0.25500000920E-02 0.  1.
       -2   -1    0    0    0  501  0.00000000000E+00  0.00000000000E+00 -0.10575569986E+04  0.10575569986E+04  0.25500000920E-02 0. -1.
    10030    2    1    2    0    0  0.00000000000E+00  0.00000000000E+00  0.58006838791E+03  0.26951823852E+04  0.26320199001E+04 0.  0.
        1    1    3    3  502    0  0.11097524386E+04  0.28903432754E+03  0.95112039198E+03  0.14898729199E+04  0.50400001928E-02 0.  1.
       -1    1    3    3    0  502 -0.11097524386E+04 -0.28903432754E+03 -0.37105200407E+03  0.12053094653E+04  0.50400001928E-02 0. -1.
</event>
<event>
 5   0  0.1451052E-05  0.2507535E+04  0.7818609E-02  0.8400306E-01
        1   -1    0    0  501    0  0.00000000000E+00  0.00000000000E+00  0.18226004756E+04  0.18226004756E+04  0.50400001928E-02 0.  1.
       -1   -1    0    0    0  501  0.00000000000E+00  0.00000000000E+00 -0.86246705104E+03  0.86246705106E+03  0.50400001928E-02 0. -1.
    10030    2    1    2    0    0  0.00000000000E+00  0.00000000000E+00  0.96013342456E+03  0.26850675267E+04  0.25075349309E+04 0.  0.
        1    1    3    3  502    0 -0.33907375188E+03  0.62276158357E+03 -0.62712658978E+03  0.94662070483E+03  0.50400001928E-02 0. -1.
       -1    1    3    3    0  502  0.33907375188E+03 -0.62276158357E+03  0.15872600143E+04  0.17384468218E+04  0.50400001928E-02 0.  1.
</event>
<event>
 5   0  0.3499642E-05  0.2571780E+04  0.7818609E-02  0.8377851E-01
        2   -1    0    0  501    0  0.00000000000E+00  0.00000000000E+00  0.15186477041E+04  0.15186477041E+04  0.25500000920E-02 0. -1.
       -2   -1    0    0    0  501  0.00000000000E+00  0.00000000000E+00 -0.10888059717E+04  0.10888059717E+04  0.25500000920E-02 0.  1.
    10030    2    1    2    0    0  0.00000000000E+00  0.00000000000E+00  0.42984173242E+03  0.26074536758E+04  0.25717796866E+04 0.  0.
        2    1    3    3  502    0  0.83450858491E+03 -0.85730627465E+03  0.69276957755E+03  0.13825007466E+04  0.25500000920E-02 0. -1.
       -2    1    3    3    0  502 -0.83450858491E+03  0.85730627465E+03 -0.26292784513E+03  0.12249529291E+04  0.25500000920E-02 0.  1.
</event>
<event>
 5   0  0.3508470E-05  0.2629746E+04  0.7818609E-02  0.8358167E-01
        2   -1    0    0  501    0  0.00000000000E+00  0.00000000000E+00  0.14104633279E+04  0.14104633279E+04  0.25500000920E-02 0. -1.
       -2   -1    0    0    0  501  0.00000000000E+00  0.00000000000E+00 -0.12257607115E+04  0.12257607115E+04  0.25500000920E-02 0.  1.
    10030    2    1    2    0    0  0.00000000000E+00  0.00000000000E+00  0.18470261641E+03  0.26362240394E+04  0.26297456397E+04 0.  0.
        5    1    3    3  502    0  0.41682974434E+03 -0.12191075586E+04 -0.17077992832E+03  0.12996761709E+04  0.46999998093E+01 0.  1.
       -5    1    3    3    0  502 -0.41682974434E+03  0.12191075586E+04  0.35548254473E+03  0.13365478685E+04  0.46999998093E+01 0. -1.
</event>
<event>
 5   0  0.1435062E-05  0.2609887E+04  0.7818609E-02  0.8364850E-01
       -1   -1    0    0    0  501  0.00000000000E+00  0.00000000000E+00  0.99755133702E+03  0.99755133704E+03  0.50400001928E-02 0.  1.
        1   -1    0    0  501    0  0.00000000000E+00  0.00000000000E+00 -0.17070578284E+04  0.17070578284E+04  0.50400001928E-02 0. -1.
    10030    2    1    2    0    0  0.00000000000E+00  0.00000000000E+00 -0.70950649140E+03  0.27046091655E+04  0.26098872153E+04 0.  0.
        2    1    3    3  502    0 -0.26911332700E+03  0.43601515331E+03  0.88894861696E+03  0.10260413443E+04  0.25500000920E-02 0.  1.
       -2    1    3    3    0  502  0.26911332700E+03 -0.43601515331E+03 -0.15984551084E+04  0.16785678211E+04  0.25500000920E-02 0. -1.
</event>
<event>
 5   0  0.3499642E-05  0.2546879E+04  0.7818609E-02  0.8386472E-01
       -2   -1    0    0    0  501  0.00000000000E+00  0.00000000000E+00  0.90123263023E+03  0.90123263023E+03  0.25500000920E-02 0. -1.
        2   -1    0    0  501    0  0.00000000000E+00  0.00000000000E+00 -0.17993675721E+04  0.17993675721E+04  0.25500000920E-02 0.  1.
    10030    2    1    2    0    0  0.00000000000E+00  0.00000000000E+00 -0.89813494191E+03  0.27006002024E+04  0.25468794787E+04 0.  0.
        2    1    3    3  502    0  0.12089698453E+04 -0.27091105802E+03 -0.13694080294E+03  0.12464965591E+04  0.25500000920E-02 0. -1.
       -2    1    3    3    0  502 -0.12089698453E+04  0.27091105802E+03 -0.76119413897E+03  0.14541036433E+04  0.25500000920E-02 0.  1.
</event>
<event>
 5   0  0.3647623E-05  0.2836026E+04  0.7818609E-02  0.8292170E-01
        2   -1    0    0  501    0  0.00000000000E+00  0.00000000000E+00  0.25997709457E+04  0.25997709457E+04  0.25500000920E-02 0. -1.
       -2   -1    0    0    0  501  0.00000000000E+00  0.00000000000E+00 -0.77343751967E+03  0.77343751968E+03  0.25500000920E-02 0.  1.
    10030    2    1    2    0    0  0.00000000000E+00  0.00000000000E+00  0.18263334261E+04  0.33732084654E+04  0.28360256642E+04 0.  0.
        3    1    3    3  502    0 -0.93784238157E+03 -0.13613971984E+03 -0.34146939024E+03  0.10073151000E+04  0.10100000352E+00 0.  1.
       -3    1    3    3    0  502  0.93784238157E+03  0.13613971984E+03  0.21678028163E+04  0.23658933654E+04  0.10100000352E+00 0. -1.
</event>
<event>
 5   0  0.1217200E-05  0.2600227E+04  0.7818609E-02  0.8368124E-01
        3   -1    0    0  501    0  0.00000000000E+00  0.00000000000E+00  0.18527157322E+04  0.18527157350E+04  0.10100000352E+00 0. -1.
       -3   -1    0    0    0  501  0.00000000000E+00  0.00000000000E+00 -0.91233356637E+03  0.91233357196E+03  0.10100000352E+00 0.  1.
    10030    2    1    2    0    0  0.00000000000E+00  0.00000000000E+00  0.94038216588E+03  0.27650493070E+04  0.26002267309E+04 0.  0.
        1    1    3    3  502    0 -0.71969802742E+03  0.80401829408E+03 -0.30095504029E+03  0.11202609536E+04  0.50400001928E-02 0.  1.
       -1    1    3    3    0  502  0.71969802742E+03 -0.80401829408E+03  0.12413372062E+04  0.16447883534E+04  0.50400001928E-02 0. -1.
</event>
<event>
 5   0  0.1474554E-05  0.2574042E+04  0.7818609E-02  0.8377072E-01
        1   -1    0    0  501    0  0.00000000000E+00  0.00000000000E+00  0.12679033325E+04  0.12679033325E+04  0.50400001928E-02 0.  1.
       -1   -1    0    0    0  501  0.00000000000E+00  0.00000000000E+00 -0.13064270150E+04  0.13064270150E+04  0.50400001928E-02 0. -1.
    10030    2    1    2    0    0  0.00000000000E+00  0.00000000000E+00 -0.38523682498E+02  0.25743303475E+04  0.25740420867E+04 0.  0.
        5    1    3    3  502    0  0.34416300247E+03 -0.10632824791E+04 -0.65759915202E+03  0.12967176012E+04  0.46999998093E+01 0. -1.
       -5    1    3    3    0  502 -0.34416300247E+03  0.10632824791E+04  0.61907546952E+03  0.12776127463E+04  0.46999998093E+01 0.  1.
</event>
<event>
 5   0  0.3849687E-05  0.2625787E+04  0.7818609E-02  0.8359494E-01
        2   -1    0    0  501    0  0.00000000000E+00  0.00000000000E+00  0.25324987470E+04  0.25324987470E+04  0.25500000920E-02 0.  1.
       -2   -1    0    0    0  501  0.00000000000E+00  0.00000000000E+00 -0.68062770813E+03  0.68062770813E+03  0.25500000920E-02 0. -1.
    10030    2    1    2    0    0  0.00000000000E+00  0.00000000000E+00  0.18518710388E+04  0.32131264551E+04  0.26257866006E+04 0.  0.
        1    1    3    3  502    0 -0.59034892115E+02 -0.24049813221E+03  0.25036612130E+04  0.25158783635E+04  0.50400001928E-02 0.  1.
       -1    1    3    3    0  502  0.59034892115E+02  0.24049813221E+03 -0.65179017419E+03  0.69724809163E+03  0.50400001928E-02 0. -1.
</event>
<event>
 5   0  0.1533248E-05  0.2590766E+04  0.7818609E-02  0.8371345E-01
       -1   -1    0    0    0  501  0.00000000000E+00  0.00000000000E+00  0.91974731541E+03  0.91974731542E+03  0.50400001928E-02 0. -1.
        1   -1    0    0  501    0  0.00000000000E+00  0.00000000000E+00 -0.18244326402E+04  0.18244326402E+04  0.50400001928E-02 0.  1.
    10030    2    1    2    0    0  0.00000000000E+00  0.00000000000E+00 -0.90468532474E+03  0.27441799556E+04  0.25907659276E+04 0.  0.
        4    1    3    3  502    0  0.45794944123E+03  0.10851747948E+04 -0.10234292820E+04  0.15603625008E+04  0.12699999809E+01 0.  1.
       -4    1    3    3    0  502 -0.45794944123E+03 -0.10851747948E+04  0.11874395721E+03  0.11838174548E+04  0.12699999809E+01 0. -1.
</event>
<event>
 5   0  0.1435062E-05  0.2580469E+04  0.7818609E-02  0.8374866E-01
        1   -1    0    0  501    0  0.00000000000E+00  0.00000000000E+00  0.19588350833E+04  0.19588350833E+04  0.50400001928E-02 0.  1.
       -1   -1    0    0    0  501  0.00000000000E+00  0.00000000000E+00 -0.84984444107E+03  0.84984444109E+03  0.50400001928E-02 0. -1.
    10030    2    1    2    0    0  0.00000000000E+00  0.00000000000E+00  0.11089906422E+04  0.28086795244E+04  0.25804690322E+04 0.  0.
        2    1    3    3  502    0  0.11660933398E+04  0.15082886937E+03  0.11326822285E+04  0.16326334725E+04  0.25500000920E-02 0. -1.
       -2    1    3    3    0  502 -0.11660933398E+04 -0.15082886937E+03 -0.23691586249E+02  0.11760460519E+04  0.25500000920E-02 0.  1.
</event>
<event>
 5   0  0.3441646E-05  0.2630507E+04  0.7818609E-02  0.8357912E-01
        2   -1    0    0  501    0  0.00000000000E+00  0.00000000000E+00  0.12339090682E+04  0.12339090682E+04  0.25500000920E-02 0.  1.
       -2   -1    0    0    0  501  0.00000000000E+00  0.00000000000E+00 -0.14019602465E+04  0.14019602465E+04  0.25500000920E-02 0. -1.
    10030    2    1    2    0    0  0.00000000000E+00  0.00000000000E+00 -0.16805117833E+03  0.26358693146E+04  0.26305067659E+04 0.  0.
        4    1    3    3  502    0  0.84647132783E+03  0.81013259868E+03 -0.68278982139E+03  0.13561091731E+04  0.12699999809E+01 0. -1.
       -4    1    3    3    0  502 -0.84647132783E+03 -0.81013259868E+03  0.51473864306E+03  0.12797601415E+04  0.12699999809E+01 0.  1.
</event>
<event>
 5   0  0.3499642E-05  0.2575062E+04  0.7818609E-02  0.8376722E-01
       -2   -1    0    0    0  501  0.00000000000E+00  0.00000000000E+00  0.11859810489E+04  0.11859810490E+04  0.25500000920E-02 0.  1.
        2   -1    0    0  501    0  0.00000000000E+00  0.00000000000E+00 -0.13977757732E+04  0.13977757732E+04  0.25500000920E-02 0. -1.
    10030    2    1    2    0    0  0.00000000000E+00  0.00000000000E+00 -0.21179472423E+03  0.25837568221E+04  0.25750616130E+04 0.  0.
        2    1    3    3  502    0  0.44864064065E+03 -0.11440570755E+04  0.27957505199E+03  0.12602806140E+04  0.25500000920E-02 0.  1.
       -2    1    3    3    0  502 -0.44864064065E+03  0.11440570755E+04 -0.49136977621E+03  0.13234762081E+04  0.25500000920E-02 0. -1.
</event>
<event>
 5   0  0.3508470E-05  0.2556258E+04  0.7818609E-02  0.8383213E-01
        2   -1    0    0  501    0  0.00000000000E+00  0.00000000000E+00  0.14407370395E+04  0.14407370395E+04  0.25500000920E-02 0. -1.
       -2   -1    0    0    0  501  0.00000000000E+00  0.00000000000E+00 -0.11338740542E+04  0.11338740542E+04  0.25500000920E-02 0.  1.
    10030    2    1    2    0    0  0.00000000000E+00  0.00000000000E+00  0.30686298530E+03  0.25746110936E+04  0.25562584751E+04 0.  0.
        5    1    3    3  502    0  0.30753093576E+03  0.12353015181E+04  0.38387341427E+02  0.12735936539E+04  0.46999998093E+01 0.  1.
       -5    1    3    3    0  502 -0.30753093576E+03 -0.12353015181E+04  0.26847564387E+03  0.13010174398E+04  0.46999998093E+01 0. -1.
</event>
<event>
 5   0  0.1435062E-05  0.2499368E+04  0.7818609E-02  0.8403211E-01
        1   -1    0    0  501    0  0.00000000000E+00  0.00000000000E+00  0.15071905372E+04  0.15071905372E+04  0.50400001928E-02 0.  1.
       -1   -1    0    0    0  501  0.00000000000E+00  0.00000000000E+00 -0.10361726927E+04  0.10361726927E+04  0.50400001928E-02 0. -1.
    10030    2    1    2    0    0  0.00000000000E+00  0.00000000000E+00  0.47101784454E+03  0.25433632299E+04  0.24993676619E+04 0.  0.
        2    1    3    3  502    0  0.11646033062E+04 -0.22223300875E+02 -0.22513469175E+03  0.11863727768E+04  0.25500000920E-02 0. -1.
       -2    1    3    3    0  502 -0.11646033062E+04  0.22223300875E+02  0.69615253629E+03  0.13569904531E+04  0.25500000920E-02 0.  1.
</event>
<event>
 5   0  0.3441646E-05  0.1611467E+04  0.7818609E-02  0.8813534E-01
       -2   -1    0    0    0  501  0.00000000000E+00  0.00000000000E+00  0.35907675703E+03  0.35907675704E+03  0.25500000920E-02 0. -1.
        2   -1    0    0  501    0  0.00000000000E+00  0.00000000000E+00 -0.18079873595E+04  0.18079873595E+04  0.25500000920E-02 0.  1.
    10030    2    1    2    0    0  0.00000000000E+00  0.00000000000E+00 -0.14489106024E+04  0.21670641165E+04  0.16114667081E+04 0.  0.
        4    1    3    3  502    0 -0.14249974123E+03 -0.34474512473E+03  0.23595426862E+03  0.44139710811E+03  0.12699999809E+01 0. -1.
       -4    1    3    3    0  502  0.14249974123E+03  0.34474512473E+03 -0.16848648711E+04  0.17256670084E+04  0.12699999809E+01 0.  1.
</event>
<event>
 5   0  0.3647623E-05  0.2628240E+04  0.7818609E-02  0.8358672E-01
       -2   -1    0    0    0  501  0.00000000000E+00  0.00000000000E+00  0.93720426521E+03  0.93720426521E+03  0.25500000920E-02 0. -1.
        2   -1    0    0  501    0  0.00000000000E+00  0.00000000000E+00 -0.18426200011E+04  0.18426200011E+04  0.25500000920E-02 0.  1.
    10030    2    1    2    0    0  0.00000000000E+00  0.00000000000E+00 -0.90541573587E+03  0.27798242663E+04  0.26282399618E+04 0.  0.
        3    1    3    3  502    0 -0.68314118032E+02 -0.40386857302E+03 -0.17733773490E+04  0.18200669975E+04  0.10100000352E+00 0.  1.
       -3    1    3    3    0  502  0.68314118032E+02  0.40386857302E+03  0.86796161315E+03  0.95975726884E+03  0.10100000352E+00 0. -1.
</event>
<event>
 5   0  0.1497497E-05  0.2116681E+04  0.7818609E-02  0.8553931E-01
       -1   -1    0    0    0  501  0.00000000000E+00  0.00000000000E+00  0.86727014645E+03  0.86727014646E+03  0.50400001928E-02 0.  1.
        1   -1    0    0  501    0  0.00000000000E+00  0.00000000000E+00 -0.12915063275E+04  0.12915063276E+04  0.50400001928E-02 0. -1.
    10030    2    1    2    0    0  0.00000000000E+00  0.00000000000E+00 -0.42423618110E+03  0.21587764740E+04  0.21166812531E+04 0.  0.
        3    1    3    3  502    0  0.33649915824E+02  0.10572891172E+04 -0.17841120038E+03  0.10727642616E+04  0.10100000352E+00 0. -1.
       -3    1    3    3    0  502 -0.33649915824E+02 -0.10572891172E+04 -0.24582498071E+03  0.10860122125E+04  0.10100000352E+00 0.  1.
</event>
<event>
 5   0  0.3647623E-05  0.2646306E+04  0.7818609E-02  0.8352640E-01
        2   -1    0    0  501    0  0.00000000000E+00  0.00000000000E+00  0.10760030032E+04  0.10760030032E+04  0.25500000920E-02 0. -1.
       -2   -1    0    0    0  501  0.00000000000E+00  0.00000000000E+00 -0.16270714557E+04  0.16270714557E+04  0.25500000920E-02 0.  1.
    10030    2    1    2    0    0  0.00000000000E+00  0.00000000000E+00 -0.55106845249E+03  0.27030744589E+04  0.26463059330E+04 0.  0.
        3    1    3    3  502    0  0.48563106992E+03 -0.21046830932E+03 -0.15142313765E+04  0.16040670551E+04  0.10100000352E+00 0.  1.
       -3    1    3    3    0  502 -0.48563106992E+03  0.21046830932E+03  0.96316292402E+03  0.10990074038E+04  0.10100000352E+00 0. -1.
</event>
<event>
 5   0  0.1435062E-05  0.2704991E+04  0.7818609E-02  0.8333387E-01
       -1   -1    0    0    0  501  0.00000000000E+00  0.00000000000E+00  0.14157745496E+04  0.14157745496E+04  0.50400001928E-02 0. -1.
        1   -1    0    0  501    0  0.00000000000E+00  0.00000000000E+00 -0.12920445732E+04  0.12920445732E+04  0.50400001928E-02 0.  1.
    10030    2    1    2    0    0  0.00000000000E+00  0.00000000000E+00  0.12372997643E+03  0.27078191229E+04  0.27049908124E+04 0.  0.
        2    1    3    3  502    0  0.38533745162E+03 -0.46800890186E+03  0.12721479594E+04  0.14092117351E+04  0.25500000920E-02 0. -1.
       -2    1    3    3    0  502 -0.38533745162E+03  0.46800890186E+03 -0.11484179830E+04  0.12986073877E+04  0.25500000920E-02 0.  1.
</event>
<event>
 5   0  0.1451052E-05  0.2626826E+04  0.7818609E-02  0.8359146E-01
       -1   -1    0    0    0  501  0.00000000000E+00  0.00000000000E+00  0.14686857839E+04  0.14686857839E+04  0.50400001928E-02 0.  1.
        1   -1    0    0  501    0  0.00000000000E+00  0.00000000000E+00 -0.11745558205E+04  0.11745558205E+04  0.50400001928E-02 0. -1.
    10030    2    1    2    0    0  0.00000000000E+00  0.00000000000E+00  0.29412996334E+03  0.26432416044E+04  0.26268257924E+04 0.  0.
        1    1    3    3  502    0 -0.31811139684E+03  0.50758301294E+03  0.13232228019E+04  0.14524992115E+04  0.50400001928E-02 0.  1.
       -1    1    3    3    0  502  0.31811139684E+03 -0.50758301294E+03 -0.10290928386E+04  0.11907423929E+04  0.50400001928E-02 0. -1.
</event>
<event>
 5   0  0.3441646E-05  0.2193694E+04  0.7818609E-02  0.8521057E-01
       -2   -1    0    0    0  501  0.00000000000E+00  0.00000000000E+00  0.77678024903E+03  0.77678024903E+03  0.25500000920E-02 0.  1.
        2   -1    0    0  501    0  0.00000000000E+00  0.00000000000E+00 -0.15487954659E+04  0.15487954659E+04  0.25500000920E-02 0. -1.
    10030    2    1    2    0    0  0.00000000000E+00  0.00000000000E+00 -0.77201521691E+03  0.23255757150E+04  0.21936943522E+04 0.  0.
        4    1    3    3  502    0 -0.98717241984E+03 -0.33050641015E+02 -0.89161893740E+03  0.13306343126E+04  0.12699999809E+01 0. -1.
       -4    1    3    3    0  502  0.98717241984E+03  0.33050641015E+02  0.11960372049E+03  0.99494140240E+03  0.12699999809E+01 0.  1.
</event>
<event>
 5   0  0.3441646E-05  0.2618443E+04  0.7818609E-02  0.8361964E-01
        2   -1    0    0  501    0  0.00000000000E+00  0.00000000000E+00  0.27491438832E+04  0.27491438832E+04  0.25500000920E-02 0. -1.
       -2   -1    0    0    0  501  0.00000000000E+00  0.00000000000E+00 -0.62348880959E+03  0.62348880959E+03  0.25500000920E-02 0.  1.
    10030    2    1    2    0    0  0.00000000000E+00  0.00000000000E+00  0.21256550736E+04  0.33726326928E+04  0.26184426265E+04 0.  0.
        4    1    3    3  502    0  0.72756682986E+03  0.29095617508E+03  0.24137554197E+04  0.25377600018E+04  0.12699999809E+01 0. -1.
       -4    1    3    3    0  502 -0.72756682986E+03 -0.29095617508E+03 -0.28810034614E+03  0.83487269094E+03  0.12699999809E+01 0.  1.
</event>
<event>
 5   0  0.3441646E-05  0.2622120E+04  0.7818609E-02  0.8360726E-01
        2   -1    0    0  501    0  0.00000000000E+00  0.00000000000E+00  0.51563014212E+03  0.51563014213E+03  0.25500000920E-02 0. -1.
       -2   -1    0    0    0  501  0.00000000000E+00  0.00000000000E+00 -0.33335499714E+04  0.33335499714E+04  0.25500000920E-02 0.  1.
    10030    2    1    2    0    0  0.00000000000E+00  0.00000000000E+00 -0.28179198292E+04  0.38491801135E+04  0.26221203981E+04 0.  0.
        4    1    3    3  502    0  0.81633356643E+03  0.10175421599E+04 -0.12170845563E+04  0.17841213437E+04  0.12699999809E+01 0.  1.
       -4    1    3    3    0  502 -0.81633356643E+03 -0.10175421599E+04 -0.16008352729E+04  0.20650587698E+04  0.12699999809E+01 0. -1.
</event>
<event>
 5   0  0.1451052E-05  0.2562603E+04  0.7818609E-02  0.8381016E-01
        1   -1    0    0  501    0  0.00000000000E+00  0.00000000000E+00  0.22809777133E+04  0.22809777133E+04  0.50400001928E-02 0.  1.
       -1   -1    0    0    0  501  0.00000000000E+00  0.00000000000E+00 -0.71974993863E+03  0.71974993865E+03  0.50400001928E-02 0. -1.
    10030    2    1    2    0    0  0.00000000000E+00  0.00000000000E+00  0.15612277746E+04  0.30007276519E+04  0.25626030275E+04 0.  0.
        1    1    3    3  502    0 -0.63039819497E+03 -0.58874373668E+03  0.18900795895E+04  0.20776000400E+04  0.50400001928E-02 0.  1.
       -1    1    3    3    0  502  0.63039819497E+03  0.58874373668E+03 -0.32885181484E+03  0.92312761190E+03  0.50400001928E-02 0. -1.
</event>
<event>
 5   0  0.3647623E-05  0.2640332E+04  0.7818609E-02  0.8354629E-01
        2   -1    0    0  501    0  0.00000000000E+00  0.00000000000E+00  0.10517078183E+04  0.10517078183E+04  0.25500000920E-02 0. -1.
       -2   -1    0    0    0  501  0.00000000000E+00  0.00000000000E+00 -0.16571505436E+04  0.16571505436E+04  0.25500000920E-02 0.  1.
    10030    2    1    2    0    0  0.00000000000E+00  0.00000000000E+00 -0.60544272530E+03  0.27088583619E+04  0.26403319358E+04 0.  0.
        3    1    3    3  502    0  0.11049669608E+03 -0.55749577394E+03  0.91976916253E+03  0.10811967353E+04  0.10100000352E+00 0. -1.
       -3    1    3    3    0  502 -0.11049669608E+03  0.55749577394E+03 -0.15252118878E+04  0.16276616266E+04  0.10100000352E+00 0.  1.
</event>
<event>
 5   0  0.3849687E-05  0.2571335E+04  0.7818609E-02  0.8378004E-01
        2   -1    0    0  501    0  0.00000000000E+00  0.00000000000E+00  0.12197795711E+04  0.12197795711E+04  0.25500000920E-02 0.  1.
       -2   -1    0    0    0  501  0.00000000000E+00  0.00000000000E+00 -0.13551146005E+04  0.13551146005E+04  0.25500000920E-02 0. -1.
    10030    2    1    2    0    0  0.00000000000E+00  0.00000000000E+00 -0.13533502939E+03  0.25748941715E+04  0.25713351443E+04 0.  0.
        1    1    3    3  502    0 -0.53172581823E+03  0.11014847688E+04 -0.46437245758E+03  0.13082976806E+04  0.50400001928E-02 0. -1.
       -1    1    3    3    0  502  0.53172581823E+03 -0.11014847688E+04  0.32903742819E+03  0.12665964909E+04  0.50400001928E-02 0.  1.
</event>
<event>
 5   0  0.1435062E-05  0.2570844E+04  0.7818609E-02  0.8378173E-01
        1   -1    0    0  501    0  0.00000000000E+00  0.00000000000E+00  0.17025968782E+04  0.17025968782E+04  0.50400001928E-02 0. -1.
       -1   -1    0    0    0  501  0.00000000000E+00  0.00000000000E+00 -0.97046476287E+03  0.97046476288E+03  0.50400001928E-02 0.  1.
    10030    2    1    2    0    0  0.00000000000E+00  0.00000000000E+00  0.73213211536E+03  0.26730616411E+04  0.25708444338E+04 0.  0.
        2    1    3    3  502    0 -0.51837425177E+02 -0.10337849075E+04 -0.42641396127E+03  0.11194763151E+04  0.25500000920E-02 0.  1.
       -2    1    3    3    0  502  0.51837425177E+02  0.10337849075E+04  0.11585460766E+04  0.15535853260E+04  0.25500000920E-02 0. -1.
</event>
<event>
 5   0  0.1451052E-05  0.2550502E+04  0.7818609E-02  0.8385211E-01
       -1   -1    0    0    0  501  0.00000000000E+00  0.00000000000E+00  0.75290812434E+03  0.75290812436E+03  0.50400001928E-02 0.  1.
        1   -1    0    0  501    0  0.00000000000E+00  0.00000000000E+00 -0.21599787952E+04  0.21599787952E+04  0.50400001928E-02 0. -1.
    10030    2    1    2    0    0  0.00000000000E+00  0.00000000000E+00 -0.14070706709E+04  0.29128869196E+04  0.25505023688E+04 0.  0.
        1    1    3    3  502    0 -0.22089107572E+03  0.10618700335E+04 -0.14695872146E+04  0.18264849895E+04  0.50400001928E-02 0. -1.
       -1    1    3    3    0  502  0.22089107572E+03 -0.10618700335E+04  0.62516543725E+02  0.10864019301E+04  0.50400001928E-02 0.  1.
</event>
<event>
 5   0  0.1435062E-05  0.2617474E+04  0.7818609E-02  0.8362290E-01
        1   -1    0    0  501    0  0.00000000000E+00  0.00000000000E+00  0.13897081107E+04  0.13897081108E+04  0.50400001928E-02 0.  1.
       -1   -1    0    0    0  501  0.00000000000E+00  0.00000000000E+00 -0.12324833556E+04  0.12324833557E+04  0.50400001928E-02 0. -1.
    10030    2    1    2    0    0  0.00000000000E+00  0.00000000000E+00  0.15722475510E+03  0.26221914664E+04  0.26174736795E+04 0.  0.
        2    1    3    3  502    0 -0.87710860083E+03  0.46559844376E+01  0.10516771208E+04  0.13694400105E+04  0.25500000920E-02 0.  1.
       -2    1    3    3    0  502  0.87710860083E+03 -0.46559844376E+01 -0.89445236570E+03  0.12527514559E+04  0.25500000920E-02 0. -1.
</event>
<event>
 5   0  0.3647623E-05  0.2624926E+04  0.7818609E-02  0.8359783E-01
        2   -1    0    0  501    0  0.00000000000E+00  0.00000000000E+00  0.12577562218E+04  0.12577562219E+04  0.25500000920E-02 0.  1.
       -2   -1    0    0    0  501  0.00000000000E+00  0.00000000000E+00 -0.13695490176E+04  0.13695490176E+04  0.25500000920E-02 0. -1.
    10030    2    1    2    0    0  0.00000000000E+00  0.00000000000E+00 -0.11179279577E+03  0.26273052395E+04  0.26249257498E+04 0.  0.
        3    1    3    3  502    0 -0.13424448826E+03  0.49809610355E+02  0.12499150078E+04  0.12580898684E+04  0.10100000352E+00 0.  1.
       -3    1    3    3    0  502  0.13424448826E+03 -0.49809610355E+02 -0.13617078036E+04  0.13692153711E+04  0.10100000352E+00 0. -1.
</event>
<event>
 5   0  0.1435062E-05  0.2700368E+04  0.7818609E-02  0.8334885E-01
        1   -1    0    0  501    0  0.00000000000E+00  0.00000000000E+00  0.15055513508E+04  0.15055513508E+04  0.50400001928E-02 0.  1.
       -1   -1    0    0    0  501  0.00000000000E+00  0.00000000000E+00 -0.12108502646E+04  0.12108502646E+04  0.50400001928E-02 0. -1.
    10030    2    1    2    0    0  0.00000000000E+00  0.00000000000E+00  0.29470108624E+03  0.27164016154E+04  0.27003683093E+04 0.  0.
        2    1    3    3  502    0  0.49182537767E+03  0.60376491119E+02  0.14107774389E+04  0.14952693753E+04  0.25500000920E-02 0.  1.
       -2    1    3    3    0  502 -0.49182537767E+03 -0.60376491119E+02 -0.11160763526E+04  0.12211322401E+04  0.25500000920E-02 0. -1.
</event>
<event>
 5   0  0.3499642E-05  0.2602965E+04  0.7818609E-02  0.8367195E-01
       -2   -1    0    0    0  501  0.00000000000E+00  0.00000000000E+00  0.70804811213E+03  0.70804811214E+03  0.25500000920E-02 0.  1.
        2   -1    0    0  501    0  0.00000000000E+00  0.00000000000E+00 -0.23922902127E+04  0.23922902127E+04  0.25500000920E-02 0. -1.
    10030    2    1    2    0    0  0.00000000000E+00  0.00000000000E+00 -0.16842421006E+04  0.31003383249E+04  0.26029649009E+04 0.  0.
        2    1    3    3  502    0  0.12192145105E+04 -0.20497517262E+03 -0.13264640429E+04  0.18132858851E+04  0.25500000920E-02 0. -1.
       -2    1    3    3    0  502 -0.12192145105E+04  0.20497517262E+03 -0.35777805769E+03  0.12870524397E+04  0.25500000920E-02 0.  1.
</event>
<event>
 5   0  0.1497497E-05  0.2585856E+04  0.7818609E-02  0.8373022E-01
        1   -1    0    0  501    0  0.00000000000E+00  0.00000000000E+00  0.10569829597E+04  0.10569829597E+04  0.50400001928E-02 0. -1.
       -1   -1    0    0    0  501  0.00000000000E+00  0.00000000000E+00 -0.15815417113E+04  0.15815417113E+04  0.50400001928E-02 0.  1.
    10030    2    1    2    0    0  0.00000000000E+00  0.00000000000E+00 -0.52455875160E+03  0.26385246710E+04  0.25858558652E+04 0.  0.
        3    1    3    3  502    0 -0.12782008554E+04 -0.13156734859E+03 -0.40857052954E+03  0.13483461284E+04  0.10100000352E+00 0.  1.
       -3    1    3    3    0  502  0.12782008554E+04  0.13156734859E+03 -0.11598822206E+03  0.12901785427E+04  0.10100000352E+00 0. -1.
</event>
<event>
 5   0  0.1451052E-05  0.2608930E+04  0.7818609E-02  0.8365174E-01
        1   -1    0    0  501    0  0.00000000000E+00  0.00000000000E+00  0.73049574971E+03  0.73049574973E+03  0.50400001928E-02 0.  1.
       -1   -1    0    0    0  501  0.00000000000E+00  0.00000000000E+00 -0.23294164592E+04  0.23294164592E+04  0.50400001928E-02 0. -1.
    10030    2    1    2    0    0  0.00000000000E+00  0.00000000000E+00 -0.15989207095E+04  0.30599122090E+04  0.26089299131E+04 0.  0.
        1    1    3    3  502    0 -0.53756011796E+03 -0.53402691816E+03  0.44591327819E+03  0.87920093348E+03  0.50400001928E-02 0.  1.
       -1    1    3    3    0  502  0.53756011796E+03  0.53402691816E+03 -0.20448339877E+04  0.21807112755E+04  0.50400001928E-02 0. -1.
</event>
<event>
 5   0  0.3441646E-05  0.2628748E+04  0.7818609E-02  0.8358501E-01
        2   -1    0    0  501    0  0.00000000000E+00  0.00000000000E+00  0.24061038806E+04  0.24061038807E+04  0.25500000920E-02 0. -1.
       -2   -1    0    0    0  501  0.00000000000E+00  0.00000000000E+00 -0.71799855607E+03  0.71799855608E+03  0.25500000920E-02 0.  1.
    10030    2    1    2    0    0  0.00000000000E+00  0.00000000000E+00  0.16881053246E+04  0.31241024367E+04  0.26287480762E+04 0.  0.
        4    1    3    3  502    0  0.77530833583E+03 -0.33694991017E+02  0.21047708206E+04  0.22432788922E+04  0.12699999809E+01 0. -1.
       -4    1    3    3    0  502 -0.77530833583E+03  0.33694991017E+02 -0.41666549607E+03  0.88082354449E+03  0.12699999809E+01 0.  1.
</event>
<event>
 5   0  0.3508470E-05  0.2682307E+04  0.7818609E-02  0.8340769E-01
        2   -1    0    0  501    0  0.00000000000E+00  0.00000000000E+00  0.11727163413E+04  0.11727163413E+04  0.25500000920E-02 0. -1.
       -2   -1    0    0    0  501  0.00000000000E+00  0.00000000000E+00 -0.15337830357E+04  0.15337830357E+04  0.25500000920E-02 0.  1.
    10030    2    1    2    0    0  0.00000000000E+00  0.00000000000E+00 -0.36106669441E+03  0.27064993770E+04  0.26823067907E+04 0.  0.
        5    1    3    3  502    0 -0.50128912993E+02 -0.12557186613E+04  0.29201537858E+03  0.12902082528E+04  0.46999998093E+01 0. -1.
       -5    1    3    3    0  502  0.50128912993E+02  0.12557186613E+04 -0.65308207299E+03  0.14162911241E+04  0.46999998093E+01 0.  1.
</event>
<event>
 5   0  0.1435062E-05  0.2554171E+04  0.7818609E-02  0.8383937E-01
       -1   -1    0    0    0  501  0.00000000000E+00  0.00000000000E+00  0.13607410585E+04  0.13607410585E+04  0.50400001928E-02 0. -1.
        1   -1    0    0  501    0  0.00000000000E+00  0.00000000000E+00 -0.11985729973E+04  0.11985729973E+04  0.50400001928E-02 0.  1.
    10030    2    1    2    0    0  0.00000000000E+00  0.00000000000E+00  0.16216806119E+03  0.25593140558E+04  0.25541710899E+04 0.  0.
        2    1    3    3  502    0  0.54492602925E+03  0.71301892408E+03 -0.82937480152E+03  0.12219668264E+04  0.25500000920E-02 0.  1.
       -2    1    3    3    0  502 -0.54492602925E+03 -0.71301892408E+03  0.99154286271E+03  0.13373472294E+04  0.25500000920E-02 0. -1.
</event>
<event>
 5   0  0.1435062E-05  0.2469593E+04  0.7818609E-02  0.8413899E-01
        1   -1    0    0  501    0  0.00000000000E+00  0.00000000000E+00  0.18754845474E+04  0.18754845474E+04  0.50400001928E-02 0.  1.
       -1   -1    0    0    0  501  0.00000000000E+00  0.00000000000E+00 -0.81297491258E+03  0.81297491259E+03  0.50400001928E-02 0. -1.
    10030    2    1    2    0    0  0.00000000000E+00  0.00000000000E+00  0.10625096348E+04  0.26884594600E+04  0.24695925866E+04 0.  0.
        2    1    3    3  502    0  0.16060905635E+03 -0.10357243392E+03 -0.79677778584E+03  0.81937620057E+03  0.25500000920E-02 0. -1.
       -2    1    3    3    0  502 -0.16060905635E+03  0.10357243392E+03  0.18592874207E+04  0.18690832594E+04  0.25500000920E-02 0.  1.
</event>
<event>
 5   0  0.1451052E-05  0.2582998E+04  0.7818609E-02  0.8373999E-01
       -1   -1    0    0    0  501  0.00000000000E+00  0.00000000000E+00  0.86487161585E+03  0.86487161587E+03  0.50400001928E-02 0. -1.
        1   -1    0    0  501    0  0.00000000000E+00  0.00000000000E+00 -0.19285748493E+04  0.19285748493E+04  0.50400001928E-02 0.  1.
    10030    2    1    2    0    0  0.00000000000E+00  0.00000000000E+00 -0.10637032334E+04  0.27934464651E+04  0.25829979839E+04 0.  0.
        1    1    3    3  502    0  0.83482601200E+03 -0.24659248014E+03 -0.15636413922E+04  0.17896135686E+04  0.50400001928E-02 0.  1.
       -1    1    3    3    0  502 -0.83482601200E+03  0.24659248014E+03  0.49993815876E+03  0.10038328965E+04  0.50400001928E-02 0. -1.
</event>
<event>
 5   0  0.1474554E-05  0.2697458E+04  0.7818609E-02  0.8335830E-01
       -1   -1    0    0    0  501  0.00000000000E+00  0.00000000000E+00  0.12550887375E+04  0.12550887375E+04  0.50400001928E-02 0.  1.
        1   -1    0    0  501    0  0.00000000000E+00  0.00000000000E+00 -0.14493554708E+04  0.14493554708E+04  0.50400001928E-02 0. -1.
    10030    2    1    2    0    0  0.00000000000E+00  0.00000000000E+00 -0.19426673336E+03  0.27044442083E+04  0.26974578610E+04 0.  0.
        5    1    3    3  502    0 -0.65646975587E+03  0.10690395569E+04  0.39937599748E+03  0.13165566421E+04  0.46999998093E+01 0. -1.
       -5    1    3    3    0  502  0.65646975587E+03 -0.10690395569E+04 -0.59364273085E+03  0.13878875662E+04  0.46999998093E+01 0.  1.
</event>
<event>
 5   0  0.1497497E-05  0.2565880E+04  0.7818609E-02  0.8379884E-01
       -1   -1    0    0    0  501  0.00000000000E+00  0.00000000000E+00  0.71497396475E+03  0.71497396477E+03  0.50400001928E-02 0.  1.
        1   -1    0    0  501    0  0.00000000000E+00  0.00000000000E+00 -0.23020914008E+04  0.23020914008E+04  0.50400001928E-02 0. -1.
    10030    2    1    2    0    0  0.00000000000E+00  0.00000000000E+00 -0.15871174361E+04  0.30170653656E+04  0.25658802903E+04 0.  0.
        3    1    3    3  502    0  0.18038053414E+03  0.11240926431E+04 -0.14890103346E+04  0.18743727469E+04  0.10100000352E+00 0.  1.
       -3    1    3    3    0  502 -0.18038053414E+03 -0.11240926431E+04 -0.98107101420E+02  0.11426926187E+04  0.10100000352E+00 0. -1.
</event>
<event>
 5   0  0.3849687E-05  0.2109555E+04  0.7818609E-02  0.8557046E-01
       -2   -1    0    0    0  501  0.00000000000E+00  0.00000000000E+00  0.79699233441E+03  0.79699233441E+03  0.25500000920E-02 0.  1.
        2   -1    0    0  501    0  0.00000000000E+00  0.00000000000E+00 -0.13959427671E+04  0.13959427671E+04  0.25500000920E-02 0. -1.
    10030    2    1    2    0    0  0.00000000000E+00  0.00000000000E+00 -0.59895043265E+03  0.21929351015E+04  0.21095551044E+04 0.  0.
        1    1    3    3  502    0  0.92402351032E+03 -0.35921060773E+03 -0.67385427681E+03  0.11987206909E+04  0.50400001928E-02 0.  1.
       -1    1    3    3    0  502 -0.92402351032E+03  0.35921060773E+03  0.74903844161E+02  0.99421441059E+03  0.50400001928E-02 0. -1.
</event>
<event>
 5   0  0.1474554E-05  0.2379343E+04  0.7818609E-02  0.8447278E-01
        1   -1    0    0  501    0  0.00000000000E+00  0.00000000000E+00  0.22562446997E+04  0.22562446997E+04  0.50400001928E-02 0. -1.
       -1   -1    0    0    0  501  0.00000000000E+00  0.00000000000E+00 -0.62728909201E+03  0.62728909203E+03  0.50400001928E-02 0.  1.
    10030    2    1    2    0    0  0.00000000000E+00  0.00000000000E+00  0.16289556077E+04  0.28835337917E+04  0.23793425050E+04 0.  0.
        5    1    3    3  502    0  0.93372692301E+03  0.73567245433E+03  0.87178011673E+03  0.14741379137E+04  0.46999998093E+01 0. -1.
       -5    1    3    3    0  502 -0.93372692301E+03 -0.73567245433E+03  0.75717549097E+03  0.14093958780E+04  0.46999998093E+01 0.  1.
</event>
<event>
 5   0  0.1451052E-05  0.1701321E+04  0.7818609E-02  0.8760611E-01
       -1   -1    0    0    0  501  0.00000000000E+00  0.00000000000E+00  0.86337253976E+03  0.86337253978E+03  0.50400001928E-02 0.  1.
        1   -1    0    0  501    0  0.00000000000E+00  0.00000000000E+00 -0.83813529607E+03  0.83813529609E+03  0.50400001928E-02 0. -1.
    10030    2    1    2    0    0  0.00000000000E+00  0.00000000000E+00  0.25237243688E+02  0.17015078359E+04  0.17013206626E+04 0.  0.
        1    1    3    3  502    0  0.30906218868E+03  0.17211938357E+03 -0.76108039765E+03  0.83927819606E+03  0.50400001928E-02 0. -1.
       -1    1    3    3    0  502 -0.30906218868E+03 -0.17211938357E+03  0.78631764133E+03  0.86222963981E+03  0.50400001928E-02 0.  1.
</event>
<event>
 5   0  0.1497497E-05  0.2019167E+04  0.7818609E-02  0.8597712E-01
       -1   -1    0    0    0  501  0.00000000000E+00  0.00000000000E+00  0.75118645833E+03  0.75118645835E+03  0.50400001928E-02 0.  1.
        1   -1    0    0  501    0  0.00000000000E+00  0.00000000000E+00 -0.13568652031E+04  0.13568652031E+04  0.50400001928E-02 0. -1.
    10030    2    1    2    0    0  0.00000000000E+00  0.00000000000E+00 -0.60567874472E+03  0.21080516614E+04  0.20191669236E+04 0.  0.
        3    1    3    3  502    0 -0.29794267752E+03  0.90203116698E+03 -0.65968779509E+03  0.11565543924E+04  0.10100000352E+00 0. -1.
       -3    1    3    3    0  502  0.29794267752E+03 -0.90203116698E+03  0.54009050371E+02  0.95149726905E+03  0.10100000352E+00 0.  1.
</event>
<event>
 5   0  0.1533248E-05  0.2142181E+04  0.7818609E-02  0.8542887E-01
       -1   -1    0    0    0  501  0.00000000000E+00  0.00000000000E+00  0.67645029247E+03  0.67645029249E+03  0.50400001928E-02 0. -1.
        1   -1    0    0  501    0  0.00000000000E+00  0.00000000000E+00 -0.16959625211E+04  0.16959625211E+04  0.50400001928E-02 0.  1.
    10030    2    1    2    0    0  0.00000000000E+00  0.00000000000E+00 -0.10195122286E+04  0.23724128136E+04  0.21421805185E+04 0.  0.
        4    1    3    3  502    0 -0.64136267122E+03  0.72677292466E+03 -0.10144634973E+04  0.14030975591E+04  0.12699999809E+01 0.  1.
       -4    1    3    3    0  502  0.64136267122E+03 -0.72677292466E+03 -0.50487313389E+01  0.96931525452E+03  0.12699999809E+01 0. -1.
</event>
<event>
 5   0  0.1497497E-05  0.2580472E+04  0.7818609E-02  0.8374865E-01
        1   -1    0    0  501    0  0.00000000000E+00  0.00000000000E+00  0.16287532764E+04  0.16287532764E+04  0.50400001928E-02 0.  1.
       -1   -1    0    0    0  501  0.00000000000E+00  0.00000000000E+00 -0.10220757408E+04  0.10220757408E+04  0.50400001928E-02 0. -1.
    10030    2    1    2    0    0  0.00000000000E+00  0.00000000000E+00  0.60667753555E+03  0.26508290172E+04  0.25804722139E+04 0.  0.
        3    1    3    3  502    0  0.12345356958E+03 -0.70479528982E+03  0.14062656111E+04  0.15778340102E+04  0.10100000352E+00 0.  1.
       -3    1    3    3    0  502 -0.12345356958E+03  0.70479528982E+03 -0.79958807558E+03  0.10729950071E+04  0.10100000352E+00 0. -1.
</event>
<event>
 5   0  0.3849687E-05  0.2638075E+04  0.7818609E-02  0.8355382E-01
       -2   -1    0    0    0  501  0.00000000000E+00  0.00000000000E+00  0.90498953792E+03  0.90498953792E+03  0.25500000920E-02 0.  1.
        2   -1    0    0  501    0  0.00000000000E+00  0.00000000000E+00 -0.19225193514E+04  0.19225193514E+04  0.25500000920E-02 0. -1.
    10030    2    1    2    0    0  0.00000000000E+00  0.00000000000E+00 -0.10175298135E+04  0.28275088893E+04  0.26380749796E+04 0.  0.
        1    1    3    3  502    0  0.69126106575E+03  0.27436077899E+03 -0.16763684472E+04  0.18339375313E+04  0.50400001928E-02 0. -1.
       -1    1    3    3    0  502 -0.69126106575E+03 -0.27436077899E+03  0.65883863373E+03  0.99357135797E+03  0.50400001928E-02 0.  1.
</event>
<event>
 5   0  0.3647623E-05  0.2602349E+04  0.7818609E-02  0.8367404E-01
       -2   -1    0    0    0  501  0.00000000000E+00  0.00000000000E+00  0.10749810335E+04  0.10749810335E+04  0.25500000920E-02 0.  1.
        2   -1    0    0  501    0  0.00000000000E+00  0.00000000000E+00 -0.15749631419E+04  0.15749631419E+04  0.25500000920E-02 0. -1.
    10030    2    1    2    0    0  0.00000000000E+00  0.00000000000E+00 -0.49998210834E+03  0.26499441754E+04  0.26023493279E+04 0.  0.
        3    1    3    3  502    0 -0.12458018669E+03 -0.49151904229E+03  0.97023397443E+03  0.10947443387E+04  0.10100000352E+00 0.  1.
       -3    1    3    3    0  502  0.12458018669E+03  0.49151904229E+03 -0.14702160828E+04  0.15551998367E+04  0.10100000352E+00 0. -1.
</event>
<event>
 5   0  0.1497497E-05  0.2596991E+04  0.7818609E-02  0.8369224E-01
       -1   -1    0    0    0  501  0.00000000000E+00  0.00000000000E+00  0.10014717778E+04  0.10014717779E+04  0.50400001928E-02 0. -1.
        1   -1    0    0  501    0  0.00000000000E+00  0.00000000000E+00 -0.16836130548E+04  0.16836130548E+04  0.50400001928E-02 0.  1.
    10030    2    1    2    0    0  0.00000000000E+00  0.00000000000E+00 -0.68214127698E+03  0.26850848327E+04  0.25969913048E+04 0.  0.
        3    1    3    3  502    0 -0.35316132021E+03 -0.41512419757E+03  0.87748364667E+03  0.10329707536E+04  0.10100000352E+00 0. -1.
       -3    1    3    3    0  502  0.35316132021E+03  0.41512419757E+03 -0.15596249237E+04  0.16521140790E+04  0.10100000352E+00 0.  1.
</event>
<event>
 5   0  0.1217200E-05  0.2425384E+04  0.7818609E-02  0.8430061E-01
        4   -1    0    0  501    0  0.00000000000E+00  0.00000000000E+00  0.12075057775E+04  0.12075064453E+04  0.12699999809E+01 0.  1.
       -4   -1    0    0    0  501  0.00000000000E+00  0.00000000000E+00 -0.12178988629E+04  0.12178995250E+04  0.12699999809E+01 0. -1.
    10030    2    1    2    0    0  0.00000000000E+00  0.00000000000E+00 -0.10393085406E+02  0.24254059703E+04  0.24253837026E+04 0.  0.
        4    1    3    3  502    0  0.55534278843E+03 -0.44806360983E+03  0.97534971154E+03  0.12085012552E+04  0.12699999809E+01 0.  1.
       -4    1    3    3    0  502 -0.55534278843E+03  0.44806360983E+03 -0.98574279694E+03  0.12169047151E+04  0.12699999809E+01 0. -1.
</event>
<event>
 5   0  0.1533248E-05  0.2506652E+04  0.7818609E-02  0.8400620E-01
        1   -1    0    0  501    0  0.00000000000E+00  0.00000000000E+00  0.24009031120E+04  0.24009031120E+04  0.50400001928E-02 0.  1.
       -1   -1    0    0    0  501  0.00000000000E+00  0.00000000000E+00 -0.65426468448E+03  0.65426468450E+03  0.50400001928E-02 0. -1.
    10030    2    1    2    0    0  0.00000000000E+00  0.00000000000E+00  0.17466384275E+04  0.30551677965E+04  0.25066520437E+04 0.  0.
        4    1    3    3  502    0  0.80920393323E+03  0.25843537111E+02  0.20394132301E+04  0.21942394650E+04  0.12699999809E+01 0.  1.
       -4    1    3    3    0  502 -0.80920393323E+03 -0.25843537111E+02 -0.29277480258E+03  0.86092833145E+03  0.12699999809E+01 0. -1.
</event>
<event>
 5   0  0.1435062E-05  0.2560923E+04  0.7818609E-02  0.8381597E-01
       -1   -1    0    0    0  501  0.00000000000E+00  0.00000000000E+00  0.19414128123E+04  0.19414128123E+04  0.50400001928E-02 0.  1.
        1   -1    0    0  501    0  0.00000000000E+00  0.00000000000E+00 -0.84452983246E+03  0.84452983248E+03  0.50400001928E-02 0. -1.
    10030    2    1    2    0    0  0.00000000000E+00  0.00000000000E+00  0.10968829798E+04  0.27859426447E+04  0.25609225190E+04 0.  0.
        2    1    3    3  502    0 -0.95348492873E+03  0.75229951718E+03  0.10722737700E+03  0.12192562418E+04  0.25500000920E-02 0.  1.
       -2    1    3    3    0  502  0.95348492873E+03 -0.75229951718E+03  0.98965560280E+03  0.15666864029E+04  0.25500000920E-02 0. -1.
</event>
<event>
 5   0  0.1451052E-05  0.2629814E+04  0.7818609E-02  0.8358144E-01
        1   -1    0    0  501    0  0.00000000000E+00  0.00000000000E+00  0.10419250253E+04  0.10419250253E+04  0.50400001928E-02 0.  1.
       -1   -1    0    0    0  501  0.00000000000E+00  0.00000000000E+00 -0.16594099574E+04  0.16594099574E+04  0.50400001928E-02 0. -1.
    10030    2    1    2    0    0  0.00000000000E+00  0.00000000000E+00 -0.61748493211E+03  0.27013349827E+04  0.26298142610E+04 0.  0.
        1    1    3    3  502    0  0.43745864330E+03  0.10054779713E+04  0.43668260978E+03  0.11802744245E+04  0.50400001928E-02 0.  1.
       -1    1    3    3    0  502 -0.43745864330E+03 -0.10054779713E+04 -0.10541675419E+04  0.15210605582E+04  0.50400001928E-02 0. -1.
</event>
<event>
 5   0  0.1474554E-05  0.2540624E+04  0.7818609E-02  0.8388654E-01
        1   -1    0    0  501    0  0.00000000000E+00  0.00000000000E+00  0.11884931633E+04  0.11884931634E+04  0.50400001928E-02 0. -1.
       -1   -1    0    0    0  501  0.00000000000E+00  0.00000000000E+00 -0.13577639045E+04  0.13577639045E+04  0.50400001928E-02 0.  1.
    10030    2    1    2    0    0  0.00000000000E+00  0.00000000000E+00 -0.16927074118E+03  0.25462570679E+04  0.25406244256E+04 0.  0.
        5    1    3    3  502    0  0.41227404191E+03 -0.17424387645E+03 -0.12761109255E+04  0.13523357565E+04  0.46999998093E+01 0.  1.
       -5    1    3    3    0  502 -0.41227404191E+03  0.17424387645E+03  0.11068401843E+04  0.11939213114E+04  0.46999998093E+01 0. -1.
</event>
<event>
 5   0  0.3508470E-05  0.2626711E+04  0.7818609E-02  0.8359184E-01
        2   -1    0    0  501    0  0.00000000000E+00  0.00000000000E+00  0.17216445657E+04  0.17216445657E+04  0.25500000920E-02 0.  1.
       -2   -1    0    0    0  501  0.00000000000E+00  0.00000000000E+00 -0.10018924607E+04  0.10018924607E+04  0.25500000920E-02 0. -1.
    10030    2    1    2    0    0  0.00000000000E+00  0.00000000000E+00  0.71975210492E+03  0.27235370264E+04  0.26267110312E+04 0.  0.
        5    1    3    3  502    0 -0.11683296682E+04  0.15738190427E+03 -0.24035635221E+03  0.12031444400E+04  0.46999998093E+01 0. -1.
       -5    1    3    3    0  502  0.11683296682E+04 -0.15738190427E+03  0.96010845713E+03  0.15203925864E+04  0.46999998093E+01 0.  1.
</event>
<event>
 5   0  0.3441646E-05  0.2619170E+04  0.7818609E-02  0.8361719E-01
        2   -1    0    0  501    0  0.00000000000E+00  0.00000000000E+00  0.20604127297E+04  0.20604127297E+04  0.25500000920E-02 0.  1.
       -2   -1    0    0    0  501  0.00000000000E+00  0.00000000000E+00 -0.83236372800E+03  0.83236372800E+03  0.25500000920E-02 0. -1.
    10030    2    1    2    0    0  0.00000000000E+00  0.00000000000E+00  0.12280490017E+04  0.28927764577E+04  0.26191699608E+04 0.  0.
        4    1    3    3  502    0 -0.46360351842E+03  0.35861880546E+03 -0.67941233812E+03  0.89729505070E+03  0.12699999809E+01 0. -1.
       -4    1    3    3    0  502  0.46360351842E+03 -0.35861880546E+03  0.19074613398E+04  0.19954814070E+04  0.12699999809E+01 0.  1.
</event>
<event>
 5   0  0.1474554E-05  0.2552873E+04  0.7818609E-02  0.8384388E-01
        1   -1    0    0  501    0  0.00000000000E+00  0.00000000000E+00  0.17908880984E+04  0.17908880984E+04  0.50400001928E-02 0. -1.
       -1   -1    0    0    0  501  0.00000000000E+00  0.00000000000E+00 -0.90976633645E+03  0.90976633646E+03  0.50400001928E-02 0.  1.
    10030    2    1    2    0    0  0.00000000000E+00  0.00000000000E+00  0.88112176196E+03  0.27006544349E+04  0.25528726598E+04 0.  0.
        5    1    3    3  502    0 -0.49749353306E+03 -0.10384869462E+04  0.10231805401E+04  0.15404140549E+04  0.46999998093E+01 0. -1.
       -5    1    3    3    0  502  0.49749353306E+03  0.10384869462E+04 -0.14205877817E+03  0.11602403800E+04  0.46999998093E+01 0.  1.
</event>
<event>
 5   0  0.1217200E-05  0.2244905E+04  0.7818609E-02  0.8499967E-01
       -3   -1    0    0    0  501  0.00000000000E+00  0.00000000000E+00  0.13885832895E+04  0.13885832932E+04  0.10100000352E+00 0. -1.
        3   -1    0    0  501    0  0.00000000000E+00  0.00000000000E+00 -0.90732708375E+03  0.90732708937E+03  0.10100000352E+00 0.  1.
    10030    2    1    2    0    0  0.00000000000E+00  0.00000000000E+00  0.48125620576E+03  0.22959103825E+04  0.22449046637E+04 0.  0.
        3    1    3    3  502    0 -0.44210916252E+03 -0.54427128979E+03 -0.65576043634E+03  0.96005911722E+03  0.10100000352E+00 0.  1.
       -3    1    3    3    0  502  0.44210916252E+03  0.54427128979E+03  0.11370166421E+04  0.13358512653E+04  0.10100000352E+00 0. -1.
</event>
<event>
 5   0  0.3849687E-05  0.2606981E+04  0.7818609E-02  0.8365834E-01
        2   -1    0    0  501    0  0.00000000000E+00  0.00000000000E+00  0.30999677357E+04  0.30999677357E+04  0.25500000920E-02 0. -1.
       -2   -1    0    0    0  501  0.00000000000E+00  0.00000000000E+00 -0.54809828447E+03  0.54809828448E+03  0.25500000920E-02 0.  1.
    10030    2    1    2    0    0  0.00000000000E+00  0.00000000000E+00  0.25518694512E+04  0.36480660201E+04  0.26069806274E+04 0.  0.
        1    1    3    3  502    0  0.81173955742E+03  0.63742168964E+03  0.16184189413E+03  0.10447106385E+04  0.50400001928E-02 0.  1.
       -1    1    3    3    0  502 -0.81173955742E+03 -0.63742168964E+03  0.23900275571E+04  0.26033553816E+04  0.50400001928E-02 0. -1.
</event>
<event>
 5   0  0.3441646E-05  0.2567669E+04  0.7818609E-02  0.8379267E-01
       -2   -1    0    0    0  501  0.00000000000E+00  0.00000000000E+00  0.12847198923E+04  0.12847198923E+04  0.25500000920E-02 0. -1.
        2   -1    0    0  501    0  0.00000000000E+00  0.00000000000E+00 -0.12829495304E+04  0.12829495304E+04  0.25500000920E-02 0.  1.
    10030    2    1    2    0    0  0.00000000000E+00  0.00000000000E+00  0.17703619322E+01  0.25676694227E+04  0.25676688124E+04 0.  0.
        4    1    3    3  502    0  0.18633915875E+03  0.83384615190E+03  0.95911684347E+03  0.12844953949E+04  0.12699999809E+01 0. -1.
       -4    1    3    3    0  502 -0.18633915875E+03 -0.83384615190E+03 -0.95734648154E+03  0.12831740278E+04  0.12699999809E+01 0.  1.
</event>
<event>
 5   0  0.3441646E-05  0.2592005E+04  0.7818609E-02  0.8370922E-01
        2   -1    0    0  501    0  0.00000000000E+00  0.00000000000E+00  0.12038895230E+04  0.12038895230E+04  0.25500000920E-02 0.  1.
       -2   -1    0    0    0  501  0.00000000000E+00  0.00000000000E+00 -0.13951635791E+04  0.13951635791E+04  0.25500000920E-02 0. -1.
    10030    2    1    2    0    0  0.00000000000E+00  0.00000000000E+00 -0.19127405608E+03  0.25990531020E+04  0.25920052590E+04 0.  0.
        4    1    3    3  502    0 -0.39444596375E+03  0.11850097275E+04 -0.44267856178E+03  0.13250666378E+04  0.12699999809E+01 0. -1.
       -4    1    3    3    0  502  0.39444596375E+03 -0.11850097275E+04  0.25140450570E+03  0.12739864642E+04  0.12699999809E+01 0.  1.
</event>
<event>
 5   0  0.1451052E-05  0.2636933E+04  0.7818609E-02  0.8355763E-01
        1   -1    0    0  501    0  0.00000000000E+00  0.00000000000E+00  0.22047557802E+04  0.22047557802E+04  0.50400001928E-02 0.  1.
       -1   -1    0    0    0  501  0.00000000000E+00  0.00000000000E+00 -0.78845648873E+03  0.78845648874E+03  0.50400001928E-02 0. -1.
    10030    2    1    2    0    0  0.00000000000E+00  0.00000000000E+00  0.14162992915E+04  0.29932122689E+04  0.26369330678E+04 0.  0.
        1    1    3    3  502    0  0.66786235056E+03  0.52683662725E+03 -0.43530633108E+03  0.95555667180E+03  0.50400001928E-02 0. -1.
       -1    1    3    3    0  502 -0.66786235056E+03 -0.52683662725E+03  0.18516056226E+04  0.20376555972E+04  0.50400001928E-02 0.  1.
</event>
<event>
 5   0  0.1497497E-05  0.2602077E+04  0.7818609E-02  0.8367496E-01
       -1   -1    0    0    0  501  0.00000000000E+00  0.00000000000E+00  0.11955345173E+04  0.11955345173E+04  0.50400001928E-02 0. -1.
        1   -1    0    0  501    0  0.00000000000E+00  0.00000000000E+00 -0.14158528742E+04  0.14158528742E+04  0.50400001928E-02 0.  1.
    10030    2    1    2    0    0  0.00000000000E+00  0.00000000000E+00 -0.22031835691E+03  0.26113873915E+04  0.26020768494E+04 0.  0.
        3    1    3    3  502    0  0.57076666174E+03  0.20620512388E+03  0.10447869494E+04  0.12082528358E+04  0.10100000352E+00 0. -1.
       -3    1    3    3    0  502 -0.57076666174E+03 -0.20620512388E+03 -0.12651053063E+04  0.14031345558E+04  0.10100000352E+00 0.  1.
</event>
<event>
 5   0  0.1497497E-05  0.2538724E+04  0.7818609E-02  0.8389318E-01
       -1   -1    0    0    0  501  0.00000000000E+00  0.00000000000E+00  0.76505057689E+03  0.76505057690E+03  0.50400001928E-02 0. -1.
        1   -1    0    0  501    0  0.00000000000E+00  0.00000000000E+00 -0.21061085189E+04  0.21061085189E+04  0.50400001928E-02 0.  1.
    10030    2    1    2    0    0  0.00000000000E+00  0.00000000000E+00 -0.13410579420E+04  0.28711590958E+04  0.25387237246E+04 0.  0.
        3    1    3    3  502    0 -0.14023293946E+03 -0.25843617960E+03 -0.20670639476E+04  0.20878716220E+04  0.10100000352E+00 0.  1.
       -3    1    3    3    0  502  0.14023293946E+03  0.25843617960E+03  0.72600600561E+03  0.78328747380E+03  0.10100000352E+00 0. -1.
</event>
<event>
 5   0  0.3441646E-05  0.2693187E+04  0.7818609E-02  0.8337219E-01
        2   -1    0    0  501    0  0.00000000000E+00  0.00000000000E+00  0.27370827002E+04  0.27370827002E+04  0.25500000920E-02 0.  1.
       -2   -1    0    0    0  501  0.00000000000E+00  0.00000000000E+00 -0.66249900998E+03  0.66249900998E+03  0.25500000920E-02 0. -1.
    10030    2    1    2    0    0  0.00000000000E+00  0.00000000000E+00  0.20745836902E+04  0.33995817101E+04  0.26931873898E+04 0.  0.
        4    1    3    3  502    0  0.61408817857E+03  0.66027632869E+03 -0.22515137855E+03  0.92938898071E+03  0.12699999809E+01 0. -1.
       -4    1    3    3    0  502 -0.61408817857E+03 -0.66027632869E+03  0.22997350687E+04  0.24701927294E+04  0.12699999809E+01 0.  1.
</event>
<event>
 5   0  0.1533248E-05  0.2556867E+04  0.7818609E-02  0.8383002E-01
       -1   -1    0    0    0  501  0.00000000000E+00  0.00000000000E+00  0.99596916979E+03  0.99596916981E+03  0.50400001928E-02 0.  1.
        1   -1    0    0  501    0  0.00000000000E+00  0.00000000000E+00 -0.16410062137E+04  0.16410062138E+04  0.50400001928E-02 0. -1.
    10030    2    1    2    0    0  0.00000000000E+00  0.00000000000E+00 -0.64503704395E+03  0.26369753836E+04  0.25568665169E+04 0.  0.
        4    1    3    3  502    0  0.21018953640E+03 -0.10378314472E+04  0.41624576919E+03  0.11377767388E+04  0.12699999809E+01 0.  1.
       -4    1    3    3    0  502 -0.21018953640E+03  0.10378314472E+04 -0.10612828131E+04  0.14991986448E+04  0.12699999809E+01 0. -1.
</event>
<event>
 5   0  0.3849687E-05  0.2603212E+04  0.7818609E-02  0.8367111E-01
       -2   -1    0    0    0  501  0.00000000000E+00  0.00000000000E+00  0.57193909322E+03  0.57193909323E+03  0.25500000920E-02 0.  1.
        2   -1    0    0  501    0  0.00000000000E+00  0.00000000000E+00 -0.29621661524E+04  0.29621661524E+04  0.25500000920E-02 0. -1.
    10030    2    1    2    0    0  0.00000000000E+00  0.00000000000E+00 -0.23902270592E+04  0.35341052456E+04  0.26032123411E+04 0.  0.
        1    1    3    3  502    0  0.79439956792E+02  0.12953755580E+04 -0.10602389121E+04  0.16758326568E+04  0.50400001928E-02 0.  1.
       -1    1    3    3    0  502 -0.79439956792E+02 -0.12953755580E+04 -0.13299881471E+04  0.18582725888E+04  0.50400001928E-02 0. -1.
</event>
<event>
 5   0  0.1474554E-05  0.2643108E+04  0.7818609E-02  0.8353704E-01
        1   -1    0    0  501    0  0.00000000000E+00  0.00000000000E+00  0.20225087838E+04  0.20225087838E+04  0.50400001928E-02 0.  1.
       -1   -1    0    0    0  501  0.00000000000E+00  0.00000000000E+00 -0.86353403083E+03  0.86353403084E+03  0.50400001928E-02 0. -1.
    10030    2    1    2    0    0  0.00000000000E+00  0.00000000000E+00  0.11589747529E+04  0.28860428146E+04  0.26431081419E+04 0.  0.
        5    1    3    3  502    0 -0.20334085289E+03 -0.35184325187E+03 -0.79360806623E+03  0.89161484348E+03  0.46999998093E+01 0. -1.
       -5    1    3    3    0  502  0.20334085289E+03  0.35184325187E+03  0.19525828192E+04  0.19944279711E+04  0.46999998093E+01 0.  1.
</event>
<event>
 5   0  0.3647623E-05  0.2597558E+04  0.7818609E-02  0.8369031E-01
       -2   -1    0    0    0  501  0.00000000000E+00  0.00000000000E+00  0.75946992914E+03  0.75946992915E+03  0.25500000920E-02 0. -1.
        2   -1    0    0  501    0  0.00000000000E+00  0.00000000000E+00 -0.22210588007E+04  0.22210588007E+04  0.25500000920E-02 0.  1.
    10030    2    1    2    0    0  0.00000000000E+00  0.00000000000E+00 -0.14615888716E+04  0.29805287299E+04  0.25975583690E+04 0.  0.
        3    1    3    3  502    0  0.74680572023E+03 -0.76359422287E+03 -0.15786799572E+04  0.19060496684E+04  0.10100000352E+00 0.  1.
       -3    1    3    3    0  502 -0.74680572023E+03  0.76359422287E+03  0.11709108563E+03  0.10744790615E+04  0.10100000352E+00 0. -1.
</event>
<event>
 5   0  0.3849687E-05  0.2590814E+04  0.7818609E-02  0.8371328E-01
        2   -1    0    0  501    0  0.00000000000E+00  0.00000000000E+00  0.20691652391E+04  0.20691652391E+04  0.25500000920E-02 0. -1.
       -2   -1    0    0    0  501  0.00000000000E+00  0.00000000000E+00 -0.81099347950E+03  0.81099347951E+03  0.25500000920E-02 0.  1.
    10030    2    1    2    0    0  0.00000000000E+00  0.00000000000E+00  0.12581717596E+04  0.28801587186E+04  0.25908141708E+04 0.  0.
        1    1    3    3  502    0  0.94432322736E+03 -0.87110456565E+03  0.81347080529E+03  0.15206262766E+04  0.50400001928E-02 0.  1.
       -1    1    3    3    0  502 -0.94432322736E+03  0.87110456565E+03  0.44470095428E+03  0.13595324420E+04  0.50400001928E-02 0. -1.
</event>
<event>
 5   0  0.1474554E-05  0.2575822E+04  0.7818609E-02  0.8376461E-01
       -1   -1    0    0    0  501  0.00000000000E+00  0.00000000000E+00  0.11045483765E+04  0.11045483765E+04  0.50400001928E-02 0. -1.
        1   -1    0    0  501    0  0.00000000000E+00  0.00000000000E+00 -0.15017132522E+04  0.15017132522E+04  0.50400001928E-02 0.  1.
    10030    2    1    2    0    0  0.00000000000E+00  0.00000000000E+00 -0.39716487574E+03  0.26062616287E+04  0.25758221481E+04 0.  0.
        5    1    3    3  502    0 -0.65438674764E+03 -0.10792437222E+04 -0.45793911773E+03  0.13426538470E+04  0.46999998093E+01 0. -1.
       -5    1    3    3    0  502  0.65438674764E+03  0.10792437222E+04  0.60774241988E+02  0.12636077816E+04  0.46999998093E+01 0.  1.
</event>
<event>
 5   0  0.1435062E-05  0.2652566E+04  0.7818609E-02  0.8350562E-01
        1   -1    0    0  501    0  0.00000000000E+00  0.00000000000E+00  0.94309839525E+03  0.94309839526E+03  0.50400001928E-02 0. -1.
       -1   -1    0    0    0  501  0.00000000000E+00  0.00000000000E+00 -0.18651575442E+04  0.18651575442E+04  0.50400001928E-02 0.  1.
    10030    2    1    2    0    0  0.00000000000E+00  0.00000000000E+00 -0.92205914897E+03  0.28082559395E+04  0.26525663700E+04 0.  0.
        2    1    3    3  502    0 -0.63722460936E+03  0.48188814821E+03 -0.15818238507E+04  0.17721281231E+04  0.25500000920E-02 0.  1.
       -2    1    3    3    0  502  0.63722460936E+03 -0.48188814821E+03  0.65976470173E+03  0.10361278163E+04  0.25500000920E-02 0. -1.
</event>
<event>
 5   0  0.3499642E-05  0.2525976E+04  0.7818609E-02  0.8393789E-01
       -2   -1    0    0    0  501  0.00000000000E+00  0.00000000000E+00  0.11467189462E+04  0.11467189462E+04  0.25500000920E-02 0. -1.
        2   -1    0    0  501    0  0.00000000000E+00  0.00000000000E+00 -0.13910463664E+04  0.13910463664E+04  0.25500000920E-02 0.  1.
    10030    2    1    2    0    0  0.00000000000E+00  0.00000000000E+00 -0.24432742022E+03  0.25377653125E+04  0.25259764237E+04 0.  0.
        2    1    3    3  502    0  0.58055004792E+02  0.18468544797E+03 -0.13760510440E+04  0.13896026677E+04  0.25500000920E-02 0.  1.
       -2    1    3    3    0  502 -0.58055004792E+02 -0.18468544797E+03  0.11317236238E+04  0.11481626448E+04  0.25500000920E-02 0. -1.
</event>
<event>
 5   0  0.3499642E-05  0.2398147E+04  0.7818609E-02  0.8440198E-01
        2   -1    0    0  501    0  0.00000000000E+00  0.00000000000E+00  0.10771473648E+04  0.10771473648E+04  0.25500000920E-02 0.  1.
       -2   -1    0    0    0  501  0.00000000000E+00  0.00000000000E+00 -0.13348009462E+04  0.13348009462E+04  0.25500000920E-02 0. -1.
    10030    2    1    2    0    0  0.00000000000E+00  0.00000000000E+00 -0.25765358143E+03  0.24119483110E+04  0.23981470528E+04 0.  0.
        2    1    3    3  502    0 -0.10619116438E+04  0.51579066809E+03 -0.33998975672E+03  0.12285313945E+04  0.25500000920E-02 0.  1.
       -2    1    3    3    0  502  0.10619116438E+04 -0.51579066809E+03  0.82336175292E+02  0.11834169165E+04  0.25500000920E-02 0. -1.
</event>
<event>
 5   0  0.1497497E-05  0.2480053E+04  0.7818609E-02  0.8410126E-01
       -1   -1    0    0    0  501  0.00000000000E+00  0.00000000000E+00  0.14725464089E+04  0.14725464089E+04  0.50400001928E-02 0.  1.
        1   -1    0    0  501    0  0.00000000000E+00  0.00000000000E+00 -0.10442221876E+04  0.10442221876E+04  0.50400001928E-02 0. -1.
    10030    2    1    2    0    0  0.00000000000E+00  0.00000000000E+00  0.42832422131E+03  0.25167685965E+04  0.24800529288E+04 0.  0.
        3    1    3    3  502    0 -0.62216850126E+03  0.87350894871E+03  0.84591683990E+03  0.13659014744E+04  0.10100000352E+00 0.  1.
       -3    1    3    3    0  502  0.62216850126E+03 -0.87350894871E+03 -0.41759261859E+03  0.11508671221E+04  0.10100000352E+00 0. -1.
</event>
<event>
 5   0  0.1435062E-05  0.2581910E+04  0.7818609E-02  0.8374372E-01
       -1   -1    0    0    0  501  0.00000000000E+00  0.00000000000E+00  0.94326022276E+03  0.94326022277E+03  0.50400001928E-02 0. -1.
        1   -1    0    0  501    0  0.00000000000E+00  0.00000000000E+00 -0.17668128177E+04  0.17668128178E+04  0.50400001928E-02 0.  1.
    10030    2    1    2    0    0  0.00000000000E+00  0.00000000000E+00 -0.82355259499E+03  0.27100730405E+04  0.25819095662E+04 0.  0.
        2    1    3    3  502    0 -0.32077188202E+02 -0.49721397474E+03  0.83827000040E+03  0.97516525587E+03  0.25500000920E-02 0. -1.
       -2    1    3    3    0  502  0.32077188202E+02  0.49721397474E+03 -0.16618225954E+04  0.17349077847E+04  0.25500000920E-02 0.  1.
</event>
<event>
 5   0  0.3849687E-05  0.1773793E+04  0.7818609E-02  0.8720361E-01
        2   -1    0    0  501    0  0.00000000000E+00  0.00000000000E+00  0.84689600361E+03  0.84689600362E+03  0.25500000920E-02 0. -1.
       -2   -1    0    0    0  501  0.00000000000E+00  0.00000000000E+00 -0.92878680624E+03  0.92878680624E+03  0.25500000920E-02 0.  1.
    10030    2    1    2    0    0  0.00000000000E+00  0.00000000000E+00 -0.81890802624E+02  0.17756828099E+04  0.17737934879E+04 0.  0.
        1    1    3    3  502    0 -0.19292302331E+03 -0.54653172273E+03 -0.71297975530E+03  0.91883423334E+03  0.50400001928E-02 0.  1.
       -1    1    3    3    0  502  0.19292302331E+03  0.54653172273E+03  0.63108895267E+03  0.85684857652E+03  0.50400001928E-02 0. -1.
</event>
<event>
 5   0  0.1533248E-05  0.2037002E+04  0.7818609E-02  0.8589514E-01
        1   -1    0    0  501    0  0.00000000000E+00  0.00000000000E+00  0.72503516838E+03  0.72503516840E+03  0.50400001928E-02 0.  1.
       -1   -1    0    0    0  501  0.00000000000E+00  0.00000000000E+00 -0.14307502419E+04  0.14307502419E+04  0.50400001928E-02 0. -1.
    10030    2    1    2    0    0  0.00000000000E+00  0.00000000000E+00 -0.70571507350E+03  0.21557854103E+04  0.20370019564E+04 0.  0.
        4    1    3    3  502    0 -0.11179871840E+03  0.82237655409E+03 -0.97765706721E+03  0.12824262568E+04  0.12699999809E+01 0. -1.
       -4    1    3    3    0  502  0.11179871840E+03 -0.82237655409E+03  0.27194199371E+03  0.87335915349E+03  0.12699999809E+01 0.  1.
</event>
<event>
 5   0  0.3849687E-05  0.2695280E+04  0.7818609E-02  0.8336538E-01
       -2   -1    0    0    0  501  0.00000000000E+00  0.00000000000E+00  0.16822002983E+04  0.16822002984E+04  0.25500000920E-02 0. -1.
        2   -1    0    0  501    0  0.00000000000E+00  0.00000000000E+00 -0.10796179212E+04  0.10796179212E+04  0.25500000920E-02 0.  1.
    10030    2    1    2    0    0  0.00000000000E+00  0.00000000000E+00  0.60258237717E+03  0.27618182195E+04  0.26952800145E+04 0.  0.
        1    1    3    3  502    0  0.14533624482E+03  0.10681327651E+04  0.11300237248E+04  0.15617246385E+04  0.50400001928E-02 0. -1.
       -1    1    3    3    0  502 -0.14533624482E+03 -0.10681327651E+04 -0.52744134760E+03  0.12000935810E+04  0.50400001928E-02 0.  1.
</event>
<event>
 5   0  0.1451052E-05  0.2561499E+04  0.7818609E-02  0.8381398E-01
       -1   -1    0    0    0  501  0.00000000000E+00  0.00000000000E+00  0.60843759495E+03  0.60843759497E+03  0.50400001928E-02 0. -1.
        1   -1    0    0  501    0  0.00000000000E+00  0.00000000000E+00 -0.26959532085E+04  0.26959532085E+04  0.50400001928E-02 0.  1.
    10030    2    1    2    0    0  0.00000000000E+00  0.00000000000E+00 -0.20875156135E+04  0.33043908034E+04  0.25614990035E+04 0.  0.
        1    1    3    3  502    0 -0.64412091830E+03  0.23593764136E+02 -0.24714755784E+04  0.25541417263E+04  0.50400001928E-02 0.  1.
       -1    1    3    3    0  502  0.64412091830E+03 -0.23593764136E+02  0.38395996492E+03  0.75024907716E+03  0.50400001928E-02 0. -1.
</event>
<event>
 5   0  0.3441646E-05  0.2677470E+04  0.7818609E-02  0.8342352E-01
        2   -1    0    0  501    0  0.00000000000E+00  0.00000000000E+00  0.20871379675E+04  0.20871379675E+04  0.25500000920E-02 0.  1.
       -2   -1    0    0    0  501  0.00000000000E+00  0.00000000000E+00 -0.85869345303E+03  0.85869345303E+03  0.25500000920E-02 0. -1.
    10030    2    1    2    0    0  0.00000000000E+00  0.00000000000E+00  0.12284445145E+04  0.29458314205E+04  0.26774702301E+04 0.  0.
        4    1    3    3  502    0  0.12583978779E+04  0.44812373606E+03  0.51686598402E+03  0.14323170599E+04  0.12699999809E+01 0. -1.
       -4    1    3    3    0  502 -0.12583978779E+04 -0.44812373606E+03  0.71157853044E+03  0.15135143606E+04  0.12699999809E+01 0.  1.
</event>
<event>
 5   0  0.1217200E-05  0.2699240E+04  0.7818609E-02  0.8335252E-01
       -3   -1    0    0    0  501  0.00000000000E+00  0.00000000000E+00  0.11041992499E+04  0.11041992546E+04  0.10100000352E+00 0. -1.
        3   -1    0    0  501    0  0.00000000000E+00  0.00000000000E+00 -0.16495885192E+04  0.16495885223E+04  0.10100000352E+00 0.  1.
    10030    2    1    2    0    0  0.00000000000E+00  0.00000000000E+00 -0.54538926924E+03  0.27537877768E+04  0.26992402014E+04 0.  0.
        3    1    3    3  502    0 -0.12949332395E+04  0.33709427834E+03 -0.45229120212E+03  0.14124630930E+04  0.10100000352E+00 0.  1.
       -3    1    3    3    0  502  0.12949332395E+04 -0.33709427834E+03 -0.93098067121E+02  0.13413246839E+04  0.10100000352E+00 0. -1.
</event>
<event>
 5   0  0.3647623E-05  0.2590629E+04  0.7818609E-02  0.8371391E-01
       -2   -1    0    0    0  501  0.00000000000E+00  0.00000000000E+00  0.83432770675E+03  0.83432770675E+03  0.25500000920E-02 0. -1.
        2   -1    0    0  501    0  0.00000000000E+00  0.00000000000E+00 -0.20110080077E+04  0.20110080077E+04  0.25500000920E-02 0.  1.
    10030    2    1    2    0    0  0.00000000000E+00  0.00000000000E+00 -0.11766803010E+04  0.28453357145E+04  0.25906290351E+04 0.  0.
        3    1    3    3  502    0  0.60615990767E+03 -0.11334064026E+04 -0.76475547353E+03  0.14956239005E+04  0.10100000352E+00 0. -1.
       -3    1    3    3    0  502 -0.60615990767E+03  0.11334064026E+04 -0.41192482745E+03  0.13497118140E+04  0.10100000352E+00 0.  1.
</event>
<event>
 5   0  0.3499642E-05  0.2632370E+04  0.7818609E-02  0.8357288E-01
        2   -1    0    0  501    0  0.00000000000E+00  0.00000000000E+00  0.17142823935E+04  0.17142823935E+04  0.25500000920E-02 0.  1.
       -2   -1    0    0    0  501  0.00000000000E+00  0.00000000000E+00 -0.10105354621E+04  0.10105354621E+04  0.25500000920E-02 0. -1.
    10030    2    1    2    0    0  0.00000000000E+00  0.00000000000E+00  0.70374693141E+03  0.27248178556E+04  0.26323701493E+04 0.  0.
        2    1    3    3  502    0  0.94194307974E+03  0.53680863918E+03 -0.42060795985E+03  0.11628978186E+04  0.25500000920E-02 0. -1.
       -2    1    3    3    0  502 -0.94194307974E+03 -0.53680863918E+03  0.11243548913E+04  0.15619200370E+04  0.25500000920E-02 0.  1.
</event>
<event>
 5   0  0.3849687E-05  0.2603569E+04  0.7818609E-02  0.8366990E-01
       -2   -1    0    0    0  501  0.00000000000E+00  0.00000000000E+00  0.11138449511E+04  0.11138449512E+04  0.25500000920E-02 0. -1.
        2   -1    0    0  501    0  0.00000000000E+00  0.00000000000E+00 -0.15214346623E+04  0.15214346623E+04  0.25500000920E-02 0.  1.
    10030    2    1    2    0    0  0.00000000000E+00  0.00000000000E+00 -0.40758971119E+03  0.26352796135E+04  0.26035685642E+04 0.  0.
        1    1    3    3  502    0 -0.74028025607E+03  0.59247615470E+02  0.87839400442E+03  0.11502613462E+04  0.50400001928E-02 0. -1.
       -1    1    3    3    0  502  0.74028025607E+03 -0.59247615470E+02 -0.12859837156E+04  0.14850182673E+04  0.50400001928E-02 0.  1.
</event>
<event>
 5   0  0.1533248E-05  0.1857414E+04  0.7818609E-02  0.8676350E-01
       -1   -1    0    0    0  501  0.00000000000E+00  0.00000000000E+00  0.48446214558E+03  0.48446214560E+03  0.50400001928E-02 0.  1.
        1   -1    0    0  501    0  0.00000000000E+00  0.00000000000E+00 -0.17803171595E+04  0.17803171595E+04  0.50400001928E-02 0. -1.
    10030    2    1    2    0    0  0.00000000000E+00  0.00000000000E+00 -0.12958550139E+04  0.22647793051E+04  0.18574135468E+04 0.  0.
        4    1    3    3  502    0 -0.31778048487E+03 -0.60975077049E+03  0.11325781519E+03  0.69685678893E+03  0.12699999809E+01 0.  1.
       -4    1    3    3    0  502  0.31778048487E+03  0.60975077049E+03 -0.14091128291E+04  0.15679225162E+04  0.12699999809E+01 0. -1.
</event>
<event>
 5   0  0.3499642E-05  0.2458417E+04  0.7818609E-02  0.8417951E-01
        2   -1    0    0  501    0  0.00000000000E+00  0.00000000000E+00  0.14028864899E+04  0.14028864899E+04  0.25500000920E-02 0.  1.
       -2   -1    0    0    0  501  0.00000000000E+00  0.00000000000E+00 -0.10770321498E+04  0.10770321498E+04  0.25500000920E-02 0. -1.
    10030    2    1    2    0    0  0.00000000000E+00  0.00000000000E+00  0.32585434010E+03  0.24799186397E+04  0.24584172568E+04 0.  0.
        2    1    3    3  502    0  0.60772940133E+02  0.53381783264E+03 -0.95231856094E+03  0.10934191649E+04  0.25500000920E-02 0. -1.
       -2    1    3    3    0  502 -0.60772940133E+02 -0.53381783264E+03  0.12781729010E+04  0.13864994748E+04  0.25500000920E-02 0.  1.
</event>
<event>
 5   0  0.1474554E-05  0.2375507E+04  0.7818609E-02  0.8448731E-01
        1   -1    0    0  501    0  0.00000000000E+00  0.00000000000E+00  0.12372877285E+04  0.12372877285E+04  0.50400001928E-02 0. -1.
       -1   -1    0    0    0  501  0.00000000000E+00  0.00000000000E+00 -0.11402025426E+04  0.11402025426E+04  0.50400001928E-02 0.  1.
    10030    2    1    2    0    0  0.00000000000E+00  0.00000000000E+00  0.97085185878E+02  0.23774902711E+04  0.23755071997E+04 0.  0.
        5    1    3    3  502    0 -0.21183635042E+03 -0.42109026783E+02  0.12174596752E+04  0.12364780468E+04  0.46999998093E+01 0. -1.
       -5    1    3    3    0  502  0.21183635042E+03  0.42109026783E+02 -0.11203744894E+04  0.11410122242E+04  0.46999998093E+01 0.  1.
</event>
<event>
 5   0  0.1533248E-05  0.1772753E+04  0.7818609E-02  0.8720925E-01
       -1   -1    0    0    0  501  0.00000000000E+00  0.00000000000E+00  0.39527370735E+03  0.39527370738E+03  0.50400001928E-02 0. -1.
        1   -1    0    0  501    0  0.00000000000E+00  0.00000000000E+00 -0.19876441171E+04  0.19876441171E+04  0.50400001928E-02 0.  1.
    10030    2    1    2    0    0  0.00000000000E+00  0.00000000000E+00 -0.15923704098E+04  0.23829178245E+04  0.17727531798E+04 0.  0.
        4    1    3    3  502    0  0.10699266175E+03 -0.62265691911E+03  0.39500013971E+02  0.63301732408E+03  0.12699999809E+01 0. -1.
       -4    1    3    3    0  502 -0.10699266175E+03  0.62265691911E+03 -0.16318704237E+04  0.17499005004E+04  0.12699999809E+01 0.  1.
</event>
<event>
 5   0  0.1435062E-05  0.2497425E+04  0.7818609E-02  0.8403903E-01
       -1   -1    0    0    0  501  0.00000000000E+00  0.00000000000E+00  0.14074894109E+04  0.14074894109E+04  0.50400001928E-02 0. -1.
        1   -1    0    0  501    0  0.00000000000E+00  0.00000000000E+00 -0.11078473908E+04  0.11078473908E+04  0.50400001928E-02 0.  1.
    10030    2    1    2    0    0  0.00000000000E+00  0.00000000000E+00  0.29964202009E+03  0.25153368017E+04  0.24974254515E+04 0.  0.
        2    1    3    3  502    0 -0.64898105096E+03  0.97049355662E+03  0.59599854098E+03  0.13108197469E+04  0.25500000920E-02 0. -1.
       -2    1    3    3    0  502  0.64898105096E+03 -0.97049355662E+03 -0.29635652090E+03  0.12045170548E+04  0.25500000920E-02 0.  1.
</event>
<event>
 5   0  0.1474554E-05  0.2602272E+04  0.7818609E-02  0.8367430E-01
        1   -1    0    0  501    0  0.00000000000E+00  0.00000000000E+00  0.11848132281E+04  0.11848132282E+04  0.50400001928E-02 0.  1.
       -1   -1    0    0    0  501  0.00000000000E+00  0.00000000000E+00 -0.14288796425E+04  0.14288796425E+04  0.50400001928E-02 0. -1.
    10030    2    1    2    0    0  0.00000000000E+00  0.00000000000E+00 -0.24406641437E+03  0.26136928707E+04  0.26022724699E+04 0.  0.
        5    1    3    3  502    0  0.68537147809E+03 -0.90376144490E+02 -0.12291553959E+04  0.14102294096E+04  0.46999998093E+01 0. -1.
       -5    1    3    3    0  502 -0.68537147809E+03  0.90376144490E+02  0.98508898157E+03  0.12034634610E+04  0.46999998093E+01 0.  1.
</event>
<event>
 5   0  0.3647623E-05  0.2480620E+04  0.7818609E-02  0.8409923E-01
       -2   -1    0    0    0  501  0.00000000000E+00  0.00000000000E+00  0.13104935103E+04  0.13104935103E+04  0.25500000920E-02 0. -1.
        2   -1    0    0  501    0  0.00000000000E+00  0.00000000000E+00 -0.11738849645E+04  0.11738849645E+04  0.25500000920E-02 0.  1.
    10030    2    1    2    0    0  0.00000000000E+00  0.00000000000E+00  0.13660854575E+03  0.24843784748E+04  0.24806197837E+04 0.  0.
        3    1    3    3  502    0 -0.96398388685E+03  0.50145848696E+03 -0.53063454555E+03  0.12092553822E+04  0.10100000352E+00 0.  1.
       -3    1    3    3    0  502  0.96398388685E+03 -0.50145848696E+03  0.66724309131E+03  0.12751230926E+04  0.10100000352E+00 0. -1.
</event>
<event>
 5   0  0.3441646E-05  0.2568361E+04  0.7818609E-02  0.8379028E-01
        2   -1    0    0  501    0  0.00000000000E+00  0.00000000000E+00  0.13757269974E+04  0.13757269974E+04  0.25500000920E-02 0.  1.
       -2   -1    0    0    0  501  0.00000000000E+00  0.00000000000E+00 -0.11987256651E+04  0.11987256651E+04  0.25500000920E-02 0. -1.
    10030    2    1    2    0    0  0.00000000000E+00  0.00000000000E+00  0.17700133226E+03  0.25744526625E+04  0.25683607690E+04 0.  0.
        4    1    3    3  502    0 -0.85062776002E+03  0.79467134237E+03 -0.45504700895E+03  0.12498558004E+04  0.12699999809E+01 0. -1.
       -4    1    3    3    0  502  0.85062776002E+03 -0.79467134237E+03  0.63204834121E+03  0.13245968621E+04  0.12699999809E+01 0.  1.
</event>
<event>
 5   0  0.3508470E-05  0.2445796E+04  0.7818609E-02  0.8422555E-01
        2   -1    0    0  501    0  0.00000000000E+00  0.00000000000E+00  0.94301932761E+03  0.94301932761E+03  0.25500000920E-02 0. -1.
       -2   -1    0    0    0  501  0.00000000000E+00  0.00000000000E+00 -0.15858414592E+04  0.15858414592E+04  0.25500000920E-02 0.  1.
    10030    2    1    2    0    0  0.00000000000E+00  0.00000000000E+00 -0.64282213160E+03  0.25288607868E+04  0.24457956959E+04 0.  0.
        5    1    3    3  502    0 -0.91461395243E+03  0.30040725291E+03 -0.11011406535E+04  0.14626332515E+04  0.46999998093E+01 0.  1.
       -5    1    3    3    0  502  0.91461395243E+03 -0.30040725291E+03  0.45831852190E+03  0.10662275353E+04  0.46999998093E+01 0. -1.
</event>
<event>
 5   0  0.1435062E-05  0.2426720E+04  0.7818609E-02  0.8429567E-01
       -1   -1    0    0    0  501  0.00000000000E+00  0.00000000000E+00  0.84741934951E+03  0.84741934952E+03  0.50400001928E-02 0.  1.
        1   -1    0    0  501    0  0.00000000000E+00  0.00000000000E+00 -0.17373240428E+04  0.17373240428E+04  0.50400001928E-02 0. -1.
    10030    2    1    2    0    0  0.00000000000E+00  0.00000000000E+00 -0.88990469326E+03  0.25847433923E+04  0.24267196049E+04 0.  0.
        2    1    3    3  502    0 -0.31443488868E+03 -0.11717397719E+04 -0.46621788148E+03  0.12996932350E+04  0.25500000920E-02 0.  1.
       -2    1    3    3    0  502  0.31443488868E+03  0.11717397719E+04 -0.42368681178E+03  0.12850501573E+04  0.25500000920E-02 0. -1.
</event>
<event>
 5   0  0.1435062E-05  0.2569058E+04  0.7818609E-02  0.8378788E-01
        1   -1    0    0  501    0  0.00000000000E+00  0.00000000000E+00  0.11953045540E+04  0.11953045540E+04  0.50400001928E-02 0.  1.
       -1   -1    0    0    0  501  0.00000000000E+00  0.00000000000E+00 -0.13804135262E+04  0.13804135262E+04  0.50400001928E-02 0. -1.
    10030    2    1    2    0    0  0.00000000000E+00  0.00000000000E+00 -0.18510897220E+03  0.25757180803E+04  0.25690578618E+04 0.  0.
        2    1    3    3  502    0  0.11926148760E+04 -0.21781346320E+03 -0.51820385159E+03  0.13184491568E+04  0.25500000920E-02 0. -1.
       -2    1    3    3    0  502 -0.11926148760E+04  0.21781346320E+03  0.33309487939E+03  0.12572689235E+04  0.25500000920E-02 0.  1.
</event>
<event>
 5   0  0.1217200E-05  0.2560603E+04  0.7818609E-02  0.8381708E-01
       -3   -1    0    0    0  501  0.00000000000E+00  0.00000000000E+00  0.15328667597E+04  0.15328667631E+04  0.10100000352E+00 0.  1.
        3   -1    0    0  501    0  0.00000000000E+00  0.00000000000E+00 -0.10693505038E+04  0.10693505085E+04  0.10100000352E+00 0. -1.
    10030    2    1    2    0    0  0.00000000000E+00  0.00000000000E+00  0.46351625599E+03  0.26022172716E+04  0.25606029386E+04 0.  0.
        3    1    3    3  502    0 -0.24100849345E+03  0.44639387080E+03  0.14263703024E+04  0.15138972329E+04  0.10100000352E+00 0.  1.
       -3    1    3    3    0  502  0.24100849345E+03 -0.44639387080E+03 -0.96285404643E+03  0.10883200387E+04  0.10100000352E+00 0. -1.
</event>
<event>
 5   0  0.1533248E-05  0.2620509E+04  0.7818609E-02  0.8361268E-01
       -1   -1    0    0    0  501  0.00000000000E+00  0.00000000000E+00  0.11372295495E+04  0.11372295496E+04  0.50400001928E-02 0. -1.
        1   -1    0    0  501    0  0.00000000000E+00  0.00000000000E+00 -0.15096046844E+04  0.15096046844E+04  0.50400001928E-02 0.  1.
    10030    2    1    2    0    0  0.00000000000E+00  0.00000000000E+00 -0.37237513481E+03  0.26468342339E+04  0.26205091530E+04 0.  0.
        4    1    3    3  502    0  0.11925199989E+04 -0.18730803476E+03  0.32841782110E+03  0.12510188351E+04  0.12699999809E+01 0. -1.
       -4    1    3    3    0  502 -0.11925199989E+04  0.18730803476E+03 -0.70079295592E+03  0.13958153988E+04  0.12699999809E+01 0.  1.
</event>
<event>
 5   0  0.1497497E-05  0.2557279E+04  0.7818609E-02  0.8382859E-01
        1   -1    0    0  501    0  0.00000000000E+00  0.00000000000E+00  0.20018460577E+04  0.20018460577E+04  0.50400001928E-02 0.  1.
       -1   -1    0    0    0  501  0.00000000000E+00  0.00000000000E+00 -0.81670540133E+03  0.81670540135E+03  0.50400001928E-02 0. -1.
    10030    2    1    2    0    0  0.00000000000E+00  0.00000000000E+00  0.11851406564E+04  0.28185514591E+04  0.25572786223E+04 0.  0.
        3    1    3    3  502    0 -0.11560855895E+04  0.48524152702E+03  0.86904820637E+03  0.15255287690E+04  0.10100000352E+00 0.  1.
       -3    1    3    3    0  502  0.11560855895E+04 -0.48524152702E+03  0.31609245002E+03  0.12930226901E+04  0.10100000352E+00 0. -1.
</event>
<event>
 5   0  0.3441646E-05  0.2605405E+04  0.7818609E-02  0.8366368E-01
        2   -1    0    0  501    0  0.00000000000E+00  0.00000000000E+00  0.19524252603E+04  0.19524252603E+04  0.25500000920E-02 0. -1.
       -2   -1    0    0    0  501  0.00000000000E+00  0.00000000000E+00 -0.86919268104E+03  0.86919268104E+03  0.25500000920E-02 0.  1.
    10030    2    1    2    0    0  0.00000000000E+00  0.00000000000E+00  0.10832325793E+04  0.28216179413E+04  0.26054049563E+04 0.  0.
        4    1    3    3  502    0 -0.48635534107E+03 -0.16850978225E+03  0.18376279170E+04  0.19083540129E+04  0.12699999809E+01 0. -1.
       -4    1    3    3    0  502  0.48635534107E+03  0.16850978225E+03 -0.75439533770E+03  0.91326392842E+03  0.12699999809E+01 0.  1.
</event>
<event>
 5   0  0.3508470E-05  0.1897969E+04  0.7818609E-02  0.8655868E-01
        2   -1    0    0  501    0  0.00000000000E+00  0.00000000000E+00  0.84231810120E+03  0.84231810120E+03  0.25500000920E-02 0. -1.
       -2   -1    0    0    0  501  0.00000000000E+00  0.00000000000E+00 -0.10691587048E+04  0.10691587048E+04  0.25500000920E-02 0.  1.
    10030    2    1    2    0    0  0.00000000000E+00  0.00000000000E+00 -0.22684060359E+03  0.19114768060E+04  0.18979691569E+04 0.  0.
        5    1    3    3  502    0 -0.39815216131E+03 -0.81331868723E+03  0.17239019253E+03  0.92182042667E+03  0.46999998093E+01 0.  1.
       -5    1    3    3    0  502  0.39815216131E+03  0.81331868723E+03 -0.39923079612E+03  0.98965637932E+03  0.46999998093E+01 0. -1.
</event>
<event>
 5   0  0.1474554E-05  0.2625694E+04  0.7818609E-02  0.8359526E-01
       -1   -1    0    0    0  501  0.00000000000E+00  0.00000000000E+00  0.10566242332E+04  0.10566242332E+04  0.50400001928E-02 0. -1.
        1   -1    0    0  501    0  0.00000000000E+00  0.00000000000E+00 -0.16312013509E+04  0.16312013509E+04  0.50400001928E-02 0.  1.
    10030    2    1    2    0    0  0.00000000000E+00  0.00000000000E+00 -0.57457711774E+03  0.26878255842E+04  0.26256937191E+04 0.  0.
        5    1    3    3  502    0  0.94406646463E+03 -0.46318941291E+03 -0.10918504927E+04  0.15159041890E+04  0.46999998093E+01 0.  1.
       -5    1    3    3    0  502 -0.94406646463E+03  0.46318941291E+03  0.51727337498E+03  0.11719213951E+04  0.46999998093E+01 0. -1.
</event>
<event>
 5   0  0.3849687E-05  0.2810000E+04  0.7818609E-02  0.8300171E-01
        2   -1    0    0  501    0  0.00000000000E+00  0.00000000000E+00  0.21547220332E+04  0.21547220332E+04  0.25500000920E-02 0. -1.
       -2   -1    0    0    0  501  0.00000000000E+00  0.00000000000E+00 -0.91613874977E+03  0.91613874977E+03  0.25500000920E-02 0.  1.
    10030    2    1    2    0    0  0.00000000000E+00  0.00000000000E+00  0.12385832834E+04  0.30708607830E+04  0.28099995371E+04 0.  0.
        1    1    3    3  502    0  0.89901741541E+03  0.45857838273E+03  0.16875314278E+04  0.19662880680E+04  0.50400001928E-02 0. -1.
       -1    1    3    3    0  502 -0.89901741541E+03 -0.45857838273E+03 -0.44894814440E+03  0.11045727150E+04  0.50400001928E-02 0.  1.
</event>
<event>
 5   0  0.3499642E-05  0.2561717E+04  0.7818609E-02  0.8381323E-01
        2   -1    0    0  501    0  0.00000000000E+00  0.00000000000E+00  0.24725724004E+04  0.24725724004E+04  0.25500000920E-02 0. -1.
       -2   -1    0    0    0  501  0.00000000000E+00  0.00000000000E+00 -0.66351887572E+03  0.66351887573E+03  0.25500000920E-02 0.  1.
    10030    2    1    2    0    0  0.00000000000E+00  0.00000000000E+00  0.18090535247E+04  0.31360912761E+04  0.25617169705E+04 0.  0.
        2    1    3    3  502    0 -0.10698362705E+04  0.70067995102E+03  0.99192247841E+03  0.16184598366E+04  0.25500000920E-02 0.  1.
       -2    1    3    3    0  502  0.10698362705E+04 -0.70067995102E+03  0.81713104625E+03  0.15176314395E+04  0.25500000920E-02 0. -1.
</event>
<event>
 5   0  0.3499642E-05  0.2634218E+04  0.7818609E-02  0.8356670E-01
        2   -1    0    0  501    0  0.00000000000E+00  0.00000000000E+00  0.19558488500E+04  0.19558488500E+04  0.25500000920E-02 0. -1.
       -2   -1    0    0    0  501  0.00000000000E+00  0.00000000000E+00 -0.88696853541E+03  0.88696853541E+03  0.25500000920E-02 0.  1.
    10030    2    1    2    0    0  0.00000000000E+00  0.00000000000E+00  0.10688803146E+04  0.28428173854E+04  0.26342182066E+04 0.  0.
        2    1    3    3  502    0  0.60475544260E+03 -0.96726010773E+03  0.12449486748E+04  0.16885551410E+04  0.25500000920E-02 0. -1.
       -2    1    3    3    0  502 -0.60475544260E+03  0.96726010773E+03 -0.17606836020E+03  0.11542622444E+04  0.25500000920E-02 0.  1.
</event>
<event>
 5   0  0.1533248E-05  0.2589518E+04  0.7818609E-02  0.8371771E-01
        1   -1    0    0  501    0  0.00000000000E+00  0.00000000000E+00  0.17830828500E+04  0.17830828500E+04  0.50400001928E-02 0. -1.
       -1   -1    0    0    0  501  0.00000000000E+00  0.00000000000E+00 -0.94016959738E+03  0.94016959740E+03  0.50400001928E-02 0.  1.
    10030    2    1    2    0    0  0.00000000000E+00  0.00000000000E+00  0.84291325262E+03  0.27232524474E+04  0.25895175498E+04 0.  0.
        4    1    3    3  502    0  0.76224277361E+03 -0.92876835082E+03  0.92884002961E+03  0.15186737994E+04  0.12699999809E+01 0.  1.
       -4    1    3    3    0  502 -0.76224277361E+03  0.92876835082E+03 -0.85926776983E+02  0.12045786480E+04  0.12699999809E+01 0. -1.
</event>
<event>
 5   0  0.1451052E-05  0.2624811E+04  0.7818609E-02  0.8359822E-01
        1   -1    0    0  501    0  0.00000000000E+00  0.00000000000E+00  0.24177074573E+04  0.24177074573E+04  0.50400001928E-02 0. -1.
       -1   -1    0    0    0  501  0.00000000000E+00  0.00000000000E+00 -0.71241376648E+03  0.71241376650E+03  0.50400001928E-02 0.  1.
    10030    2    1    2    0    0  0.00000000000E+00  0.00000000000E+00  0.17052936908E+04  0.31301212238E+04  0.26248109082E+04 0.  0.
        1    1    3    3  502    0  0.79160690822E+03  0.17208717416E+03  0.20839721847E+04  0.22358880918E+04  0.50400001928E-02 0. -1.
       -1    1    3    3    0  502 -0.79160690822E+03 -0.17208717416E+03 -0.37867849383E+03  0.89423313200E+03  0.50400001928E-02 0.  1.
</event>
<event>
 5   0  0.3508470E-05  0.2502609E+04  0.7818609E-02  0.8402057E-01
       -2   -1    0    0    0  501  0.00000000000E+00  0.00000000000E+00  0.14543797171E+04  0.14543797171E+04  0.25500000920E-02 0.  1.
        2   -1    0    0  501    0  0.00000000000E+00  0.00000000000E+00 -0.10765844118E+04  0.10765844118E+04  0.25500000920E-02 0. -1.
    10030    2    1    2    0    0  0.00000000000E+00  0.00000000000E+00  0.37779530531E+03  0.25309641289E+04  0.25026086647E+04 0.  0.
        5    1    3    3  502    0 -0.10037541286E+04  0.32302453232E+03  0.87023208382E+03  0.13671843946E+04  0.46999998093E+01 0.  1.
       -5    1    3    3    0  502  0.10037541286E+04 -0.32302453232E+03 -0.49243677851E+03  0.11637797343E+04  0.46999998093E+01 0. -1.
</event>
<event>
 5   0  0.1474554E-05  0.3017326E+04  0.7818609E-02  0.8238801E-01
       -1   -1    0    0    0  501  0.00000000000E+00  0.00000000000E+00  0.11075728092E+04  0.11075728092E+04  0.50400001928E-02 0. -1.
        1   -1    0    0  501    0  0.00000000000E+00  0.00000000000E+00 -0.20550014910E+04  0.20550014910E+04  0.50400001928E-02 0.  1.
    10030    2    1    2    0    0  0.00000000000E+00  0.00000000000E+00 -0.94742868178E+03  0.31625743002E+04  0.30173258189E+04 0.  0.
        5    1    3    3  502    0 -0.44686948479E+03  0.13203704386E+04 -0.10785284287E+04  0.17624744234E+04  0.46999998093E+01 0. -1.
       -5    1    3    3    0  502  0.44686948479E+03 -0.13203704386E+04  0.13109974696E+03  0.14000998768E+04  0.46999998093E+01 0.  1.
</event>
<event>
 5   0  0.3499642E-05  0.2223807E+04  0.7818609E-02  0.8508584E-01
       -2   -1    0    0    0  501  0.00000000000E+00  0.00000000000E+00  0.10525580231E+04  0.10525580231E+04  0.25500000920E-02 0.  1.
        2   -1    0    0  501    0  0.00000000000E+00  0.00000000000E+00 -0.11745954937E+04  0.11745954937E+04  0.25500000920E-02 0. -1.
    10030    2    1    2    0    0  0.00000000000E+00  0.00000000000E+00 -0.12203747056E+03  0.22271535168E+04  0.22238074654E+04 0.  0.
        2    1    3    3  502    0  0.76574456915E+03  0.73835690839E+03  0.26318773598E+03  0.10958117784E+04  0.25500000920E-02 0.  1.
       -2    1    3    3    0  502 -0.76574456915E+03 -0.73835690839E+03 -0.38522520654E+03  0.11313417384E+04  0.25500000920E-02 0. -1.
</event>
<event>
 5   0  0.3441646E-05  0.2582590E+04  0.7818609E-02  0.8374139E-01
       -2   -1    0    0    0  501  0.00000000000E+00  0.00000000000E+00  0.17127203396E+04  0.17127203396E+04  0.25500000920E-02 0.  1.
        2   -1    0    0  501    0  0.00000000000E+00  0.00000000000E+00 -0.97356400856E+03  0.97356400856E+03  0.25500000920E-02 0. -1.
    10030    2    1    2    0    0  0.00000000000E+00  0.00000000000E+00  0.73915633102E+03  0.26862843481E+04  0.25825900792E+04 0.  0.
        4    1    3    3  502    0  0.11656313107E+04  0.36562363485E+03  0.80478455592E+03  0.14628932939E+04  0.12699999809E+01 0.  1.
       -4    1    3    3    0  502 -0.11656313107E+04 -0.36562363485E+03 -0.65628224896E+02  0.12233910543E+04  0.12699999809E+01 0. -1.
</event>
<event>
 5   0  0.1533248E-05  0.2891340E+04  0.7818609E-02  0.8275459E-01
        1   -1    0    0  501    0  0.00000000000E+00  0.00000000000E+00  0.11376626673E+04  0.11376626674E+04  0.50400001928E-02 0.  1.
       -1   -1    0    0    0  501  0.00000000000E+00  0.00000000000E+00 -0.18370667226E+04  0.18370667226E+04  0.50400001928E-02 0. -1.
    10030    2    1    2    0    0  0.00000000000E+00  0.00000000000E+00 -0.69940405521E+03  0.29747293899E+04  0.28913403312E+04 0.  0.
        4    1    3    3  502    0 -0.57978081613E+03  0.11666217092E+04  0.29511834169E+03  0.13357576336E+04  0.12699999809E+01 0.  1.
       -4    1    3    3    0  502  0.57978081613E+03 -0.11666217092E+04 -0.99452239691E+03  0.16389717563E+04  0.12699999809E+01 0. -1.
</event>
<event>
 5   0  0.3508470E-05  0.2880879E+04  0.7818609E-02  0.8278589E-01
        2   -1    0    0  501    0  0.00000000000E+00  0.00000000000E+00  0.12081278341E+04  0.12081278342E+04  0.25500000920E-02 0. -1.
       -2   -1    0    0    0  501  0.00000000000E+00  0.00000000000E+00 -0.17174227984E+04  0.17174227984E+04  0.25500000920E-02 0.  1.
    10030    2    1    2    0    0  0.00000000000E+00  0.00000000000E+00 -0.50929496422E+03  0.29255506325E+04  0.28808792309E+04 0.  0.
        5    1    3    3  502    0  0.45543702116E+03  0.71883734523E+03  0.92556738613E+03  0.12573174163E+04  0.46999998093E+01 0. -1.
       -5    1    3    3    0  502 -0.45543702116E+03 -0.71883734523E+03 -0.14348623504E+04  0.16682332162E+04  0.46999998093E+01 0.  1.
</event>
<event>
 5   0  0.3647623E-05  0.2622825E+04  0.7818609E-02  0.8360489E-01
       -2   -1    0    0    0  501  0.00000000000E+00  0.00000000000E+00  0.86377848692E+03  0.86377848693E+03  0.25500000920E-02 0. -1.
        2   -1    0    0  501    0  0.00000000000E+00  0.00000000000E+00 -0.19910235924E+04  0.19910235924E+04  0.25500000920E-02 0.  1.
    10030    2    1    2    0    0  0.00000000000E+00  0.00000000000E+00 -0.11272451055E+04  0.28548020793E+04  0.26228254582E+04 0.  0.
        3    1    3    3  502    0  0.15028595996E+03  0.17272551910E+02  0.85424996949E+03  0.86754091050E+03  0.10100000352E+00 0. -1.
       -3    1    3    3    0  502 -0.15028595996E+03 -0.17272551910E+02 -0.19814950750E+04  0.19872611688E+04  0.10100000352E+00 0.  1.
</event>
<event>
 5   0  0.3441646E-05  0.1640757E+04  0.7818609E-02  0.8795893E-01
        2   -1    0    0  501    0  0.00000000000E+00  0.00000000000E+00  0.25503367630E+04  0.25503367630E+04  0.25500000920E-02 0.  1.
       -2   -1    0    0    0  501  0.00000000000E+00  0.00000000000E+00 -0.26389486098E+03  0.26389486100E+03  0.25500000920E-02 0. -1.
    10030    2    1    2    0    0  0.00000000000E+00  0.00000000000E+00  0.22864419020E+04  0.28142316240E+04  0.16407568565E+04 0.  0.
        4    1    3    3  502    0  0.96713850327E+02 -0.40463033665E+03  0.23559799324E+04  0.23924302149E+04  0.12699999809E+01 0.  1.
       -4    1    3    3    0  502 -0.96713850327E+02  0.40463033665E+03 -0.69538030390E+02  0.42180140914E+03  0.12699999809E+01 0. -1.
</event>
<event>
 5   0  0.1435062E-05  0.2627135E+04  0.7818609E-02  0.8359042E-01
        1   -1    0    0  501    0  0.00000000000E+00  0.00000000000E+00  0.10161392383E+04  0.10161392383E+04  0.50400001928E-02 0.  1.
       -1   -1    0    0    0  501  0.00000000000E+00  0.00000000000E+00 -0.16980539522E+04  0.16980539523E+04  0.50400001928E-02 0. -1.
    10030    2    1    2    0    0  0.00000000000E+00  0.00000000000E+00 -0.68191471399E+03  0.27141931905E+04  0.26271347507E+04 0.  0.
        2    1    3    3  502    0  0.11212466298E+04  0.29870633848E+03  0.29510661405E+03  0.11972916918E+04  0.25500000920E-02 0.  1.
       -2    1    3    3    0  502 -0.11212466298E+04 -0.29870633848E+03 -0.97702132804E+03  0.15169014988E+04  0.25500000920E-02 0. -1.
</event>
<event>
 5   0  0.3508470E-05  0.2659945E+04  0.7818609E-02  0.8348120E-01
        2   -1    0    0  501    0  0.00000000000E+00  0.00000000000E+00  0.10938630300E+04  0.10938630300E+04  0.25500000920E-02 0. -1.
       -2   -1    0    0    0  501  0.00000000000E+00  0.00000000000E+00 -0.16170454429E+04  0.16170454429E+04  0.25500000920E-02 0.  1.
    10030    2    1    2    0    0  0.00000000000E+00  0.00000000000E+00 -0.52318241286E+03  0.27109084729E+04  0.26599445316E+04 0.  0.
        5    1    3    3  502    0 -0.89593540614E+02 -0.13205358629E+04 -0.39432545084E+03  0.13810708233E+04  0.46999998093E+01 0.  1.
       -5    1    3    3    0  502  0.89593540614E+02  0.13205358629E+04 -0.12885696202E+03  0.13298376496E+04  0.46999998093E+01 0. -1.
</event>
<event>
 5   0  0.1474554E-05  0.2535200E+04  0.7818609E-02  0.8390552E-01
        1   -1    0    0  501    0  0.00000000000E+00  0.00000000000E+00  0.16897896175E+04  0.16897896175E+04  0.50400001928E-02 0. -1.
       -1   -1    0    0    0  501  0.00000000000E+00  0.00000000000E+00 -0.95089309648E+03  0.95089309650E+03  0.50400001928E-02 0.  1.
    10030    2    1    2    0    0  0.00000000000E+00  0.00000000000E+00  0.73889652105E+03  0.26406827140E+04  0.25351996228E+04 0.  0.
        5    1    3    3  502    0 -0.11047171396E+04 -0.23030579784E+03  0.97083243188E+03  0.14886162769E+04  0.46999998093E+01 0. -1.
       -5    1    3    3    0  502  0.11047171396E+04  0.23030579784E+03 -0.23193591083E+03  0.11520664372E+04  0.46999998093E+01 0.  1.
</event>
<event>
 5   0  0.3441646E-05  0.2541814E+04  0.7818609E-02  0.8388239E-01
       -2   -1    0    0    0  501  0.00000000000E+00  0.00000000000E+00  0.99639281783E+03  0.99639281783E+03  0.25500000920E-02 0. -1.
        2   -1    0    0  501    0  0.00000000000E+00  0.00000000000E+00 -0.16210523368E+04  0.16210523368E+04  0.25500000920E-02 0.  1.
    10030    2    1    2    0    0  0.00000000000E+00  0.00000000000E+00 -0.62465951895E+03  0.26174451546E+04  0.25418142384E+04 0.  0.
        4    1    3    3  502    0 -0.75879650853E+02  0.58170397501E+03 -0.14732913263E+04  0.15857888198E+04  0.12699999809E+01 0.  1.
       -4    1    3    3    0  502  0.75879650853E+02 -0.58170397501E+03  0.84863180731E+03  0.10316563348E+04  0.12699999809E+01 0. -1.
</event>
<event>
 5   0  0.1451052E-05  0.1987551E+04  0.7818609E-02  0.8612463E-01
        1   -1    0    0  501    0  0.00000000000E+00  0.00000000000E+00  0.84484919938E+03  0.84484919940E+03  0.50400001928E-02 0. -1.
       -1   -1    0    0    0  501  0.00000000000E+00  0.00000000000E+00 -0.11689533237E+04  0.11689533237E+04  0.50400001928E-02 0.  1.
    10030    2    1    2    0    0  0.00000000000E+00  0.00000000000E+00 -0.32410412436E+03  0.20138025231E+04  0.19875505324E+04 0.  0.
        1    1    3    3  502    0  0.58407744486E+03 -0.13828463237E+03  0.64044477640E+03  0.87774632599E+03  0.50400001928E-02 0. -1.
       -1    1    3    3    0  502 -0.58407744486E+03  0.13828463237E+03 -0.96454890075E+03  0.11360561972E+04  0.50400001928E-02 0.  1.
</event>
<event>
 5   0  0.3508470E-05  0.2522251E+04  0.7818609E-02  0.8395101E-01
        2   -1    0    0  501    0  0.00000000000E+00  0.00000000000E+00  0.15086990878E+04  0.15086990878E+04  0.25500000920E-02 0.  1.
       -2   -1    0    0    0  501  0.00000000000E+00  0.00000000000E+00 -0.10541779765E+04  0.10541779765E+04  0.25500000920E-02 0. -1.
    10030    2    1    2    0    0  0.00000000000E+00  0.00000000000E+00  0.45452111128E+03  0.25628770644E+04  0.25222508611E+04 0.  0.
        5    1    3    3  502    0 -0.47518797743E+03 -0.11401647675E+04 -0.31070468486E+02  0.12356240428E+04  0.46999998093E+01 0. -1.
       -5    1    3    3    0  502  0.47518797743E+03  0.11401647675E+04  0.48559157977E+03  0.13272530216E+04  0.46999998093E+01 0.  1.
</event>
<event>
 5   0  0.1474554E-05  0.2491581E+04  0.7818609E-02  0.8405991E-01
       -1   -1    0    0    0  501  0.00000000000E+00  0.00000000000E+00  0.81979194433E+03  0.81979194435E+03  0.50400001928E-02 0.  1.
        1   -1    0    0  501    0  0.00000000000E+00  0.00000000000E+00 -0.18931564640E+04  0.18931564641E+04  0.50400001928E-02 0. -1.
    10030    2    1    2    0    0  0.00000000000E+00  0.00000000000E+00 -0.10733645197E+04  0.27129484084E+04  0.24915813602E+04 0.  0.
        5    1    3    3  502    0  0.27775352540E+03  0.54200887076E+03 -0.17199987448E+04  0.18246474752E+04  0.46999998093E+01 0. -1.
       -5    1    3    3    0  502 -0.27775352540E+03 -0.54200887076E+03  0.64663422506E+03  0.88830093317E+03  0.46999998093E+01 0.  1.
</event>
<event>
 5   0  0.1474554E-05  0.2524901E+04  0.7818609E-02  0.8394168E-01
       -1   -1    0    0    0  501  0.00000000000E+00  0.00000000000E+00  0.68836628379E+03  0.68836628380E+03  0.50400001928E-02 0.  1.
        1   -1    0    0  501    0  0.00000000000E+00  0.00000000000E+00 -0.23153102643E+04  0.23153102643E+04  0.50400001928E-02 0. -1.
    10030    2    1    2    0    0  0.00000000000E+00  0.00000000000E+00 -0.16269439805E+04  0.30036765481E+04  0.25249012040E+04 0.  0.
        5    1    3    3  502    0  0.47678357967E+03  0.10666403056E+04 -0.13823987899E+04  0.18099979634E+04  0.46999998093E+01 0. -1.
       -5    1    3    3    0  502 -0.47678357967E+03 -0.10666403056E+04 -0.24454519065E+03  0.11936785847E+04  0.46999998093E+01 0.  1.
</event>
<event>
 5   0  0.3508470E-05  0.1816998E+04  0.7818609E-02  0.8697312E-01
       -2   -1    0    0    0  501  0.00000000000E+00  0.00000000000E+00  0.57030372359E+03  0.57030372360E+03  0.25500000920E-02 0.  1.
        2   -1    0    0  501    0  0.00000000000E+00  0.00000000000E+00 -0.14472467573E+04  0.14472467573E+04  0.25500000920E-02 0. -1.
    10030    2    1    2    0    0  0.00000000000E+00  0.00000000000E+00 -0.87694303372E+03  0.20175504809E+04  0.18169977597E+04 0.  0.
        5    1    3    3  502    0 -0.26209151995E+03  0.66145982736E+03 -0.10657376375E+04  0.12814210354E+04  0.46999998093E+01 0.  1.
       -5    1    3    3    0  502  0.26209151995E+03 -0.66145982736E+03  0.18879460381E+03  0.73612944546E+03  0.46999998093E+01 0. -1.
</event>
<event>
 5   0  0.1533248E-05  0.2608489E+04  0.7818609E-02  0.8365324E-01
       -1   -1    0    0    0  501  0.00000000000E+00  0.00000000000E+00  0.78521256932E+03  0.78521256934E+03  0.50400001928E-02 0. -1.
        1   -1    0    0  501    0  0.00000000000E+00  0.00000000000E+00 -0.21663601230E+04  0.21663601230E+04  0.50400001928E-02 0.  1.
    10030    2    1    2    0    0  0.00000000000E+00  0.00000000000E+00 -0.13811475537E+04  0.29515726924E+04  0.26084886032E+04 0.  0.
        4    1    3    3  502    0  0.25212224061E+03 -0.49454950365E+01 -0.21385121881E+04  0.21533290676E+04  0.12699999809E+01 0.  1.
       -4    1    3    3    0  502 -0.25212224061E+03  0.49454950365E+01  0.75736463437E+03  0.79824362473E+03  0.12699999809E+01 0. -1.
</event>
<event>
 5   0  0.1533248E-05  0.2605819E+04  0.7818609E-02  0.8366227E-01
       -1   -1    0    0    0  501  0.00000000000E+00  0.00000000000E+00  0.12868850077E+04  0.12868850077E+04  0.50400001928E-02 0.  1.
        1   -1    0    0  501    0  0.00000000000E+00  0.00000000000E+00 -0.13191336034E+04  0.13191336035E+04  0.50400001928E-02 0. -1.
    10030    2    1    2    0    0  0.00000000000E+00  0.00000000000E+00 -0.32248595776E+02  0.26060186111E+04  0.26058190708E+04 0.  0.
        4    1    3    3  502    0  0.84795905762E+03  0.84043993925E+03  0.50564143332E+03  0.12965526317E+04  0.12699999809E+01 0.  1.
       -4    1    3    3    0  502 -0.84795905762E+03 -0.84043993925E+03 -0.53789002910E+03  0.13094659794E+04  0.12699999809E+01 0. -1.
</event>
<event>
 5   0  0.1474554E-05  0.2631741E+04  0.7818609E-02  0.8357499E-01
        1   -1    0    0  501    0  0.00000000000E+00  0.00000000000E+00  0.11125036883E+04  0.11125036883E+04  0.50400001928E-02 0. -1.
       -1   -1    0    0    0  501  0.00000000000E+00  0.00000000000E+00 -0.15564127059E+04  0.15564127059E+04  0.50400001928E-02 0.  1.
    10030    2    1    2    0    0  0.00000000000E+00  0.00000000000E+00 -0.44390901757E+03  0.26689163942E+04  0.26317407744E+04 0.  0.
        5    1    3    3  502    0 -0.83419739973E+03  0.61111393333E+03  0.60326435750E+03  0.11972032059E+04  0.46999998093E+01 0. -1.
       -5    1    3    3    0  502  0.83419739973E+03 -0.61111393333E+03 -0.10471733751E+04  0.14717131883E+04  0.46999998093E+01 0.  1.
</event>
<event>
 5   0  0.1533248E-05  0.2597114E+04  0.7818609E-02  0.8369182E-01
       -1   -1    0    0    0  501  0.00000000000E+00  0.00000000000E+00  0.11035786542E+04  0.11035786542E+04  0.50400001928E-02 0. -1.
        1   -1    0    0  501    0  0.00000000000E+00  0.00000000000E+00 -0.15279833585E+04  0.15279833585E+04  0.50400001928E-02 0.  1.
    10030    2    1    2    0    0  0.00000000000E+00  0.00000000000E+00 -0.42440470428E+03  0.26315620127E+04  0.25971136428E+04 0.  0.
        4    1    3    3  502    0  0.62056067848E+03 -0.70223695515E+03  0.69861775768E+03  0.11688886521E+04  0.12699999809E+01 0. -1.
       -4    1    3    3    0  502 -0.62056067848E+03  0.70223695515E+03 -0.11230224620E+04  0.14626733606E+04  0.12699999809E+01 0.  1.
</event>
<event>
 5   0  0.1533248E-05  0.2612191E+04  0.7818609E-02  0.8364072E-01
       -1   -1    0    0    0  501  0.00000000000E+00  0.00000000000E+00  0.73581971381E+03  0.73581971382E+03  0.50400001928E-02 0.  1.
        1   -1    0    0  501    0  0.00000000000E+00  0.00000000000E+00 -0.23183463242E+04  0.23183463242E+04  0.50400001928E-02 0. -1.
    10030    2    1    2    0    0  0.00000000000E+00  0.00000000000E+00 -0.15825266104E+04  0.30541660380E+04  0.26121905970E+04 0.  0.
        4    1    3    3  502    0  0.72470596649E+03 -0.36729200666E+03  0.40439803850E+03  0.90754699187E+03  0.12699999809E+01 0.  1.
       -4    1    3    3    0  502 -0.72470596649E+03  0.36729200666E+03 -0.19869246489E+04  0.21466190461E+04  0.12699999809E+01 0. -1.
</event>
<event>
 5   0  0.1533248E-05  0.2589512E+04  0.7818609E-02  0.8371772E-01
        1   -1    0    0  501    0  0.00000000000E+00  0.00000000000E+00  0.15820164629E+04  0.15820164629E+04  0.50400001928E-02 0.  1.
       -1   -1    0    0    0  501  0.00000000000E+00  0.00000000000E+00 -0.10596560523E+04  0.10596560523E+04  0.50400001928E-02 0. -1.
    10030    2    1    2    0    0  0.00000000000E+00  0.00000000000E+00  0.52236041065E+03  0.26416725152E+04  0.25895121701E+04 0.  0.
        4    1    3    3  502    0 -0.27105044207E+03  0.12456929536E+04  0.30410369434E+02  0.12752041720E+04  0.12699999809E+01 0. -1.
       -4    1    3    3    0  502  0.27105044207E+03 -0.12456929536E+04  0.49195004121E+03  0.13664683432E+04  0.12699999809E+01 0.  1.
</event>
<event>
 5   0  0.1451052E-05  0.2559046E+04  0.7818609E-02  0.8382247E-01
        1   -1    0    0  501    0  0.00000000000E+00  0.00000000000E+00  0.15139742996E+04  0.15139742996E+04  0.50400001928E-02 0.  1.
       -1   -1    0    0    0  501  0.00000000000E+00  0.00000000000E+00 -0.10813783074E+04  0.10813783074E+04  0.50400001928E-02 0. -1.
    10030    2    1    2    0    0  0.00000000000E+00  0.00000000000E+00  0.43259599220E+03  0.25953526071E+04  0.25590458891E+04 0.  0.
        1    1    3    3  502    0 -0.53755008307E+03  0.57662763959E+03  0.12384257436E+04  0.14680455882E+04  0.50400001928E-02 0.  1.
       -1    1    3    3    0  502  0.53755008307E+03 -0.57662763959E+03 -0.80582975140E+03  0.11273070189E+04  0.50400001928E-02 0. -1.
</event>
<event>
 5   0  0.3499642E-05  0.2536136E+04  0.7818609E-02  0.8390224E-01
       -2   -1    0    0    0  501  0.00000000000E+00  0.00000000000E+00  0.94293363056E+03  0.94293363057E+03  0.25500000920E-02 0.  1.
        2   -1    0    0  501    0  0.00000000000E+00  0.00000000000E+00 -0.17053121051E+04  0.17053121051E+04  0.25500000920E-02 0. -1.
    10030    2    1    2    0    0  0.00000000000E+00  0.00000000000E+00 -0.76237847456E+03  0.26482457357E+04  0.25361357492E+04 0.  0.
        2    1    3    3  502    0 -0.70904223950E+02  0.12074976692E+04  0.16319892694E+02  0.12096877155E+04  0.25500000920E-02 0.  1.
       -2    1    3    3    0  502  0.70904223950E+02 -0.12074976692E+04 -0.77869836725E+03  0.14385580202E+04  0.25500000920E-02 0. -1.
</event>
<event>
 5   0  0.1451052E-05  0.2684803E+04  0.7818609E-02  0.8339953E-01
        1   -1    0    0  501    0  0.00000000000E+00  0.00000000000E+00  0.87640208129E+03  0.87640208130E+03  0.50400001928E-02 0.  1.
       -1   -1    0    0    0  501  0.00000000000E+00  0.00000000000E+00 -0.20561816448E+04  0.20561816448E+04  0.50400001928E-02 0. -1.
    10030    2    1    2    0    0  0.00000000000E+00  0.00000000000E+00 -0.11797795635E+04  0.29325837261E+04  0.26848030640E+04 0.  0.
        1    1    3    3  502    0 -0.15081807702E+03  0.35617796949E+03  0.81421629765E+03  0.90141944603E+03  0.50400001928E-02 0.  1.
       -1    1    3    3    0  502  0.15081807702E+03 -0.35617796949E+03 -0.19939958612E+04  0.20311642801E+04  0.50400001928E-02 0. -1.
</event>
<event>
 5   0  0.1451052E-05  0.2179148E+04  0.7818609E-02  0.8527158E-01
        1   -1    0    0  501    0  0.00000000000E+00  0.00000000000E+00  0.14653907202E+04  0.14653907202E+04  0.50400001928E-02 0. -1.
       -1   -1    0    0    0  501  0.00000000000E+00  0.00000000000E+00 -0.81014008107E+03  0.81014008109E+03  0.50400001928E-02 0.  1.
    10030    2    1    2    0    0  0.00000000000E+00  0.00000000000E+00  0.65525063912E+03  0.22755308013E+04  0.21791482344E+04 0.  0.
        1    1    3    3  502    0 -0.70962470805E+03 -0.80289875084E+03  0.12151725912E+03  0.10784155390E+04  0.50400001928E-02 0.  1.
       -1    1    3    3    0  502  0.70962470805E+03  0.80289875084E+03  0.53373337999E+03  0.11971152623E+04  0.50400001928E-02 0. -1.
</event>
<event>
 5   0  0.3508470E-05  0.2283327E+04  0.7818609E-02  0.8484524E-01
       -2   -1    0    0    0  501  0.00000000000E+00  0.00000000000E+00  0.14074333652E+04  0.14074333652E+04  0.25500000920E-02 0.  1.
        2   -1    0    0  501    0  0.00000000000E+00  0.00000000000E+00 -0.92608002892E+03  0.92608002893E+03  0.25500000920E-02 0. -1.
    10030    2    1    2    0    0  0.00000000000E+00  0.00000000000E+00  0.48135333628E+03  0.23335133941E+04  0.22833273366E+04 0.  0.
        5    1    3    3  502    0  0.16771089127E+03 -0.35416763601E+02 -0.91284449373E+03  0.92881023354E+03  0.46999998093E+01 0. -1.
       -5    1    3    3    0  502 -0.16771089127E+03  0.35416763601E+02  0.13941978300E+04  0.14047031606E+04  0.46999998093E+01 0.  1.
</event>
<event>
 5   0  0.1217200E-05  0.2626738E+04  0.7818609E-02  0.8359175E-01
        4   -1    0    0  501    0  0.00000000000E+00  0.00000000000E+00  0.81852053273E+03  0.81852151798E+03  0.12699999809E+01 0.  1.
       -4   -1    0    0    0  501  0.00000000000E+00  0.00000000000E+00 -0.21073834167E+04  0.21073837994E+04  0.12699999809E+01 0. -1.
    10030    2    1    2    0    0  0.00000000000E+00  0.00000000000E+00 -0.12888628840E+04  0.29259053174E+04  0.26267383563E+04 0.  0.
        3    1    3    3  502    0 -0.87050966296E+03  0.33514439598E+03  0.38544059432E+03  0.10092934664E+04  0.10100000352E+00 0.  1.
       -3    1    3    3    0  502  0.87050966296E+03 -0.33514439598E+03 -0.16743034783E+04  0.19166118509E+04  0.10100000352E+00 0. -1.
</event>
<event>
 5   0  0.1497497E-05  0.2584470E+04  0.7818609E-02  0.8373496E-01
       -1   -1    0    0    0  501  0.00000000000E+00  0.00000000000E+00  0.90620966209E+03  0.90620966211E+03  0.50400001928E-02 0. -1.
        1   -1    0    0  501    0  0.00000000000E+00  0.00000000000E+00 -0.18426982819E+04  0.18426982819E+04  0.50400001928E-02 0.  1.
    10030    2    1    2    0    0  0.00000000000E+00  0.00000000000E+00 -0.93648861984E+03  0.27489079441E+04  0.25844697618E+04 0.  0.
        3    1    3    3  502    0  0.89206830042E+03  0.19049304627E+03 -0.14417943462E+04  0.17061196911E+04  0.10100000352E+00 0.  1.
       -3    1    3    3    0  502 -0.89206830042E+03 -0.19049304627E+03  0.50530572635E+03  0.10427882530E+04  0.10100000352E+00 0. -1.
</event>
<event>
 5   0  0.1533248E-05  0.2620092E+04  0.7818609E-02  0.8361408E-01
        1   -1    0    0  501    0  0.00000000000E+00  0.00000000000E+00  0.14024935597E+04  0.14024935597E+04  0.50400001928E-02 0. -1.
       -1   -1    0    0    0  501  0.00000000000E+00  0.00000000000E+00 -0.12236920392E+04  0.12236920392E+04  0.50400001928E-02 0.  1.
    10030    2    1    2    0    0  0.00000000000E+00  0.00000000000E+00  0.17880152055E+03  0.26261855989E+04  0.26200917572E+04 0.  0.
        4    1    3    3  502    0  0.81468559902E+02 -0.32493028042E+03  0.13588383006E+04  0.13995213301E+04  0.12699999809E+01 0. -1.
       -4    1    3    3    0  502 -0.81468559902E+02  0.32493028042E+03 -0.11800367800E+04  0.12266642688E+04  0.12699999809E+01 0.  1.
</event>
<event>
 5   0  0.1533248E-05  0.2439672E+04  0.7818609E-02  0.8424799E-01
        1   -1    0    0  501    0  0.00000000000E+00  0.00000000000E+00  0.29178988724E+04  0.29178988724E+04  0.50400001928E-02 0. -1.
       -1   -1    0    0    0  501  0.00000000000E+00  0.00000000000E+00 -0.50995589997E+03  0.50995589999E+03  0.50400001928E-02 0.  1.
    10030    2    1    2    0    0  0.00000000000E+00  0.00000000000E+00  0.24079429724E+04  0.34278547724E+04  0.24396719005E+04 0.  0.
        4    1    3    3  502    0 -0.98396570108E+03  0.68810641006E+03  0.15063643345E+04  0.19263473346E+04  0.12699999809E+01 0. -1.
       -4    1    3    3    0  502  0.98396570108E+03 -0.68810641006E+03  0.90157863796E+03  0.15015074378E+04  0.12699999809E+01 0.  1.
</event>
<event>
 5   0  0.3441646E-05  0.2584988E+04  0.7818609E-02  0.8373318E-01
        2   -1    0    0  501    0  0.00000000000E+00  0.00000000000E+00  0.13076991765E+04  0.13076991765E+04  0.25500000920E-02 0. -1.
       -2   -1    0    0    0  501  0.00000000000E+00  0.00000000000E+00 -0.12774661095E+04  0.12774661095E+04  0.25500000920E-02 0.  1.
    10030    2    1    2    0    0  0.00000000000E+00  0.00000000000E+00  0.30233067029E+02  0.25851652860E+04  0.25849884947E+04 0.  0.
        4    1    3    3  502    0  0.72084717500E+03 -0.40670054715E+03 -0.97768182866E+03  0.12809720355E+04  0.12699999809E+01 0.  1.
       -4    1    3    3    0  502 -0.72084717500E+03  0.40670054715E+03  0.10079148957E+04  0.13041932505E+04  0.12699999809E+01 0. -1.
</event>
<event>
 5   0  0.1217200E-05  0.2110038E+04  0.7818609E-02  0.8556834E-01
        3   -1    0    0  501    0  0.00000000000E+00  0.00000000000E+00  0.72994097166E+03  0.72994097864E+03  0.10100000352E+00 0.  1.
       -3   -1    0    0    0  501  0.00000000000E+00  0.00000000000E+00 -0.15248704514E+04  0.15248704547E+04  0.10100000352E+00 0. -1.
    10030    2    1    2    0    0  0.00000000000E+00  0.00000000000E+00 -0.79492947972E+03  0.22548114334E+04  0.21100383225E+04 0.  0.
        5    1    3    3  502    0  0.38051813529E+03  0.37881103972E+03 -0.13679332290E+04  0.14695425356E+04  0.46999998093E+01 0. -1.
       -5    1    3    3    0  502 -0.38051813529E+03 -0.37881103972E+03  0.57300374925E+03  0.78526889774E+03  0.46999998093E+01 0.  1.
</event>
<event>
 5   0  0.1497497E-05  0.2605204E+04  0.7818609E-02  0.8366436E-01
        1   -1    0    0  501    0  0.00000000000E+00  0.00000000000E+00  0.24767273578E+04  0.24767273578E+04  0.50400001928E-02 0. -1.
       -1   -1    0    0    0  501  0.00000000000E+00  0.00000000000E+00 -0.68508606632E+03  0.68508606633E+03  0.50400001928E-02 0.  1.
    10030    2    1    2    0    0  0.00000000000E+00  0.00000000000E+00  0.17916412915E+04  0.31618134241E+04  0.26052035643E+04 0.  0.
        3    1    3    3  502    0 -0.58137627399E+03  0.71873222239E+03 -0.21796450580E+03  0.94978045645E+03  0.10100000352E+00 0.  1.
       -3    1    3    3    0  502  0.58137627399E+03 -0.71873222239E+03  0.20096057973E+04  0.22120329677E+04  0.10100000352E+00 0. -1.
</event>
<event>
 5   0  0.3499642E-05  0.2636292E+04  0.7818609E-02  0.8355977E-01
        2   -1    0    0  501    0  0.00000000000E+00  0.00000000000E+00  0.16207151521E+04  0.16207151521E+04  0.25500000920E-02 0.  1.
       -2   -1    0    0    0  501  0.00000000000E+00  0.00000000000E+00 -0.10720627762E+04  0.10720627762E+04  0.25500000920E-02 0. -1.
    10030    2    1    2    0    0  0.00000000000E+00  0.00000000000E+00  0.54865237588E+03  0.26927779284E+04  0.26362916269E+04 0.  0.
        2    1    3    3  502    0  0.63085889076E+03 -0.13866423587E+02  0.14564185212E+04  0.15872397823E+04  0.25500000920E-02 0.  1.
       -2    1    3    3    0  502 -0.63085889076E+03  0.13866423587E+02 -0.90776614531E+03  0.11055381460E+04  0.25500000920E-02 0. -1.
</event>
<event>
 5   0  0.3508470E-05  0.2584084E+04  0.7818609E-02  0.8373628E-01
        2   -1    0    0  501    0  0.00000000000E+00  0.00000000000E+00  0.25692826902E+04  0.25692826902E+04  0.25500000920E-02 0.  1.
       -2   -1    0    0    0  501  0.00000000000E+00  0.00000000000E+00 -0.64974265988E+03  0.64974265989E+03  0.25500000920E-02 0. -1.
    10030    2    1    2    0    0  0.00000000000E+00  0.00000000000E+00  0.19195400304E+04  0.32190253501E+04  0.25840840305E+04 0.  0.
        5    1    3    3  502    0  0.68949370858E+03  0.10447340845E+04  0.56098716718E+03  0.13717141004E+04  0.46999998093E+01 0. -1.
       -5    1    3    3    0  502 -0.68949370858E+03 -0.10447340845E+04  0.13585528632E+04  0.18473112498E+04  0.46999998093E+01 0.  1.
</event>
<event>
 5   0  0.3647623E-05  0.2589482E+04  0.7818609E-02  0.8371783E-01
        2   -1    0    0  501    0  0.00000000000E+00  0.00000000000E+00  0.20726877430E+04  0.20726877430E+04  0.25500000920E-02 0.  1.
       -2   -1    0    0    0  501  0.00000000000E+00  0.00000000000E+00 -0.80878259502E+03  0.80878259503E+03  0.25500000920E-02 0. -1.
    10030    2    1    2    0    0  0.00000000000E+00  0.00000000000E+00  0.12639051480E+04  0.28814703381E+04  0.25894816250E+04 0.  0.
        3    1    3    3  502    0  0.10121508341E+04 -0.51820497820E+02  0.15285489089E+04  0.18340110284E+04  0.10100000352E+00 0.  1.
       -3    1    3    3    0  502 -0.10121508341E+04  0.51820497820E+02 -0.26464376090E+03  0.10474593097E+04  0.10100000352E+00 0. -1.
</event>
<event>
 5   0  0.1435062E-05  0.2774012E+04  0.7818609E-02  0.8311382E-01
        1   -1    0    0  501    0  0.00000000000E+00  0.00000000000E+00  0.20490482726E+04  0.20490482726E+04  0.50400001928E-02 0.  1.
       -1   -1    0    0    0  501  0.00000000000E+00  0.00000000000E+00 -0.93886801505E+03  0.93886801506E+03  0.50400001928E-02 0. -1.
    10030    2    1    2    0    0  0.00000000000E+00  0.00000000000E+00  0.11101802576E+04  0.29879162877E+04  0.27740121733E+04 0.  0.
        2    1    3    3  502    0  0.48022154970E+03 -0.40775237452E+03 -0.77587582454E+03  0.99942885232E+03  0.25500000920E-02 0. -1.
       -2    1    3    3    0  502 -0.48022154970E+03  0.40775237452E+03  0.18860560821E+04  0.19884874354E+04  0.25500000920E-02 0.  1.
</event>
<event>
 5   0  0.3647623E-05  0.2515050E+04  0.7818609E-02  0.8397643E-01
        2   -1    0    0  501    0  0.00000000000E+00  0.00000000000E+00  0.89369671259E+03  0.89369671260E+03  0.25500000920E-02 0. -1.
       -2   -1    0    0    0  501  0.00000000000E+00  0.00000000000E+00 -0.17694693429E+04  0.17694693429E+04  0.25500000920E-02 0.  1.
    10030    2    1    2    0    0  0.00000000000E+00  0.00000000000E+00 -0.87577263027E+03  0.26631660555E+04  0.25150498482E+04 0.  0.
        3    1    3    3  502    0  0.25324202141E+03  0.11624638940E+04 -0.65712737154E+01  0.11897466193E+04  0.10100000352E+00 0. -1.
       -3    1    3    3    0  502 -0.25324202141E+03 -0.11624638940E+04 -0.86920135656E+03  0.14734194361E+04  0.10100000352E+00 0.  1.
</event>
<event>
 5   0  0.1474554E-05  0.2552733E+04  0.7818609E-02  0.8384436E-01
       -1   -1    0    0    0  501  0.00000000000E+00  0.00000000000E+00  0.20399507807E+04  0.20399507807E+04  0.50400001928E-02 0. -1.
        1   -1    0    0  501    0  0.00000000000E+00  0.00000000000E+00 -0.79860305234E+03  0.79860305235E+03  0.50400001928E-02 0.  1.
    10030    2    1    2    0    0  0.00000000000E+00  0.00000000000E+00  0.12413477284E+04  0.28385538331E+04  0.25527325909E+04 0.  0.
        5    1    3    3  502    0  0.11858159336E+04 -0.20605977003E+03  0.14829240366E+03  0.12126964930E+04  0.46999998093E+01 0.  1.
       -5    1    3    3    0  502 -0.11858159336E+04  0.20605977003E+03  0.10930553247E+04  0.16258573400E+04  0.46999998093E+01 0. -1.
</event>
<event>
 5   0  0.1497497E-05  0.2666300E+04  0.7818609E-02  0.8346023E-01
        1   -1    0    0  501    0  0.00000000000E+00  0.00000000000E+00  0.16035835722E+04  0.16035835722E+04  0.50400001928E-02 0.  1.
       -1   -1    0    0    0  501  0.00000000000E+00  0.00000000000E+00 -0.11083230472E+04  0.11083230472E+04  0.50400001928E-02 0. -1.
    10030    2    1    2    0    0  0.00000000000E+00  0.00000000000E+00  0.49526052501E+03  0.27119066194E+04  0.26662997815E+04 0.  0.
        3    1    3    3  502    0 -0.35885222026E+03 -0.77753181896E+03 -0.79158917775E+03  0.11661664041E+04  0.10100000352E+00 0. -1.
       -3    1    3    3    0  502  0.35885222026E+03  0.77753181896E+03  0.12868497028E+04  0.15457402153E+04  0.10100000352E+00 0.  1.
</event>
<event>
 5   0  0.1451052E-05  0.2102034E+04  0.7818609E-02  0.8560348E-01
       -1   -1    0    0    0  501  0.00000000000E+00  0.00000000000E+00  0.92160808022E+03  0.92160808024E+03  0.50400001928E-02 0.  1.
        1   -1    0    0  501    0  0.00000000000E+00  0.00000000000E+00 -0.11985967290E+04  0.11985967290E+04  0.50400001928E-02 0. -1.
    10030    2    1    2    0    0  0.00000000000E+00  0.00000000000E+00 -0.27698864875E+03  0.21202048092E+04  0.21020337108E+04 0.  0.
        1    1    3    3  502    0 -0.15290973155E+03  0.91219431051E+02 -0.11832738534E+04  0.11965949117E+04  0.50400001928E-02 0. -1.
       -1    1    3    3    0  502  0.15290973155E+03 -0.91219431051E+02  0.90628520464E+03  0.92360989751E+03  0.50400001928E-02 0.  1.
</event>
<event>
 5   0  0.3441646E-05  0.2606041E+04  0.7818609E-02  0.8366152E-01
        2   -1    0    0  501    0  0.00000000000E+00  0.00000000000E+00  0.98278590366E+03  0.98278590366E+03  0.25500000920E-02 0.  1.
       -2   -1    0    0    0  501  0.00000000000E+00  0.00000000000E+00 -0.17276010052E+04  0.17276010052E+04  0.25500000920E-02 0. -1.
    10030    2    1    2    0    0  0.00000000000E+00  0.00000000000E+00 -0.74481510152E+03  0.27103869088E+04  0.26060406098E+04 0.  0.
        4    1    3    3  502    0  0.55016349731E+03 -0.35565367838E+03  0.79905395589E+03  0.10332754957E+04  0.12699999809E+01 0.  1.
       -4    1    3    3    0  502 -0.55016349731E+03  0.35565367838E+03 -0.15438690574E+04  0.16771114131E+04  0.12699999809E+01 0. -1.
</event>
<event>
 5   0  0.1533248E-05  0.2592745E+04  0.7818609E-02  0.8370670E-01
        1   -1    0    0  501    0  0.00000000000E+00  0.00000000000E+00  0.11082161329E+04  0.11082161329E+04  0.50400001928E-02 0.  1.
       -1   -1    0    0    0  501  0.00000000000E+00  0.00000000000E+00 -0.15164748083E+04  0.15164748083E+04  0.50400001928E-02 0. -1.
    10030    2    1    2    0    0  0.00000000000E+00  0.00000000000E+00 -0.40825867534E+03  0.26246909412E+04  0.25927451458E+04 0.  0.
        4    1    3    3  502    0  0.52640266832E+03 -0.92979491874E+02 -0.13997125389E+04  0.14983129711E+04  0.12699999809E+01 0. -1.
       -4    1    3    3    0  502 -0.52640266832E+03  0.92979491874E+02  0.99145386352E+03  0.11263779701E+04  0.12699999809E+01 0.  1.
</event>
<event>
 5   0  0.3508470E-05  0.2497552E+04  0.7818609E-02  0.8403858E-01
       -2   -1    0    0    0  501  0.00000000000E+00  0.00000000000E+00  0.60900393005E+03  0.60900393006E+03  0.25500000920E-02 0. -1.
        2   -1    0    0  501    0  0.00000000000E+00  0.00000000000E+00 -0.25606433831E+04  0.25606433831E+04  0.25500000920E-02 0.  1.
    10030    2    1    2    0    0  0.00000000000E+00  0.00000000000E+00 -0.19516394530E+04  0.31696473131E+04  0.24975523088E+04 0.  0.
        5    1    3    3  502    0  0.75712795648E+03  0.39585255060E+03 -0.21316624256E+04  0.22965079514E+04  0.46999998093E+01 0.  1.
       -5    1    3    3    0  502 -0.75712795648E+03 -0.39585255060E+03  0.18002297257E+03  0.87313936170E+03  0.46999998093E+01 0. -1.
</event>
<event>
 5   0  0.1497497E-05  0.2574080E+04  0.7818609E-02  0.8377059E-01
        1   -1    0    0  501    0  0.00000000000E+00  0.00000000000E+00  0.14116869574E+04  0.14116869574E+04  0.50400001928E-02 0.  1.
       -1   -1    0    0    0  501  0.00000000000E+00  0.00000000000E+00 -0.11733992731E+04  0.11733992732E+04  0.50400001928E-02 0. -1.
    10030    2    1    2    0    0  0.00000000000E+00  0.00000000000E+00  0.23828768425E+03  0.25850862306E+04  0.25740803793E+04 0.  0.
        3    1    3    3  502    0  0.11856815606E+04  0.50060778998E+03  0.12401401513E+03  0.12929920373E+04  0.10100000352E+00 0.  1.
       -3    1    3    3    0  502 -0.11856815606E+04 -0.50060778998E+03  0.11427366912E+03  0.12920941932E+04  0.10100000352E+00 0. -1.
</event>
<event>
 5   0  0.3499642E-05  0.2671753E+04  0.7818609E-02  0.8344229E-01
       -2   -1    0    0    0  501  0.00000000000E+00  0.00000000000E+00  0.97209254602E+03  0.97209254602E+03  0.25500000920E-02 0.  1.
        2   -1    0    0  501    0  0.00000000000E+00  0.00000000000E+00 -0.18357990720E+04  0.18357990720E+04  0.25500000920E-02 0. -1.
    10030    2    1    2    0    0  0.00000000000E+00  0.00000000000E+00 -0.86370652598E+03  0.28078916180E+04  0.26717534272E+04 0.  0.
        2    1    3    3  502    0  0.13961487120E+03  0.91754935591E+03 -0.14416327910E+04  0.17145536553E+04  0.25500000920E-02 0. -1.
       -2    1    3    3    0  502 -0.13961487120E+03 -0.91754935591E+03  0.57792626507E+03  0.10933379627E+04  0.25500000920E-02 0.  1.
</event>
<event>
 5   0  0.3441646E-05  0.2018818E+04  0.7818609E-02  0.8597873E-01
       -2   -1    0    0    0  501  0.00000000000E+00  0.00000000000E+00  0.96171042257E+03  0.96171042257E+03  0.25500000920E-02 0. -1.
        2   -1    0    0  501    0  0.00000000000E+00  0.00000000000E+00 -0.10594728628E+04  0.10594728628E+04  0.25500000920E-02 0.  1.
    10030    2    1    2    0    0  0.00000000000E+00  0.00000000000E+00 -0.97762440224E+02  0.20211832854E+04  0.20188175693E+04 0.  0.
        4    1    3    3  502    0 -0.38778411770E+03 -0.13218952225E+03 -0.97248808659E+03  0.10552655036E+04  0.12699999809E+01 0.  1.
       -4    1    3    3    0  502  0.38778411770E+03  0.13218952225E+03  0.87472564636E+03  0.96591778172E+03  0.12699999809E+01 0. -1.
</event>
<event>
 5   0  0.3499642E-05  0.2624287E+04  0.7818609E-02  0.8359998E-01
       -2   -1    0    0    0  501  0.00000000000E+00  0.00000000000E+00  0.12794290496E+04  0.12794290496E+04  0.25500000920E-02 0.  1.
        2   -1    0    0  501    0  0.00000000000E+00  0.00000000000E+00 -0.13456939555E+04  0.13456939555E+04  0.25500000920E-02 0. -1.
    10030    2    1    2    0    0  0.00000000000E+00  0.00000000000E+00 -0.66264905862E+02  0.26251230051E+04  0.26242865229E+04 0.  0.
        2    1    3    3  502    0 -0.12127372659E+03 -0.37964686920E+03 -0.12836832760E+04  0.13441286453E+04  0.25500000920E-02 0. -1.
       -2    1    3    3    0  502  0.12127372659E+03  0.37964686920E+03  0.12174183701E+04  0.12809943598E+04  0.25500000920E-02 0.  1.
</event>
<event>
 5   0  0.1533248E-05  0.2597082E+04  0.7818609E-02  0.8369193E-01
       -1   -1    0    0    0  501  0.00000000000E+00  0.00000000000E+00  0.11664425919E+04  0.11664425919E+04  0.50400001928E-02 0. -1.
        1   -1    0    0  501    0  0.00000000000E+00  0.00000000000E+00 -0.14455995571E+04  0.14455995571E+04  0.50400001928E-02 0.  1.
    10030    2    1    2    0    0  0.00000000000E+00  0.00000000000E+00 -0.27915696527E+03  0.26120421490E+04  0.25970821275E+04 0.  0.
        4    1    3    3  502    0 -0.12364718516E+04 -0.33896253544E+03  0.67639976301E+02  0.12838750015E+04  0.12699999809E+01 0. -1.
       -4    1    3    3    0  502  0.12364718516E+04  0.33896253544E+03 -0.34679694157E+03  0.13281671475E+04  0.12699999809E+01 0.  1.
</event>
<event>
 5   0  0.3508470E-05  0.2596466E+04  0.7818609E-02  0.8369403E-01
       -2   -1    0    0    0  501  0.00000000000E+00  0.00000000000E+00  0.96320627685E+03  0.96320627686E+03  0.25500000920E-02 0. -1.
        2   -1    0    0  501    0  0.00000000000E+00  0.00000000000E+00 -0.17497904577E+04  0.17497904577E+04  0.25500000920E-02 0.  1.
    10030    2    1    2    0    0  0.00000000000E+00  0.00000000000E+00 -0.78658418088E+03  0.27129967346E+04  0.25964661770E+04 0.  0.
        5    1    3    3  502    0  0.12747785034E+04  0.20454964871E+03 -0.53535845078E+03  0.13976879309E+04  0.46999998093E+01 0.  1.
       -5    1    3    3    0  502 -0.12747785034E+04 -0.20454964871E+03 -0.25122573010E+03  0.13153088036E+04  0.46999998093E+01 0. -1.
</event>
<event>
 5   0  0.1435062E-05  0.2618850E+04  0.7818609E-02  0.8361826E-01
        1   -1    0    0  501    0  0.00000000000E+00  0.00000000000E+00  0.12002556723E+04  0.12002556724E+04  0.50400001928E-02 0. -1.
       -1   -1    0    0    0  501  0.00000000000E+00  0.00000000000E+00 -0.14285238208E+04  0.14285238208E+04  0.50400001928E-02 0.  1.
    10030    2    1    2    0    0  0.00000000000E+00  0.00000000000E+00 -0.22826814845E+03  0.26287794932E+04  0.26188499911E+04 0.  0.
        2    1    3    3  502    0 -0.85711142832E+03 -0.54854654813E+03 -0.94130369014E+03  0.13862164164E+04  0.25500000920E-02 0.  1.
       -2    1    3    3    0  502  0.85711142832E+03  0.54854654813E+03  0.71303554168E+03  0.12425630768E+04  0.25500000920E-02 0. -1.
</event>
<event>
 5   0  0.1451052E-05  0.2508085E+04  0.7818609E-02  0.8400111E-01
       -1   -1    0    0    0  501  0.00000000000E+00  0.00000000000E+00  0.15346765631E+04  0.15346765631E+04  0.50400001928E-02 0. -1.
        1   -1    0    0  501    0  0.00000000000E+00  0.00000000000E+00 -0.10247255726E+04  0.10247255726E+04  0.50400001928E-02 0.  1.
    10030    2    1    2    0    0  0.00000000000E+00  0.00000000000E+00  0.50995099051E+03  0.25594021357E+04  0.25080847831E+04 0.  0.
        1    1    3    3  502    0 -0.82044684932E+03 -0.57877829452E+03 -0.51173286850E+03  0.11269373876E+04  0.50400001928E-02 0.  1.
       -1    1    3    3    0  502  0.82044684932E+03  0.57877829452E+03  0.10216838590E+04  0.14324647481E+04  0.50400001928E-02 0. -1.
</event>
<event>
 5   0  0.1474554E-05  0.2627160E+04  0.7818609E-02  0.8359034E-01
       -1   -1    0    0    0  501  0.00000000000E+00  0.00000000000E+00  0.10021533442E+04  0.10021533443E+04  0.50400001928E-02 0. -1.
        1   -1    0    0  501    0  0.00000000000E+00  0.00000000000E+00 -0.17217848192E+04  0.17217848192E+04  0.50400001928E-02 0.  1.
    10030    2    1    2    0    0  0.00000000000E+00  0.00000000000E+00 -0.71963147498E+03  0.27239381635E+04  0.26271599987E+04 0.  0.
        5    1    3    3  502    0  0.31395520534E+03 -0.92324248211E+03  0.55267540693E+03  0.11208999720E+04  0.46999998093E+01 0. -1.
       -5    1    3    3    0  502 -0.31395520534E+03  0.92324248211E+03 -0.12723068819E+04  0.16030381915E+04  0.46999998093E+01 0.  1.
</event>
<event>
 5   0  0.1533248E-05  0.2633734E+04  0.7818609E-02  0.8356832E-01
        1   -1    0    0  501    0  0.00000000000E+00  0.00000000000E+00  0.10450030341E+04  0.10450030341E+04  0.50400001928E-02 0.  1.
       -1   -1    0    0    0  501  0.00000000000E+00  0.00000000000E+00 -0.16594574857E+04  0.16594574857E+04  0.50400001928E-02 0. -1.
    10030    2    1    2    0    0  0.00000000000E+00  0.00000000000E+00 -0.61445445154E+03  0.27044605198E+04  0.26337335534E+04 0.  0.
        4    1    3    3  502    0  0.54079953370E+03  0.27003946101E+02  0.92540135111E+03  0.10721765817E+04  0.12699999809E+01 0.  1.
       -4    1    3    3    0  502 -0.54079953370E+03 -0.27003946101E+02 -0.15398558027E+04  0.16322839381E+04  0.12699999809E+01 0. -1.
</event>
<event>
 5   0  0.3849687E-05  0.2581890E+04  0.7818609E-02  0.8374379E-01
       -2   -1    0    0    0  501  0.00000000000E+00  0.00000000000E+00  0.10363596764E+04  0.10363596764E+04  0.25500000920E-02 0.  1.
        2   -1    0    0  501    0  0.00000000000E+00  0.00000000000E+00 -0.16080700209E+04  0.16080700209E+04  0.25500000920E-02 0. -1.
    10030    2    1    2    0    0  0.00000000000E+00  0.00000000000E+00 -0.57171034456E+03  0.26444296973E+04  0.25818899484E+04 0.  0.
        1    1    3    3  502    0 -0.68291473425E+03 -0.60365533043E+03  0.65049180637E+03  0.11197820692E+04  0.50400001928E-02 0.  1.
       -1    1    3    3    0  502  0.68291473425E+03  0.60365533043E+03 -0.12222021509E+04  0.15246476281E+04  0.50400001928E-02 0. -1.
</event>
<event>
 5   0  0.1451052E-05  0.2581773E+04  0.7818609E-02  0.8374419E-01
        1   -1    0    0  501    0  0.00000000000E+00  0.00000000000E+00  0.11658724393E+04  0.11658724393E+04  0.50400001928E-02 0.  1.
       -1   -1    0    0    0  501  0.00000000000E+00  0.00000000000E+00 -0.14293058802E+04  0.14293058802E+04  0.50400001928E-02 0. -1.
    10030    2    1    2    0    0  0.00000000000E+00  0.00000000000E+00 -0.26343344090E+03  0.25951783195E+04  0.25817732922E+04 0.  0.
        1    1    3    3  502    0  0.73155470188E+03  0.34263294408E+03  0.88039686173E+03  0.11948507231E+04  0.50400001928E-02 0.  1.
       -1    1    3    3    0  502 -0.73155470188E+03 -0.34263294408E+03 -0.11438303026E+04  0.14003275965E+04  0.50400001928E-02 0. -1.
</event>
<event>
 5   0  0.3647623E-05  0.2549131E+04  0.7818609E-02  0.8385689E-01
       -2   -1    0    0    0  501  0.00000000000E+00  0.00000000000E+00  0.71849637063E+03  0.71849637063E+03  0.25500000920E-02 0. -1.
        2   -1    0    0  501    0  0.00000000000E+00  0.00000000000E+00 -0.22609953748E+04  0.22609953748E+04  0.25500000920E-02 0.  1.
    10030    2    1    2    0    0  0.00000000000E+00  0.00000000000E+00 -0.15424990042E+04  0.29794917454E+04  0.25491308094E+04 0.  0.
        3    1    3    3  502    0  0.54673528575E+03 -0.11156545718E+04 -0.43877563842E+03  0.13176223539E+04  0.10100000352E+00 0. -1.
       -3    1    3    3    0  502 -0.54673528575E+03  0.11156545718E+04 -0.11037233658E+04  0.16618693916E+04  0.10100000352E+00 0.  1.
</event>
<event>
 5   0  0.3849687E-05  0.2551901E+04  0.7818609E-02  0.8384725E-01
        2   -1    0    0  501    0  0.00000000000E+00  0.00000000000E+00  0.12783218980E+04  0.12783218980E+04  0.25500000920E-02 0.  1.
       -2   -1    0    0    0  501  0.00000000000E+00  0.00000000000E+00 -0.12735835284E+04  0.12735835284E+04  0.25500000920E-02 0. -1.
    10030    2    1    2    0    0  0.00000000000E+00  0.00000000000E+00  0.47383696248E+01  0.25519054265E+04  0.25519010274E+04 0.  0.
        1    1    3    3  502    0  0.12170785915E+04  0.17203059247E+03 -0.33993958629E+03  0.12753171154E+04  0.50400001928E-02 0.  1.
       -1    1    3    3    0  502 -0.12170785915E+04 -0.17203059247E+03  0.34467795592E+03  0.12765883110E+04  0.50400001928E-02 0. -1.
</event>
<event>
 5   0  0.3849687E-05  0.2577461E+04  0.7818609E-02  0.8375898E-01
       -2   -1    0    0    0  501  0.00000000000E+00  0.00000000000E+00  0.11031769436E+04  0.11031769436E+04  0.25500000920E-02 0. -1.
        2   -1    0    0  501    0  0.00000000000E+00  0.00000000000E+00 -0.15054941237E+04  0.15054941237E+04  0.25500000920E-02 0.  1.
    10030    2    1    2    0    0  0.00000000000E+00  0.00000000000E+00 -0.40231718017E+03  0.26086710673E+04  0.25774610810E+04 0.  0.
        1    1    3    3  502    0  0.10393782611E+03  0.70239113398E+03  0.88735021511E+03  0.11364623976E+04  0.50400001928E-02 0. -1.
       -1    1    3    3    0  502 -0.10393782611E+03 -0.70239113398E+03 -0.12896673953E+04  0.14722086697E+04  0.50400001928E-02 0.  1.
</event>
<event>
 5   0  0.3508470E-05  0.2604671E+04  0.7818609E-02  0.8366616E-01
       -2   -1    0    0    0  501  0.00000000000E+00  0.00000000000E+00  0.67522563497E+03  0.67522563498E+03  0.25500000920E-02 0.  1.
        2   -1    0    0  501    0  0.00000000000E+00  0.00000000000E+00 -0.25118686071E+04  0.25118686071E+04  0.25500000920E-02 0. -1.
    10030    2    1    2    0    0  0.00000000000E+00  0.00000000000E+00 -0.18366429721E+04  0.31870942421E+04  0.26046712462E+04 0.  0.
        5    1    3    3  502    0 -0.11153282011E+04  0.54273057800E+03 -0.14039910284E+04  0.18734263728E+04  0.46999998093E+01 0.  1.
       -5    1    3    3    0  502  0.11153282011E+04 -0.54273057800E+03 -0.43265194373E+03  0.13136678693E+04  0.46999998093E+01 0. -1.
</event>
<event>
 5   0  0.1474554E-05  0.2676615E+04  0.7818609E-02  0.8342633E-01
       -1   -1    0    0    0  501  0.00000000000E+00  0.00000000000E+00  0.10860064666E+04  0.10860064666E+04  0.50400001928E-02 0. -1.
        1   -1    0    0  501    0  0.00000000000E+00  0.00000000000E+00 -0.16492225343E+04  0.16492225343E+04  0.50400001928E-02 0.  1.
    10030    2    1    2    0    0  0.00000000000E+00  0.00000000000E+00 -0.56321606769E+03  0.27352290009E+04  0.26766145311E+04 0.  0.
        5    1    3    3  502    0  0.13324314716E+04  0.39086712892E+01 -0.15374672332E+03  0.13412863412E+04  0.46999998093E+01 0.  1.
       -5    1    3    3    0  502 -0.13324314716E+04 -0.39086712892E+01 -0.40946934437E+03  0.13939426596E+04  0.46999998093E+01 0. -1.
</event>
<event>
 5   0  0.3647623E-05  0.2606074E+04  0.7818609E-02  0.8366141E-01
        2   -1    0    0  501    0  0.00000000000E+00  0.00000000000E+00  0.17442335390E+04  0.17442335390E+04  0.25500000920E-02 0. -1.
       -2   -1    0    0    0  501  0.00000000000E+00  0.00000000000E+00 -0.97343953190E+03  0.97343953191E+03  0.25500000920E-02 0.  1.
    10030    2    1    2    0    0  0.00000000000E+00  0.00000000000E+00  0.77079400705E+03  0.27176730709E+04  0.26060743502E+04 0.  0.
        3    1    3    3  502    0  0.13674364960E+03 -0.11619590414E+04 -0.21280351862E+03  0.11891732369E+04  0.10100000352E+00 0.  1.
       -3    1    3    3    0  502 -0.13674364960E+03  0.11619590414E+04  0.98359752567E+03  0.15284998339E+04  0.10100000352E+00 0. -1.
</event>
<event>
 5   0  0.1435062E-05  0.2603509E+04  0.7818609E-02  0.8367010E-01
       -1   -1    0    0    0  501  0.00000000000E+00  0.00000000000E+00  0.14601539731E+04  0.14601539731E+04  0.50400001928E-02 0. -1.
        1   -1    0    0  501    0  0.00000000000E+00  0.00000000000E+00 -0.11605388447E+04  0.11605388447E+04  0.50400001928E-02 0.  1.
    10030    2    1    2    0    0  0.00000000000E+00  0.00000000000E+00  0.29961512841E+03  0.26206928179E+04  0.26035094815E+04 0.  0.
        2    1    3    3  502    0  0.89644838209E+03  0.92767019573E+03  0.32523838086E+03  0.13304028331E+04  0.25500000920E-02 0.  1.
       -2    1    3    3    0  502 -0.89644838209E+03 -0.92767019573E+03 -0.25623252453E+02  0.12902899848E+04  0.25500000920E-02 0. -1.
</event>
<event>
 5   0  0.1451052E-05  0.2656970E+04  0.7818609E-02  0.8349103E-01
        1   -1    0    0  501    0  0.00000000000E+00  0.00000000000E+00  0.18767824155E+04  0.18767824155E+04  0.50400001928E-02 0. -1.
       -1   -1    0    0    0  501  0.00000000000E+00  0.00000000000E+00 -0.94037130693E+03  0.94037130695E+03  0.50400001928E-02 0.  1.
    10030    2    1    2    0    0  0.00000000000E+00  0.00000000000E+00  0.93641110853E+03  0.28171537224E+04  0.26569699531E+04 0.  0.
        1    1    3    3  502    0 -0.63392322973E+03 -0.21317931649E+03  0.16852612777E+04  0.18131215227E+04  0.50400001928E-02 0. -1.
       -1    1    3    3    0  502  0.63392322973E+03  0.21317931649E+03 -0.74885016913E+03  0.10040321997E+04  0.50400001928E-02 0.  1.
</event>
<event>
 5   0  0.1497497E-05  0.2559151E+04  0.7818609E-02  0.8382211E-01
        1   -1    0    0  501    0  0.00000000000E+00  0.00000000000E+00  0.10281368383E+04  0.10281368383E+04  0.50400001928E-02 0.  1.
       -1   -1    0    0    0  501  0.00000000000E+00  0.00000000000E+00 -0.15925050541E+04  0.15925050541E+04  0.50400001928E-02 0. -1.
    10030    2    1    2    0    0  0.00000000000E+00  0.00000000000E+00 -0.56436821579E+03  0.26206418925E+04  0.25591507274E+04 0.  0.
        3    1    3    3  502    0  0.51758849075E+03 -0.59120489116E+03  0.75197869567E+03  0.10876088626E+04  0.10100000352E+00 0.  1.
       -3    1    3    3    0  502 -0.51758849075E+03  0.59120489116E+03 -0.13163469115E+04  0.15330330298E+04  0.10100000352E+00 0. -1.
</event>
<event>
 5   0  0.1497497E-05  0.2250743E+04  0.7818609E-02  0.8497600E-01
        1   -1    0    0  501    0  0.00000000000E+00  0.00000000000E+00  0.26048408039E+04  0.26048408039E+04  0.50400001928E-02 0. -1.
       -1   -1    0    0    0  501  0.00000000000E+00  0.00000000000E+00 -0.48619508202E+03  0.48619508204E+03  0.50400001928E-02 0.  1.
    10030    2    1    2    0    0  0.00000000000E+00  0.00000000000E+00  0.21186457219E+04  0.30910358860E+04  0.22507428004E+04 0.  0.
        3    1    3    3  502    0  0.32081389523E+03 -0.59858167125E+03  0.22916914869E+04  0.23902032244E+04  0.10100000352E+00 0. -1.
       -3    1    3    3    0  502 -0.32081389523E+03  0.59858167125E+03 -0.17304576502E+03  0.70083266157E+03  0.10100000352E+00 0.  1.
</event>
<event>
 5   0  0.3499642E-05  0.2609861E+04  0.7818609E-02  0.8364859E-01
        2   -1    0    0  501    0  0.00000000000E+00  0.00000000000E+00  0.13552059507E+04  0.13552059507E+04  0.25500000920E-02 0. -1.
       -2   -1    0    0    0  501  0.00000000000E+00  0.00000000000E+00 -0.12565198691E+04  0.12565198691E+04  0.25500000920E-02 0.  1.
    10030    2    1    2    0    0  0.00000000000E+00  0.00000000000E+00  0.98686081575E+02  0.26117258198E+04  0.26098606889E+04 0.  0.
        2    1    3    3  502    0 -0.95958311661E+03  0.62700755018E+03 -0.57472509401E+03  0.12822820124E+04  0.25500000920E-02 0.  1.
       -2    1    3    3    0  502  0.95958311661E+03 -0.62700755018E+03  0.67341117559E+03  0.13294438074E+04  0.25500000920E-02 0. -1.
</event>
<event>
 5   0  0.1474554E-05  0.2706091E+04  0.7818609E-02  0.8333031E-01
        1   -1    0    0  501    0  0.00000000000E+00  0.00000000000E+00  0.16507046196E+04  0.16507046196E+04  0.50400001928E-02 0.  1.
       -1   -1    0    0    0  501  0.00000000000E+00  0.00000000000E+00 -0.11090611534E+04  0.11090611534E+04  0.50400001928E-02 0. -1.
    10030    2    1    2    0    0  0.00000000000E+00  0.00000000000E+00  0.54164346622E+03  0.27597657730E+04  0.27060911805E+04 0.  0.
        5    1    3    3  502    0  0.10041424535E+04 -0.17503172773E+03  0.11782867613E+04  0.15579858647E+04  0.46999998093E+01 0.  1.
       -5    1    3    3    0  502 -0.10041424535E+04  0.17503172773E+03 -0.63664329512E+03  0.12017799083E+04  0.46999998093E+01 0. -1.
</event>
<event>
 5   0  0.3508470E-05  0.2478493E+04  0.7818609E-02  0.8410688E-01
       -2   -1    0    0    0  501  0.00000000000E+00  0.00000000000E+00  0.96285045365E+03  0.96285045365E+03  0.25500000920E-02 0. -1.
        2   -1    0    0  501    0  0.00000000000E+00  0.00000000000E+00 -0.15949849540E+04  0.15949849540E+04  0.25500000920E-02 0.  1.
    10030    2    1    2    0    0  0.00000000000E+00  0.00000000000E+00 -0.63213450040E+03  0.25578354077E+04  0.24784930797E+04 0.  0.
        5    1    3    3  502    0 -0.18421837069E+02 -0.47251118329E+03 -0.14982073970E+04  0.15710676869E+04  0.46999998093E+01 0.  1.
       -5    1    3    3    0  502  0.18421837069E+02  0.47251118329E+03  0.86607289664E+03  0.98676772075E+03  0.46999998093E+01 0. -1.
</event>
<event>
 5   0  0.1435062E-05  0.2611853E+04  0.7818609E-02  0.8364186E-01
        1   -1    0    0  501    0  0.00000000000E+00  0.00000000000E+00  0.19994556266E+04  0.19994556266E+04  0.50400001928E-02 0. -1.
       -1   -1    0    0    0  501  0.00000000000E+00  0.00000000000E+00 -0.85295429674E+03  0.85295429675E+03  0.50400001928E-02 0.  1.
    10030    2    1    2    0    0  0.00000000000E+00  0.00000000000E+00  0.11465013299E+04  0.28524099234E+04  0.26118531872E+04 0.  0.
        2    1    3    3  502    0  0.47401778954E+02  0.36579650025E+03  0.19413847208E+04  0.19761145317E+04  0.25500000920E-02 0. -1.
       -2    1    3    3    0  502 -0.47401778954E+02 -0.36579650025E+03 -0.79488339094E+03  0.87629539166E+03  0.25500000920E-02 0.  1.
</event>
<event>
 5   0  0.1435062E-05  0.2521916E+04  0.7818609E-02  0.8395219E-01
        1   -1    0    0  501    0  0.00000000000E+00  0.00000000000E+00  0.84110758449E+03  0.84110758451E+03  0.50400001928E-02 0. -1.
       -1   -1    0    0    0  501  0.00000000000E+00  0.00000000000E+00 -0.18903821693E+04  0.18903821693E+04  0.50400001928E-02 0.  1.
    10030    2    1    2    0    0  0.00000000000E+00  0.00000000000E+00 -0.10492745848E+04  0.27314897538E+04  0.25219157640E+04 0.  0.
        2    1    3    3  502    0 -0.70139252059E+03 -0.10167532696E+04 -0.79923301118E+03  0.14712280875E+04  0.25500000920E-02 0.  1.
       -2    1    3    3    0  502  0.70139252059E+03  0.10167532696E+04 -0.25004157364E+03  0.12602616664E+04  0.25500000920E-02 0. -1.
</event>
<event>
 5   0  0.1451052E-05  0.2530107E+04  0.7818609E-02  0.8392338E-01
       -1   -1    0    0    0  501  0.00000000000E+00  0.00000000000E+00  0.13368113073E+04  0.13368113073E+04  0.50400001928E-02 0.  1.
        1   -1    0    0  501    0  0.00000000000E+00  0.00000000000E+00 -0.11971477736E+04  0.11971477737E+04  0.50400001928E-02 0. -1.
    10030    2    1    2    0    0  0.00000000000E+00  0.00000000000E+00  0.13966353364E+03  0.25339590809E+04  0.25301072549E+04 0.  0.
        1    1    3    3  502    0 -0.23129969793E+03  0.72869890815E+03 -0.93960097780E+03  0.12113429104E+04  0.50400001928E-02 0. -1.
       -1    1    3    3    0  502  0.23129969793E+03 -0.72869890815E+03  0.10792645114E+04  0.13226161706E+04  0.50400001928E-02 0.  1.
</event>
<event>
 5   0  0.1435062E-05  0.2662890E+04  0.7818609E-02  0.8347147E-01
        1   -1    0    0  501    0  0.00000000000E+00  0.00000000000E+00  0.15768563028E+04  0.15768563028E+04  0.50400001928E-02 0.  1.
       -1   -1    0    0    0  501  0.00000000000E+00  0.00000000000E+00 -0.11242276695E+04  0.11242276695E+04  0.50400001928E-02 0. -1.
    10030    2    1    2    0    0  0.00000000000E+00  0.00000000000E+00  0.45262863326E+03  0.27010839723E+04  0.26628897735E+04 0.  0.
        2    1    3    3  502    0  0.57765974139E+03  0.34972141495E+03  0.13902701481E+04  0.15455895088E+04  0.25500000920E-02 0.  1.
       -2    1    3    3    0  502 -0.57765974139E+03 -0.34972141495E+03 -0.93764151483E+03  0.11554944635E+04  0.25500000920E-02 0. -1.
</event>
<event>
 5   0  0.3849687E-05  0.2654340E+04  0.7818609E-02  0.8349974E-01
        2   -1    0    0  501    0  0.00000000000E+00  0.00000000000E+00  0.16237675318E+04  0.16237675318E+04  0.25500000920E-02 0. -1.
       -2   -1    0    0    0  501  0.00000000000E+00  0.00000000000E+00 -0.10847488751E+04  0.10847488751E+04  0.25500000920E-02 0.  1.
    10030    2    1    2    0    0  0.00000000000E+00  0.00000000000E+00  0.53901865672E+03  0.27085164069E+04  0.26543398453E+04 0.  0.
        1    1    3    3  502    0  0.48549491501E+03  0.11771158210E+04 -0.11239291857E+03  0.12782562876E+04  0.50400001928E-02 0.  1.
       -1    1    3    3    0  502 -0.48549491501E+03 -0.11771158210E+04  0.65141157529E+03  0.14302601193E+04  0.50400001928E-02 0. -1.
</event>
<event>
 5   0  0.3849687E-05  0.2256953E+04  0.7818609E-02  0.8495090E-01
        2   -1    0    0  501    0  0.00000000000E+00  0.00000000000E+00  0.17079292825E+04  0.17079292825E+04  0.25500000920E-02 0.  1.
       -2   -1    0    0    0  501  0.00000000000E+00  0.00000000000E+00 -0.74561593031E+03  0.74561593031E+03  0.25500000920E-02 0. -1.
    10030    2    1    2    0    0  0.00000000000E+00  0.00000000000E+00  0.96231335215E+03  0.24535452128E+04  0.22569530619E+04 0.  0.
        1    1    3    3  502    0 -0.24155811420E+03 -0.99579148273E+03  0.99510369067E+03  0.14283495212E+04  0.50400001928E-02 0. -1.
       -1    1    3    3    0  502  0.24155811420E+03  0.99579148273E+03 -0.32790338522E+02  0.10251956915E+04  0.50400001928E-02 0.  1.
</event>
<event>
 5   0  0.1533248E-05  0.2591078E+04  0.7818609E-02  0.8371238E-01
       -1   -1    0    0    0  501  0.00000000000E+00  0.00000000000E+00  0.14330050711E+04  0.14330050711E+04  0.50400001928E-02 0.  1.
        1   -1    0    0  501    0  0.00000000000E+00  0.00000000000E+00 -0.11712601122E+04  0.11712601122E+04  0.50400001928E-02 0. -1.
    10030    2    1    2    0    0  0.00000000000E+00  0.00000000000E+00  0.26174495887E+03  0.26042651833E+04  0.25910782932E+04 0.  0.
        4    1    3    3  502    0  0.14602660131E+03 -0.12027150886E+04  0.59208991520E+03  0.13484878321E+04  0.12699999809E+01 0.  1.
       -4    1    3    3    0  502 -0.14602660131E+03  0.12027150886E+04 -0.33034495633E+03  0.12557773512E+04  0.12699999809E+01 0. -1.
</event>
<event>
 5   0  0.3508470E-05  0.2569346E+04  0.7818609E-02  0.8378689E-01
        2   -1    0    0  501    0  0.00000000000E+00  0.00000000000E+00  0.10030705977E+04  0.10030705977E+04  0.25500000920E-02 0.  1.
       -2   -1    0    0    0  501  0.00000000000E+00  0.00000000000E+00 -0.16453326984E+04  0.16453326984E+04  0.25500000920E-02 0. -1.
    10030    2    1    2    0    0  0.00000000000E+00  0.00000000000E+00 -0.64226210073E+03  0.26484032961E+04  0.25693461060E+04 0.  0.
        5    1    3    3  502    0 -0.12057795342E+04  0.35884742826E+03 -0.58930349235E+03  0.13892359259E+04  0.46999998093E+01 0. -1.
       -5    1    3    3    0  502  0.12057795342E+04 -0.35884742826E+03 -0.52958608375E+02  0.12591673701E+04  0.46999998093E+01 0.  1.
</event>
<event>
 5   0  0.1474554E-05  0.2327360E+04  0.7818609E-02  0.8467211E-01
        1   -1    0    0  501    0  0.00000000000E+00  0.00000000000E+00  0.11412089375E+04  0.11412089375E+04  0.50400001928E-02 0.  1.
       -1   -1    0    0    0  501  0.00000000000E+00  0.00000000000E+00 -0.11865931515E+04  0.11865931515E+04  0.50400001928E-02 0. -1.
    10030    2    1    2    0    0  0.00000000000E+00  0.00000000000E+00 -0.45384213957E+02  0.23278020890E+04  0.23273596282E+04 0.  0.
        5    1    3    3  502    0  0.58576025301E+03  0.44690394578E+02  0.98199690194E+03  0.11443130301E+04  0.46999998093E+01 0.  1.
       -5    1    3    3    0  502 -0.58576025301E+03 -0.44690394578E+02 -0.10273811159E+04  0.11834890590E+04  0.46999998093E+01 0. -1.
</event>
<event>
 5   0  0.1435062E-05  0.2556277E+04  0.7818609E-02  0.8383206E-01
        1   -1    0    0  501    0  0.00000000000E+00  0.00000000000E+00  0.22262229352E+04  0.22262229353E+04  0.50400001928E-02 0.  1.
       -1   -1    0    0    0  501  0.00000000000E+00  0.00000000000E+00 -0.73381590427E+03  0.73381590428E+03  0.50400001928E-02 0. -1.
    10030    2    1    2    0    0  0.00000000000E+00  0.00000000000E+00  0.14924070310E+04  0.29600388395E+04  0.25562768210E+04 0.  0.
        2    1    3    3  502    0 -0.27494807891E+03  0.35486850857E+03  0.21319304850E+04  0.21786821011E+04  0.25500000920E-02 0.  1.
       -2    1    3    3    0  502  0.27494807891E+03 -0.35486850857E+03 -0.63952345405E+03  0.78135673848E+03  0.25500000920E-02 0. -1.
</event>
<event>
 5   0  0.3508470E-05  0.1766613E+04  0.7818609E-02  0.8724259E-01
       -2   -1    0    0    0  501  0.00000000000E+00  0.00000000000E+00  0.84827614509E+03  0.84827614510E+03  0.25500000920E-02 0.  1.
        2   -1    0    0  501    0  0.00000000000E+00  0.00000000000E+00 -0.91978342306E+03  0.91978342306E+03  0.25500000920E-02 0. -1.
    10030    2    1    2    0    0  0.00000000000E+00  0.00000000000E+00 -0.71507277964E+02  0.17680595682E+04  0.17666129587E+04 0.  0.
        5    1    3    3  502    0 -0.29422662470E+01 -0.73933063521E+03  0.44795341377E+03  0.86446676975E+03  0.46999998093E+01 0. -1.
       -5    1    3    3    0  502  0.29422662470E+01  0.73933063521E+03 -0.51946069174E+03  0.90359279841E+03  0.46999998093E+01 0.  1.
</event>
<event>
 5   0  0.3849687E-05  0.2601021E+04  0.7818609E-02  0.8367854E-01
        2   -1    0    0  501    0  0.00000000000E+00  0.00000000000E+00  0.82218059508E+03  0.82218059508E+03  0.25500000920E-02 0. -1.
       -2   -1    0    0    0  501  0.00000000000E+00  0.00000000000E+00 -0.20571241621E+04  0.20571241621E+04  0.25500000920E-02 0.  1.
    10030    2    1    2    0    0  0.00000000000E+00  0.00000000000E+00 -0.12349435670E+04  0.28793047572E+04  0.26010210055E+04 0.  0.
        1    1    3    3  502    0 -0.53729696647E+03 -0.11842100574E+04 -0.63619522120E+03  0.14476829245E+04  0.50400001928E-02 0.  1.
       -1    1    3    3    0  502  0.53729696647E+03  0.11842100574E+04 -0.59874834581E+03  0.14316218327E+04  0.50400001928E-02 0. -1.
</event>
<event>
 5   0  0.1435062E-05  0.2605021E+04  0.7818609E-02  0.8366498E-01
       -1   -1    0    0    0  501  0.00000000000E+00  0.00000000000E+00  0.79577182115E+03  0.79577182116E+03  0.50400001928E-02 0.  1.
        1   -1    0    0  501    0  0.00000000000E+00  0.00000000000E+00 -0.21319339514E+04  0.21319339514E+04  0.50400001928E-02 0. -1.
    10030    2    1    2    0    0  0.00000000000E+00  0.00000000000E+00 -0.13361621303E+04  0.29277057726E+04  0.26050205090E+04 0.  0.
        2    1    3    3  502    0  0.90693518903E+03 -0.14732528153E+03 -0.17056374516E+04  0.19373784586E+04  0.25500000920E-02 0. -1.
       -2    1    3    3    0  502 -0.90693518903E+03  0.14732528153E+03  0.36947532133E+03  0.99032731395E+03  0.25500000920E-02 0.  1.
</event>
<event>
 5   0  0.1217200E-05  0.2100978E+04  0.7818609E-02  0.8560813E-01
        3   -1    0    0  501    0  0.00000000000E+00  0.00000000000E+00  0.52334156707E+03  0.52334157682E+03  0.10100000352E+00 0. -1.
       -3   -1    0    0    0  501  0.00000000000E+00  0.00000000000E+00 -0.21086176831E+04  0.21086176855E+04  0.10100000352E+00 0.  1.
    10030    2    1    2    0    0  0.00000000000E+00  0.00000000000E+00 -0.15852761160E+04  0.26319592623E+04  0.21009781519E+04 0.  0.
        2    1    3    3  502    0  0.14596000821E+03 -0.32026379772E+03 -0.20325590175E+04  0.20628061915E+04  0.25500000920E-02 0.  1.
       -2    1    3    3    0  502 -0.14596000821E+03  0.32026379772E+03  0.44728290145E+03  0.56915307085E+03  0.25500000920E-02 0. -1.
</event>
<event>
 5   0  0.1497497E-05  0.2568062E+04  0.7818609E-02  0.8379131E-01
       -1   -1    0    0    0  501  0.00000000000E+00  0.00000000000E+00  0.85893302363E+03  0.85893302364E+03  0.50400001928E-02 0. -1.
        1   -1    0    0  501    0  0.00000000000E+00  0.00000000000E+00 -0.19195156774E+04  0.19195156774E+04  0.50400001928E-02 0.  1.
    10030    2    1    2    0    0  0.00000000000E+00  0.00000000000E+00 -0.10605826538E+04  0.27784487010E+04  0.25680618409E+04 0.  0.
        3    1    3    3  502    0  0.12670921522E+03  0.11920167005E+04 -0.32398763568E+02  0.11991700170E+04  0.10100000352E+00 0. -1.
       -3    1    3    3    0  502 -0.12670921522E+03 -0.11920167005E+04 -0.10281838902E+04  0.15792786840E+04  0.10100000352E+00 0.  1.
</event>
<event>
 5   0  0.1497497E-05  0.2578857E+04  0.7818609E-02  0.8375419E-01
        1   -1    0    0  501    0  0.00000000000E+00  0.00000000000E+00  0.13232708654E+04  0.13232708654E+04  0.50400001928E-02 0. -1.
       -1   -1    0    0    0  501  0.00000000000E+00  0.00000000000E+00 -0.12564511814E+04  0.12564511814E+04  0.50400001928E-02 0.  1.
    10030    2    1    2    0    0  0.00000000000E+00  0.00000000000E+00  0.66819684008E+02  0.25797220468E+04  0.25788565235E+04 0.  0.
        3    1    3    3  502    0 -0.10434577867E+03 -0.57117487297E+03 -0.11182786307E+04  0.12600301120E+04  0.10100000352E+00 0.  1.
       -3    1    3    3    0  502  0.10434577867E+03  0.57117487297E+03  0.11850983147E+04  0.13196919348E+04  0.10100000352E+00 0. -1.
</event>
<event>
 5   0  0.1474554E-05  0.2616410E+04  0.7818609E-02  0.8362648E-01
        1   -1    0    0  501    0  0.00000000000E+00  0.00000000000E+00  0.12750962214E+04  0.12750962214E+04  0.50400001928E-02 0. -1.
       -1   -1    0    0    0  501  0.00000000000E+00  0.00000000000E+00 -0.13421736917E+04  0.13421736917E+04  0.50400001928E-02 0.  1.
    10030    2    1    2    0    0  0.00000000000E+00  0.00000000000E+00 -0.67077470330E+02  0.26172699131E+04  0.26164102146E+04 0.  0.
        5    1    3    3  502    0  0.36934510564E+02 -0.12486854492E+04 -0.42199480592E+03  0.13185906170E+04  0.46999998093E+01 0. -1.
       -5    1    3    3    0  502 -0.36934510564E+02  0.12486854492E+04  0.35491733559E+03  0.12986792961E+04  0.46999998093E+01 0.  1.
</event>
<event>
 5   0  0.1533248E-05  0.2893684E+04  0.7818609E-02  0.8274759E-01
       -1   -1    0    0    0  501  0.00000000000E+00  0.00000000000E+00  0.11278783758E+04  0.11278783758E+04  0.50400001928E-02 0. -1.
        1   -1    0    0  501    0  0.00000000000E+00  0.00000000000E+00 -0.18560082837E+04  0.18560082838E+04  0.50400001928E-02 0.  1.
    10030    2    1    2    0    0  0.00000000000E+00  0.00000000000E+00 -0.72812990797E+03  0.29838866595E+04  0.28936838863E+04 0.  0.
        4    1    3    3  502    0  0.56937553445E+03 -0.47089909851E+03  0.91866345481E+03  0.11789311330E+04  0.12699999809E+01 0. -1.
       -4    1    3    3    0  502 -0.56937553445E+03  0.47089909851E+03 -0.16467933628E+04  0.18049555266E+04  0.12699999809E+01 0.  1.
</event>
<event>
 5   0  0.1474554E-05  0.3313097E+04  0.7818609E-02  0.8159571E-01
       -1   -1    0    0    0  501  0.00000000000E+00  0.00000000000E+00  0.17572001730E+04  0.17572001730E+04  0.50400001928E-02 0.  1.
        1   -1    0    0  501    0  0.00000000000E+00  0.00000000000E+00 -0.15616621181E+04  0.15616621181E+04  0.50400001928E-02 0. -1.
    10030    2    1    2    0    0  0.00000000000E+00  0.00000000000E+00  0.19553805498E+03  0.33188622911E+04  0.33130970068E+04 0.  0.
        5    1    3    3  502    0  0.35562609928E+03  0.11093645107E+04 -0.10819778051E+04  0.15899237720E+04  0.46999998093E+01 0. -1.
       -5    1    3    3    0  502 -0.35562609928E+03 -0.11093645107E+04  0.12775158601E+04  0.17289385191E+04  0.46999998093E+01 0.  1.
</event>
<event>
 5   0  0.3441646E-05  0.2321583E+04  0.7818609E-02  0.8469460E-01
        2   -1    0    0  501    0  0.00000000000E+00  0.00000000000E+00  0.93261257843E+03  0.93261257843E+03  0.25500000920E-02 0.  1.
       -2   -1    0    0    0  501  0.00000000000E+00  0.00000000000E+00 -0.14447982708E+04  0.14447982708E+04  0.25500000920E-02 0. -1.
    10030    2    1    2    0    0  0.00000000000E+00  0.00000000000E+00 -0.51218569232E+03  0.23774108492E+04  0.23215831155E+04 0.  0.
        4    1    3    3  502    0 -0.66381564749E+03  0.39981395232E+03  0.62894294156E+03  0.99803469226E+03  0.12699999809E+01 0.  1.
       -4    1    3    3    0  502  0.66381564749E+03 -0.39981395232E+03 -0.11411286339E+04  0.13793761569E+04  0.12699999809E+01 0. -1.
</event>
<event>
 5   0  0.1474554E-05  0.2596108E+04  0.7818609E-02  0.8369524E-01
       -1   -1    0    0    0  501  0.00000000000E+00  0.00000000000E+00  0.80848361747E+03  0.80848361748E+03  0.50400001928E-02 0. -1.
        1   -1    0    0  501    0  0.00000000000E+00  0.00000000000E+00 -0.20840800817E+04  0.20840800817E+04  0.50400001928E-02 0.  1.
    10030    2    1    2    0    0  0.00000000000E+00  0.00000000000E+00 -0.12755964642E+04  0.28925636992E+04  0.25961083210E+04 0.  0.
        5    1    3    3  502    0  0.53607241474E+03 -0.10536120071E+04 -0.40430518829E+02  0.11828476707E+04  0.46999998093E+01 0.  1.
       -5    1    3    3    0  502 -0.53607241474E+03  0.10536120071E+04 -0.12351659454E+04  0.17097160284E+04  0.46999998093E+01 0. -1.
</event>
<event>
 5   0  0.3647623E-05  0.2558627E+04  0.7818609E-02  0.8382392E-01
        2   -1    0    0  501    0  0.00000000000E+00  0.00000000000E+00  0.14327858181E+04  0.14327858181E+04  0.25500000920E-02 0.  1.
       -2   -1    0    0    0  501  0.00000000000E+00  0.00000000000E+00 -0.11422804170E+04  0.11422804170E+04  0.25500000920E-02 0. -1.
    10030    2    1    2    0    0  0.00000000000E+00  0.00000000000E+00  0.29050540108E+03  0.25750662351E+04  0.25586271176E+04 0.  0.
        3    1    3    3  502    0 -0.56239428049E+03  0.93358378905E+03 -0.52895976155E+03  0.12114720209E+04  0.10100000352E+00 0. -1.
       -3    1    3    3    0  502  0.56239428049E+03 -0.93358378905E+03  0.81946516263E+03  0.13635942141E+04  0.10100000352E+00 0.  1.
</event>
<event>
 5   0  0.3647623E-05  0.2593300E+04  0.7818609E-02  0.8370481E-01
       -2   -1    0    0    0  501  0.00000000000E+00  0.00000000000E+00  0.13226105463E+04  0.13226105463E+04  0.25500000920E-02 0. -1.
        2   -1    0    0  501    0  0.00000000000E+00  0.00000000000E+00 -0.12711991992E+04  0.12711991992E+04  0.25500000920E-02 0.  1.
    10030    2    1    2    0    0  0.00000000000E+00  0.00000000000E+00  0.51411347135E+02  0.25938097455E+04  0.25933001888E+04 0.  0.
        3    1    3    3  502    0  0.10847560500E+04 -0.36060797244E+03  0.63784525836E+03  0.13090379603E+04  0.10100000352E+00 0. -1.
       -3    1    3    3    0  502 -0.10847560500E+04  0.36060797244E+03 -0.58643391123E+03  0.12847717852E+04  0.10100000352E+00 0.  1.
</event>
<event>
 5   0  0.1435062E-05  0.2637542E+04  0.7818609E-02  0.8355560E-01
        1   -1    0    0  501    0  0.00000000000E+00  0.00000000000E+00  0.13944433907E+04  0.13944433907E+04  0.50400001928E-02 0. -1.
       -1   -1    0    0    0  501  0.00000000000E+00  0.00000000000E+00 -0.12472051212E+04  0.12472051212E+04  0.50400001928E-02 0.  1.
    10030    2    1    2    0    0  0.00000000000E+00  0.00000000000E+00  0.14723826943E+03  0.26416485119E+04  0.26375419907E+04 0.  0.
        2    1    3    3  502    0 -0.24974869797E+02  0.35811747527E+03 -0.11973266699E+04  0.12499852098E+04  0.25500000920E-02 0.  1.
       -2    1    3    3    0  502  0.24974869797E+02 -0.35811747527E+03  0.13445649394E+04  0.13916633021E+04  0.25500000920E-02 0. -1.
</event>
<event>
 5   0  0.3508470E-05  0.2572224E+04  0.7818609E-02  0.8377698E-01
        2   -1    0    0  501    0  0.00000000000E+00  0.00000000000E+00  0.22401460786E+04  0.22401460786E+04  0.25500000920E-02 0. -1.
       -2   -1    0    0    0  501  0.00000000000E+00  0.00000000000E+00 -0.73838238929E+03  0.73838238930E+03  0.25500000920E-02 0.  1.
    10030    2    1    2    0    0  0.00000000000E+00  0.00000000000E+00  0.15017636893E+04  0.29785284679E+04  0.25722242623E+04 0.  0.
        5    1    3    3  502    0  0.25496253365E+03  0.29511325511E+03  0.21700137788E+04  0.22047856171E+04  0.46999998093E+01 0. -1.
       -5    1    3    3    0  502 -0.25496253365E+03 -0.29511325511E+03 -0.66825008958E+03  0.77374285078E+03  0.46999998093E+01 0.  1.
</event>
<event>
 5   0  0.1474554E-05  0.2427948E+04  0.7818609E-02  0.8429114E-01
       -1   -1    0    0    0  501  0.00000000000E+00  0.00000000000E+00  0.12495585261E+04  0.12495585261E+04  0.50400001928E-02 0. -1.
        1   -1    0    0  501    0  0.00000000000E+00  0.00000000000E+00 -0.11794026314E+04  0.11794026314E+04  0.50400001928E-02 0.  1.
    10030    2    1    2    0    0  0.00000000000E+00  0.00000000000E+00  0.70155894695E+02  0.24289611575E+04  0.24279477867E+04 0.  0.
        5    1    3    3  502    0 -0.11211208972E+04 -0.43639722086E+03 -0.12733488667E+03  0.12097895949E+04  0.46999998093E+01 0.  1.
       -5    1    3    3    0  502  0.11211208972E+04  0.43639722086E+03  0.19749078136E+03  0.12191715627E+04  0.46999998093E+01 0. -1.
</event>
<event>
 5   0  0.1435062E-05  0.2620050E+04  0.7818609E-02  0.8361422E-01
       -1   -1    0    0    0  501  0.00000000000E+00  0.00000000000E+00  0.14054292166E+04  0.14054292167E+04  0.50400001928E-02 0. -1.
        1   -1    0    0  501    0  0.00000000000E+00  0.00000000000E+00 -0.12210970811E+04  0.12210970811E+04  0.50400001928E-02 0.  1.
    10030    2    1    2    0    0  0.00000000000E+00  0.00000000000E+00  0.18433213558E+03  0.26265262977E+04  0.26200500103E+04 0.  0.
        2    1    3    3  502    0  0.79654603842E+03 -0.82772357116E+03  0.72344766292E+03  0.13575670969E+04  0.25500000920E-02 0. -1.
       -2    1    3    3    0  502 -0.79654603842E+03  0.82772357116E+03 -0.53911552734E+03  0.12689592008E+04  0.25500000920E-02 0.  1.
</event>
<event>
 5   0  0.3508470E-05  0.2513497E+04  0.7818609E-02  0.8398193E-01
        2   -1    0    0  501    0  0.00000000000E+00  0.00000000000E+00  0.10583582156E+04  0.10583582156E+04  0.25500000920E-02 0. -1.
       -2   -1    0    0    0  501  0.00000000000E+00  0.00000000000E+00 -0.14923271932E+04  0.14923271932E+04  0.25500000920E-02 0.  1.
    10030    2    1    2    0    0  0.00000000000E+00  0.00000000000E+00 -0.43396897760E+03  0.25506854089E+04  0.25134969627E+04 0.  0.
        5    1    3    3  502    0 -0.91245171410E+03 -0.84524938782E+03 -0.34377692755E+02  0.12442743162E+04  0.46999998093E+01 0. -1.
       -5    1    3    3    0  502  0.91245171410E+03  0.84524938782E+03 -0.39959128484E+03  0.13064110927E+04  0.46999998093E+01 0.  1.
</event>
<event>
 5   0  0.3849687E-05  0.2098379E+04  0.7818609E-02  0.8561958E-01
       -2   -1    0    0    0  501  0.00000000000E+00  0.00000000000E+00  0.49431143071E+03  0.49431143072E+03  0.25500000920E-02 0. -1.
        2   -1    0    0  501    0  0.00000000000E+00  0.00000000000E+00 -0.22269340267E+04  0.22269340267E+04  0.25500000920E-02 0.  1.
    10030    2    1    2    0    0  0.00000000000E+00  0.00000000000E+00 -0.17326225960E+04  0.27212454575E+04  0.20983793221E+04 0.  0.
        1    1    3    3  502    0 -0.65166725113E+03 -0.73394512140E+03 -0.13471078013E+04  0.16667468542E+04  0.50400001928E-02 0. -1.
       -1    1    3    3    0  502  0.65166725113E+03  0.73394512140E+03 -0.38551479470E+03  0.10544986033E+04  0.50400001928E-02 0.  1.
</event>
<event>
 5   0  0.1435062E-05  0.2511785E+04  0.7818609E-02  0.8398799E-01
        1   -1    0    0  501    0  0.00000000000E+00  0.00000000000E+00  0.25407863106E+04  0.25407863106E+04  0.50400001928E-02 0.  1.
       -1   -1    0    0    0  501  0.00000000000E+00  0.00000000000E+00 -0.62077880503E+03  0.62077880505E+03  0.50400001928E-02 0. -1.
    10030    2    1    2    0    0  0.00000000000E+00  0.00000000000E+00  0.19200075056E+04  0.31615651157E+04  0.25117852534E+04 0.  0.
        2    1    3    3  502    0  0.62330108561E+03  0.66415203270E+03 -0.12835705804E+03  0.91982482040E+03  0.25500000920E-02 0. -1.
       -2    1    3    3    0  502 -0.62330108561E+03 -0.66415203270E+03  0.20483645636E+04  0.22417402952E+04  0.25500000920E-02 0.  1.
</event>
<event>
 5   0  0.3849687E-05  0.2595551E+04  0.7818609E-02  0.8369714E-01
        2   -1    0    0  501    0  0.00000000000E+00  0.00000000000E+00  0.21786296984E+04  0.21786296984E+04  0.25500000920E-02 0.  1.
       -2   -1    0    0    0  501  0.00000000000E+00  0.00000000000E+00 -0.77306423834E+03  0.77306423834E+03  0.25500000920E-02 0. -1.
    10030    2    1    2    0    0  0.00000000000E+00  0.00000000000E+00  0.14055654600E+04  0.29516939367E+04  0.25955505839E+04 0.  0.
        1    1    3    3  502    0 -0.84370737083E+03  0.14380238973E+03 -0.40662640094E+03  0.94755806410E+03  0.50400001928E-02 0. -1.
       -1    1    3    3    0  502  0.84370737083E+03 -0.14380238973E+03  0.18121918610E+04  0.20041358726E+04  0.50400001928E-02 0.  1.
</event>
<event>
 5   0  0.1533248E-05  0.2553289E+04  0.7818609E-02  0.8384243E-01
        1   -1    0    0  501    0  0.00000000000E+00  0.00000000000E+00  0.22742241644E+04  0.22742241644E+04  0.50400001928E-02 0.  1.
       -1   -1    0    0    0  501  0.00000000000E+00  0.00000000000E+00 -0.71664930298E+03  0.71664930300E+03  0.50400001928E-02 0. -1.
    10030    2    1    2    0    0  0.00000000000E+00  0.00000000000E+00  0.15575748615E+04  0.29908734674E+04  0.25532889866E+04 0.  0.
        4    1    3    3  502    0 -0.35246854580E+03 -0.11920525657E+04  0.11194884074E+04  0.16728655960E+04  0.12699999809E+01 0.  1.
       -4    1    3    3    0  502  0.35246854580E+03  0.11920525657E+04  0.43808645409E+03  0.13180078715E+04  0.12699999809E+01 0. -1.
</event>
<event>
 5   0  0.3647623E-05  0.2585827E+04  0.7818609E-02  0.8373031E-01
       -2   -1    0    0    0  501  0.00000000000E+00  0.00000000000E+00  0.91623635203E+03  0.91623635204E+03  0.25500000920E-02 0. -1.
        2   -1    0    0  501    0  0.00000000000E+00  0.00000000000E+00 -0.18244482526E+04  0.18244482526E+04  0.25500000920E-02 0.  1.
    10030    2    1    2    0    0  0.00000000000E+00  0.00000000000E+00 -0.90821190052E+03  0.27406846046E+04  0.25858273813E+04 0.  0.
        3    1    3    3  502    0  0.90637470010E+03 -0.75724893002E+03  0.10340339460E+03  0.11855940752E+04  0.10100000352E+00 0.  1.
       -3    1    3    3    0  502 -0.90637470010E+03  0.75724893002E+03 -0.10116152951E+04  0.15550905294E+04  0.10100000352E+00 0. -1.
</event>
<event>
 5   0  0.1533248E-05  0.2593906E+04  0.7818609E-02  0.8370274E-01
       -1   -1    0    0    0  501  0.00000000000E+00  0.00000000000E+00  0.11287856730E+04  0.11287856730E+04  0.50400001928E-02 0. -1.
        1   -1    0    0  501    0  0.00000000000E+00  0.00000000000E+00 -0.14901739784E+04  0.14901739784E+04  0.50400001928E-02 0.  1.
    10030    2    1    2    0    0  0.00000000000E+00  0.00000000000E+00 -0.36138830540E+03  0.26189596515E+04  0.25939059638E+04 0.  0.
        4    1    3    3  502    0  0.10147480815E+04  0.68646407314E+03  0.24902069624E+03  0.12501837915E+04  0.12699999809E+01 0. -1.
       -4    1    3    3    0  502 -0.10147480815E+04 -0.68646407314E+03 -0.61040900164E+03  0.13687758599E+04  0.12699999809E+01 0.  1.
</event>
<event>
 5   0  0.3647623E-05  0.2591228E+04  0.7818609E-02  0.8371187E-01
       -2   -1    0    0    0  501  0.00000000000E+00  0.00000000000E+00  0.11710545288E+04  0.11710545288E+04  0.25500000920E-02 0.  1.
        2   -1    0    0  501    0  0.00000000000E+00  0.00000000000E+00 -0.14334218850E+04  0.14334218850E+04  0.25500000920E-02 0. -1.
    10030    2    1    2    0    0  0.00000000000E+00  0.00000000000E+00 -0.26236735619E+03  0.26044764138E+04  0.25912276550E+04 0.  0.
        3    1    3    3  502    0  0.86825701789E+03 -0.83625694006E+03 -0.60839459421E+03  0.13503110425E+04  0.10100000352E+00 0. -1.
       -3    1    3    3    0  502 -0.86825701789E+03  0.83625694006E+03  0.34602723802E+03  0.12541653713E+04  0.10100000352E+00 0.  1.
</event>
<event>
 5   0  0.3441646E-05  0.2536097E+04  0.7818609E-02  0.8390238E-01
       -2   -1    0    0    0  501  0.00000000000E+00  0.00000000000E+00  0.70787128228E+03  0.70787128229E+03  0.25500000920E-02 0. -1.
        2   -1    0    0  501    0  0.00000000000E+00  0.00000000000E+00 -0.22715243159E+04  0.22715243159E+04  0.25500000920E-02 0.  1.
    10030    2    1    2    0    0  0.00000000000E+00  0.00000000000E+00 -0.15636530337E+04  0.29793955982E+04  0.25360968674E+04 0.  0.
        4    1    3    3  502    0  0.90664287563E+03  0.29179878744E+03 -0.17652907483E+04  0.20058416875E+04  0.12699999809E+01 0.  1.
       -4    1    3    3    0  502 -0.90664287563E+03 -0.29179878744E+03  0.20163771464E+03  0.97355391075E+03  0.12699999809E+01 0. -1.
</event>
<event>
 5   0  0.3499642E-05  0.2692402E+04  0.7818609E-02  0.8337475E-01
        2   -1    0    0  501    0  0.00000000000E+00  0.00000000000E+00  0.11501208693E+04  0.11501208693E+04  0.25500000920E-02 0. -1.
       -2   -1    0    0    0  501  0.00000000000E+00  0.00000000000E+00 -0.15757095699E+04  0.15757095699E+04  0.25500000920E-02 0.  1.
    10030    2    1    2    0    0  0.00000000000E+00  0.00000000000E+00 -0.42558870056E+03  0.27258304393E+04  0.26924015008E+04 0.  0.
        2    1    3    3  502    0  0.47601302685E+03  0.54757725910E+03  0.93522793311E+03  0.11836724814E+04  0.25500000920E-02 0. -1.
       -2    1    3    3    0  502 -0.47601302685E+03 -0.54757725910E+03 -0.13608166337E+04  0.15421579578E+04  0.25500000920E-02 0.  1.
</event>
<event>
 5   0  0.3499642E-05  0.2559274E+04  0.7818609E-02  0.8382168E-01
       -2   -1    0    0    0  501  0.00000000000E+00  0.00000000000E+00  0.96838601919E+03  0.96838601920E+03  0.25500000920E-02 0. -1.
        2   -1    0    0  501    0  0.00000000000E+00  0.00000000000E+00 -0.16909276788E+04  0.16909276788E+04  0.25500000920E-02 0.  1.
    10030    2    1    2    0    0  0.00000000000E+00  0.00000000000E+00 -0.72254165963E+03  0.26593136980E+04  0.25592738999E+04 0.  0.
        2    1    3    3  502    0  0.15907469244E+03  0.62134084275E+03  0.78930704619E+03  0.10170421888E+04  0.25500000920E-02 0. -1.
       -2    1    3    3    0  502 -0.15907469244E+03 -0.62134084275E+03 -0.15118487058E+04  0.16422715092E+04  0.25500000920E-02 0.  1.
</event>
<event>
 5   0  0.1533248E-05  0.2406770E+04  0.7818609E-02  0.8436973E-01
       -1   -1    0    0    0  501  0.00000000000E+00  0.00000000000E+00  0.19531695482E+04  0.19531695482E+04  0.50400001928E-02 0.  1.
        1   -1    0    0  501    0  0.00000000000E+00  0.00000000000E+00 -0.74142834007E+03  0.74142834009E+03  0.50400001928E-02 0. -1.
    10030    2    1    2    0    0  0.00000000000E+00  0.00000000000E+00  0.12117412082E+04  0.26945978883E+04  0.24067698320E+04 0.  0.
        4    1    3    3  502    0  0.66303784700E+03 -0.10025845725E+04  0.54117963513E+03  0.13182078827E+04  0.12699999809E+01 0.  1.
       -4    1    3    3    0  502 -0.66303784700E+03  0.10025845725E+04  0.67056157303E+03  0.13763900057E+04  0.12699999809E+01 0. -1.
</event>
<event>
 5   0  0.3499642E-05  0.2617121E+04  0.7818609E-02  0.8362409E-01
        2   -1    0    0  501    0  0.00000000000E+00  0.00000000000E+00  0.14905443196E+04  0.14905443196E+04  0.25500000920E-02 0. -1.
       -2   -1    0    0    0  501  0.00000000000E+00  0.00000000000E+00 -0.11487958467E+04  0.11487958467E+04  0.25500000920E-02 0.  1.
    10030    2    1    2    0    0  0.00000000000E+00  0.00000000000E+00  0.34174847297E+03  0.26393401663E+04  0.26171214138E+04 0.  0.
        2    1    3    3  502    0 -0.77077751642E+03  0.48033772482E+03 -0.77920063913E+03  0.11966519735E+04  0.25500000920E-02 0.  1.
       -2    1    3    3    0  502  0.77077751642E+03 -0.48033772482E+03  0.11209491121E+04  0.14426881928E+04  0.25500000920E-02 0. -1.
</event>
<event>
 5   0  0.3508470E-05  0.2621880E+04  0.7818609E-02  0.8360807E-01
        2   -1    0    0  501    0  0.00000000000E+00  0.00000000000E+00  0.68031147585E+03  0.68031147586E+03  0.25500000920E-02 0.  1.
       -2   -1    0    0    0  501  0.00000000000E+00  0.00000000000E+00 -0.25261415588E+04  0.25261415588E+04  0.25500000920E-02 0. -1.
    10030    2    1    2    0    0  0.00000000000E+00  0.00000000000E+00 -0.18458300829E+04  0.32064530346E+04  0.26218795488E+04 0.  0.
        5    1    3    3  502    0  0.84484796060E+03  0.72022860356E+03 -0.17755238187E+04  0.20940401712E+04  0.46999998093E+01 0. -1.
       -5    1    3    3    0  502 -0.84484796060E+03 -0.72022860356E+03 -0.70306264236E+02  0.11124128634E+04  0.46999998093E+01 0.  1.
</event>
<event>
 5   0  0.3508470E-05  0.2154988E+04  0.7818609E-02  0.8537400E-01
        2   -1    0    0  501    0  0.00000000000E+00  0.00000000000E+00  0.12061757267E+04  0.12061757267E+04  0.25500000920E-02 0. -1.
       -2   -1    0    0    0  501  0.00000000000E+00  0.00000000000E+00 -0.96254058107E+03  0.96254058107E+03  0.25500000920E-02 0.  1.
    10030    2    1    2    0    0  0.00000000000E+00  0.00000000000E+00  0.24363514560E+03  0.21687163077E+04  0.21549877817E+04 0.  0.
        5    1    3    3  502    0 -0.41470092943E+03  0.14997083578E+03  0.11111893324E+04  0.11955048870E+04  0.46999998093E+01 0. -1.
       -5    1    3    3    0  502  0.41470092943E+03 -0.14997083578E+03 -0.86755418678E+03  0.97321142074E+03  0.46999998093E+01 0.  1.
</event>
<event>
 5   0  0.3647623E-05  0.2273947E+04  0.7818609E-02  0.8488265E-01
        2   -1    0    0  501    0  0.00000000000E+00  0.00000000000E+00  0.62068046131E+03  0.62068046131E+03  0.25500000920E-02 0. -1.
       -2   -1    0    0    0  501  0.00000000000E+00  0.00000000000E+00 -0.20827276370E+04  0.20827276370E+04  0.25500000920E-02 0.  1.
    10030    2    1    2    0    0  0.00000000000E+00  0.00000000000E+00 -0.14620471757E+04  0.27034080983E+04  0.22739466577E+04 0.  0.
        3    1    3    3  502    0 -0.46615937203E+03  0.67452165371E+03  0.20540732937E+03  0.84526694164E+03  0.10100000352E+00 0. -1.
       -3    1    3    3    0  502  0.46615937203E+03 -0.67452165371E+03 -0.16674545050E+04  0.18581411566E+04  0.10100000352E+00 0.  1.
</event>
<event>
 5   0  0.1474554E-05  0.2618285E+04  0.7818609E-02  0.8362017E-01
       -1   -1    0    0    0  501  0.00000000000E+00  0.00000000000E+00  0.22072470545E+04  0.22072470545E+04  0.50400001928E-02 0.  1.
        1   -1    0    0  501    0  0.00000000000E+00  0.00000000000E+00 -0.77646690829E+03  0.77646690831E+03  0.50400001928E-02 0. -1.
    10030    2    1    2    0    0  0.00000000000E+00  0.00000000000E+00  0.14307801462E+04  0.29837139628E+04  0.26182851611E+04 0.  0.
        5    1    3    3  502    0 -0.11973796723E+03 -0.12125870472E+04  0.16990983732E+03  0.12302828824E+04  0.46999998093E+01 0.  1.
       -5    1    3    3    0  502  0.11973796723E+03  0.12125870472E+04  0.12608703089E+04  0.17534310804E+04  0.46999998093E+01 0. -1.
</event>
<event>
 5   0  0.1451052E-05  0.2623278E+04  0.7818609E-02  0.8360337E-01
       -1   -1    0    0    0  501  0.00000000000E+00  0.00000000000E+00  0.99429818029E+03  0.99429818031E+03  0.50400001928E-02 0.  1.
        1   -1    0    0  501    0  0.00000000000E+00  0.00000000000E+00 -0.17302624179E+04  0.17302624179E+04  0.50400001928E-02 0. -1.
    10030    2    1    2    0    0  0.00000000000E+00  0.00000000000E+00 -0.73596423756E+03  0.27245605982E+04  0.26232779293E+04 0.  0.
        1    1    3    3  502    0 -0.85748152255E+03  0.98527640858E+03 -0.49240997506E+03  0.13958910224E+04  0.50400001928E-02 0.  1.
       -1    1    3    3    0  502  0.85748152255E+03 -0.98527640858E+03 -0.24355426251E+03  0.13286695758E+04  0.50400001928E-02 0. -1.
</event>
<event>
 5   0  0.3647623E-05  0.2526405E+04  0.7818609E-02  0.8393639E-01
       -2   -1    0    0    0  501  0.00000000000E+00  0.00000000000E+00  0.96173141114E+03  0.96173141114E+03  0.25500000920E-02 0.  1.
        2   -1    0    0  501    0  0.00000000000E+00  0.00000000000E+00 -0.16591747261E+04  0.16591747261E+04  0.25500000920E-02 0. -1.
    10030    2    1    2    0    0  0.00000000000E+00  0.00000000000E+00 -0.69744331497E+03  0.26209061373E+04  0.25264049166E+04 0.  0.
        3    1    3    3  502    0 -0.35505522703E+02  0.12159959631E+04 -0.70170426689E+03  0.14043844604E+04  0.10100000352E+00 0.  1.
       -3    1    3    3    0  502  0.35505522703E+02 -0.12159959631E+04  0.42609519207E+01  0.12165216768E+04  0.10100000352E+00 0. -1.
</event>
<event>
 5   0  0.1435062E-05  0.2610311E+04  0.7818609E-02  0.8364707E-01
        1   -1    0    0  501    0  0.00000000000E+00  0.00000000000E+00  0.10753471419E+04  0.10753471419E+04  0.50400001928E-02 0. -1.
       -1   -1    0    0    0  501  0.00000000000E+00  0.00000000000E+00 -0.15840754014E+04  0.15840754014E+04  0.50400001928E-02 0.  1.
    10030    2    1    2    0    0  0.00000000000E+00  0.00000000000E+00 -0.50872825948E+03  0.26594225432E+04  0.26103110584E+04 0.  0.
        2    1    3    3  502    0 -0.95706560434E+03 -0.25919335722E+03 -0.11190220219E+04  0.14951140601E+04  0.25500000920E-02 0.  1.
       -2    1    3    3    0  502  0.95706560434E+03  0.25919335722E+03  0.61029376237E+03  0.11643084831E+04  0.25500000920E-02 0. -1.
</event>
<event>
 5   0  0.3441646E-05  0.2497578E+04  0.7818609E-02  0.8403849E-01
        2   -1    0    0  501    0  0.00000000000E+00  0.00000000000E+00  0.17984733556E+04  0.17984733556E+04  0.25500000920E-02 0.  1.
       -2   -1    0    0    0  501  0.00000000000E+00  0.00000000000E+00 -0.86711005863E+03  0.86711005863E+03  0.25500000920E-02 0. -1.
    10030    2    1    2    0    0  0.00000000000E+00  0.00000000000E+00  0.93136329698E+03  0.26655834142E+04  0.24975782965E+04 0.  0.
        4    1    3    3  502    0 -0.55723177463E+03 -0.77982616063E+03  0.13200533013E+04  0.16313118717E+04  0.12699999809E+01 0.  1.
       -4    1    3    3    0  502  0.55723177463E+03  0.77982616063E+03 -0.38869000431E+03  0.10342715426E+04  0.12699999809E+01 0. -1.
</event>
<event>
 5   0  0.1533248E-05  0.2666516E+04  0.7818609E-02  0.8345952E-01
       -1   -1    0    0    0  501  0.00000000000E+00  0.00000000000E+00  0.12196281857E+04  0.12196281857E+04  0.50400001928E-02 0. -1.
        1   -1    0    0  501    0  0.00000000000E+00  0.00000000000E+00 -0.14574747075E+04  0.14574747075E+04  0.50400001928E-02 0.  1.
    10030    2    1    2    0    0  0.00000000000E+00  0.00000000000E+00 -0.23784652179E+03  0.26771028932E+04  0.26665162540E+04 0.  0.
        4    1    3    3  502    0 -0.74211768405E+03 -0.80731432691E+03 -0.88027468496E+03  0.14061935192E+04  0.12699999809E+01 0.  1.
       -4    1    3    3    0  502  0.74211768405E+03  0.80731432691E+03  0.64242816317E+03  0.12709093741E+04  0.12699999809E+01 0. -1.
</event>
<event>
 5   0  0.3441646E-05  0.2572616E+04  0.7818609E-02  0.8377563E-01
        2   -1    0    0  501    0  0.00000000000E+00  0.00000000000E+00  0.17945626420E+04  0.17945626420E+04  0.25500000920E-02 0.  1.
       -2   -1    0    0    0  501  0.00000000000E+00  0.00000000000E+00 -0.92200078260E+03  0.92200078260E+03  0.25500000920E-02 0. -1.
    10030    2    1    2    0    0  0.00000000000E+00  0.00000000000E+00  0.87256185939E+03  0.27165634246E+04  0.25726159141E+04 0.  0.
        4    1    3    3  502    0  0.91266893950E+03 -0.97671066454E+02 -0.51529823473E+03  0.10526338936E+04  0.12699999809E+01 0. -1.
       -4    1    3    3    0  502 -0.91266893950E+03  0.97671066454E+02  0.13878600941E+04  0.16639295310E+04  0.12699999809E+01 0.  1.
</event>
<event>
 5   0  0.3849687E-05  0.2619602E+04  0.7818609E-02  0.8361573E-01
       -2   -1    0    0    0  501  0.00000000000E+00  0.00000000000E+00  0.12252695083E+04  0.12252695083E+04  0.25500000920E-02 0. -1.
        2   -1    0    0  501    0  0.00000000000E+00  0.00000000000E+00 -0.14001644817E+04  0.14001644817E+04  0.25500000920E-02 0.  1.
    10030    2    1    2    0    0  0.00000000000E+00  0.00000000000E+00 -0.17489497338E+03  0.26254339901E+04  0.26196021424E+04 0.  0.
        1    1    3    3  502    0 -0.11135261513E+04 -0.20379360399E+03  0.57288691379E+03  0.12687283944E+04  0.50400001928E-02 0. -1.
       -1    1    3    3    0  502  0.11135261513E+04  0.20379360399E+03 -0.74778188717E+03  0.13567055957E+04  0.50400001928E-02 0.  1.
</event>
<event>
 5   0  0.3499642E-05  0.2632554E+04  0.7818609E-02  0.8357227E-01
       -2   -1    0    0    0  501  0.00000000000E+00  0.00000000000E+00  0.11674265514E+04  0.11674265514E+04  0.25500000920E-02 0.  1.
        2   -1    0    0  501    0  0.00000000000E+00  0.00000000000E+00 -0.14841065964E+04  0.14841065964E+04  0.25500000920E-02 0. -1.
    10030    2    1    2    0    0  0.00000000000E+00  0.00000000000E+00 -0.31668004500E+03  0.26515331478E+04  0.26325542317E+04 0.  0.
        2    1    3    3  502    0  0.78116520853E+03  0.36628934634E+03 -0.11595883978E+04  0.14453484772E+04  0.25500000920E-02 0. -1.
       -2    1    3    3    0  502 -0.78116520853E+03 -0.36628934634E+03  0.84290835279E+03  0.12061846706E+04  0.25500000920E-02 0.  1.
</event>
<event>
 5   0  0.1497497E-05  0.2599515E+04  0.7818609E-02  0.8368366E-01
       -1   -1    0    0    0  501  0.00000000000E+00  0.00000000000E+00  0.76417214204E+03  0.76417214205E+03  0.50400001928E-02 0.  1.
        1   -1    0    0  501    0  0.00000000000E+00  0.00000000000E+00 -0.22107188760E+04  0.22107188760E+04  0.50400001928E-02 0. -1.
    10030    2    1    2    0    0  0.00000000000E+00  0.00000000000E+00 -0.14465467339E+04  0.29748910180E+04  0.25995151694E+04 0.  0.
        3    1    3    3  502    0 -0.15490194470E+03  0.42041506465E+03 -0.21195502648E+04  0.21663879557E+04  0.10100000352E+00 0. -1.
       -3    1    3    3    0  502  0.15490194470E+03 -0.42041506465E+03  0.67300353090E+03  0.80850306237E+03  0.10100000352E+00 0.  1.
</event>
<event>
 5   0  0.1451052E-05  0.2638757E+04  0.7818609E-02  0.8355154E-01
       -1   -1    0    0    0  501  0.00000000000E+00  0.00000000000E+00  0.75594250679E+03  0.75594250680E+03  0.50400001928E-02 0. -1.
        1   -1    0    0  501    0  0.00000000000E+00  0.00000000000E+00 -0.23027665023E+04  0.23027665023E+04  0.50400001928E-02 0.  1.
    10030    2    1    2    0    0  0.00000000000E+00  0.00000000000E+00 -0.15468239955E+04  0.30587090091E+04  0.26387565877E+04 0.  0.
        1    1    3    3  502    0 -0.11765234846E+04 -0.87172491373E+02 -0.88677818130E+02  0.11830766283E+04  0.50400001928E-02 0. -1.
       -1    1    3    3    0  502  0.11765234846E+04  0.87172491373E+02 -0.14581461774E+04  0.18756323807E+04  0.50400001928E-02 0.  1.
</event>
<event>
 5   0  0.1435062E-05  0.2596790E+04  0.7818609E-02  0.8369292E-01
       -1   -1    0    0    0  501  0.00000000000E+00  0.00000000000E+00  0.79214772989E+03  0.79214772990E+03  0.50400001928E-02 0.  1.
        1   -1    0    0  501    0  0.00000000000E+00  0.00000000000E+00 -0.21281754693E+04  0.21281754694E+04  0.50400001928E-02 0. -1.
    10030    2    1    2    0    0  0.00000000000E+00  0.00000000000E+00 -0.13360277395E+04  0.29203231993E+04  0.25967898389E+04 0.  0.
        2    1    3    3  502    0  0.35631723228E+03 -0.85056199194E+03  0.35987080430E+03  0.98991144450E+03  0.25500000920E-02 0.  1.
       -2    1    3    3    0  502 -0.35631723228E+03  0.85056199194E+03 -0.16958985438E+04  0.19304117548E+04  0.25500000920E-02 0. -1.
</event>
<event>
 5   0  0.3499642E-05  0.2486098E+04  0.7818609E-02  0.8407955E-01
       -2   -1    0    0    0  501  0.00000000000E+00  0.00000000000E+00  0.13883994915E+04  0.13883994915E+04  0.25500000920E-02 0. -1.
        2   -1    0    0  501    0  0.00000000000E+00  0.00000000000E+00 -0.11129152894E+04  0.11129152894E+04  0.25500000920E-02 0.  1.
    10030    2    1    2    0    0  0.00000000000E+00  0.00000000000E+00  0.27548420208E+03  0.25013147809E+04  0.24860981653E+04 0.  0.
        2    1    3    3  502    0  0.68394843312E+03  0.65190040833E+03 -0.67492158511E+03  0.11611540585E+04  0.25500000920E-02 0.  1.
       -2    1    3    3    0  502 -0.68394843312E+03 -0.65190040833E+03  0.95040578719E+03  0.13401607224E+04  0.25500000920E-02 0. -1.
</event>
<event>
 5   0  0.3508470E-05  0.2615827E+04  0.7818609E-02  0.8362845E-01
        2   -1    0    0  501    0  0.00000000000E+00  0.00000000000E+00  0.15648321006E+04  0.15648321006E+04  0.25500000920E-02 0. -1.
       -2   -1    0    0    0  501  0.00000000000E+00  0.00000000000E+00 -0.10931767834E+04  0.10931767834E+04  0.25500000920E-02 0.  1.
    10030    2    1    2    0    0  0.00000000000E+00  0.00000000000E+00  0.47165531712E+03  0.26580088840E+04  0.26158273049E+04 0.  0.
        5    1    3    3  502    0  0.65966192022E+03 -0.16225984286E+03  0.13714968946E+04  0.15305253763E+04  0.46999998093E+01 0. -1.
       -5    1    3    3    0  502 -0.65966192022E+03  0.16225984286E+03 -0.89984157748E+03  0.11274835077E+04  0.46999998093E+01 0.  1.
</event>
<event>
 5   0  0.1451052E-05  0.2591117E+04  0.7818609E-02  0.8371225E-01
       -1   -1    0    0    0  501  0.00000000000E+00  0.00000000000E+00  0.93345834936E+03  0.93345834937E+03  0.50400001928E-02 0. -1.
        1   -1    0    0  501    0  0.00000000000E+00  0.00000000000E+00 -0.17981219081E+04  0.17981219081E+04  0.50400001928E-02 0.  1.
    10030    2    1    2    0    0  0.00000000000E+00  0.00000000000E+00 -0.86466355870E+03  0.27315802574E+04  0.25911170628E+04 0.  0.
        1    1    3    3  502    0 -0.68936075812E+03  0.10540863676E+04 -0.75235961663E+03  0.14670928116E+04  0.50400001928E-02 0.  1.
       -1    1    3    3    0  502  0.68936075812E+03 -0.10540863676E+04 -0.11230394206E+03  0.12644874458E+04  0.50400001928E-02 0. -1.
</event>
<event>
 5   0  0.3849687E-05  0.2585187E+04  0.7818609E-02  0.8373250E-01
       -2   -1    0    0    0  501  0.00000000000E+00  0.00000000000E+00  0.13100989473E+04  0.13100989473E+04  0.25500000920E-02 0. -1.
        2   -1    0    0  501    0  0.00000000000E+00  0.00000000000E+00 -0.12753218479E+04  0.12753218479E+04  0.25500000920E-02 0.  1.
    10030    2    1    2    0    0  0.00000000000E+00  0.00000000000E+00  0.34777099315E+02  0.25854207952E+04  0.25851868872E+04 0.  0.
        1    1    3    3  502    0  0.87198229555E+03  0.17777587286E+03  0.95493826462E+03  0.13053215979E+04  0.50400001928E-02 0.  1.
       -1    1    3    3    0  502 -0.87198229555E+03 -0.17777587286E+03 -0.92016116530E+03  0.12800991973E+04  0.50400001928E-02 0. -1.
</event>
<event>
 5   0  0.1451052E-05  0.2496628E+04  0.7818609E-02  0.8404188E-01
        1   -1    0    0  501    0  0.00000000000E+00  0.00000000000E+00  0.18999056550E+04  0.18999056550E+04  0.50400001928E-02 0. -1.
       -1   -1    0    0    0  501  0.00000000000E+00  0.00000000000E+00 -0.82019228150E+03  0.82019228152E+03  0.50400001928E-02 0.  1.
    10030    2    1    2    0    0  0.00000000000E+00  0.00000000000E+00  0.10797133735E+04  0.27200979365E+04  0.24966280891E+04 0.  0.
        1    1    3    3  502    0 -0.56032472360E+03 -0.62458811493E+03 -0.46710742278E+03  0.96034548660E+03  0.50400001928E-02 0.  1.
       -1    1    3    3    0  502  0.56032472360E+03  0.62458811493E+03  0.15468207963E+04  0.17597524499E+04  0.50400001928E-02 0. -1.
</event>
<event>
 5   0  0.3508470E-05  0.2715993E+04  0.7818609E-02  0.8329835E-01
       -2   -1    0    0    0  501  0.00000000000E+00  0.00000000000E+00  0.98180177860E+03  0.98180177860E+03  0.25500000920E-02 0.  1.
        2   -1    0    0  501    0  0.00000000000E+00  0.00000000000E+00 -0.18783363101E+04  0.18783363101E+04  0.25500000920E-02 0. -1.
    10030    2    1    2    0    0  0.00000000000E+00  0.00000000000E+00 -0.89653453151E+03  0.28601380887E+04  0.27159925847E+04 0.  0.
        5    1    3    3  502    0 -0.11058179478E+04  0.40770613425E+03  0.26212714477E+03  0.12073898938E+04  0.46999998093E+01 0.  1.
       -5    1    3    3    0  502  0.11058179478E+04 -0.40770613425E+03 -0.11586616763E+04  0.16527481949E+04  0.46999998093E+01 0. -1.
</event>
<event>
 5   0  0.3441646E-05  0.2623106E+04  0.7818609E-02  0.8360395E-01
       -2   -1    0    0    0  501  0.00000000000E+00  0.00000000000E+00  0.15023877304E+04  0.15023877304E+04  0.25500000920E-02 0.  1.
        2   -1    0    0  501    0  0.00000000000E+00  0.00000000000E+00 -0.11449584985E+04  0.11449584985E+04  0.25500000920E-02 0. -1.
    10030    2    1    2    0    0  0.00000000000E+00  0.00000000000E+00  0.35742923189E+03  0.26473462289E+04  0.26231062502E+04 0.  0.
        4    1    3    3  502    0  0.12528256073E+03 -0.11224919280E+04 -0.49414423904E+03  0.12328276402E+04  0.12699999809E+01 0. -1.
       -4    1    3    3    0  502 -0.12528256073E+03  0.11224919280E+04  0.85157347093E+03  0.14145185887E+04  0.12699999809E+01 0.  1.
</event>
<event>
 5   0  0.3508470E-05  0.2479989E+04  0.7818609E-02  0.8410149E-01
        2   -1    0    0  501    0  0.00000000000E+00  0.00000000000E+00  0.59776354328E+03  0.59776354329E+03  0.25500000920E-02 0.  1.
       -2   -1    0    0    0  501  0.00000000000E+00  0.00000000000E+00 -0.25722316295E+04  0.25722316295E+04  0.25500000920E-02 0. -1.
    10030    2    1    2    0    0  0.00000000000E+00  0.00000000000E+00 -0.19744680862E+04  0.31699951728E+04  0.24799889459E+04 0.  0.
        5    1    3    3  502    0  0.12281027241E+04  0.71593645532E+02 -0.78837893802E+03  0.14611383887E+04  0.46999998093E+01 0. -1.
       -5    1    3    3    0  502 -0.12281027241E+04 -0.71593645532E+02 -0.11860891482E+04  0.17088567841E+04  0.46999998093E+01 0.  1.
</event>
<event>
 5   0  0.3508470E-05  0.2570794E+04  0.7818609E-02  0.8378190E-01
        2   -1    0    0  501    0  0.00000000000E+00  0.00000000000E+00  0.19727559610E+04  0.19727559610E+04  0.25500000920E-02 0.  1.
       -2   -1    0    0    0  501  0.00000000000E+00  0.00000000000E+00 -0.83753166559E+03  0.83753166560E+03  0.25500000920E-02 0. -1.
    10030    2    1    2    0    0  0.00000000000E+00  0.00000000000E+00  0.11352242954E+04  0.28102876266E+04  0.25707941075E+04 0.  0.
        5    1    3    3  502    0 -0.93938437387E+03  0.49312878239E+03 -0.22566648690E+03  0.10846964788E+04  0.46999998093E+01 0. -1.
       -5    1    3    3    0  502  0.93938437387E+03 -0.49312878239E+03  0.13608907823E+04  0.17255911478E+04  0.46999998093E+01 0.  1.
</event>
<event>
 5   0  0.1435062E-05  0.2599512E+04  0.7818609E-02  0.8368367E-01
       -1   -1    0    0    0  501  0.00000000000E+00  0.00000000000E+00  0.67693657952E+03  0.67693657954E+03  0.50400001928E-02 0.  1.
        1   -1    0    0  501    0  0.00000000000E+00  0.00000000000E+00 -0.24956047624E+04  0.24956047624E+04  0.50400001928E-02 0. -1.
    10030    2    1    2    0    0  0.00000000000E+00  0.00000000000E+00 -0.18186681828E+04  0.31725413419E+04  0.25995123787E+04 0.  0.
        2    1    3    3  502    0  0.16991381815E+03 -0.36705985739E+03  0.59817128490E+03  0.72208900462E+03  0.25500000920E-02 0.  1.
       -2    1    3    3    0  502 -0.16991381815E+03  0.36705985739E+03 -0.24168394677E+04  0.24504523373E+04  0.25500000920E-02 0. -1.
</event>
<event>
 5   0  0.3849687E-05  0.2641169E+04  0.7818609E-02  0.8354350E-01
       -2   -1    0    0    0  501  0.00000000000E+00  0.00000000000E+00  0.74693940525E+03  0.74693940526E+03  0.25500000920E-02 0.  1.
        2   -1    0    0  501    0  0.00000000000E+00  0.00000000000E+00 -0.23347859253E+04  0.23347859253E+04  0.25500000920E-02 0. -1.
    10030    2    1    2    0    0  0.00000000000E+00  0.00000000000E+00 -0.15878465201E+04  0.30817253306E+04  0.26411691430E+04 0.  0.
        1    1    3    3  502    0 -0.10083788617E+04 -0.70126850676E+02 -0.17854988476E+04  0.20517679787E+04  0.50400001928E-02 0. -1.
       -1    1    3    3    0  502  0.10083788617E+04  0.70126850676E+02  0.19765232751E+03  0.10299573518E+04  0.50400001928E-02 0.  1.
</event>
<event>
 5   0  0.1435062E-05  0.2572280E+04  0.7818609E-02  0.8377678E-01
       -1   -1    0    0    0  501  0.00000000000E+00  0.00000000000E+00  0.10300674103E+04  0.10300674103E+04  0.50400001928E-02 0.  1.
        1   -1    0    0  501    0  0.00000000000E+00  0.00000000000E+00 -0.16058717584E+04  0.16058717584E+04  0.50400001928E-02 0. -1.
    10030    2    1    2    0    0  0.00000000000E+00  0.00000000000E+00 -0.57580434803E+03  0.26359391687E+04  0.25722800497E+04 0.  0.
        2    1    3    3  502    0 -0.92898946910E+03  0.82077332371E+03  0.63312784080E+02  0.12412488837E+04  0.25500000920E-02 0.  1.
       -2    1    3    3    0  502  0.92898946910E+03 -0.82077332371E+03 -0.63911713211E+03  0.13946902850E+04  0.25500000920E-02 0. -1.
</event>
<event>
 5   0  0.3441646E-05  0.2623799E+04  0.7818609E-02  0.8360162E-01
       -2   -1    0    0    0  501  0.00000000000E+00  0.00000000000E+00  0.89353619661E+03  0.89353619662E+03  0.25500000920E-02 0. -1.
        2   -1    0    0  501    0  0.00000000000E+00  0.00000000000E+00 -0.19261455654E+04  0.19261455654E+04  0.25500000920E-02 0.  1.
    10030    2    1    2    0    0  0.00000000000E+00  0.00000000000E+00 -0.10326093688E+04  0.28196817621E+04  0.26237993694E+04 0.  0.
        4    1    3    3  502    0  0.77038535025E+03 -0.41930037555E+03  0.53211728116E+03  0.10258931751E+04  0.12699999809E+01 0. -1.
       -4    1    3    3    0  502 -0.77038535025E+03  0.41930037555E+03 -0.15647266500E+04  0.17937885870E+04  0.12699999809E+01 0.  1.
</event>
<event>
 5   0  0.1497497E-05  0.2493618E+04  0.7818609E-02  0.8405263E-01
        1   -1    0    0  501    0  0.00000000000E+00  0.00000000000E+00  0.14331545919E+04  0.14331545919E+04  0.50400001928E-02 0.  1.
       -1   -1    0    0    0  501  0.00000000000E+00  0.00000000000E+00 -0.10846929922E+04  0.10846929923E+04  0.50400001928E-02 0. -1.
    10030    2    1    2    0    0  0.00000000000E+00  0.00000000000E+00  0.34846159968E+03  0.25178475842E+04  0.24936180483E+04 0.  0.
        3    1    3    3  502    0  0.91744144783E+03 -0.26757995222E+03  0.98278302581E+03  0.13708246887E+04  0.10100000352E+00 0.  1.
       -3    1    3    3    0  502 -0.91744144783E+03  0.26757995222E+03 -0.63432142613E+03  0.11470228955E+04  0.10100000352E+00 0. -1.
</event>
<event>
 5   0  0.3647623E-05  0.2600133E+04  0.7818609E-02  0.8368156E-01
       -2   -1    0    0    0  501  0.00000000000E+00  0.00000000000E+00  0.17898896414E+04  0.17898896414E+04  0.25500000920E-02 0. -1.
        2   -1    0    0  501    0  0.00000000000E+00  0.00000000000E+00 -0.94428912155E+03  0.94428912155E+03  0.25500000920E-02 0.  1.
    10030    2    1    2    0    0  0.00000000000E+00  0.00000000000E+00  0.84560051981E+03  0.27341787629E+04  0.26001333174E+04 0.  0.
        3    1    3    3  502    0  0.31075042124E+03  0.88253241970E+03 -0.52636509485E+03  0.10735406464E+04  0.10100000352E+00 0. -1.
       -3    1    3    3    0  502 -0.31075042124E+03 -0.88253241970E+03  0.13719656147E+04  0.16606381165E+04  0.10100000352E+00 0.  1.
</event>
<event>
 5   0  0.1533248E-05  0.2599339E+04  0.7818609E-02  0.8368426E-01
       -1   -1    0    0    0  501  0.00000000000E+00  0.00000000000E+00  0.13489465557E+04  0.13489465557E+04  0.50400001928E-02 0. -1.
        1   -1    0    0  501    0  0.00000000000E+00  0.00000000000E+00 -0.12521922676E+04  0.12521922676E+04  0.50400001928E-02 0.  1.
    10030    2    1    2    0    0  0.00000000000E+00  0.00000000000E+00  0.96754288119E+02  0.26011388233E+04  0.25993387209E+04 0.  0.
        4    1    3    3  502    0  0.12721239382E+03  0.38588504304E+03  0.12837557026E+04  0.13465216584E+04  0.12699999809E+01 0. -1.
       -4    1    3    3    0  502 -0.12721239382E+03 -0.38588504304E+03 -0.11870014145E+04  0.12546171649E+04  0.12699999809E+01 0.  1.
</event>
<event>
 5   0  0.3849687E-05  0.2267343E+04  0.7818609E-02  0.8490910E-01
        2   -1    0    0  501    0  0.00000000000E+00  0.00000000000E+00  0.21365637109E+04  0.21365637109E+04  0.25500000920E-02 0. -1.
       -2   -1    0    0    0  501  0.00000000000E+00  0.00000000000E+00 -0.60153208371E+03  0.60153208371E+03  0.25500000920E-02 0.  1.
    10030    2    1    2    0    0  0.00000000000E+00  0.00000000000E+00  0.15350316272E+04  0.27380957947E+04  0.22673434861E+04 0.  0.
        1    1    3    3  502    0 -0.57915294505E+03 -0.51556354455E+03  0.17662627786E+04  0.19289655532E+04  0.50400001928E-02 0.  1.
       -1    1    3    3    0  502  0.57915294505E+03  0.51556354455E+03 -0.23123115140E+03  0.80913024146E+03  0.50400001928E-02 0. -1.
</event>
<event>
 5   0  0.1474554E-05  0.2577140E+04  0.7818609E-02  0.8376008E-01
        1   -1    0    0  501    0  0.00000000000E+00  0.00000000000E+00  0.87414348980E+03  0.87414348982E+03  0.50400001928E-02 0. -1.
       -1   -1    0    0    0  501  0.00000000000E+00  0.00000000000E+00 -0.18994742497E+04  0.18994742497E+04  0.50400001928E-02 0.  1.
    10030    2    1    2    0    0  0.00000000000E+00  0.00000000000E+00 -0.10253307599E+04  0.27736177396E+04  0.25771403140E+04 0.  0.
        5    1    3    3  502    0  0.89765638934E+03  0.23369969481E+03  0.44994467023E+03  0.10309582130E+04  0.46999998093E+01 0. -1.
       -5    1    3    3    0  502 -0.89765638934E+03 -0.23369969481E+03 -0.14752754302E+04  0.17426595266E+04  0.46999998093E+01 0.  1.
</event>
<event>
 5   0  0.1533248E-05  0.2588579E+04  0.7818609E-02  0.8372091E-01
       -1   -1    0    0    0  501  0.00000000000E+00  0.00000000000E+00  0.10535235456E+04  0.10535235457E+04  0.50400001928E-02 0.  1.
        1   -1    0    0  501    0  0.00000000000E+00  0.00000000000E+00 -0.15900789174E+04  0.15900789174E+04  0.50400001928E-02 0. -1.
    10030    2    1    2    0    0  0.00000000000E+00  0.00000000000E+00 -0.53655537179E+03  0.26436024631E+04  0.25885792080E+04 0.  0.
        4    1    3    3  502    0 -0.10341937836E+04 -0.48360946378E+02 -0.10615041186E+04  0.14827974136E+04  0.12699999809E+01 0. -1.
       -4    1    3    3    0  502  0.10341937836E+04  0.48360946378E+02  0.52494874680E+03  0.11608050495E+04  0.12699999809E+01 0.  1.
</event>
<event>
 5   0  0.3647623E-05  0.2214163E+04  0.7818609E-02  0.8512556E-01
       -2   -1    0    0    0  501  0.00000000000E+00  0.00000000000E+00  0.12673206860E+04  0.12673206860E+04  0.25500000920E-02 0. -1.
        2   -1    0    0  501    0  0.00000000000E+00  0.00000000000E+00 -0.96710307235E+03  0.96710307235E+03  0.25500000920E-02 0.  1.
    10030    2    1    2    0    0  0.00000000000E+00  0.00000000000E+00  0.30021761370E+03  0.22344237584E+04  0.22141632543E+04 0.  0.
        3    1    3    3  502    0  0.24623287948E+03 -0.93631017679E+03 -0.39176112035E+03  0.10444061297E+04  0.10100000352E+00 0.  1.
       -3    1    3    3    0  502 -0.24623287948E+03  0.93631017679E+03  0.69197873405E+03  0.11900176287E+04  0.10100000352E+00 0. -1.
</event>
<event>
 5   0  0.1474554E-05  0.2600580E+04  0.7818609E-02  0.8368004E-01
        1   -1    0    0  501    0  0.00000000000E+00  0.00000000000E+00  0.11655843294E+04  0.11655843294E+04  0.50400001928E-02 0. -1.
       -1   -1    0    0    0  501  0.00000000000E+00  0.00000000000E+00 -0.14505634317E+04  0.14505634317E+04  0.50400001928E-02 0.  1.
    10030    2    1    2    0    0  0.00000000000E+00  0.00000000000E+00 -0.28497910227E+03  0.26161477611E+04  0.26005799390E+04 0.  0.
        5    1    3    3  502    0  0.69390837452E+03  0.86539745318E+03 -0.82501275737E+03  0.13824216882E+04  0.46999998093E+01 0.  1.
       -5    1    3    3    0  502 -0.69390837452E+03 -0.86539745318E+03  0.54003365510E+03  0.12337260729E+04  0.46999998093E+01 0. -1.
</event>
<event>
 5   0  0.1497497E-05  0.2606436E+04  0.7818609E-02  0.8366018E-01
        1   -1    0    0  501    0  0.00000000000E+00  0.00000000000E+00  0.17278828785E+04  0.17278828785E+04  0.50400001928E-02 0.  1.
       -1   -1    0    0    0  501  0.00000000000E+00  0.00000000000E+00 -0.98292369381E+03  0.98292369382E+03  0.50400001928E-02 0. -1.
    10030    2    1    2    0    0  0.00000000000E+00  0.00000000000E+00  0.74495918468E+03  0.27108065723E+04  0.26064358971E+04 0.  0.
        3    1    3    3  502    0  0.11189838877E+04  0.55634481399E+03  0.75706020585E+03  0.14610902294E+04  0.10100000352E+00 0. -1.
       -3    1    3    3    0  502 -0.11189838877E+04 -0.55634481399E+03 -0.12101021167E+02  0.12497163429E+04  0.10100000352E+00 0.  1.
</event>
<event>
 5   0  0.1435062E-05  0.2448988E+04  0.7818609E-02  0.8421388E-01
        1   -1    0    0  501    0  0.00000000000E+00  0.00000000000E+00  0.19780292457E+04  0.19780292457E+04  0.50400001928E-02 0.  1.
       -1   -1    0    0    0  501  0.00000000000E+00  0.00000000000E+00 -0.75801978886E+03  0.75801978888E+03  0.50400001928E-02 0. -1.
    10030    2    1    2    0    0  0.00000000000E+00  0.00000000000E+00  0.12200094569E+04  0.27360490346E+04  0.24489878001E+04 0.  0.
        2    1    3    3  502    0 -0.11437794434E+04  0.35769424387E+03  0.32912152718E+03  0.12427781648E+04  0.25500000920E-02 0. -1.
       -2    1    3    3    0  502  0.11437794434E+04 -0.35769424387E+03  0.89088792970E+03  0.14932708698E+04  0.25500000920E-02 0.  1.
</event>
<event>
 5   0  0.3499642E-05  0.2491564E+04  0.7818609E-02  0.8405997E-01
        2   -1    0    0  501    0  0.00000000000E+00  0.00000000000E+00  0.12798524922E+04  0.12798524922E+04  0.25500000920E-02 0. -1.
       -2   -1    0    0    0  501  0.00000000000E+00  0.00000000000E+00 -0.12126183335E+04  0.12126183335E+04  0.25500000920E-02 0.  1.
    10030    2    1    2    0    0  0.00000000000E+00  0.00000000000E+00  0.67234158725E+02  0.24924708257E+04  0.24915638432E+04 0.  0.
        2    1    3    3  502    0 -0.29573744622E+03 -0.54743506907E+03  0.11132813801E+04  0.12753592526E+04  0.25500000920E-02 0. -1.
       -2    1    3    3    0  502  0.29573744622E+03  0.54743506907E+03 -0.10460472214E+04  0.12171115731E+04  0.25500000920E-02 0.  1.
</event>
<event>
 5   0  0.1435062E-05  0.2538361E+04  0.7818609E-02  0.8389445E-01
       -1   -1    0    0    0  501  0.00000000000E+00  0.00000000000E+00  0.69209744267E+03  0.69209744269E+03  0.50400001928E-02 0.  1.
        1   -1    0    0  501    0  0.00000000000E+00  0.00000000000E+00 -0.23274450196E+04  0.23274450196E+04  0.50400001928E-02 0. -1.
    10030    2    1    2    0    0  0.00000000000E+00  0.00000000000E+00 -0.16353475769E+04  0.30195424623E+04  0.25383606884E+04 0.  0.
        2    1    3    3  502    0 -0.12683403957E+03 -0.45537379898E+03  0.58347230952E+03  0.75092749741E+03  0.25500000920E-02 0.  1.
       -2    1    3    3    0  502  0.12683403957E+03  0.45537379898E+03 -0.22188198864E+04  0.22686149649E+04  0.25500000920E-02 0. -1.
</event>
<event>
 5   0  0.1435062E-05  0.2571068E+04  0.7818609E-02  0.8378096E-01
       -1   -1    0    0    0  501  0.00000000000E+00  0.00000000000E+00  0.12732283462E+04  0.12732283462E+04  0.50400001928E-02 0.  1.
        1   -1    0    0  501    0  0.00000000000E+00  0.00000000000E+00 -0.12979585120E+04  0.12979585120E+04  0.50400001928E-02 0. -1.
    10030    2    1    2    0    0  0.00000000000E+00  0.00000000000E+00 -0.24730165807E+02  0.25711868581E+04  0.25710679257E+04 0.  0.
        2    1    3    3  502    0 -0.23562312214E+03  0.12411436822E+04 -0.25037120550E+03  0.12878826174E+04  0.25500000920E-02 0. -1.
       -2    1    3    3    0  502  0.23562312214E+03 -0.12411436822E+04  0.22564103969E+03  0.12833042408E+04  0.25500000920E-02 0.  1.
</event>
<event>
 5   0  0.1497497E-05  0.2593122E+04  0.7818609E-02  0.8370541E-01
        1   -1    0    0  501    0  0.00000000000E+00  0.00000000000E+00  0.88972415143E+03  0.88972415145E+03  0.50400001928E-02 0. -1.
       -1   -1    0    0    0  501  0.00000000000E+00  0.00000000000E+00 -0.18894284011E+04  0.18894284011E+04  0.50400001928E-02 0.  1.
    10030    2    1    2    0    0  0.00000000000E+00  0.00000000000E+00 -0.99970424964E+03  0.27791525525E+04  0.25931217332E+04 0.  0.
        3    1    3    3  502    0  0.81517846231E+03  0.33745776990E+03  0.51840046974E+03  0.10232950352E+04  0.10100000352E+00 0. -1.
       -3    1    3    3    0  502 -0.81517846231E+03 -0.33745776990E+03 -0.15181047194E+04  0.17558575173E+04  0.10100000352E+00 0.  1.
</event>
<event>
 5   0  0.3849687E-05  0.2583217E+04  0.7818609E-02  0.8373924E-01
        2   -1    0    0  501    0  0.00000000000E+00  0.00000000000E+00  0.17730067883E+04  0.17730067883E+04  0.25500000920E-02 0. -1.
       -2   -1    0    0    0  501  0.00000000000E+00  0.00000000000E+00 -0.94091717269E+03  0.94091717269E+03  0.25500000920E-02 0.  1.
    10030    2    1    2    0    0  0.00000000000E+00  0.00000000000E+00  0.83208961559E+03  0.27139239610E+04  0.25832170133E+04 0.  0.
        1    1    3    3  502    0 -0.10635251317E+04  0.52242028223E+03 -0.12401175706E+03  0.11913805324E+04  0.50400001928E-02 0.  1.
       -1    1    3    3    0  502  0.10635251317E+04 -0.52242028223E+03  0.95610137266E+03  0.15225434286E+04  0.50400001928E-02 0. -1.
</event>
<event>
 5   0  0.3441646E-05  0.2536118E+04  0.7818609E-02  0.8390230E-01
       -2   -1    0    0    0  501  0.00000000000E+00  0.00000000000E+00  0.10764726990E+04  0.10764726990E+04  0.25500000920E-02 0. -1.
        2   -1    0    0  501    0  0.00000000000E+00  0.00000000000E+00 -0.14937436238E+04  0.14937436238E+04  0.25500000920E-02 0.  1.
    10030    2    1    2    0    0  0.00000000000E+00  0.00000000000E+00 -0.41727092479E+03  0.25702163228E+04  0.25361184754E+04 0.  0.
        4    1    3    3  502    0  0.22597269346E+03 -0.12477443812E+04 -0.20199616271E+03  0.12840302806E+04  0.12699999809E+01 0. -1.
       -4    1    3    3    0  502 -0.22597269346E+03  0.12477443812E+04 -0.21527476208E+03  0.12861860422E+04  0.12699999809E+01 0.  1.
</event>
<event>
 5   0  0.1451052E-05  0.2573849E+04  0.7818609E-02  0.8377139E-01
        1   -1    0    0  501    0  0.00000000000E+00  0.00000000000E+00  0.13999350530E+04  0.13999350530E+04  0.50400001928E-02 0.  1.
       -1   -1    0    0    0  501  0.00000000000E+00  0.00000000000E+00 -0.11830366393E+04  0.11830366393E+04  0.50400001928E-02 0. -1.
    10030    2    1    2    0    0  0.00000000000E+00  0.00000000000E+00  0.21689841362E+03  0.25829716923E+04  0.25738488381E+04 0.  0.
        1    1    3    3  502    0  0.82015204405E+03  0.43792137374E+03 -0.78450797218E+03  0.12165020606E+04  0.50400001928E-02 0. -1.
       -1    1    3    3    0  502 -0.82015204405E+03 -0.43792137374E+03  0.10014063858E+04  0.13664696317E+04  0.50400001928E-02 0.  1.
</event>
<event>
 5   0  0.3849687E-05  0.2595254E+04  0.7818609E-02  0.8369815E-01
        2   -1    0    0  501    0  0.00000000000E+00  0.00000000000E+00  0.20919894416E+04  0.20919894416E+04  0.25500000920E-02 0.  1.
       -2   -1    0    0    0  501  0.00000000000E+00  0.00000000000E+00 -0.80489685381E+03  0.80489685382E+03  0.25500000920E-02 0. -1.
    10030    2    1    2    0    0  0.00000000000E+00  0.00000000000E+00  0.12870925878E+04  0.28968862954E+04  0.25952539142E+04 0.  0.
        1    1    3    3  502    0  0.11924273231E+04 -0.31401848173E+03  0.19241311135E+03  0.12480037393E+04  0.50400001928E-02 0. -1.
       -1    1    3    3    0  502 -0.11924273231E+04  0.31401848173E+03  0.10946794764E+04  0.16488825561E+04  0.50400001928E-02 0.  1.
</event>
<event>
 5   0  0.3441646E-05  0.2626752E+04  0.7818609E-02  0.8359171E-01
        2   -1    0    0  501    0  0.00000000000E+00  0.00000000000E+00  0.90408159359E+03  0.90408159359E+03  0.25500000920E-02 0. -1.
       -2   -1    0    0    0  501  0.00000000000E+00  0.00000000000E+00 -0.19079649963E+04  0.19079649963E+04  0.25500000920E-02 0.  1.
    10030    2    1    2    0    0  0.00000000000E+00  0.00000000000E+00 -0.10038834027E+04  0.28120465899E+04  0.26267516322E+04 0.  0.
        4    1    3    3  502    0  0.38180362997E+03  0.11682876025E+04 -0.99750469443E+03  0.15829362471E+04  0.12699999809E+01 0.  1.
       -4    1    3    3    0  502 -0.38180362997E+03 -0.11682876025E+04 -0.63787082685E+01  0.12291103428E+04  0.12699999809E+01 0. -1.
</event>
<event>
 5   0  0.3508470E-05  0.2600550E+04  0.7818609E-02  0.8368014E-01
        2   -1    0    0  501    0  0.00000000000E+00  0.00000000000E+00  0.16883125181E+04  0.16883125181E+04  0.25500000920E-02 0.  1.
       -2   -1    0    0    0  501  0.00000000000E+00  0.00000000000E+00 -0.10014233062E+04  0.10014233062E+04  0.25500000920E-02 0. -1.
    10030    2    1    2    0    0  0.00000000000E+00  0.00000000000E+00  0.68688921185E+03  0.26897358243E+04  0.26005503293E+04 0.  0.
        5    1    3    3  502    0 -0.11917915740E+04 -0.32091137762E+03 -0.79659296201E+02  0.12368180795E+04  0.46999998093E+01 0. -1.
       -5    1    3    3    0  502  0.11917915740E+04  0.32091137762E+03  0.76654850805E+03  0.14529177449E+04  0.46999998093E+01 0.  1.
</event>
<event>
 5   0  0.3849687E-05  0.2091263E+04  0.7818609E-02  0.8565102E-01
        2   -1    0    0  501    0  0.00000000000E+00  0.00000000000E+00  0.27497131401E+04  0.27497131401E+04  0.25500000920E-02 0. -1.
       -2   -1    0    0    0  501  0.00000000000E+00  0.00000000000E+00 -0.39762151383E+03  0.39762151384E+03  0.25500000920E-02 0.  1.
    10030    2    1    2    0    0  0.00000000000E+00  0.00000000000E+00  0.23520916263E+04  0.31473346540E+04  0.20912628734E+04 0.  0.
        1    1    3    3  502    0  0.30971366747E+03 -0.34577268903E+03  0.25861391642E+04  0.26274697115E+04  0.50400001928E-02 0. -1.
       -1    1    3    3    0  502 -0.30971366747E+03  0.34577268903E+03 -0.23404753795E+03  0.51986494241E+03  0.50400001928E-02 0.  1.
</event>
<event>
 5   0  0.3508470E-05  0.2005046E+04  0.7818609E-02  0.8604265E-01
        2   -1    0    0  501    0  0.00000000000E+00  0.00000000000E+00  0.13128973714E+04  0.13128973715E+04  0.25500000920E-02 0.  1.
       -2   -1    0    0    0  501  0.00000000000E+00  0.00000000000E+00 -0.76552271276E+03  0.76552271277E+03  0.25500000920E-02 0. -1.
    10030    2    1    2    0    0  0.00000000000E+00  0.00000000000E+00  0.54737465869E+03  0.20784200842E+04  0.20050463909E+04 0.  0.
        5    1    3    3  502    0 -0.41961079809E+02 -0.44614865347E+03 -0.65591391107E+03  0.79438938937E+03  0.46999998093E+01 0. -1.
       -5    1    3    3    0  502  0.41961079809E+02  0.44614865347E+03  0.12032885698E+04  0.12840306948E+04  0.46999998093E+01 0.  1.
</event>
<event>
 5   0  0.3849687E-05  0.1767128E+04  0.7818609E-02  0.8723978E-01
       -2   -1    0    0    0  501  0.00000000000E+00  0.00000000000E+00  0.11078988088E+04  0.11078988088E+04  0.25500000920E-02 0. -1.
        2   -1    0    0  501    0  0.00000000000E+00  0.00000000000E+00 -0.70465423449E+03  0.70465423450E+03  0.25500000920E-02 0.  1.
    10030    2    1    2    0    0  0.00000000000E+00  0.00000000000E+00  0.40324457433E+03  0.18125530433E+04  0.17671282772E+04 0.  0.
        1    1    3    3  502    0 -0.42488127242E+02 -0.81785259161E+02 -0.69971048398E+03  0.70575408676E+03  0.50400001928E-02 0.  1.
       -1    1    3    3    0  502  0.42488127242E+02  0.81785259161E+02  0.11029550583E+04  0.11067989566E+04  0.50400001928E-02 0. -1.
</event>
<event>
 5   0  0.1533248E-05  0.2630224E+04  0.7818609E-02  0.8358007E-01
        1   -1    0    0  501    0  0.00000000000E+00  0.00000000000E+00  0.23787803504E+04  0.23787803504E+04  0.50400001928E-02 0.  1.
       -1   -1    0    0    0  501  0.00000000000E+00  0.00000000000E+00 -0.72706143385E+03  0.72706143386E+03  0.50400001928E-02 0. -1.
    10030    2    1    2    0    0  0.00000000000E+00  0.00000000000E+00  0.16517189165E+04  0.31058417842E+04  0.26302239086E+04 0.  0.
        4    1    3    3  502    0  0.10139153463E+03  0.25293904507E+03  0.23450758701E+04  0.23608559577E+04  0.12699999809E+01 0.  1.
       -4    1    3    3    0  502 -0.10139153463E+03 -0.25293904507E+03 -0.69335695353E+03  0.74498582653E+03  0.12699999809E+01 0. -1.
</event>
<event>
 5   0  0.1497497E-05  0.2591675E+04  0.7818609E-02  0.8371035E-01
        1   -1    0    0  501    0  0.00000000000E+00  0.00000000000E+00  0.16028439456E+04  0.16028439456E+04  0.50400001928E-02 0.  1.
       -1   -1    0    0    0  501  0.00000000000E+00  0.00000000000E+00 -0.10476345993E+04  0.10476345993E+04  0.50400001928E-02 0. -1.
    10030    2    1    2    0    0  0.00000000000E+00  0.00000000000E+00  0.55520934635E+03  0.26504785449E+04  0.25916749601E+04 0.  0.
        3    1    3    3  502    0 -0.11652319703E+04 -0.19692028845E+03  0.82131740105E+03  0.14391335686E+04  0.10100000352E+00 0.  1.
       -3    1    3    3    0  502  0.11652319703E+04  0.19692028845E+03 -0.26610805470E+03  0.12113449763E+04  0.10100000352E+00 0. -1.
</event>
<event>
 5   0  0.3849687E-05  0.2585047E+04  0.7818609E-02  0.8373298E-01
        2   -1    0    0  501    0  0.00000000000E+00  0.00000000000E+00  0.22719329102E+04  0.22719329102E+04  0.25500000920E-02 0. -1.
       -2   -1    0    0    0  501  0.00000000000E+00  0.00000000000E+00 -0.73532835639E+03  0.73532835640E+03  0.25500000920E-02 0.  1.
    10030    2    1    2    0    0  0.00000000000E+00  0.00000000000E+00  0.15366045538E+04  0.30072612666E+04  0.25850467637E+04 0.  0.
        1    1    3    3  502    0  0.57088011767E+03 -0.78550231747E+03  0.17606835362E+04  0.20107024927E+04  0.50400001928E-02 0. -1.
       -1    1    3    3    0  502 -0.57088011767E+03  0.78550231747E+03 -0.22407898237E+03  0.99655877391E+03  0.50400001928E-02 0.  1.
</event>
<event>
 5   0  0.1435062E-05  0.2613265E+04  0.7818609E-02  0.8363709E-01
       -1   -1    0    0    0  501  0.00000000000E+00  0.00000000000E+00  0.10627516529E+04  0.10627516529E+04  0.50400001928E-02 0.  1.
        1   -1    0    0  501    0  0.00000000000E+00  0.00000000000E+00 -0.16064787881E+04  0.16064787881E+04  0.50400001928E-02 0. -1.
    10030    2    1    2    0    0  0.00000000000E+00  0.00000000000E+00 -0.54372713522E+03  0.26692304410E+04  0.26132646153E+04 0.  0.
        2    1    3    3  502    0 -0.36785630841E+03  0.98196864014E+03  0.52438728904E+03  0.11724174610E+04  0.25500000920E-02 0.  1.
       -2    1    3    3    0  502  0.36785630841E+03 -0.98196864014E+03 -0.10681144243E+04  0.14968129800E+04  0.25500000920E-02 0. -1.
</event>
<event>
 5   0  0.3499642E-05  0.2599252E+04  0.7818609E-02  0.8368455E-01
        2   -1    0    0  501    0  0.00000000000E+00  0.00000000000E+00  0.14670895550E+04  0.14670895550E+04  0.25500000920E-02 0.  1.
       -2   -1    0    0    0  501  0.00000000000E+00  0.00000000000E+00 -0.11512783015E+04  0.11512783015E+04  0.25500000920E-02 0. -1.
    10030    2    1    2    0    0  0.00000000000E+00  0.00000000000E+00  0.31581125350E+03  0.26183678566E+04  0.25992524857E+04 0.  0.
        2    1    3    3  502    0 -0.34047622971E+03  0.10553784084E+04 -0.52478085274E+03  0.12268425291E+04  0.25500000920E-02 0. -1.
       -2    1    3    3    0  502  0.34047622971E+03 -0.10553784084E+04  0.84059210624E+03  0.13915253275E+04  0.25500000920E-02 0.  1.
</event>
<event>
 5   0  0.1533248E-05  0.2579908E+04  0.7818609E-02  0.8375058E-01
        1   -1    0    0  501    0  0.00000000000E+00  0.00000000000E+00  0.24467845411E+04  0.24467845411E+04  0.50400001928E-02 0.  1.
       -1   -1    0    0    0  501  0.00000000000E+00  0.00000000000E+00 -0.68006859911E+03  0.68006859913E+03  0.50400001928E-02 0. -1.
    10030    2    1    2    0    0  0.00000000000E+00  0.00000000000E+00  0.17667159420E+04  0.31268531403E+04  0.25799080102E+04 0.  0.
        4    1    3    3  502    0  0.39156129706E+03  0.83238101138E+03 -0.21268395724E+03  0.94414748637E+03  0.12699999809E+01 0. -1.
       -4    1    3    3    0  502 -0.39156129706E+03 -0.83238101138E+03  0.19793998992E+04  0.21827056539E+04  0.12699999809E+01 0.  1.
</event>
<event>
 5   0  0.3508470E-05  0.2574386E+04  0.7818609E-02  0.8376954E-01
        2   -1    0    0  501    0  0.00000000000E+00  0.00000000000E+00  0.16824413586E+04  0.16824413586E+04  0.25500000920E-02 0.  1.
       -2   -1    0    0    0  501  0.00000000000E+00  0.00000000000E+00 -0.98479876299E+03  0.98479876299E+03  0.25500000920E-02 0. -1.
    10030    2    1    2    0    0  0.00000000000E+00  0.00000000000E+00  0.69764259557E+03  0.26672401215E+04  0.25743862715E+04 0.  0.
        5    1    3    3  502    0  0.96077584462E+03 -0.24251395961E+03 -0.50235840054E+03  0.11109857320E+04  0.46999998093E+01 0.  1.
       -5    1    3    3    0  502 -0.96077584462E+03  0.24251395961E+03  0.12000009961E+04  0.15562543895E+04  0.46999998093E+01 0. -1.
</event>
<event>
 5   0  0.1451052E-05  0.2590666E+04  0.7818609E-02  0.8371379E-01
        1   -1    0    0  501    0  0.00000000000E+00  0.00000000000E+00  0.24466261208E+04  0.24466261208E+04  0.50400001928E-02 0. -1.
       -1   -1    0    0    0  501  0.00000000000E+00  0.00000000000E+00 -0.68579654711E+03  0.68579654713E+03  0.50400001928E-02 0.  1.
    10030    2    1    2    0    0  0.00000000000E+00  0.00000000000E+00  0.17608295737E+04  0.31324226679E+04  0.25906661273E+04 0.  0.
        1    1    3    3  502    0 -0.11405855312E+04  0.42648042261E+03  0.34639095748E+03  0.12660203791E+04  0.50400001928E-02 0. -1.
       -1    1    3    3    0  502  0.11405855312E+04 -0.42648042261E+03  0.14144386162E+04  0.18664022889E+04  0.50400001928E-02 0.  1.
</event>
<event>
 5   0  0.3849687E-05  0.2585909E+04  0.7818609E-02  0.8373003E-01
        2   -1    0    0  501    0  0.00000000000E+00  0.00000000000E+00  0.27499014294E+04  0.27499014294E+04  0.25500000920E-02 0.  1.
       -2   -1    0    0    0  501  0.00000000000E+00  0.00000000000E+00 -0.60792402614E+03  0.60792402615E+03  0.25500000920E-02 0. -1.
    10030    2    1    2    0    0  0.00000000000E+00  0.00000000000E+00  0.21419774033E+04  0.33578254556E+04  0.25859088526E+04 0.  0.
        1    1    3    3  502    0  0.83256061549E+03  0.18197881862E+03 -0.19161178137E+03  0.87349215433E+03  0.50400001928E-02 0. -1.
       -1    1    3    3    0  502 -0.83256061549E+03 -0.18197881862E+03  0.23335891846E+04  0.24843333012E+04  0.50400001928E-02 0.  1.
</event>
<event>
 5   0  0.1435062E-05  0.2565968E+04  0.7818609E-02  0.8379854E-01
        1   -1    0    0  501    0  0.00000000000E+00  0.00000000000E+00  0.16343405450E+04  0.16343405450E+04  0.50400001928E-02 0. -1.
       -1   -1    0    0    0  501  0.00000000000E+00  0.00000000000E+00 -0.10071632610E+04  0.10071632611E+04  0.50400001928E-02 0.  1.
    10030    2    1    2    0    0  0.00000000000E+00  0.00000000000E+00  0.62717728391E+03  0.26415038060E+04  0.25659678509E+04 0.  0.
        2    1    3    3  502    0 -0.20709720807E+03  0.83283243702E+03  0.12953659553E+04  0.15538571620E+04  0.25500000920E-02 0. -1.
       -2    1    3    3    0  502  0.20709720807E+03 -0.83283243702E+03 -0.66818867136E+03  0.10876466440E+04  0.25500000920E-02 0.  1.
</event>
<event>
 5   0  0.1435062E-05  0.2622418E+04  0.7818609E-02  0.8360626E-01
       -1   -1    0    0    0  501  0.00000000000E+00  0.00000000000E+00  0.10229470266E+04  0.10229470267E+04  0.50400001928E-02 0.  1.
        1   -1    0    0  501    0  0.00000000000E+00  0.00000000000E+00 -0.16807015299E+04  0.16807015299E+04  0.50400001928E-02 0. -1.
    10030    2    1    2    0    0  0.00000000000E+00  0.00000000000E+00 -0.65775450329E+03  0.27036485566E+04  0.26224176881E+04 0.  0.
        2    1    3    3  502    0  0.43155230417E+03 -0.68702880122E+03  0.73308897010E+03  0.10934648614E+04  0.25500000920E-02 0.  1.
       -2    1    3    3    0  502 -0.43155230417E+03  0.68702880122E+03 -0.13908434734E+04  0.16101836952E+04  0.25500000920E-02 0. -1.
</event>
<event>
 5   0  0.1474554E-05  0.2572197E+04  0.7818609E-02  0.8377707E-01
       -1   -1    0    0    0  501  0.00000000000E+00  0.00000000000E+00  0.10309401497E+04  0.10309401497E+04  0.50400001928E-02 0.  1.
        1   -1    0    0  501    0  0.00000000000E+00  0.00000000000E+00 -0.16044084026E+04  0.16044084026E+04  0.50400001928E-02 0. -1.
    10030    2    1    2    0    0  0.00000000000E+00  0.00000000000E+00 -0.57346825292E+03  0.26353485524E+04  0.25721967567E+04 0.  0.
        5    1    3    3  502    0  0.29306855168E+03  0.12320369262E+04 -0.51634067727E+03  0.13676380912E+04  0.46999998093E+01 0. -1.
       -5    1    3    3    0  502 -0.29306855168E+03 -0.12320369262E+04 -0.57127575652E+02  0.12677104612E+04  0.46999998093E+01 0.  1.
</event>
<event>
 5   0  0.1474554E-05  0.2605069E+04  0.7818609E-02  0.8366481E-01
        1   -1    0    0  501    0  0.00000000000E+00  0.00000000000E+00  0.21598634378E+04  0.21598634379E+04  0.50400001928E-02 0. -1.
       -1   -1    0    0    0  501  0.00000000000E+00  0.00000000000E+00 -0.78551084070E+03  0.78551084071E+03  0.50400001928E-02 0.  1.
    10030    2    1    2    0    0  0.00000000000E+00  0.00000000000E+00  0.13743525972E+04  0.29453742786E+04  0.26050690163E+04 0.  0.
        5    1    3    3  502    0  0.97658787760E+00 -0.24296569839E+03  0.21340056717E+04  0.21477978446E+04  0.46999998093E+01 0. -1.
       -5    1    3    3    0  502 -0.97658787760E+00  0.24296569839E+03 -0.75965307457E+03  0.79757643397E+03  0.46999998093E+01 0.  1.
</event>
<event>
 5   0  0.1533248E-05  0.2626954E+04  0.7818609E-02  0.8359103E-01
        1   -1    0    0  501    0  0.00000000000E+00  0.00000000000E+00  0.26391870125E+04  0.26391870125E+04  0.50400001928E-02 0. -1.
       -1   -1    0    0    0  501  0.00000000000E+00  0.00000000000E+00 -0.65369418999E+03  0.65369419001E+03  0.50400001928E-02 0.  1.
    10030    2    1    2    0    0  0.00000000000E+00  0.00000000000E+00  0.19854928226E+04  0.32928812026E+04  0.26269535332E+04 0.  0.
        4    1    3    3  502    0 -0.29818701347E+03 -0.39290866354E+03 -0.53319219713E+03  0.72635270005E+03  0.12699999809E+01 0.  1.
       -4    1    3    3    0  502  0.29818701347E+03  0.39290866354E+03  0.25186850197E+04  0.25665285025E+04  0.12699999809E+01 0. -1.
</event>
<event>
 5   0  0.3441646E-05  0.2730941E+04  0.7818609E-02  0.8325035E-01
        2   -1    0    0  501    0  0.00000000000E+00  0.00000000000E+00  0.15952585136E+04  0.15952585136E+04  0.25500000920E-02 0.  1.
       -2   -1    0    0    0  501  0.00000000000E+00  0.00000000000E+00 -0.11687825369E+04  0.11687825369E+04  0.25500000920E-02 0. -1.
    10030    2    1    2    0    0  0.00000000000E+00  0.00000000000E+00  0.42647597669E+03  0.27640410505E+04  0.27309414439E+04 0.  0.
        4    1    3    3  502    0 -0.28010079723E+00 -0.11664020766E+04 -0.50530663470E+03  0.12711531342E+04  0.12699999809E+01 0. -1.
       -4    1    3    3    0  502  0.28010079723E+00  0.11664020766E+04  0.93178261139E+03  0.14928879163E+04  0.12699999809E+01 0.  1.
</event>
<event>
 5   0  0.3849687E-05  0.2524333E+04  0.7818609E-02  0.8394368E-01
       -2   -1    0    0    0  501  0.00000000000E+00  0.00000000000E+00  0.17098176688E+04  0.17098176688E+04  0.25500000920E-02 0. -1.
        2   -1    0    0  501    0  0.00000000000E+00  0.00000000000E+00 -0.93171582659E+03  0.93171582659E+03  0.25500000920E-02 0.  1.
    10030    2    1    2    0    0  0.00000000000E+00  0.00000000000E+00  0.77810184219E+03  0.26415334954E+04  0.25243329278E+04 0.  0.
        1    1    3    3  502    0  0.52875624450E+03 -0.28619066428E+03  0.15503393110E+04  0.16628410152E+04  0.50400001928E-02 0. -1.
       -1    1    3    3    0  502 -0.52875624450E+03  0.28619066428E+03 -0.77223746886E+03  0.97869248018E+03  0.50400001928E-02 0.  1.
</event>
<event>
 5   0  0.3508470E-05  0.2504130E+04  0.7818609E-02  0.8401516E-01
       -2   -1    0    0    0  501  0.00000000000E+00  0.00000000000E+00  0.10128482063E+04  0.10128482064E+04  0.25500000920E-02 0.  1.
        2   -1    0    0  501    0  0.00000000000E+00  0.00000000000E+00 -0.15477803461E+04  0.15477803461E+04  0.25500000920E-02 0. -1.
    10030    2    1    2    0    0  0.00000000000E+00  0.00000000000E+00 -0.53493213977E+03  0.25606285525E+04  0.25041298268E+04 0.  0.
        5    1    3    3  502    0  0.47490621497E+03 -0.66433758951E+03 -0.12379654894E+04  0.14830579856E+04  0.46999998093E+01 0. -1.
       -5    1    3    3    0  502 -0.47490621497E+03  0.66433758951E+03  0.70303334961E+03  0.10775705668E+04  0.46999998093E+01 0.  1.
</event>
<event>
 5   0  0.3499642E-05  0.2611263E+04  0.7818609E-02  0.8364386E-01
       -2   -1    0    0    0  501  0.00000000000E+00  0.00000000000E+00  0.59451316642E+03  0.59451316643E+03  0.25500000920E-02 0.  1.
        2   -1    0    0  501    0  0.00000000000E+00  0.00000000000E+00 -0.28673434560E+04  0.28673434560E+04  0.25500000920E-02 0. -1.
    10030    2    1    2    0    0  0.00000000000E+00  0.00000000000E+00 -0.22728302896E+04  0.34618566225E+04  0.26112628648E+04 0.  0.
        2    1    3    3  502    0 -0.11368933669E+04 -0.16872841563E+03 -0.19576015000E+04  0.22700659547E+04  0.25500000920E-02 0. -1.
       -2    1    3    3    0  502  0.11368933669E+04  0.16872841563E+03 -0.31522878966E+03  0.11917906678E+04  0.25500000920E-02 0.  1.
</event>
<event>
 5   0  0.1435062E-05  0.2581509E+04  0.7818609E-02  0.8374509E-01
       -1   -1    0    0    0  501  0.00000000000E+00  0.00000000000E+00  0.92528194424E+03  0.92528194426E+03  0.50400001928E-02 0. -1.
        1   -1    0    0  501    0  0.00000000000E+00  0.00000000000E+00 -0.18005838598E+04  0.18005838598E+04  0.50400001928E-02 0.  1.
    10030    2    1    2    0    0  0.00000000000E+00  0.00000000000E+00 -0.87530191557E+03  0.27258658041E+04  0.25815094302E+04 0.  0.
        2    1    3    3  502    0  0.53835795595E+02 -0.96846370908E+03 -0.13368749448E+04  0.16516824352E+04  0.25500000920E-02 0.  1.
       -2    1    3    3    0  502 -0.53835795595E+02  0.96846370908E+03  0.46157302922E+03  0.10741833689E+04  0.25500000920E-02 0. -1.
</event>
<event>
 5   0  0.1451052E-05  0.2627650E+04  0.7818609E-02  0.8358869E-01
        1   -1    0    0  501    0  0.00000000000E+00  0.00000000000E+00  0.97894529496E+03  0.97894529497E+03  0.50400001928E-02 0.  1.
       -1   -1    0    0    0  501  0.00000000000E+00  0.00000000000E+00 -0.17632612178E+04  0.17632612178E+04  0.50400001928E-02 0. -1.
    10030    2    1    2    0    0  0.00000000000E+00  0.00000000000E+00 -0.78431592284E+03  0.27422065128E+04  0.26276501083E+04 0.  0.
        1    1    3    3  502    0 -0.47307958349E+03 -0.11473118677E+04  0.57930420533E+02  0.12423706161E+04  0.50400001928E-02 0.  1.
       -1    1    3    3    0  502  0.47307958349E+03  0.11473118677E+04 -0.84224634337E+03  0.14998358967E+04  0.50400001928E-02 0. -1.
</event>
<event>
 5   0  0.3508470E-05  0.2323358E+04  0.7818609E-02  0.8468768E-01
       -2   -1    0    0    0  501  0.00000000000E+00  0.00000000000E+00  0.10068582307E+04  0.10068582307E+04  0.25500000920E-02 0. -1.
        2   -1    0    0  501    0  0.00000000000E+00  0.00000000000E+00 -0.13403056377E+04  0.13403056377E+04  0.25500000920E-02 0.  1.
    10030    2    1    2    0    0  0.00000000000E+00  0.00000000000E+00 -0.33344740701E+03  0.23471638685E+04  0.23233577108E+04 0.  0.
        5    1    3    3  502    0  0.11314023327E+04  0.26273659647E+03 -0.18625873367E+03  0.11763571581E+04  0.46999998093E+01 0. -1.
       -5    1    3    3    0  502 -0.11314023327E+04 -0.26273659647E+03 -0.14718867334E+03  0.11708067104E+04  0.46999998093E+01 0.  1.
</event>
<event>
 5   0  0.3849687E-05  0.2610110E+04  0.7818609E-02  0.8364775E-01
       -2   -1    0    0    0  501  0.00000000000E+00  0.00000000000E+00  0.12141681945E+04  0.12141681945E+04  0.25500000920E-02 0.  1.
        2   -1    0    0  501    0  0.00000000000E+00  0.00000000000E+00 -0.14027456640E+04  0.14027456640E+04  0.25500000920E-02 0. -1.
    10030    2    1    2    0    0  0.00000000000E+00  0.00000000000E+00 -0.18857746956E+03  0.26169138585E+04  0.26101104729E+04 0.  0.
        1    1    3    3  502    0  0.11263808676E+04  0.22042987701E+03  0.52849538227E+03  0.12635784735E+04  0.50400001928E-02 0.  1.
       -1    1    3    3    0  502 -0.11263808676E+04 -0.22042987701E+03 -0.71707285183E+03  0.13533353850E+04  0.50400001928E-02 0. -1.
</event>
<event>
 5   0  0.1474554E-05  0.1762791E+04  0.7818609E-02  0.8726341E-01
       -1   -1    0    0    0  501  0.00000000000E+00  0.00000000000E+00  0.91167826766E+03  0.91167826768E+03  0.50400001928E-02 0.  1.
        1   -1    0    0  501    0  0.00000000000E+00  0.00000000000E+00 -0.85211858309E+03  0.85211858310E+03  0.50400001928E-02 0. -1.
    10030    2    1    2    0    0  0.00000000000E+00  0.00000000000E+00  0.59559684576E+02  0.17637968508E+04  0.17627909617E+04 0.  0.
        5    1    3    3  502    0 -0.84884388889E+03 -0.56461432961E+02  0.26037189290E+03  0.88968503063E+03  0.46999998093E+01 0.  1.
       -5    1    3    3    0  502  0.84884388889E+03  0.56461432961E+02 -0.20081220832E+03  0.87411182015E+03  0.46999998093E+01 0. -1.
</event>
<event>
 5   0  0.1497497E-05  0.2551037E+04  0.7818609E-02  0.8385026E-01
        1   -1    0    0  501    0  0.00000000000E+00  0.00000000000E+00  0.10994460136E+04  0.10994460136E+04  0.50400001928E-02 0.  1.
       -1   -1    0    0    0  501  0.00000000000E+00  0.00000000000E+00 -0.14797878470E+04  0.14797878470E+04  0.50400001928E-02 0. -1.
    10030    2    1    2    0    0  0.00000000000E+00  0.00000000000E+00 -0.38034183338E+03  0.25792338606E+04  0.25510365339E+04 0.  0.
        3    1    3    3  502    0 -0.92102429299E+03  0.87651912698E+03 -0.87185767340E+02  0.12744304204E+04  0.10100000352E+00 0.  1.
       -3    1    3    3    0  502  0.92102429299E+03 -0.87651912698E+03 -0.29315606603E+03  0.13048034402E+04  0.10100000352E+00 0. -1.
</event>
<event>
 5   0  0.3508470E-05  0.2546369E+04  0.7818609E-02  0.8386650E-01
        2   -1    0    0  501    0  0.00000000000E+00  0.00000000000E+00  0.16588615372E+04  0.16588615372E+04  0.25500000920E-02 0.  1.
       -2   -1    0    0    0  501  0.00000000000E+00  0.00000000000E+00 -0.97717539956E+03  0.97717539956E+03  0.25500000920E-02 0. -1.
    10030    2    1    2    0    0  0.00000000000E+00  0.00000000000E+00  0.68168613765E+03  0.26360369368E+04  0.25463689328E+04 0.  0.
        5    1    3    3  502    0 -0.92223881828E+03 -0.19771771483E+03 -0.54446765651E+03  0.10890747686E+04  0.46999998093E+01 0. -1.
       -5    1    3    3    0  502  0.92223881828E+03  0.19771771483E+03  0.12261537942E+04  0.15469621681E+04  0.46999998093E+01 0.  1.
</event>
<event>
 5   0  0.1497497E-05  0.2651954E+04  0.7818609E-02  0.8350765E-01
        1   -1    0    0  501    0  0.00000000000E+00  0.00000000000E+00  0.14545319832E+04  0.14545319832E+04  0.50400001928E-02 0. -1.
       -1   -1    0    0    0  501  0.00000000000E+00  0.00000000000E+00 -0.12087842946E+04  0.12087842946E+04  0.50400001928E-02 0.  1.
    10030    2    1    2    0    0  0.00000000000E+00  0.00000000000E+00  0.24574768864E+03  0.26633162778E+04  0.26519543113E+04 0.  0.
        3    1    3    3  502    0 -0.96723787976E+03 -0.89949392192E+03  0.58543486652E+01  0.13208605964E+04  0.10100000352E+00 0. -1.
       -3    1    3    3    0  502  0.96723787976E+03  0.89949392192E+03  0.23989333998E+03  0.13424556814E+04  0.10100000352E+00 0.  1.
</event>
<event>
 5   0  0.3508470E-05  0.2557824E+04  0.7818609E-02  0.8382670E-01
       -2   -1    0    0    0  501  0.00000000000E+00  0.00000000000E+00  0.19828403047E+04  0.19828403047E+04  0.25500000920E-02 0. -1.
        2   -1    0    0  501    0  0.00000000000E+00  0.00000000000E+00 -0.82488525570E+03  0.82488525570E+03  0.25500000920E-02 0.  1.
    10030    2    1    2    0    0  0.00000000000E+00  0.00000000000E+00  0.11579550490E+04  0.28077255604E+04  0.25578238655E+04 0.  0.
        5    1    3    3  502    0 -0.33709852810E+03 -0.10328627797E+04  0.13195415020E+04  0.17092842961E+04  0.46999998093E+01 0. -1.
       -5    1    3    3    0  502  0.33709852810E+03  0.10328627797E+04 -0.16158645300E+03  0.10984412643E+04  0.46999998093E+01 0.  1.
</event>
<event>
 5   0  0.1435062E-05  0.2502403E+04  0.7818609E-02  0.8402130E-01
       -1   -1    0    0    0  501  0.00000000000E+00  0.00000000000E+00  0.12012040598E+04  0.12012040598E+04  0.50400001928E-02 0. -1.
        1   -1    0    0  501    0  0.00000000000E+00  0.00000000000E+00 -0.13032794783E+04  0.13032794783E+04  0.50400001928E-02 0.  1.
    10030    2    1    2    0    0  0.00000000000E+00  0.00000000000E+00 -0.10207541856E+03  0.25044835381E+04  0.25024025259E+04 0.  0.
        2    1    3    3  502    0 -0.91088465917E+03  0.12928691640E+03 -0.89972794040E+03  0.12868318988E+04  0.25500000920E-02 0.  1.
       -2    1    3    3    0  502  0.91088465917E+03 -0.12928691640E+03  0.79765252184E+03  0.12176516393E+04  0.25500000920E-02 0. -1.
</event>
<event>
 5   0  0.3849687E-05  0.2583806E+04  0.7818609E-02  0.8373723E-01
        2   -1    0    0  501    0  0.00000000000E+00  0.00000000000E+00  0.14912104300E+04  0.14912104301E+04  0.25500000920E-02 0.  1.
       -2   -1    0    0    0  501  0.00000000000E+00  0.00000000000E+00 -0.11192336430E+04  0.11192336430E+04  0.25500000920E-02 0. -1.
    10030    2    1    2    0    0  0.00000000000E+00  0.00000000000E+00  0.37197678707E+03  0.26104440730E+04  0.25838056290E+04 0.  0.
        1    1    3    3  502    0  0.32316564325E+03 -0.65706043146E+02 -0.10759930819E+04  0.11253952326E+04  0.50400001928E-02 0. -1.
       -1    1    3    3    0  502 -0.32316564325E+03  0.65706043146E+02  0.14479698690E+04  0.14850488405E+04  0.50400001928E-02 0.  1.
</event>
<event>
 5   0  0.1435062E-05  0.2578337E+04  0.7818609E-02  0.8375597E-01
       -1   -1    0    0    0  501  0.00000000000E+00  0.00000000000E+00  0.13779729218E+04  0.13779729218E+04  0.50400001928E-02 0. -1.
        1   -1    0    0  501    0  0.00000000000E+00  0.00000000000E+00 -0.12060872794E+04  0.12060872794E+04  0.50400001928E-02 0.  1.
    10030    2    1    2    0    0  0.00000000000E+00  0.00000000000E+00  0.17188564243E+03  0.25840602012E+04  0.25783371481E+04 0.  0.
        2    1    3    3  502    0 -0.12215422485E+04 -0.34169237232E+03  0.31675048610E+03  0.13073828868E+04  0.25500000920E-02 0.  1.
       -2    1    3    3    0  502  0.12215422485E+04  0.34169237232E+03 -0.14486484367E+03  0.12766773144E+04  0.25500000920E-02 0. -1.
</event>
<event>
 5   0  0.3441646E-05  0.2627134E+04  0.7818609E-02  0.8359042E-01
       -2   -1    0    0    0  501  0.00000000000E+00  0.00000000000E+00  0.10734697039E+04  0.10734697039E+04  0.25500000920E-02 0. -1.
        2   -1    0    0  501    0  0.00000000000E+00  0.00000000000E+00 -0.16073652582E+04  0.16073652582E+04  0.25500000920E-02 0.  1.
    10030    2    1    2    0    0  0.00000000000E+00  0.00000000000E+00 -0.53389555426E+03  0.26808349621E+04  0.26271337292E+04 0.  0.
        4    1    3    3  502    0 -0.42370146658E+03  0.91229204471E+03 -0.11289979392E+04  0.15120971091E+04  0.12699999809E+01 0.  1.
       -4    1    3    3    0  502  0.42370146658E+03 -0.91229204471E+03  0.59510238497E+03  0.11687378530E+04  0.12699999809E+01 0. -1.
</event>
<event>
 5   0  0.1533248E-05  0.2655300E+04  0.7818609E-02  0.8349656E-01
       -1   -1    0    0    0  501  0.00000000000E+00  0.00000000000E+00  0.69976846988E+03  0.69976846990E+03  0.50400001928E-02 0.  1.
        1   -1    0    0  501    0  0.00000000000E+00  0.00000000000E+00 -0.25189117814E+04  0.25189117814E+04  0.50400001928E-02 0. -1.
    10030    2    1    2    0    0  0.00000000000E+00  0.00000000000E+00 -0.18191433115E+04  0.32186802513E+04  0.26553003921E+04 0.  0.
        4    1    3    3  502    0  0.32184948664E+03 -0.46014506339E+03 -0.23678767293E+04  0.24335493399E+04  0.12699999809E+01 0. -1.
       -4    1    3    3    0  502 -0.32184948664E+03  0.46014506339E+03  0.54873341779E+03  0.78513091145E+03  0.12699999809E+01 0.  1.
</event>
<event>
 5   0  0.1435062E-05  0.2399460E+04  0.7818609E-02  0.8439706E-01
        1   -1    0    0  501    0  0.00000000000E+00  0.00000000000E+00  0.96425757565E+03  0.96425757566E+03  0.50400001928E-02 0.  1.
       -1   -1    0    0    0  501  0.00000000000E+00  0.00000000000E+00 -0.14927053548E+04  0.14927053548E+04  0.50400001928E-02 0. -1.
    10030    2    1    2    0    0  0.00000000000E+00  0.00000000000E+00 -0.52844777918E+03  0.24569629305E+04  0.23994603115E+04 0.  0.
        2    1    3    3  502    0 -0.41334601889E+03  0.18058183346E+03  0.87412277976E+03  0.98364392135E+03  0.25500000920E-02 0.  1.
       -2    1    3    3    0  502  0.41334601889E+03 -0.18058183346E+03 -0.14025705589E+04  0.14733190092E+04  0.25500000920E-02 0. -1.
</event>
<event>
 5   0  0.1474554E-05  0.2559608E+04  0.7818609E-02  0.8382052E-01
        1   -1    0    0  501    0  0.00000000000E+00  0.00000000000E+00  0.20507252884E+04  0.20507252884E+04  0.50400001928E-02 0.  1.
       -1   -1    0    0    0  501  0.00000000000E+00  0.00000000000E+00 -0.79869238075E+03  0.79869238077E+03  0.50400001928E-02 0. -1.
    10030    2    1    2    0    0  0.00000000000E+00  0.00000000000E+00  0.12520329077E+04  0.28494176692E+04  0.25596083004E+04 0.  0.
        5    1    3    3  502    0  0.47813451926E+02 -0.40127180777E+02 -0.79698716792E+03  0.79944165056E+03  0.46999998093E+01 0. -1.
       -5    1    3    3    0  502 -0.47813451926E+02  0.40127180777E+02  0.20490200756E+04  0.20499760186E+04  0.46999998093E+01 0.  1.
</event>
<event>
 5   0  0.1435062E-05  0.2519226E+04  0.7818609E-02  0.8396168E-01
        1   -1    0    0  501    0  0.00000000000E+00  0.00000000000E+00  0.11265156744E+04  0.11265156745E+04  0.50400001928E-02 0.  1.
       -1   -1    0    0    0  501  0.00000000000E+00  0.00000000000E+00 -0.14084357775E+04  0.14084357775E+04  0.50400001928E-02 0. -1.
    10030    2    1    2    0    0  0.00000000000E+00  0.00000000000E+00 -0.28192010301E+03  0.25349514519E+04  0.25192260556E+04 0.  0.
        2    1    3    3  502    0 -0.68015027858E+03 -0.24574827358E+03  0.89680122721E+03  0.11520629569E+04  0.25500000920E-02 0.  1.
       -2    1    3    3    0  502  0.68015027858E+03  0.24574827358E+03 -0.11787213302E+04  0.13828884951E+04  0.25500000920E-02 0. -1.
</event>
<event>
 5   0  0.1497497E-05  0.2592043E+04  0.7818609E-02  0.8370909E-01
       -1   -1    0    0    0  501  0.00000000000E+00  0.00000000000E+00  0.72141920008E+03  0.72141920010E+03  0.50400001928E-02 0. -1.
        1   -1    0    0  501    0  0.00000000000E+00  0.00000000000E+00 -0.23282888776E+04  0.23282888776E+04  0.50400001928E-02 0.  1.
    10030    2    1    2    0    0  0.00000000000E+00  0.00000000000E+00 -0.16068696776E+04  0.30497080777E+04  0.25920434408E+04 0.  0.
        3    1    3    3  502    0  0.80813648354E+03 -0.19403900028E+03 -0.19734735075E+04  0.21413391615E+04  0.10100000352E+00 0.  1.
       -3    1    3    3    0  502 -0.80813648354E+03  0.19403900028E+03  0.36660382993E+03  0.90836891623E+03  0.10100000352E+00 0. -1.
</event>
<event>
 5   0  0.1474554E-05  0.2483670E+04  0.7818609E-02  0.8408826E-01
       -1   -1    0    0    0  501  0.00000000000E+00  0.00000000000E+00  0.10659539257E+04  0.10659539257E+04  0.50400001928E-02 0.  1.
        1   -1    0    0  501    0  0.00000000000E+00  0.00000000000E+00 -0.14467365103E+04  0.14467365103E+04  0.50400001928E-02 0. -1.
    10030    2    1    2    0    0  0.00000000000E+00  0.00000000000E+00 -0.38078258460E+03  0.25126904361E+04  0.24836702379E+04 0.  0.
        5    1    3    3  502    0 -0.12314794701E+04  0.22719605522E+02 -0.35059082872E+03  0.12806224599E+04  0.46999998093E+01 0. -1.
       -5    1    3    3    0  502  0.12314794701E+04 -0.22719605522E+02 -0.30191755883E+02  0.12320679761E+04  0.46999998093E+01 0.  1.
</event>
<event>
 5   0  0.1474554E-05  0.1707170E+04  0.7818609E-02  0.8757286E-01
        1   -1    0    0  501    0  0.00000000000E+00  0.00000000000E+00  0.10802496084E+04  0.10802496084E+04  0.50400001928E-02 0. -1.
       -1   -1    0    0    0  501  0.00000000000E+00  0.00000000000E+00 -0.67448043299E+03  0.67448043301E+03  0.50400001928E-02 0.  1.
    10030    2    1    2    0    0  0.00000000000E+00  0.00000000000E+00  0.40576917545E+03  0.17547300415E+04  0.17071698494E+04 0.  0.
        5    1    3    3  502    0  0.40658335623E+03  0.73937216098E+03  0.33533058531E+03  0.90799224085E+03  0.46999998093E+01 0.  1.
       -5    1    3    3    0  502 -0.40658335623E+03 -0.73937216098E+03  0.70438590144E+02  0.84673780061E+03  0.46999998093E+01 0. -1.
</event>
<event>
 5   0  0.1474554E-05  0.2539712E+04  0.7818609E-02  0.8388973E-01
        1   -1    0    0  501    0  0.00000000000E+00  0.00000000000E+00  0.20709252962E+04  0.20709252962E+04  0.50400001928E-02 0.  1.
       -1   -1    0    0    0  501  0.00000000000E+00  0.00000000000E+00 -0.77865428569E+03  0.77865428571E+03  0.50400001928E-02 0. -1.
    10030    2    1    2    0    0  0.00000000000E+00  0.00000000000E+00  0.12922710105E+04  0.28495795820E+04  0.25397124698E+04 0.  0.
        5    1    3    3  502    0 -0.63284830923E+03  0.72656423273E+03 -0.28189541456E+03  0.10039321100E+04  0.46999998093E+01 0. -1.
       -5    1    3    3    0  502  0.63284830923E+03 -0.72656423273E+03  0.15741664251E+04  0.18456474719E+04  0.46999998093E+01 0.  1.
</event>
<event>
 5   0  0.3441646E-05  0.2545490E+04  0.7818609E-02  0.8386956E-01
       -2   -1    0    0    0  501  0.00000000000E+00  0.00000000000E+00  0.83141689410E+03  0.83141689410E+03  0.25500000920E-02 0. -1.
        2   -1    0    0  501    0  0.00000000000E+00  0.00000000000E+00 -0.19483363459E+04  0.19483363459E+04  0.25500000920E-02 0.  1.
    10030    2    1    2    0    0  0.00000000000E+00  0.00000000000E+00 -0.11169194518E+04  0.27797532400E+04  0.25454899358E+04 0.  0.
        4    1    3    3  502    0 -0.11307312109E+04 -0.13871228160E+03  0.61294387024E+02  0.11408561623E+04  0.12699999809E+01 0. -1.
       -4    1    3    3    0  502  0.11307312109E+04  0.13871228160E+03 -0.11782138388E+04  0.16388970777E+04  0.12699999809E+01 0.  1.
</event>
<event>
 5   0  0.1533248E-05  0.2586643E+04  0.7818609E-02  0.8372753E-01
       -1   -1    0    0    0  501  0.00000000000E+00  0.00000000000E+00  0.13745060742E+04  0.13745060742E+04  0.50400001928E-02 0. -1.
        1   -1    0    0  501    0  0.00000000000E+00  0.00000000000E+00 -0.12169318183E+04  0.12169318183E+04  0.50400001928E-02 0.  1.
    10030    2    1    2    0    0  0.00000000000E+00  0.00000000000E+00  0.15757425593E+03  0.25914378925E+04  0.25866427478E+04 0.  0.
        4    1    3    3  502    0  0.77788996122E+03 -0.57167739688E+02 -0.95477336386E+03  0.12328725528E+04  0.12699999809E+01 0.  1.
       -4    1    3    3    0  502 -0.77788996122E+03  0.57167739688E+02  0.11123476198E+04  0.13585653397E+04  0.12699999809E+01 0. -1.
</event>
<event>
 5   0  0.3647623E-05  0.2574457E+04  0.7818609E-02  0.8376930E-01
       -2   -1    0    0    0  501  0.00000000000E+00  0.00000000000E+00  0.68423069943E+03  0.68423069944E+03  0.25500000920E-02 0.  1.
        2   -1    0    0  501    0  0.00000000000E+00  0.00000000000E+00 -0.24216354395E+04  0.24216354395E+04  0.25500000920E-02 0. -1.
    10030    2    1    2    0    0  0.00000000000E+00  0.00000000000E+00 -0.17374047401E+04  0.31058661390E+04  0.25744570772E+04 0.  0.
        3    1    3    3  502    0  0.20826676550E+03  0.28519793612E+03 -0.23620506250E+04  0.23883040161E+04  0.10100000352E+00 0. -1.
       -3    1    3    3    0  502 -0.20826676550E+03 -0.28519793612E+03  0.62464588489E+03  0.71756212281E+03  0.10100000352E+00 0.  1.
</event>
<event>
 5   0  0.3849687E-05  0.2602412E+04  0.7818609E-02  0.8367382E-01
       -2   -1    0    0    0  501  0.00000000000E+00  0.00000000000E+00  0.54890752045E+03  0.54890752045E+03  0.25500000920E-02 0.  1.
        2   -1    0    0  501    0  0.00000000000E+00  0.00000000000E+00 -0.30845589234E+04  0.30845589234E+04  0.25500000920E-02 0. -1.
    10030    2    1    2    0    0  0.00000000000E+00  0.00000000000E+00 -0.25356514030E+04  0.36334664439E+04  0.26024124119E+04 0.  0.
        1    1    3    3  502    0 -0.95333869154E+03 -0.41985391486E+03 -0.17914925058E+03  0.10569893210E+04  0.50400001928E-02 0.  1.
       -1    1    3    3    0  502  0.95333869154E+03  0.41985391486E+03 -0.23565021524E+04  0.25764771229E+04  0.50400001928E-02 0. -1.
</event>
<event>
 5   0  0.1533248E-05  0.2612554E+04  0.7818609E-02  0.8363949E-01
       -1   -1    0    0    0  501  0.00000000000E+00  0.00000000000E+00  0.14902954843E+04  0.14902954843E+04  0.50400001928E-02 0.  1.
        1   -1    0    0  501    0  0.00000000000E+00  0.00000000000E+00 -0.11449804906E+04  0.11449804906E+04  0.50400001928E-02 0. -1.
    10030    2    1    2    0    0  0.00000000000E+00  0.00000000000E+00  0.34531499368E+03  0.26352759749E+04  0.26125537352E+04 0.  0.
        4    1    3    3  502    0  0.77921217951E+03 -0.71831141908E+03 -0.59766948809E+03  0.12166977215E+04  0.12699999809E+01 0. -1.
       -4    1    3    3    0  502 -0.77921217951E+03  0.71831141908E+03  0.94298448177E+03  0.14185782535E+04  0.12699999809E+01 0.  1.
</event>
<event>
 5   0  0.3849687E-05  0.2584350E+04  0.7818609E-02  0.8373537E-01
        2   -1    0    0  501    0  0.00000000000E+00  0.00000000000E+00  0.19057759287E+04  0.19057759287E+04  0.25500000920E-02 0. -1.
       -2   -1    0    0    0  501  0.00000000000E+00  0.00000000000E+00 -0.87613478971E+03  0.87613478972E+03  0.25500000920E-02 0.  1.
    10030    2    1    2    0    0  0.00000000000E+00  0.00000000000E+00  0.10296411389E+04  0.27819107184E+04  0.25843502800E+04 0.  0.
        1    1    3    3  502    0 -0.10613749627E+04 -0.14299753271E+02 -0.27839247047E+03  0.10973712508E+04  0.50400001928E-02 0.  1.
       -1    1    3    3    0  502  0.10613749627E+04  0.14299753271E+02  0.13080336094E+04  0.16845394676E+04  0.50400001928E-02 0. -1.
</event>
<event>
 5   0  0.3647623E-05  0.2623450E+04  0.7818609E-02  0.8360279E-01
       -2   -1    0    0    0  501  0.00000000000E+00  0.00000000000E+00  0.10886545778E+04  0.10886545778E+04  0.25500000920E-02 0.  1.
        2   -1    0    0  501    0  0.00000000000E+00  0.00000000000E+00 -0.15805031898E+04  0.15805031898E+04  0.25500000920E-02 0. -1.
    10030    2    1    2    0    0  0.00000000000E+00  0.00000000000E+00 -0.49184861205E+03  0.26691577676E+04  0.26234496624E+04 0.  0.
        3    1    3    3  502    0 -0.49621925775E+03 -0.70254056377E+03  0.76169695548E+03  0.11489034153E+04  0.10100000352E+00 0.  1.
       -3    1    3    3    0  502  0.49621925775E+03  0.70254056377E+03 -0.12535455675E+04  0.15202543523E+04  0.10100000352E+00 0. -1.
</event>
<event>
 5   0  0.1435062E-05  0.2615215E+04  0.7818609E-02  0.8363051E-01
        1   -1    0    0  501    0  0.00000000000E+00  0.00000000000E+00  0.12674122752E+04  0.12674122752E+04  0.50400001928E-02 0. -1.
       -1   -1    0    0    0  501  0.00000000000E+00  0.00000000000E+00 -0.13490776323E+04  0.13490776323E+04  0.50400001928E-02 0.  1.
    10030    2    1    2    0    0  0.00000000000E+00  0.00000000000E+00 -0.81665357070E+02  0.26164899076E+04  0.26152151357E+04 0.  0.
        2    1    3    3  502    0 -0.12654812301E+04 -0.31588520598E+03 -0.13367524152E+03  0.13111427372E+04  0.25500000920E-02 0.  1.
       -2    1    3    3    0  502  0.12654812301E+04  0.31588520598E+03  0.52009884451E+02  0.13053471704E+04  0.25500000920E-02 0. -1.
</event>
<event>
 5   0  0.3647623E-05  0.2592228E+04  0.7818609E-02  0.8370846E-01
       -2   -1    0    0    0  501  0.00000000000E+00  0.00000000000E+00  0.73338928676E+03  0.73338928677E+03  0.25500000920E-02 0.  1.
        2   -1    0    0  501    0  0.00000000000E+00  0.00000000000E+00 -0.22906144278E+04  0.22906144278E+04  0.25500000920E-02 0. -1.
    10030    2    1    2    0    0  0.00000000000E+00  0.00000000000E+00 -0.15572251410E+04  0.30240037145E+04  0.25922284478E+04 0.  0.
        3    1    3    3  502    0 -0.43749284386E+03  0.40217709300E+03 -0.21223244618E+04  0.22039527069E+04  0.10100000352E+00 0. -1.
       -3    1    3    3    0  502  0.43749284386E+03 -0.40217709300E+03  0.56509932084E+03  0.82005100767E+03  0.10100000352E+00 0.  1.
</event>
<event>
 5   0  0.1451052E-05  0.2809466E+04  0.7818609E-02  0.8300335E-01
       -1   -1    0    0    0  501  0.00000000000E+00  0.00000000000E+00  0.10180175855E+04  0.10180175855E+04  0.50400001928E-02 0.  1.
        1   -1    0    0  501    0  0.00000000000E+00  0.00000000000E+00 -0.19383509301E+04  0.19383509301E+04  0.50400001928E-02 0. -1.
    10030    2    1    2    0    0  0.00000000000E+00  0.00000000000E+00 -0.92033334454E+03  0.29563685156E+04  0.28094663791E+04 0.  0.
        1    1    3    3  502    0  0.12979851616E+04 -0.45607248327E+03 -0.75874175271E+03  0.15711322786E+04  0.50400001928E-02 0. -1.
       -1    1    3    3    0  502 -0.12979851616E+04  0.45607248327E+03 -0.16159159183E+03  0.13852362370E+04  0.50400001928E-02 0.  1.
</event>
<event>
 5   0  0.1435062E-05  0.2531458E+04  0.7818609E-02  0.8391863E-01
       -1   -1    0    0    0  501  0.00000000000E+00  0.00000000000E+00  0.12729984125E+04  0.12729984126E+04  0.50400001928E-02 0.  1.
        1   -1    0    0  501    0  0.00000000000E+00  0.00000000000E+00 -0.12585008716E+04  0.12585008716E+04  0.50400001928E-02 0. -1.
    10030    2    1    2    0    0  0.00000000000E+00  0.00000000000E+00  0.14497540940E+02  0.25314992842E+04  0.25314577711E+04 0.  0.
        2    1    3    3  502    0  0.10112870912E+04  0.75273444738E+03  0.12020584722E+03  0.12663965314E+04  0.25500000920E-02 0. -1.
       -2    1    3    3    0  502 -0.10112870912E+04 -0.75273444738E+03 -0.10570830628E+03  0.12651027528E+04  0.25500000920E-02 0.  1.
</event>
<event>
 5   0  0.1451052E-05  0.2623951E+04  0.7818609E-02  0.8360111E-01
        1   -1    0    0  501    0  0.00000000000E+00  0.00000000000E+00  0.16998595406E+04  0.16998595406E+04  0.50400001928E-02 0. -1.
       -1   -1    0    0    0  501  0.00000000000E+00  0.00000000000E+00 -0.10126008013E+04  0.10126008013E+04  0.50400001928E-02 0.  1.
    10030    2    1    2    0    0  0.00000000000E+00  0.00000000000E+00  0.68725873927E+03  0.27124603419E+04  0.26239505582E+04 0.  0.
        1    1    3    3  502    0  0.51593808486E+03  0.68412450507E+03 -0.68339246570E+03  0.10960126405E+04  0.50400001928E-02 0.  1.
       -1    1    3    3    0  502 -0.51593808486E+03 -0.68412450507E+03  0.13706512050E+04  0.16164477015E+04  0.50400001928E-02 0. -1.
</event>
<event>
 5   0  0.3849687E-05  0.2609458E+04  0.7818609E-02  0.8364996E-01
        2   -1    0    0  501    0  0.00000000000E+00  0.00000000000E+00  0.90325574617E+03  0.90325574617E+03  0.25500000920E-02 0.  1.
       -2   -1    0    0    0  501  0.00000000000E+00  0.00000000000E+00 -0.18846465056E+04  0.18846465056E+04  0.25500000920E-02 0. -1.
    10030    2    1    2    0    0  0.00000000000E+00  0.00000000000E+00 -0.98139075944E+03  0.27879022518E+04  0.26094580171E+04 0.  0.
        1    1    3    3  502    0 -0.64495639628E+03  0.60210836145E+03 -0.15175752216E+04  0.17554309401E+04  0.50400001928E-02 0. -1.
       -1    1    3    3    0  502  0.64495639628E+03 -0.60210836145E+03  0.53618446218E+03  0.10324713117E+04  0.50400001928E-02 0.  1.
</event>
<event>
 5   0  0.1451052E-05  0.2115477E+04  0.7818609E-02  0.8554456E-01
       -1   -1    0    0    0  501  0.00000000000E+00  0.00000000000E+00  0.11619765597E+04  0.11619765597E+04  0.50400001928E-02 0. -1.
        1   -1    0    0  501    0  0.00000000000E+00  0.00000000000E+00 -0.96285182236E+03  0.96285182238E+03  0.50400001928E-02 0.  1.
    10030    2    1    2    0    0  0.00000000000E+00  0.00000000000E+00  0.19912473735E+03  0.21248283821E+04  0.21154774857E+04 0.  0.
        1    1    3    3  502    0 -0.78520633585E+03 -0.11071843370E+03  0.80265917443E+03  0.11283037320E+04  0.50400001928E-02 0. -1.
       -1    1    3    3    0  502  0.78520633585E+03  0.11071843370E+03 -0.60353443708E+03  0.99652465006E+03  0.50400001928E-02 0.  1.
</event>
<event>
 5   0  0.1533248E-05  0.2593885E+04  0.7818609E-02  0.8370281E-01
        1   -1    0    0  501    0  0.00000000000E+00  0.00000000000E+00  0.21988458821E+04  0.21988458821E+04  0.50400001928E-02 0. -1.
       -1   -1    0    0    0  501  0.00000000000E+00  0.00000000000E+00 -0.76497423934E+03  0.76497423936E+03  0.50400001928E-02 0.  1.
    10030    2    1    2    0    0  0.00000000000E+00  0.00000000000E+00  0.14338716427E+04  0.29638201214E+04  0.25938854686E+04 0.  0.
        4    1    3    3  502    0  0.59172440574E+03  0.11348503411E+04  0.95671080168E+03  0.15979112115E+04  0.12699999809E+01 0. -1.
       -4    1    3    3    0  502 -0.59172440574E+03 -0.11348503411E+04  0.47716084107E+03  0.13659089099E+04  0.12699999809E+01 0.  1.
</event>
<event>
 5   0  0.3499642E-05  0.2581771E+04  0.7818609E-02  0.8374420E-01
       -2   -1    0    0    0  501  0.00000000000E+00  0.00000000000E+00  0.12100281479E+04  0.12100281479E+04  0.25500000920E-02 0.  1.
        2   -1    0    0  501    0  0.00000000000E+00  0.00000000000E+00 -0.13771456230E+04  0.13771456230E+04  0.25500000920E-02 0. -1.
    10030    2    1    2    0    0  0.00000000000E+00  0.00000000000E+00 -0.16711747506E+03  0.25871737710E+04  0.25817706851E+04 0.  0.
        2    1    3    3  502    0  0.48681910413E+03  0.98795118231E+03 -0.75827651417E+03  0.13371700156E+04  0.25500000920E-02 0. -1.
       -2    1    3    3    0  502 -0.48681910413E+03 -0.98795118231E+03  0.59115903911E+03  0.12500037553E+04  0.25500000920E-02 0.  1.
</event>
<event>
 5   0  0.3499642E-05  0.2555100E+04  0.7818609E-02  0.8383615E-01
       -2   -1    0    0    0  501  0.00000000000E+00  0.00000000000E+00  0.10891721997E+04  0.10891721997E+04  0.25500000920E-02 0. -1.
        2   -1    0    0  501    0  0.00000000000E+00  0.00000000000E+00 -0.14985081798E+04  0.14985081798E+04  0.25500000920E-02 0.  1.
    10030    2    1    2    0    0  0.00000000000E+00  0.00000000000E+00 -0.40933598012E+03  0.25876803795E+04  0.25550995678E+04 0.  0.
        2    1    3    3  502    0  0.70413269865E+03  0.87388230396E+03  0.41357524930E+03  0.11960424847E+04  0.25500000920E-02 0. -1.
       -2    1    3    3    0  502 -0.70413269865E+03 -0.87388230396E+03 -0.82291122942E+03  0.13916378947E+04  0.25500000920E-02 0.  1.
</event>
<event>
 5   0  0.3508470E-05  0.2570434E+04  0.7818609E-02  0.8378314E-01
       -2   -1    0    0    0  501  0.00000000000E+00  0.00000000000E+00  0.60941214394E+03  0.60941214394E+03  0.25500000920E-02 0.  1.
        2   -1    0    0  501    0  0.00000000000E+00  0.00000000000E+00 -0.27104525826E+04  0.27104525826E+04  0.25500000920E-02 0. -1.
    10030    2    1    2    0    0  0.00000000000E+00  0.00000000000E+00 -0.21010404387E+04  0.33198647266E+04  0.25704339863E+04 0.  0.
        5    1    3    3  502    0 -0.78206956883E+03 -0.29604214222E+02 -0.23671820455E+04  0.24932072008E+04  0.46999998093E+01 0. -1.
       -5    1    3    3    0  502  0.78206956883E+03  0.29604214222E+02  0.26614160677E+03  0.82665752573E+03  0.46999998093E+01 0.  1.
</event>
<event>
 5   0  0.3849687E-05  0.2611268E+04  0.7818609E-02  0.8364384E-01
        2   -1    0    0  501    0  0.00000000000E+00  0.00000000000E+00  0.20209821550E+04  0.20209821550E+04  0.25500000920E-02 0.  1.
       -2   -1    0    0    0  501  0.00000000000E+00  0.00000000000E+00 -0.84349064179E+03  0.84349064180E+03  0.25500000920E-02 0. -1.
    10030    2    1    2    0    0  0.00000000000E+00  0.00000000000E+00  0.11774915132E+04  0.28644727968E+04  0.26112675351E+04 0.  0.
        1    1    3    3  502    0  0.20415479066E+03  0.62334431166E+03 -0.64963275930E+03  0.92317930621E+03  0.50400001928E-02 0. -1.
       -1    1    3    3    0  502 -0.20415479066E+03 -0.62334431166E+03  0.18271242725E+04  0.19412934906E+04  0.50400001928E-02 0.  1.
</event>
<event>
 5   0  0.1497497E-05  0.2610396E+04  0.7818609E-02  0.8364678E-01
        1   -1    0    0  501    0  0.00000000000E+00  0.00000000000E+00  0.19837274128E+04  0.19837274128E+04  0.50400001928E-02 0.  1.
       -1   -1    0    0    0  501  0.00000000000E+00  0.00000000000E+00 -0.85875834568E+03  0.85875834569E+03  0.50400001928E-02 0. -1.
    10030    2    1    2    0    0  0.00000000000E+00  0.00000000000E+00  0.11249690671E+04  0.28424857585E+04  0.26103964996E+04 0.  0.
        3    1    3    3  502    0  0.89790660252E+02  0.12980939527E+04  0.67370367276E+03  0.14652600184E+04  0.10100000352E+00 0.  1.
       -3    1    3    3    0  502 -0.89790660252E+02 -0.12980939527E+04  0.45126539433E+03  0.13772257400E+04  0.10100000352E+00 0. -1.
</event>
<event>
 5   0  0.3441646E-05  0.2553398E+04  0.7818609E-02  0.8384205E-01
       -2   -1    0    0    0  501  0.00000000000E+00  0.00000000000E+00  0.81203857381E+03  0.81203857381E+03  0.25500000920E-02 0.  1.
        2   -1    0    0  501    0  0.00000000000E+00  0.00000000000E+00 -0.20072453732E+04  0.20072453732E+04  0.25500000920E-02 0. -1.
    10030    2    1    2    0    0  0.00000000000E+00  0.00000000000E+00 -0.11952067994E+04  0.28192839471E+04  0.25533982613E+04 0.  0.
        4    1    3    3  502    0  0.62983239221E+03  0.22762034663E+03 -0.17977370779E+04  0.19184264590E+04  0.12699999809E+01 0. -1.
       -4    1    3    3    0  502 -0.62983239221E+03 -0.22762034663E+03  0.60253027844E+03  0.90085748807E+03  0.12699999809E+01 0.  1.
</event>
<event>
 5   0  0.3508470E-05  0.2554871E+04  0.7818609E-02  0.8383694E-01
       -2   -1    0    0    0  501  0.00000000000E+00  0.00000000000E+00  0.96754504971E+03  0.96754504972E+03  0.25500000920E-02 0.  1.
        2   -1    0    0  501    0  0.00000000000E+00  0.00000000000E+00 -0.16865790512E+04  0.16865790512E+04  0.25500000920E-02 0. -1.
    10030    2    1    2    0    0  0.00000000000E+00  0.00000000000E+00 -0.71903400149E+03  0.26541241009E+04  0.25548708084E+04 0.  0.
        5    1    3    3  502    0 -0.85129912631E+03 -0.69248599265E+03 -0.10388096975E+04  0.15110905764E+04  0.46999998093E+01 0. -1.
       -5    1    3    3    0  502  0.85129912631E+03  0.69248599265E+03  0.31977569598E+03  0.11430335245E+04  0.46999998093E+01 0.  1.
</event>
<event>
 5   0  0.3647623E-05  0.2606044E+04  0.7818609E-02  0.8366151E-01
       -2   -1    0    0    0  501  0.00000000000E+00  0.00000000000E+00  0.14115342969E+04  0.14115342969E+04  0.25500000920E-02 0.  1.
        2   -1    0    0  501    0  0.00000000000E+00  0.00000000000E+00 -0.12028519143E+04  0.12028519143E+04  0.25500000920E-02 0. -1.
    10030    2    1    2    0    0  0.00000000000E+00  0.00000000000E+00  0.20868238259E+03  0.26143862111E+04  0.26060443059E+04 0.  0.
        3    1    3    3  502    0 -0.69922812829E+02  0.46292488491E+03  0.13242426921E+04  0.14045666117E+04  0.10100000352E+00 0.  1.
       -3    1    3    3    0  502  0.69922812829E+02 -0.46292488491E+03 -0.11155603095E+04  0.12098195995E+04  0.10100000352E+00 0. -1.
</event>
<event>
 5   0  0.1451052E-05  0.2616140E+04  0.7818609E-02  0.8362739E-01
       -1   -1    0    0    0  501  0.00000000000E+00  0.00000000000E+00  0.10720999132E+04  0.10720999132E+04  0.50400001928E-02 0.  1.
        1   -1    0    0  501    0  0.00000000000E+00  0.00000000000E+00 -0.15959775536E+04  0.15959775536E+04  0.50400001928E-02 0. -1.
    10030    2    1    2    0    0  0.00000000000E+00  0.00000000000E+00 -0.52387764041E+03  0.26680774668E+04  0.26161402078E+04 0.  0.
        1    1    3    3  502    0 -0.16921124282E+02  0.94409133467E+03 -0.11851463640E+04  0.15153107526E+04  0.50400001928E-02 0. -1.
       -1    1    3    3    0  502  0.16921124282E+02 -0.94409133467E+03  0.66126872362E+03  0.11527667143E+04  0.50400001928E-02 0.  1.
</event>
<event>
 5   0  0.1435062E-05  0.2634128E+04  0.7818609E-02  0.8356700E-01
        1   -1    0    0  501    0  0.00000000000E+00  0.00000000000E+00  0.16173084021E+04  0.16173084022E+04  0.50400001928E-02 0.  1.
       -1   -1    0    0    0  501  0.00000000000E+00  0.00000000000E+00 -0.10725585410E+04  0.10725585410E+04  0.50400001928E-02 0. -1.
    10030    2    1    2    0    0  0.00000000000E+00  0.00000000000E+00  0.54474986118E+03  0.26898669431E+04  0.26341282734E+04 0.  0.
        2    1    3    3  502    0 -0.84486497855E+03  0.93185100663E+03  0.67117009745E+03  0.14256971734E+04  0.25500000920E-02 0. -1.
       -2    1    3    3    0  502  0.84486497855E+03 -0.93185100663E+03 -0.12642023627E+03  0.12641697697E+04  0.25500000920E-02 0.  1.
</event>
<event>
 5   0  0.1435062E-05  0.2460297E+04  0.7818609E-02  0.8417268E-01
        1   -1    0    0  501    0  0.00000000000E+00  0.00000000000E+00  0.95852559958E+03  0.95852559959E+03  0.50400001928E-02 0.  1.
       -1   -1    0    0    0  501  0.00000000000E+00  0.00000000000E+00 -0.15787425941E+04  0.15787425941E+04  0.50400001928E-02 0. -1.
    10030    2    1    2    0    0  0.00000000000E+00  0.00000000000E+00 -0.62021699455E+03  0.25372681937E+04  0.24602968859E+04 0.  0.
        2    1    3    3  502    0 -0.69251235734E+03 -0.28688831277E+03  0.69579761516E+03  0.10227475692E+04  0.25500000920E-02 0.  1.
       -2    1    3    3    0  502  0.69251235734E+03  0.28688831277E+03 -0.13160146097E+04  0.15145206245E+04  0.25500000920E-02 0. -1.
</event>
<event>
 5   0  0.3499642E-05  0.1677290E+04  0.7818609E-02  0.8774424E-01
        2   -1    0    0  501    0  0.00000000000E+00  0.00000000000E+00  0.23598847536E+04  0.23598847536E+04  0.25500000920E-02 0.  1.
       -2   -1    0    0    0  501  0.00000000000E+00  0.00000000000E+00 -0.29803372877E+03  0.29803372879E+03  0.25500000920E-02 0. -1.
    10030    2    1    2    0    0  0.00000000000E+00  0.00000000000E+00  0.20618510249E+04  0.26579184824E+04  0.16772897813E+04 0.  0.
        2    1    3    3  502    0  0.13193802894E+03 -0.31836936831E+03 -0.18064185155E+03  0.38909918620E+03  0.25500000920E-02 0. -1.
       -2    1    3    3    0  502 -0.13193802894E+03  0.31836936831E+03  0.22424928764E+04  0.22688192962E+04  0.25500000920E-02 0.  1.
</event>
<event>
 5   0  0.3441646E-05  0.2577355E+04  0.7818609E-02  0.8375934E-01
       -2   -1    0    0    0  501  0.00000000000E+00  0.00000000000E+00  0.82497062191E+03  0.82497062192E+03  0.25500000920E-02 0. -1.
        2   -1    0    0  501    0  0.00000000000E+00  0.00000000000E+00 -0.20130292165E+04  0.20130292165E+04  0.25500000920E-02 0.  1.
    10030    2    1    2    0    0  0.00000000000E+00  0.00000000000E+00 -0.11880585946E+04  0.28379998384E+04  0.25773552062E+04 0.  0.
        4    1    3    3  502    0 -0.14701935371E+02  0.12549383651E+04 -0.91619537080E+03  0.15538667953E+04  0.12699999809E+01 0. -1.
       -4    1    3    3    0  502  0.14701935371E+02 -0.12549383651E+04 -0.27186322381E+03  0.12841330431E+04  0.12699999809E+01 0.  1.
</event>
<event>
 5   0  0.3508470E-05  0.2584474E+04  0.7818609E-02  0.8373494E-01
        2   -1    0    0  501    0  0.00000000000E+00  0.00000000000E+00  0.15320240166E+04  0.15320240166E+04  0.25500000920E-02 0.  1.
       -2   -1    0    0    0  501  0.00000000000E+00  0.00000000000E+00 -0.10899809611E+04  0.10899809611E+04  0.25500000920E-02 0. -1.
    10030    2    1    2    0    0  0.00000000000E+00  0.00000000000E+00  0.44204305544E+03  0.26220049777E+04  0.25844744225E+04 0.  0.
        5    1    3    3  502    0 -0.12772862767E+04 -0.96688836597E+02  0.39392515852E+03  0.13401522616E+04  0.46999998093E+01 0.  1.
       -5    1    3    3    0  502  0.12772862767E+04  0.96688836597E+02  0.48117896922E+02  0.12818527161E+04  0.46999998093E+01 0. -1.
</event>
<event>
 5   0  0.1451052E-05  0.2627564E+04  0.7818609E-02  0.8358898E-01
        1   -1    0    0  501    0  0.00000000000E+00  0.00000000000E+00  0.16048349335E+04  0.16048349335E+04  0.50400001928E-02 0. -1.
       -1   -1    0    0    0  501  0.00000000000E+00  0.00000000000E+00 -0.10755144394E+04  0.10755144394E+04  0.50400001928E-02 0.  1.
    10030    2    1    2    0    0  0.00000000000E+00  0.00000000000E+00  0.52932049409E+03  0.26803493729E+04  0.26275640002E+04 0.  0.
        1    1    3    3  502    0 -0.53737112566E+03  0.97857555285E+03 -0.44181703646E+03  0.12006582083E+04  0.50400001928E-02 0.  1.
       -1    1    3    3    0  502  0.53737112566E+03 -0.97857555285E+03  0.97113753056E+03  0.14796911646E+04  0.50400001928E-02 0. -1.
</event>
<event>
 5   0  0.1533248E-05  0.2630174E+04  0.7818609E-02  0.8358023E-01
        1   -1    0    0  501    0  0.00000000000E+00  0.00000000000E+00  0.19132692389E+04  0.19132692389E+04  0.50400001928E-02 0.  1.
       -1   -1    0    0    0  501  0.00000000000E+00  0.00000000000E+00 -0.90392612489E+03  0.90392612490E+03  0.50400001928E-02 0. -1.
    10030    2    1    2    0    0  0.00000000000E+00  0.00000000000E+00  0.10093431140E+04  0.28171953638E+04  0.26301741760E+04 0.  0.
        4    1    3    3  502    0 -0.91289366223E+02  0.17147280032E+03 -0.88847290875E+03  0.90946269418E+03  0.12699999809E+01 0. -1.
       -4    1    3    3    0  502  0.91289366223E+02 -0.17147280032E+03  0.18978160227E+04  0.19077326696E+04  0.12699999809E+01 0.  1.
</event>
<event>
 5   0  0.3499642E-05  0.2769053E+04  0.7818609E-02  0.8312941E-01
       -2   -1    0    0    0  501  0.00000000000E+00  0.00000000000E+00  0.16207726278E+04  0.16207726278E+04  0.25500000920E-02 0.  1.
        2   -1    0    0  501    0  0.00000000000E+00  0.00000000000E+00 -0.11827157482E+04  0.11827157482E+04  0.25500000920E-02 0. -1.
    10030    2    1    2    0    0  0.00000000000E+00  0.00000000000E+00  0.43805687955E+03  0.28034883760E+04  0.27690527703E+04 0.  0.
        2    1    3    3  502    0  0.10780132741E+04  0.38604967006E+03 -0.56896045661E+03  0.12786176004E+04  0.25500000920E-02 0. -1.
       -2    1    3    3    0  502 -0.10780132741E+04 -0.38604967006E+03  0.10070173362E+04  0.15248707756E+04  0.25500000920E-02 0.  1.
</event>
<event>
 5   0  0.3849687E-05  0.2619901E+04  0.7818609E-02  0.8361473E-01
        2   -1    0    0  501    0  0.00000000000E+00  0.00000000000E+00  0.17801572003E+04  0.17801572003E+04  0.25500000920E-02 0.  1.
       -2   -1    0    0    0  501  0.00000000000E+00  0.00000000000E+00 -0.96394281283E+03  0.96394281283E+03  0.25500000920E-02 0. -1.
    10030    2    1    2    0    0  0.00000000000E+00  0.00000000000E+00  0.81621438750E+03  0.27441000132E+04  0.26199005622E+04 0.  0.
        1    1    3    3  502    0  0.51371939122E+03 -0.93879833670E+03  0.11993806570E+04  0.16074090613E+04  0.50400001928E-02 0.  1.
       -1    1    3    3    0  502 -0.51371939122E+03  0.93879833670E+03 -0.38316626953E+03  0.11366909519E+04  0.50400001928E-02 0. -1.
</event>
<event>
 5   0  0.3441646E-05  0.2580080E+04  0.7818609E-02  0.8374999E-01
       -2   -1    0    0    0  501  0.00000000000E+00  0.00000000000E+00  0.75256268864E+03  0.75256268864E+03  0.25500000920E-02 0. -1.
        2   -1    0    0  501    0  0.00000000000E+00  0.00000000000E+00 -0.22113811049E+04  0.22113811049E+04  0.25500000920E-02 0.  1.
    10030    2    1    2    0    0  0.00000000000E+00  0.00000000000E+00 -0.14588184163E+04  0.29639437936E+04  0.25800797739E+04 0.  0.
        4    1    3    3  502    0  0.53529786957E+03  0.65794673964E+03  0.38719278847E+03  0.93239347365E+03  0.12699999809E+01 0. -1.
       -4    1    3    3    0  502 -0.53529786957E+03 -0.65794673964E+03 -0.18460112047E+04  0.20315503199E+04  0.12699999809E+01 0.  1.
</event>
<event>
 5   0  0.1435062E-05  0.2648574E+04  0.7818609E-02  0.8351886E-01
        1   -1    0    0  501    0  0.00000000000E+00  0.00000000000E+00  0.15688377300E+04  0.15688377300E+04  0.50400001928E-02 0. -1.
       -1   -1    0    0    0  501  0.00000000000E+00  0.00000000000E+00 -0.11178572673E+04  0.11178572673E+04  0.50400001928E-02 0.  1.
    10030    2    1    2    0    0  0.00000000000E+00  0.00000000000E+00  0.45098046273E+03  0.26866949973E+04  0.26485744525E+04 0.  0.
        2    1    3    3  502    0 -0.89710145386E+03  0.96723577309E+03  0.10806314742E+03  0.13236365449E+04  0.25500000920E-02 0.  1.
       -2    1    3    3    0  502  0.89710145386E+03 -0.96723577309E+03  0.34291731530E+03  0.13630584523E+04  0.25500000920E-02 0. -1.
</event>
<event>
 5   0  0.3508470E-05  0.2644531E+04  0.7818609E-02  0.8353230E-01
        2   -1    0    0  501    0  0.00000000000E+00  0.00000000000E+00  0.95145094277E+03  0.95145094277E+03  0.25500000920E-02 0. -1.
       -2   -1    0    0    0  501  0.00000000000E+00  0.00000000000E+00 -0.18376004522E+04  0.18376004522E+04  0.25500000920E-02 0.  1.
    10030    2    1    2    0    0  0.00000000000E+00  0.00000000000E+00 -0.88614950944E+03  0.27890513950E+04  0.26445314766E+04 0.  0.
        5    1    3    3  502    0  0.96213712697E+03 -0.84861679480E+03 -0.10541211817E+03  0.12872420597E+04  0.46999998093E+01 0.  1.
       -5    1    3    3    0  502 -0.96213712697E+03  0.84861679480E+03 -0.78073739127E+03  0.15018093353E+04  0.46999998093E+01 0. -1.
</event>
<event>
 5   0  0.1533248E-05  0.2578303E+04  0.7818609E-02  0.8375609E-01
       -1   -1    0    0    0  501  0.00000000000E+00  0.00000000000E+00  0.87309195458E+03  0.87309195460E+03  0.50400001928E-02 0.  1.
        1   -1    0    0  501    0  0.00000000000E+00  0.00000000000E+00 -0.19034789918E+04  0.19034789918E+04  0.50400001928E-02 0. -1.
    10030    2    1    2    0    0  0.00000000000E+00  0.00000000000E+00 -0.10303870373E+04  0.27765709464E+04  0.25783034682E+04 0.  0.
        4    1    3    3  502    0 -0.42736879894E+03 -0.10578830356E+04 -0.11614671485E+04  0.16281179801E+04  0.12699999809E+01 0. -1.
       -4    1    3    3    0  502  0.42736879894E+03  0.10578830356E+04  0.13108011121E+03  0.11484529663E+04  0.12699999809E+01 0.  1.
</event>
<event>
 5   0  0.1451052E-05  0.2648587E+04  0.7818609E-02  0.8351882E-01
       -1   -1    0    0    0  501  0.00000000000E+00  0.00000000000E+00  0.98653072406E+03  0.98653072407E+03  0.50400001928E-02 0.  1.
        1   -1    0    0  501    0  0.00000000000E+00  0.00000000000E+00 -0.17776973019E+04  0.17776973019E+04  0.50400001928E-02 0. -1.
    10030    2    1    2    0    0  0.00000000000E+00  0.00000000000E+00 -0.79116657785E+03  0.27642280260E+04  0.26485867978E+04 0.  0.
        1    1    3    3  502    0  0.28828432461E+03 -0.11934809859E+04 -0.91348371508E+03  0.15303454555E+04  0.50400001928E-02 0. -1.
       -1    1    3    3    0  502 -0.28828432461E+03  0.11934809859E+04  0.12231713723E+03  0.12338825704E+04  0.50400001928E-02 0.  1.
</event>
<event>
 5   0  0.1451052E-05  0.2571723E+04  0.7818609E-02  0.8377870E-01
        1   -1    0    0  501    0  0.00000000000E+00  0.00000000000E+00  0.98086801384E+03  0.98086801386E+03  0.50400001928E-02 0.  1.
       -1   -1    0    0    0  501  0.00000000000E+00  0.00000000000E+00 -0.16856900065E+04  0.16856900065E+04  0.50400001928E-02 0. -1.
    10030    2    1    2    0    0  0.00000000000E+00  0.00000000000E+00 -0.70482199264E+03  0.26665580203E+04  0.25717226978E+04 0.  0.
        1    1    3    3  502    0 -0.71450681343E+03 -0.49829783391E+03  0.62831092651E+03  0.10740555563E+04  0.50400001928E-02 0.  1.
       -1    1    3    3    0  502  0.71450681343E+03  0.49829783391E+03 -0.13331329192E+04  0.15925024640E+04  0.50400001928E-02 0. -1.
</event>
<event>
 5   0  0.1435062E-05  0.2528226E+04  0.7818609E-02  0.8392999E-01
        1   -1    0    0  501    0  0.00000000000E+00  0.00000000000E+00  0.19273683484E+04  0.19273683484E+04  0.50400001928E-02 0.  1.
       -1   -1    0    0    0  501  0.00000000000E+00  0.00000000000E+00 -0.82910000591E+03  0.82910000593E+03  0.50400001928E-02 0. -1.
    10030    2    1    2    0    0  0.00000000000E+00  0.00000000000E+00  0.10982683425E+04  0.27564683544E+04  0.25282255509E+04 0.  0.
        2    1    3    3  502    0  0.11063510147E+03  0.47979839559E+02 -0.82281446496E+03  0.83160437375E+03  0.25500000920E-02 0. -1.
       -2    1    3    3    0  502 -0.11063510147E+03 -0.47979839559E+02  0.19210828075E+04  0.19248639806E+04  0.25500000920E-02 0.  1.
</event>
<event>
 5   0  0.1497497E-05  0.2219233E+04  0.7818609E-02  0.8510465E-01
        1   -1    0    0  501    0  0.00000000000E+00  0.00000000000E+00  0.19791133287E+04  0.19791133287E+04  0.50400001928E-02 0. -1.
       -1   -1    0    0    0  501  0.00000000000E+00  0.00000000000E+00 -0.62212148265E+03  0.62212148267E+03  0.50400001928E-02 0.  1.
    10030    2    1    2    0    0  0.00000000000E+00  0.00000000000E+00  0.13569918460E+04  0.26012348114E+04  0.22192331274E+04 0.  0.
        3    1    3    3  502    0 -0.58879940324E+03  0.35738069857E+03  0.16982127582E+04  0.18325753145E+04  0.10100000352E+00 0. -1.
       -3    1    3    3    0  502  0.58879940324E+03 -0.35738069857E+03 -0.34122091220E+03  0.76865949684E+03  0.10100000352E+00 0.  1.
</event>
<event>
 5   0  0.3647623E-05  0.2291047E+04  0.7818609E-02  0.8481460E-01
        2   -1    0    0  501    0  0.00000000000E+00  0.00000000000E+00  0.11156932599E+04  0.11156932599E+04  0.25500000920E-02 0. -1.
       -2   -1    0    0    0  501  0.00000000000E+00  0.00000000000E+00 -0.11761508369E+04  0.11761508369E+04  0.25500000920E-02 0.  1.
    10030    2    1    2    0    0  0.00000000000E+00  0.00000000000E+00 -0.60457577009E+02  0.22918440969E+04  0.22910465394E+04 0.  0.
        3    1    3    3  502    0 -0.56509988052E+02  0.11096938166E+04  0.24845355803E+03  0.11385705626E+04  0.10100000352E+00 0. -1.
       -3    1    3    3    0  502  0.56509988052E+02 -0.11096938166E+04 -0.30891113504E+03  0.11532735343E+04  0.10100000352E+00 0.  1.
</event>
<event>
 5   0  0.1497497E-05  0.2467547E+04  0.7818609E-02  0.8414639E-01
        1   -1    0    0  501    0  0.00000000000E+00  0.00000000000E+00  0.84628153617E+03  0.84628153619E+03  0.50400001928E-02 0.  1.
       -1   -1    0    0    0  501  0.00000000000E+00  0.00000000000E+00 -0.17986887451E+04  0.17986887451E+04  0.50400001928E-02 0. -1.
    10030    2    1    2    0    0  0.00000000000E+00  0.00000000000E+00 -0.95240720890E+03  0.26449702813E+04  0.24675470203E+04 0.  0.
        3    1    3    3  502    0  0.37756173683E+03 -0.44071245183E+03  0.69085022067E+03  0.90224961508E+03  0.10100000352E+00 0.  1.
       -3    1    3    3    0  502 -0.37756173683E+03  0.44071245183E+03 -0.16432574296E+04  0.17427206662E+04  0.10100000352E+00 0. -1.
</event>
<event>
 5   0  0.3441646E-05  0.2601790E+04  0.7818609E-02  0.8367593E-01
        2   -1    0    0  501    0  0.00000000000E+00  0.00000000000E+00  0.18582108545E+04  0.18582108545E+04  0.25500000920E-02 0.  1.
       -2   -1    0    0    0  501  0.00000000000E+00  0.00000000000E+00 -0.91072985216E+03  0.91072985216E+03  0.25500000920E-02 0. -1.
    10030    2    1    2    0    0  0.00000000000E+00  0.00000000000E+00  0.94748100237E+03  0.27689407067E+04  0.26017902274E+04 0.  0.
        4    1    3    3  502    0 -0.66298125781E+03  0.45844978288E+02 -0.71644479332E+03  0.97721065540E+03  0.12699999809E+01 0. -1.
       -4    1    3    3    0  502  0.66298125781E+03 -0.45844978288E+02  0.16639257957E+04  0.17917300513E+04  0.12699999809E+01 0.  1.
</event>
<event>
 5   0  0.3647623E-05  0.2560043E+04  0.7818609E-02  0.8381902E-01
        2   -1    0    0  501    0  0.00000000000E+00  0.00000000000E+00  0.15240530817E+04  0.15240530817E+04  0.25500000920E-02 0. -1.
       -2   -1    0    0    0  501  0.00000000000E+00  0.00000000000E+00 -0.10750645611E+04  0.10750645611E+04  0.25500000920E-02 0.  1.
    10030    2    1    2    0    0  0.00000000000E+00  0.00000000000E+00  0.44898852059E+03  0.25991176428E+04  0.25600433257E+04 0.  0.
        3    1    3    3  502    0  0.81995940394E+03 -0.91829180734E+03 -0.13137274997E+03  0.12380840348E+04  0.10100000352E+00 0.  1.
       -3    1    3    3    0  502 -0.81995940394E+03  0.91829180734E+03  0.58036127056E+03  0.13610336080E+04  0.10100000352E+00 0. -1.
</event>
<event>
 5   0  0.3499642E-05  0.2661305E+04  0.7818609E-02  0.8347670E-01
       -2   -1    0    0    0  501  0.00000000000E+00  0.00000000000E+00  0.88157164292E+03  0.88157164292E+03  0.25500000920E-02 0.  1.
        2   -1    0    0  501    0  0.00000000000E+00  0.00000000000E+00 -0.20084993994E+04  0.20084993994E+04  0.25500000920E-02 0. -1.
    10030    2    1    2    0    0  0.00000000000E+00  0.00000000000E+00 -0.11269277565E+04  0.28900710423E+04  0.26613050298E+04 0.  0.
        2    1    3    3  502    0 -0.62148198786E+03  0.61106982588E+03 -0.16553749683E+04  0.18708053022E+04  0.25500000920E-02 0. -1.
       -2    1    3    3    0  502  0.62148198786E+03 -0.61106982588E+03  0.52844721176E+03  0.10192657401E+04  0.25500000920E-02 0.  1.
</event>
<event>
 5   0  0.1474554E-05  0.2573176E+04  0.7818609E-02  0.8377370E-01
        1   -1    0    0  501    0  0.00000000000E+00  0.00000000000E+00  0.21110530591E+04  0.21110530591E+04  0.50400001928E-02 0. -1.
       -1   -1    0    0    0  501  0.00000000000E+00  0.00000000000E+00 -0.78411506289E+03  0.78411506290E+03  0.50400001928E-02 0.  1.
    10030    2    1    2    0    0  0.00000000000E+00  0.00000000000E+00  0.13269379962E+04  0.28951681220E+04  0.25731758605E+04 0.  0.
        5    1    3    3  502    0  0.50194552165E+03 -0.79907825028E+02  0.19932956647E+04  0.20570814919E+04  0.46999998093E+01 0. -1.
       -5    1    3    3    0  502 -0.50194552165E+03  0.79907825028E+02 -0.66635766852E+03  0.83808663013E+03  0.46999998093E+01 0.  1.
</event>
<event>
 5   0  0.1451052E-05  0.2672251E+04  0.7818609E-02  0.8344065E-01
        1   -1    0    0  501    0  0.00000000000E+00  0.00000000000E+00  0.14505781592E+04  0.14505781592E+04  0.50400001928E-02 0.  1.
       -1   -1    0    0    0  501  0.00000000000E+00  0.00000000000E+00 -0.12307034860E+04  0.12307034860E+04  0.50400001928E-02 0. -1.
    10030    2    1    2    0    0  0.00000000000E+00  0.00000000000E+00  0.21987467313E+03  0.26812816452E+04  0.26722511838E+04 0.  0.
        1    1    3    3  502    0  0.55713908730E+03 -0.39042826755E+03 -0.10439024071E+04  0.12460218418E+04  0.50400001928E-02 0. -1.
       -1    1    3    3    0  502 -0.55713908730E+03  0.39042826755E+03  0.12637770802E+04  0.14352598034E+04  0.50400001928E-02 0.  1.
</event>
<event>
 5   0  0.3441646E-05  0.2618695E+04  0.7818609E-02  0.8361878E-01
       -2   -1    0    0    0  501  0.00000000000E+00  0.00000000000E+00  0.13813914618E+04  0.13813914618E+04  0.25500000920E-02 0. -1.
        2   -1    0    0  501    0  0.00000000000E+00  0.00000000000E+00 -0.12410612531E+04  0.12410612531E+04  0.25500000920E-02 0.  1.
    10030    2    1    2    0    0  0.00000000000E+00  0.00000000000E+00  0.14033020869E+03  0.26224527148E+04  0.26186954145E+04 0.  0.
        4    1    3    3  502    0  0.91435185859E+03  0.93590983576E+03  0.20867818294E+02  0.13085884077E+04  0.12699999809E+01 0. -1.
       -4    1    3    3    0  502 -0.91435185859E+03 -0.93590983576E+03  0.11946239040E+03  0.13138643072E+04  0.12699999809E+01 0.  1.
</event>
<event>
 5   0  0.3441646E-05  0.2603794E+04  0.7818609E-02  0.8366914E-01
        2   -1    0    0  501    0  0.00000000000E+00  0.00000000000E+00  0.14907780732E+04  0.14907780732E+04  0.25500000920E-02 0. -1.
       -2   -1    0    0    0  501  0.00000000000E+00  0.00000000000E+00 -0.11369467829E+04  0.11369467829E+04  0.25500000920E-02 0.  1.
    10030    2    1    2    0    0  0.00000000000E+00  0.00000000000E+00  0.35383129028E+03  0.26277248560E+04  0.26037936433E+04 0.  0.
        4    1    3    3  502    0  0.11706242175E+04  0.67481893917E+02  0.74781704958E+03  0.13907360703E+04  0.12699999809E+01 0. -1.
       -4    1    3    3    0  502 -0.11706242175E+04 -0.67481893917E+02 -0.39398575930E+03  0.12369887857E+04  0.12699999809E+01 0.  1.
</event>
<event>
 5   0  0.3508470E-05  0.2364489E+04  0.7818609E-02  0.8452919E-01
        2   -1    0    0  501    0  0.00000000000E+00  0.00000000000E+00  0.27184190824E+04  0.27184190824E+04  0.25500000920E-02 0.  1.
       -2   -1    0    0    0  501  0.00000000000E+00  0.00000000000E+00 -0.51416000704E+03  0.51416000705E+03  0.25500000920E-02 0. -1.
    10030    2    1    2    0    0  0.00000000000E+00  0.00000000000E+00  0.22042590754E+04  0.32325790895E+04  0.23644892680E+04 0.  0.
        5    1    3    3  502    0 -0.10015258366E+04 -0.20469622196E+03  0.29017747641E+03  0.10626286287E+04  0.46999998093E+01 0. -1.
       -5    1    3    3    0  502  0.10015258366E+04  0.20469622196E+03  0.19140815990E+04  0.21699504608E+04  0.46999998093E+01 0.  1.
</event>
<event>
 5   0  0.3647623E-05  0.2593861E+04  0.7818609E-02  0.8370289E-01
        2   -1    0    0  501    0  0.00000000000E+00  0.00000000000E+00  0.26142972805E+04  0.26142972805E+04  0.25500000920E-02 0. -1.
       -2   -1    0    0    0  501  0.00000000000E+00  0.00000000000E+00 -0.64339619372E+03  0.64339619372E+03  0.25500000920E-02 0.  1.
    10030    2    1    2    0    0  0.00000000000E+00  0.00000000000E+00  0.19709010868E+04  0.32576934743E+04  0.25938611525E+04 0.  0.
        3    1    3    3  502    0 -0.69881160491E+03  0.96114708752E+03  0.16379120572E+04  0.20235852590E+04  0.10100000352E+00 0. -1.
       -3    1    3    3    0  502  0.69881160491E+03 -0.96114708752E+03  0.33298902962E+03  0.12341082153E+04  0.10100000352E+00 0.  1.
</event>
<event>
 5   0  0.3441646E-05  0.2606458E+04  0.7818609E-02  0.8366011E-01
        2   -1    0    0  501    0  0.00000000000E+00  0.00000000000E+00  0.20748369601E+04  0.20748369601E+04  0.25500000920E-02 0.  1.
       -2   -1    0    0    0  501  0.00000000000E+00  0.00000000000E+00 -0.81857335760E+03  0.81857335761E+03  0.25500000920E-02 0. -1.
    10030    2    1    2    0    0  0.00000000000E+00  0.00000000000E+00  0.12562636025E+04  0.28934103177E+04  0.26064583303E+04 0.  0.
        4    1    3    3  502    0 -0.67227561881E+03  0.91094451844E+03  0.13446622065E+04  0.17578090015E+04  0.12699999809E+01 0.  1.
       -4    1    3    3    0  502  0.67227561881E+03 -0.91094451844E+03 -0.88398603965E+02  0.11356013162E+04  0.12699999809E+01 0. -1.
</event>
<event>
 5   0  0.1474554E-05  0.2528922E+04  0.7818609E-02  0.8392754E-01
       -1   -1    0    0    0  501  0.00000000000E+00  0.00000000000E+00  0.73087345437E+03  0.73087345439E+03  0.50400001928E-02 0.  1.
        1   -1    0    0  501    0  0.00000000000E+00  0.00000000000E+00 -0.21876044565E+04  0.21876044565E+04  0.50400001928E-02 0. -1.
    10030    2    1    2    0    0  0.00000000000E+00  0.00000000000E+00 -0.14567310021E+04  0.29184779109E+04  0.25289223206E+04 0.  0.
        5    1    3    3  502    0 -0.49533007358E+03 -0.29123181461E+03  0.57149160562E+03  0.81042741620E+03  0.46999998093E+01 0.  1.
       -5    1    3    3    0  502  0.49533007358E+03  0.29123181461E+03 -0.20282226078E+04  0.21080504947E+04  0.46999998093E+01 0. -1.
</event>
<event>
 5   0  0.1435062E-05  0.2401226E+04  0.7818609E-02  0.8439045E-01
       -1   -1    0    0    0  501  0.00000000000E+00  0.00000000000E+00  0.72860541871E+03  0.72860541872E+03  0.50400001928E-02 0.  1.
        1   -1    0    0  501    0  0.00000000000E+00  0.00000000000E+00 -0.19783978061E+04  0.19783978061E+04  0.50400001928E-02 0. -1.
    10030    2    1    2    0    0  0.00000000000E+00  0.00000000000E+00 -0.12497923874E+04  0.27070032248E+04  0.24012258219E+04 0.  0.
        2    1    3    3  502    0  0.35754542709E+03  0.61016595139E+03  0.46887567837E+03  0.84851966532E+03  0.25500000920E-02 0.  1.
       -2    1    3    3    0  502 -0.35754542709E+03 -0.61016595139E+03 -0.17186680658E+04  0.18584835595E+04  0.25500000920E-02 0. -1.
</event>
<event>
 5   0  0.3441646E-05  0.2506937E+04  0.7818609E-02  0.8400518E-01
       -2   -1    0    0    0  501  0.00000000000E+00  0.00000000000E+00  0.96663556677E+03  0.96663556678E+03  0.25500000920E-02 0. -1.
        2   -1    0    0  501    0  0.00000000000E+00  0.00000000000E+00 -0.16254142670E+04  0.16254142670E+04  0.25500000920E-02 0.  1.
    10030    2    1    2    0    0  0.00000000000E+00  0.00000000000E+00 -0.65877870025E+03  0.25920498338E+04  0.25069369687E+04 0.  0.
        4    1    3    3  502    0  0.72119357805E+03  0.93360734645E+03  0.10859448165E+03  0.11847097656E+04  0.12699999809E+01 0. -1.
       -4    1    3    3    0  502 -0.72119357805E+03 -0.93360734645E+03 -0.76737318190E+03  0.14073400682E+04  0.12699999809E+01 0.  1.
</event>
<event>
 5   0  0.3647623E-05  0.2599240E+04  0.7818609E-02  0.8368460E-01
       -2   -1    0    0    0  501  0.00000000000E+00  0.00000000000E+00  0.10513207765E+04  0.10513207765E+04  0.25500000920E-02 0.  1.
        2   -1    0    0  501    0  0.00000000000E+00  0.00000000000E+00 -0.16065616380E+04  0.16065616380E+04  0.25500000920E-02 0. -1.
    10030    2    1    2    0    0  0.00000000000E+00  0.00000000000E+00 -0.55524086149E+03  0.26578824145E+04  0.25992396032E+04 0.  0.
        3    1    3    3  502    0 -0.62834810410E+03 -0.51313814588E+03 -0.13158500260E+04  0.15458309732E+04  0.10100000352E+00 0. -1.
       -3    1    3    3    0  502  0.62834810410E+03  0.51313814588E+03  0.76060916449E+03  0.11120514413E+04  0.10100000352E+00 0.  1.
</event>
<event>
 5   0  0.1217200E-05  0.2614821E+04  0.7818609E-02  0.8363184E-01
       -3   -1    0    0    0  501  0.00000000000E+00  0.00000000000E+00  0.16852471841E+04  0.16852471871E+04  0.10100000352E+00 0. -1.
        3   -1    0    0  501    0  0.00000000000E+00  0.00000000000E+00 -0.10142857831E+04  0.10142857881E+04  0.10100000352E+00 0.  1.
    10030    2    1    2    0    0  0.00000000000E+00  0.00000000000E+00  0.67096140094E+03  0.26995329752E+04  0.26148210422E+04 0.  0.
        3    1    3    3  502    0 -0.51782116815E+03 -0.23599886422E+03 -0.87972012346E+03  0.10477317080E+04  0.10100000352E+00 0.  1.
       -3    1    3    3    0  502  0.51782116815E+03  0.23599886422E+03  0.15506815244E+04  0.16518012672E+04  0.10100000352E+00 0. -1.
</event>
<event>
 5   0  0.3499642E-05  0.2613182E+04  0.7818609E-02  0.8363737E-01
       -2   -1    0    0    0  501  0.00000000000E+00  0.00000000000E+00  0.11674160346E+04  0.11674160346E+04  0.25500000920E-02 0. -1.
        2   -1    0    0  501    0  0.00000000000E+00  0.00000000000E+00 -0.14623579909E+04  0.14623579909E+04  0.25500000920E-02 0.  1.
    10030    2    1    2    0    0  0.00000000000E+00  0.00000000000E+00 -0.29494195632E+03  0.26297740256E+04  0.26131820962E+04 0.  0.
        2    1    3    3  502    0 -0.68640684937E+03  0.90611192595E+03 -0.79575600944E+03  0.13875953343E+04  0.25500000920E-02 0.  1.
       -2    1    3    3    0  502  0.68640684937E+03 -0.90611192595E+03  0.50081405312E+03  0.12421786913E+04  0.25500000920E-02 0. -1.
</event>
<event>
 5   0  0.3441646E-05  0.2542664E+04  0.7818609E-02  0.8387942E-01
       -2   -1    0    0    0  501  0.00000000000E+00  0.00000000000E+00  0.12139555923E+04  0.12139555923E+04  0.25500000920E-02 0.  1.
        2   -1    0    0  501    0  0.00000000000E+00  0.00000000000E+00 -0.13314205390E+04  0.13314205390E+04  0.25500000920E-02 0. -1.
    10030    2    1    2    0    0  0.00000000000E+00  0.00000000000E+00 -0.11746494663E+03  0.25453761313E+04  0.25426642791E+04 0.  0.
        4    1    3    3  502    0 -0.11424412760E+04 -0.52240328801E+03  0.13694090939E+03  0.12636580590E+04  0.12699999809E+01 0.  1.
       -4    1    3    3    0  502  0.11424412760E+04  0.52240328801E+03 -0.25440585602E+03  0.12817180723E+04  0.12699999809E+01 0. -1.
</event>
<event>
 5   0  0.1451052E-05  0.2552212E+04  0.7818609E-02  0.8384617E-01
       -1   -1    0    0    0  501  0.00000000000E+00  0.00000000000E+00  0.12533090917E+04  0.12533090917E+04  0.50400001928E-02 0.  1.
        1   -1    0    0  501    0  0.00000000000E+00  0.00000000000E+00 -0.12993173560E+04  0.12993173560E+04  0.50400001928E-02 0. -1.
    10030    2    1    2    0    0  0.00000000000E+00  0.00000000000E+00 -0.46008264346E+02  0.25526264477E+04  0.25522117900E+04 0.  0.
        1    1    3    3  502    0 -0.60481419383E+03 -0.39364924261E+03  0.10296336406E+04  0.12573405939E+04  0.50400001928E-02 0.  1.
       -1    1    3    3    0  502  0.60481419383E+03  0.39364924261E+03 -0.10756419050E+04  0.12952858538E+04  0.50400001928E-02 0. -1.
</event>
<event>
 5   0  0.3499642E-05  0.2548910E+04  0.7818609E-02  0.8385765E-01
        2   -1    0    0  501    0  0.00000000000E+00  0.00000000000E+00  0.11379949147E+04  0.11379949147E+04  0.25500000920E-02 0.  1.
       -2   -1    0    0    0  501  0.00000000000E+00  0.00000000000E+00 -0.14272781836E+04  0.14272781836E+04  0.25500000920E-02 0. -1.
    10030    2    1    2    0    0  0.00000000000E+00  0.00000000000E+00 -0.28928326885E+03  0.25652730983E+04  0.25489098177E+04 0.  0.
        2    1    3    3  502    0 -0.10210338698E+04 -0.72496073948E+03  0.93854522948E+02  0.12557415772E+04  0.25500000920E-02 0.  1.
       -2    1    3    3    0  502  0.10210338698E+04  0.72496073948E+03 -0.38313779180E+03  0.13095315211E+04  0.25500000920E-02 0. -1.
</event>
<event>
 5   0  0.1474554E-05  0.2595372E+04  0.7818609E-02  0.8369775E-01
       -1   -1    0    0    0  501  0.00000000000E+00  0.00000000000E+00  0.99049374697E+03  0.99049374698E+03  0.50400001928E-02 0. -1.
        1   -1    0    0  501    0  0.00000000000E+00  0.00000000000E+00 -0.17001516245E+04  0.17001516245E+04  0.50400001928E-02 0.  1.
    10030    2    1    2    0    0  0.00000000000E+00  0.00000000000E+00 -0.70965787748E+03  0.26906453714E+04  0.25953724611E+04 0.  0.
        5    1    3    3  502    0  0.92463734591E+03 -0.90145697346E+03 -0.48754615168E+03  0.13803268586E+04  0.46999998093E+01 0.  1.
       -5    1    3    3    0  502 -0.92463734591E+03  0.90145697346E+03 -0.22211172580E+03  0.13103185129E+04  0.46999998093E+01 0. -1.
</event>
<event>
 5   0  0.1497497E-05  0.2607981E+04  0.7818609E-02  0.8365495E-01
        1   -1    0    0  501    0  0.00000000000E+00  0.00000000000E+00  0.21238913067E+04  0.21238913067E+04  0.50400001928E-02 0. -1.
       -1   -1    0    0    0  501  0.00000000000E+00  0.00000000000E+00 -0.80060156179E+03  0.80060156181E+03  0.50400001928E-02 0.  1.
    10030    2    1    2    0    0  0.00000000000E+00  0.00000000000E+00  0.13232897449E+04  0.29244928685E+04  0.26079805960E+04 0.  0.
        3    1    3    3  502    0  0.11580297078E+04  0.55344944125E+03  0.91992765105E+03  0.15791155694E+04  0.10100000352E+00 0.  1.
       -3    1    3    3    0  502 -0.11580297078E+04 -0.55344944125E+03  0.40336209385E+03  0.13453772991E+04  0.10100000352E+00 0. -1.
</event>
<event>
 5   0  0.3508470E-05  0.2605264E+04  0.7818609E-02  0.8366416E-01
        2   -1    0    0  501    0  0.00000000000E+00  0.00000000000E+00  0.17969909372E+04  0.17969909372E+04  0.25500000920E-02 0. -1.
       -2   -1    0    0    0  501  0.00000000000E+00  0.00000000000E+00 -0.94427270747E+03  0.94427270748E+03  0.25500000920E-02 0.  1.
    10030    2    1    2    0    0  0.00000000000E+00  0.00000000000E+00  0.85271822972E+03  0.27412636447E+04  0.26052635165E+04 0.  0.
        5    1    3    3  502    0 -0.37255681265E+03  0.12245598520E+04  0.68081368097E+03  0.14497843867E+04  0.46999998093E+01 0. -1.
       -5    1    3    3    0  502  0.37255681265E+03 -0.12245598520E+04  0.17190454874E+03  0.12914792579E+04  0.46999998093E+01 0.  1.
</event>
<event>
 5   0  0.1474554E-05  0.2646208E+04  0.7818609E-02  0.8352673E-01
       -1   -1    0    0    0  501  0.00000000000E+00  0.00000000000E+00  0.18362134811E+04  0.18362134811E+04  0.50400001928E-02 0.  1.
        1   -1    0    0  501    0  0.00000000000E+00  0.00000000000E+00 -0.95337747829E+03  0.95337747830E+03  0.50400001928E-02 0. -1.
    10030    2    1    2    0    0  0.00000000000E+00  0.00000000000E+00  0.88283600279E+03  0.27895909594E+04  0.26462082898E+04 0.  0.
        5    1    3    3  502    0 -0.12273980887E+03 -0.83464203505E+03  0.15159053475E+04  0.17348439411E+04  0.46999998093E+01 0.  1.
       -5    1    3    3    0  502  0.12273980887E+03  0.83464203505E+03 -0.63306934472E+03  0.10547470183E+04  0.46999998093E+01 0. -1.
</event>
<event>
 5   0  0.3647623E-05  0.2555734E+04  0.7818609E-02  0.8383395E-01
        2   -1    0    0  501    0  0.00000000000E+00  0.00000000000E+00  0.91451166026E+03  0.91451166027E+03  0.25500000920E-02 0.  1.
       -2   -1    0    0    0  501  0.00000000000E+00  0.00000000000E+00 -0.17855912019E+04  0.17855912019E+04  0.25500000920E-02 0. -1.
    10030    2    1    2    0    0  0.00000000000E+00  0.00000000000E+00 -0.87107954160E+03  0.27001028621E+04  0.25557339256E+04 0.  0.
        3    1    3    3  502    0 -0.14925300863E+02 -0.40719613817E+03  0.84403826471E+03  0.93724706563E+03  0.10100000352E+00 0.  1.
       -3    1    3    3    0  502  0.14925300863E+02  0.40719613817E+03 -0.17151178063E+04  0.17628557965E+04  0.10100000352E+00 0. -1.
</event>
<event>
 5   0  0.1451052E-05  0.2555076E+04  0.7818609E-02  0.8383623E-01
       -1   -1    0    0    0  501  0.00000000000E+00  0.00000000000E+00  0.81769438118E+03  0.81769438120E+03  0.50400001928E-02 0.  1.
        1   -1    0    0  501    0  0.00000000000E+00  0.00000000000E+00 -0.19959814913E+04  0.19959814913E+04  0.50400001928E-02 0. -1.
    10030    2    1    2    0    0  0.00000000000E+00  0.00000000000E+00 -0.11782871101E+04  0.28136758725E+04  0.25550756156E+04 0.  0.
        1    1    3    3  502    0 -0.49069630382E+03  0.11606889988E+04 -0.82045288970E+03  0.15037036805E+04  0.50400001928E-02 0. -1.
       -1    1    3    3    0  502  0.49069630382E+03 -0.11606889988E+04 -0.35783422041E+03  0.13099721920E+04  0.50400001928E-02 0.  1.
</event>
<event>
 5   0  0.1474554E-05  0.2545537E+04  0.7818609E-02  0.8386940E-01
        1   -1    0    0  501    0  0.00000000000E+00  0.00000000000E+00  0.16206593642E+04  0.16206593642E+04  0.50400001928E-02 0.  1.
       -1   -1    0    0    0  501  0.00000000000E+00  0.00000000000E+00 -0.99955592296E+03  0.99955592297E+03  0.50400001928E-02 0. -1.
    10030    2    1    2    0    0  0.00000000000E+00  0.00000000000E+00  0.62110344120E+03  0.26202152871E+04  0.25455370094E+04 0.  0.
        5    1    3    3  502    0 -0.40336583131E+03  0.64232838997E+03 -0.74150306141E+03  0.10607255227E+04  0.46999998093E+01 0. -1.
       -5    1    3    3    0  502  0.40336583131E+03 -0.64232838997E+03  0.13626065026E+04  0.15594897644E+04  0.46999998093E+01 0.  1.
</event>
<event>
 5   0  0.3647623E-05  0.2658682E+04  0.7818609E-02  0.8348537E-01
        2   -1    0    0  501    0  0.00000000000E+00  0.00000000000E+00  0.21016941633E+04  0.21016941633E+04  0.25500000920E-02 0.  1.
       -2   -1    0    0    0  501  0.00000000000E+00  0.00000000000E+00 -0.84082030239E+03  0.84082030239E+03  0.25500000920E-02 0. -1.
    10030    2    1    2    0    0  0.00000000000E+00  0.00000000000E+00  0.12608738609E+04  0.29425144657E+04  0.26586817199E+04 0.  0.
        3    1    3    3  502    0  0.58558729994E+03 -0.15877325521E+03 -0.67863979085E+03  0.91031500501E+03  0.10100000352E+00 0. -1.
       -3    1    3    3    0  502 -0.58558729994E+03  0.15877325521E+03  0.19395136517E+04  0.20321994607E+04  0.10100000352E+00 0.  1.
</event>
<event>
 5   0  0.3508470E-05  0.2577191E+04  0.7818609E-02  0.8375991E-01
        2   -1    0    0  501    0  0.00000000000E+00  0.00000000000E+00  0.21287155348E+04  0.21287155348E+04  0.25500000920E-02 0.  1.
       -2   -1    0    0    0  501  0.00000000000E+00  0.00000000000E+00 -0.78003748670E+03  0.78003748670E+03  0.25500000920E-02 0. -1.
    10030    2    1    2    0    0  0.00000000000E+00  0.00000000000E+00  0.13486780481E+04  0.29087530215E+04  0.25771906531E+04 0.  0.
        5    1    3    3  502    0  0.10220509275E+04 -0.66688814097E+03  0.11412356702E+04  0.16708587122E+04  0.46999998093E+01 0.  1.
       -5    1    3    3    0  502 -0.10220509275E+04  0.66688814097E+03  0.20744237783E+03  0.12378943093E+04  0.46999998093E+01 0. -1.
</event>
<event>
 5   0  0.3508470E-05  0.1908604E+04  0.7818609E-02  0.8650585E-01
        2   -1    0    0  501    0  0.00000000000E+00  0.00000000000E+00  0.12811293184E+04  0.12811293184E+04  0.25500000920E-02 0. -1.
       -2   -1    0    0    0  501  0.00000000000E+00  0.00000000000E+00 -0.71085132434E+03  0.71085132435E+03  0.25500000920E-02 0.  1.
    10030    2    1    2    0    0  0.00000000000E+00  0.00000000000E+00  0.57027799406E+03  0.19919806428E+04  0.19086041734E+04 0.  0.
        5    1    3    3  502    0  0.77032535420E+03 -0.55855181742E+03  0.36104219522E+03  0.10177204139E+04  0.46999998093E+01 0. -1.
       -5    1    3    3    0  502 -0.77032535420E+03  0.55855181742E+03  0.20923579885E+03  0.97426022889E+03  0.46999998093E+01 0.  1.
</event>
<event>
 5   0  0.1533248E-05  0.2732967E+04  0.7818609E-02  0.8324387E-01
        1   -1    0    0  501    0  0.00000000000E+00  0.00000000000E+00  0.18194993118E+04  0.18194993118E+04  0.50400001928E-02 0. -1.
       -1   -1    0    0    0  501  0.00000000000E+00  0.00000000000E+00 -0.10262589521E+04  0.10262589521E+04  0.50400001928E-02 0.  1.
    10030    2    1    2    0    0  0.00000000000E+00  0.00000000000E+00  0.79324035973E+03  0.28457582640E+04  0.27329672205E+04 0.  0.
        4    1    3    3  502    0 -0.12962892884E+04 -0.97507839366E+02 -0.41953957611E+02  0.13006288653E+04  0.12699999809E+01 0.  1.
       -4    1    3    3    0  502  0.12962892884E+04  0.97507839366E+02  0.83519431734E+03  0.15451293986E+04  0.12699999809E+01 0. -1.
</event>
<event>
 5   0  0.1217200E-05  0.2057901E+04  0.7818609E-02  0.8580019E-01
        3   -1    0    0  501    0  0.00000000000E+00  0.00000000000E+00  0.11355928142E+04  0.11355928187E+04  0.10100000352E+00 0. -1.
       -3   -1    0    0    0  501  0.00000000000E+00  0.00000000000E+00 -0.93232265742E+03  0.93232266289E+03  0.10100000352E+00 0.  1.
    10030    2    1    2    0    0  0.00000000000E+00  0.00000000000E+00  0.20327015678E+03  0.20679154816E+04  0.20579007951E+04 0.  0.
        4    1    3    3  502    0  0.27804325625E+03  0.52516590105E+03  0.94574086542E+03  0.11169309170E+04  0.12699999809E+01 0. -1.
       -4    1    3    3    0  502 -0.27804325625E+03 -0.52516590105E+03 -0.74247070864E+03  0.95098456457E+03  0.12699999809E+01 0.  1.
</event>
<event>
 5   0  0.1533248E-05  0.2581708E+04  0.7818609E-02  0.8374441E-01
        1   -1    0    0  501    0  0.00000000000E+00  0.00000000000E+00  0.26889330860E+04  0.26889330860E+04  0.50400001928E-02 0.  1.
       -1   -1    0    0    0  501  0.00000000000E+00  0.00000000000E+00 -0.61968956463E+03  0.61968956465E+03  0.50400001928E-02 0. -1.
    10030    2    1    2    0    0  0.00000000000E+00  0.00000000000E+00  0.20692435214E+04  0.33086226506E+04  0.25817077863E+04 0.  0.
        4    1    3    3  502    0 -0.22110563142E+03 -0.92597200213E+03 -0.82612337423E+02  0.95558268097E+03  0.12699999809E+01 0. -1.
       -4    1    3    3    0  502  0.22110563142E+03  0.92597200213E+03  0.21518558588E+04  0.23530399697E+04  0.12699999809E+01 0.  1.
</event>
<event>
 5   0  0.1497497E-05  0.2492275E+04  0.7818609E-02  0.8405743E-01
       -1   -1    0    0    0  501  0.00000000000E+00  0.00000000000E+00  0.12955228497E+04  0.12955228497E+04  0.50400001928E-02 0. -1.
        1   -1    0    0  501    0  0.00000000000E+00  0.00000000000E+00 -0.11986351942E+04  0.11986351942E+04  0.50400001928E-02 0.  1.
    10030    2    1    2    0    0  0.00000000000E+00  0.00000000000E+00  0.96887655470E+02  0.24941580439E+04  0.24922754924E+04 0.  0.
        3    1    3    3  502    0 -0.41174319549E+03  0.76311381087E+03 -0.84720936175E+03  0.12122866246E+04  0.10100000352E+00 0.  1.
       -3    1    3    3    0  502  0.41174319549E+03 -0.76311381087E+03  0.94409701722E+03  0.12818714193E+04  0.10100000352E+00 0. -1.
</event>
<event>
 5   0  0.1451052E-05  0.2616723E+04  0.7818609E-02  0.8362543E-01
        1   -1    0    0  501    0  0.00000000000E+00  0.00000000000E+00  0.16759995559E+04  0.16759995559E+04  0.50400001928E-02 0.  1.
       -1   -1    0    0    0  501  0.00000000000E+00  0.00000000000E+00 -0.10213661824E+04  0.10213661824E+04  0.50400001928E-02 0. -1.
    10030    2    1    2    0    0  0.00000000000E+00  0.00000000000E+00  0.65463337351E+03  0.26973657383E+04  0.26167225822E+04 0.  0.
        1    1    3    3  502    0  0.90111532779E+01 -0.18597197585E+03  0.16622732521E+04  0.16726682699E+04  0.50400001928E-02 0.  1.
       -1    1    3    3    0  502 -0.90111532779E+01  0.18597197585E+03 -0.10076398786E+04  0.10246974683E+04  0.50400001928E-02 0. -1.
</event>
<event>
 5   0  0.3647623E-05  0.2556270E+04  0.7818609E-02  0.8383209E-01
       -2   -1    0    0    0  501  0.00000000000E+00  0.00000000000E+00  0.13307371504E+04  0.13307371504E+04  0.25500000920E-02 0. -1.
        2   -1    0    0  501    0  0.00000000000E+00  0.00000000000E+00 -0.12276122287E+04  0.12276122287E+04  0.25500000920E-02 0.  1.
    10030    2    1    2    0    0  0.00000000000E+00  0.00000000000E+00  0.10312492172E+03  0.25583493791E+04  0.25562700945E+04 0.  0.
        3    1    3    3  502    0  0.18849115327E+03  0.63224468454E+03  0.11471523671E+04  0.13233370015E+04  0.10100000352E+00 0. -1.
       -3    1    3    3    0  502 -0.18849115327E+03 -0.63224468454E+03 -0.10440274454E+04  0.12350123776E+04  0.10100000352E+00 0.  1.
</event>
<event>
 5   0  0.3508470E-05  0.2599341E+04  0.7818609E-02  0.8368425E-01
       -2   -1    0    0    0  501  0.00000000000E+00  0.00000000000E+00  0.94177915120E+03  0.94177915120E+03  0.25500000920E-02 0. -1.
        2   -1    0    0  501    0  0.00000000000E+00  0.00000000000E+00 -0.17935664697E+04  0.17935664697E+04  0.25500000920E-02 0.  1.
    10030    2    1    2    0    0  0.00000000000E+00  0.00000000000E+00 -0.85178731850E+03  0.27353456209E+04  0.25993410761E+04 0.  0.
        5    1    3    3  502    0 -0.80608255526E+03  0.92501556746E+03  0.25132551841E+02  0.12272231342E+04  0.46999998093E+01 0. -1.
       -5    1    3    3    0  502  0.80608255526E+03 -0.92501556746E+03 -0.87691987034E+03  0.15081224867E+04  0.46999998093E+01 0.  1.
</event>
<event>
 5   0  0.3508470E-05  0.2574814E+04  0.7818609E-02  0.8376807E-01
       -2   -1    0    0    0  501  0.00000000000E+00  0.00000000000E+00  0.13119455031E+04  0.13119455031E+04  0.25500000920E-02 0.  1.
        2   -1    0    0  501    0  0.00000000000E+00  0.00000000000E+00 -0.12633277358E+04  0.12633277358E+04  0.25500000920E-02 0. -1.
    10030    2    1    2    0    0  0.00000000000E+00  0.00000000000E+00  0.48617767331E+02  0.25752732389E+04  0.25748142783E+04 0.  0.
        5    1    3    3  502    0 -0.12540180660E+04  0.11448894739E+03  0.29217376708E+03  0.12926935557E+04  0.46999998093E+01 0.  1.
       -5    1    3    3    0  502  0.12540180660E+04 -0.11448894739E+03 -0.24355599975E+03  0.12825796832E+04  0.46999998093E+01 0. -1.
</event>
<event>
 5   0  0.1451052E-05  0.2674940E+04  0.7818609E-02  0.8343182E-01
        1   -1    0    0  501    0  0.00000000000E+00  0.00000000000E+00  0.18879952197E+04  0.18879952197E+04  0.50400001928E-02 0. -1.
       -1   -1    0    0    0  501  0.00000000000E+00  0.00000000000E+00 -0.94747348911E+03  0.94747348912E+03  0.50400001928E-02 0.  1.
    10030    2    1    2    0    0  0.00000000000E+00  0.00000000000E+00  0.94052173061E+03  0.28354687089E+04  0.26749395644E+04 0.  0.
        1    1    3    3  502    0  0.26334875553E+03 -0.15873751484E+03 -0.90949696775E+03  0.96007025786E+03  0.50400001928E-02 0.  1.
       -1    1    3    3    0  502 -0.26334875553E+03  0.15873751484E+03  0.18500186984E+04  0.18753984510E+04  0.50400001928E-02 0. -1.
</event>
<event>
 5   0  0.3849687E-05  0.2551036E+04  0.7818609E-02  0.8385026E-01
       -2   -1    0    0    0  501  0.00000000000E+00  0.00000000000E+00  0.88447468114E+03  0.88447468115E+03  0.25500000920E-02 0. -1.
        2   -1    0    0  501    0  0.00000000000E+00  0.00000000000E+00 -0.18394490800E+04  0.18394490800E+04  0.25500000920E-02 0.  1.
    10030    2    1    2    0    0  0.00000000000E+00  0.00000000000E+00 -0.95497439882E+03  0.27239237611E+04  0.25510359766E+04 0.  0.
        1    1    3    3  502    0  0.10942557098E+04 -0.54705700144E+03 -0.86289094829E+03  0.14970797273E+04  0.50400001928E-02 0.  1.
       -1    1    3    3    0  502 -0.10942557098E+04  0.54705700144E+03 -0.92083450531E+02  0.12268440338E+04  0.50400001928E-02 0. -1.
</event>
<event>
 5   0  0.3849687E-05  0.2628306E+04  0.7818609E-02  0.8358649E-01
        2   -1    0    0  501    0  0.00000000000E+00  0.00000000000E+00  0.16561797841E+04  0.16561797841E+04  0.25500000920E-02 0. -1.
       -2   -1    0    0    0  501  0.00000000000E+00  0.00000000000E+00 -0.10427600482E+04  0.10427600482E+04  0.25500000920E-02 0.  1.
    10030    2    1    2    0    0  0.00000000000E+00  0.00000000000E+00  0.61341973589E+03  0.26989398322E+04  0.26283060030E+04 0.  0.
        1    1    3    3  502    0 -0.81227382539E+01 -0.56480900904E+03 -0.91173733340E+03  0.10725391185E+04  0.50400001928E-02 0.  1.
       -1    1    3    3    0  502  0.81227382539E+01  0.56480900904E+03  0.15251570693E+04  0.16264007137E+04  0.50400001928E-02 0. -1.
</event>
<event>
 5   0  0.1497497E-05  0.2589268E+04  0.7818609E-02  0.8371856E-01
       -1   -1    0    0    0  501  0.00000000000E+00  0.00000000000E+00  0.63955529498E+03  0.63955529500E+03  0.50400001928E-02 0.  1.
        1   -1    0    0  501    0  0.00000000000E+00  0.00000000000E+00 -0.26206915549E+04  0.26206915549E+04  0.50400001928E-02 0. -1.
    10030    2    1    2    0    0  0.00000000000E+00  0.00000000000E+00 -0.19811362599E+04  0.32602468499E+04  0.25892679742E+04 0.  0.
        3    1    3    3  502    0  0.11672776564E+04 -0.22896052011E+03 -0.16339830745E+04  0.20211038432E+04  0.10100000352E+00 0. -1.
       -3    1    3    3    0  502 -0.11672776564E+04  0.22896052011E+03 -0.34715318541E+03  0.12391430068E+04  0.10100000352E+00 0.  1.
</event>
<event>
 5   0  0.3441646E-05  0.2579579E+04  0.7818609E-02  0.8375171E-01
        2   -1    0    0  501    0  0.00000000000E+00  0.00000000000E+00  0.11314156421E+04  0.11314156421E+04  0.25500000920E-02 0. -1.
       -2   -1    0    0    0  501  0.00000000000E+00  0.00000000000E+00 -0.14703325570E+04  0.14703325570E+04  0.25500000920E-02 0.  1.
    10030    2    1    2    0    0  0.00000000000E+00  0.00000000000E+00 -0.33891691491E+03  0.26017481991E+04  0.25795792324E+04 0.  0.
        4    1    3    3  502    0 -0.72882129229E+03 -0.91838081779E+03  0.37270360141E+03  0.12302493203E+04  0.12699999809E+01 0. -1.
       -4    1    3    3    0  502  0.72882129229E+03  0.91838081779E+03 -0.71162051631E+03  0.13714988789E+04  0.12699999809E+01 0.  1.
</event>
<event>
 5   0  0.1435062E-05  0.2593041E+04  0.7818609E-02  0.8370569E-01
        1   -1    0    0  501    0  0.00000000000E+00  0.00000000000E+00  0.12302137958E+04  0.12302137958E+04  0.50400001928E-02 0.  1.
       -1   -1    0    0    0  501  0.00000000000E+00  0.00000000000E+00 -0.13664013894E+04  0.13664013894E+04  0.50400001928E-02 0. -1.
    10030    2    1    2    0    0  0.00000000000E+00  0.00000000000E+00 -0.13618759353E+03  0.25966151852E+04  0.25930413339E+04 0.  0.
        2    1    3    3  502    0 -0.40406684625E+03 -0.94247315068E+03 -0.86255992413E+03  0.13399758500E+04  0.25500000920E-02 0. -1.
       -2    1    3    3    0  502  0.40406684625E+03  0.94247315068E+03  0.72637233059E+03  0.12566393352E+04  0.25500000920E-02 0.  1.
</event>
<event>
 5   0  0.3499642E-05  0.2577815E+04  0.7818609E-02  0.8375776E-01
       -2   -1    0    0    0  501  0.00000000000E+00  0.00000000000E+00  0.13932124723E+04  0.13932124723E+04  0.25500000920E-02 0. -1.
        2   -1    0    0  501    0  0.00000000000E+00  0.00000000000E+00 -0.11924116301E+04  0.11924116301E+04  0.25500000920E-02 0.  1.
    10030    2    1    2    0    0  0.00000000000E+00  0.00000000000E+00  0.20080084224E+03  0.25856241024E+04  0.25778151642E+04 0.  0.
        2    1    3    3  502    0  0.40623535258E+03 -0.11931825416E+04  0.37060656204E+03  0.13137963933E+04  0.25500000920E-02 0. -1.
       -2    1    3    3    0  502 -0.40623535258E+03  0.11931825416E+04 -0.16980571979E+03  0.12718277091E+04  0.25500000920E-02 0.  1.
</event>
<event>
 5   0  0.1451052E-05  0.2580710E+04  0.7818609E-02  0.8374783E-01
        1   -1    0    0  501    0  0.00000000000E+00  0.00000000000E+00  0.15977035581E+04  0.15977035581E+04  0.50400001928E-02 0.  1.
       -1   -1    0    0    0  501  0.00000000000E+00  0.00000000000E+00 -0.10421311557E+04  0.10421311557E+04  0.50400001928E-02 0. -1.
    10030    2    1    2    0    0  0.00000000000E+00  0.00000000000E+00  0.55557240245E+03  0.26398347138E+04  0.25807104878E+04 0.  0.
        1    1    3    3  502    0 -0.53743017643E+03  0.11696787695E+04  0.18608280148E+03  0.13006177099E+04  0.50400001928E-02 0.  1.
       -1    1    3    3    0  502  0.53743017643E+03 -0.11696787695E+04  0.36948960097E+03  0.13392170039E+04  0.50400001928E-02 0. -1.
</event>
<event>
 5   0  0.3499642E-05  0.2188312E+04  0.7818609E-02  0.8523309E-01
       -2   -1    0    0    0  501  0.00000000000E+00  0.00000000000E+00  0.57330833778E+03  0.57330833778E+03  0.25500000920E-02 0.  1.
        2   -1    0    0  501    0  0.00000000000E+00  0.00000000000E+00 -0.20881906222E+04  0.20881906222E+04  0.25500000920E-02 0. -1.
    10030    2    1    2    0    0  0.00000000000E+00  0.00000000000E+00 -0.15148822844E+04  0.26614989600E+04  0.21883117644E+04 0.  0.
        2    1    3    3  502    0  0.47209745604E+03 -0.55152455832E+03  0.23817965999E+03  0.76405817636E+03  0.25500000920E-02 0.  1.
       -2    1    3    3    0  502 -0.47209745604E+03  0.55152455832E+03 -0.17530619444E+04  0.18974407836E+04  0.25500000920E-02 0. -1.
</event>
<event>
 5   0  0.3508470E-05  0.2615981E+04  0.7818609E-02  0.8362793E-01
        2   -1    0    0  501    0  0.00000000000E+00  0.00000000000E+00  0.12229621175E+04  0.12229621175E+04  0.25500000920E-02 0. -1.
       -2   -1    0    0    0  501  0.00000000000E+00  0.00000000000E+00 -0.13989302230E+04  0.13989302230E+04  0.25500000920E-02 0.  1.
    10030    2    1    2    0    0  0.00000000000E+00  0.00000000000E+00 -0.17596810558E+03  0.26218923405E+04  0.26159806328E+04 0.  0.
        5    1    3    3  502    0 -0.10675155832E+04  0.37507769527E+03 -0.74562521785E+03  0.13550837072E+04  0.46999998093E+01 0.  1.
       -5    1    3    3    0  502  0.10675155832E+04 -0.37507769527E+03  0.56965711227E+03  0.12668086333E+04  0.46999998093E+01 0. -1.
</event>
<event>
 5   0  0.3508470E-05  0.2265131E+04  0.7818609E-02  0.8491798E-01
        2   -1    0    0  501    0  0.00000000000E+00  0.00000000000E+00  0.10633197352E+04  0.10633197352E+04  0.25500000920E-02 0. -1.
       -2   -1    0    0    0  501  0.00000000000E+00  0.00000000000E+00 -0.12063205543E+04  0.12063205543E+04  0.25500000920E-02 0.  1.
    10030    2    1    2    0    0  0.00000000000E+00  0.00000000000E+00 -0.14300081906E+03  0.22696402895E+04  0.22651308592E+04 0.  0.
        5    1    3    3  502    0  0.85400230359E+03  0.33049865063E+03  0.59625942249E+03  0.10927473091E+04  0.46999998093E+01 0. -1.
       -5    1    3    3    0  502 -0.85400230359E+03 -0.33049865063E+03 -0.73926024155E+03  0.11768929804E+04  0.46999998093E+01 0.  1.
</event>
<event>
 5   0  0.3508470E-05  0.1690774E+04  0.7818609E-02  0.8766644E-01
        2   -1    0    0  501    0  0.00000000000E+00  0.00000000000E+00  0.10320192570E+04  0.10320192570E+04  0.25500000920E-02 0.  1.
       -2   -1    0    0    0  501  0.00000000000E+00  0.00000000000E+00 -0.69250606932E+03  0.69250606933E+03  0.25500000920E-02 0. -1.
    10030    2    1    2    0    0  0.00000000000E+00  0.00000000000E+00  0.33951318763E+03  0.17245253263E+04  0.16907744960E+04 0.  0.
        5    1    3    3  502    0  0.75023381843E+03 -0.24200664656E+02 -0.22687747928E+03  0.78417595927E+03  0.46999998093E+01 0. -1.
       -5    1    3    3    0  502 -0.75023381843E+03  0.24200664656E+02  0.56639066691E+03  0.94034936702E+03  0.46999998093E+01 0.  1.
</event>
<event>
 5   0  0.1497497E-05  0.2609039E+04  0.7818609E-02  0.8365137E-01
       -1   -1    0    0    0  501  0.00000000000E+00  0.00000000000E+00  0.11754880458E+04  0.11754880459E+04  0.50400001928E-02 0.  1.
        1   -1    0    0  501    0  0.00000000000E+00  0.00000000000E+00 -0.14477145178E+04  0.14477145179E+04  0.50400001928E-02 0. -1.
    10030    2    1    2    0    0  0.00000000000E+00  0.00000000000E+00 -0.27222647200E+03  0.26232025637E+04  0.26090389875E+04 0.  0.
        3    1    3    3  502    0 -0.71622397376E+03  0.81121013008E+03 -0.86858194701E+03  0.13876142348E+04  0.10100000352E+00 0. -1.
       -3    1    3    3    0  502  0.71622397376E+03 -0.81121013008E+03  0.59635547501E+03  0.12355883289E+04  0.10100000352E+00 0.  1.
</event>
<event>
 5   0  0.1497497E-05  0.2688309E+04  0.7818609E-02  0.8338808E-01
        1   -1    0    0  501    0  0.00000000000E+00  0.00000000000E+00  0.17178140776E+04  0.17178140776E+04  0.50400001928E-02 0.  1.
       -1   -1    0    0    0  501  0.00000000000E+00  0.00000000000E+00 -0.10517738216E+04  0.10517738216E+04  0.50400001928E-02 0. -1.
    10030    2    1    2    0    0  0.00000000000E+00  0.00000000000E+00  0.66604025593E+03  0.27695878992E+04  0.26883094147E+04 0.  0.
        3    1    3    3  502    0 -0.20940920188E+03  0.13043736835E+04  0.77511807904E+02  0.13233484086E+04  0.10100000352E+00 0.  1.
       -3    1    3    3    0  502  0.20940920188E+03 -0.13043736835E+04  0.58852844803E+03  0.14462394906E+04  0.10100000352E+00 0. -1.
</event>
<event>
 5   0  0.1497497E-05  0.2569039E+04  0.7818609E-02  0.8378795E-01
        1   -1    0    0  501    0  0.00000000000E+00  0.00000000000E+00  0.91420565055E+03  0.91420565057E+03  0.50400001928E-02 0.  1.
       -1   -1    0    0    0  501  0.00000000000E+00  0.00000000000E+00 -0.18048344590E+04  0.18048344590E+04  0.50400001928E-02 0. -1.
    10030    2    1    2    0    0  0.00000000000E+00  0.00000000000E+00 -0.89062880847E+03  0.27190401096E+04  0.25690386223E+04 0.  0.
        3    1    3    3  502    0 -0.35982344538E+03  0.15158439328E+03 -0.17405061482E+04  0.17837635500E+04  0.10100000352E+00 0. -1.
       -3    1    3    3    0  502  0.35982344538E+03 -0.15158439328E+03  0.84987733974E+03  0.93527655960E+03  0.10100000352E+00 0.  1.
</event>
<event>
 5   0  0.3849687E-05  0.2613923E+04  0.7818609E-02  0.8363487E-01
       -2   -1    0    0    0  501  0.00000000000E+00  0.00000000000E+00  0.80033961570E+03  0.80033961570E+03  0.25500000920E-02 0.  1.
        2   -1    0    0  501    0  0.00000000000E+00  0.00000000000E+00 -0.21342799454E+04  0.21342799454E+04  0.25500000920E-02 0. -1.
    10030    2    1    2    0    0  0.00000000000E+00  0.00000000000E+00 -0.13339403297E+04  0.29346195611E+04  0.26139233281E+04 0.  0.
        1    1    3    3  502    0  0.98501240488E+03  0.42883179052E+03  0.16866149149E+03  0.10874708461E+04  0.50400001928E-02 0.  1.
       -1    1    3    3    0  502 -0.98501240488E+03 -0.42883179052E+03 -0.15026018212E+04  0.18471487150E+04  0.50400001928E-02 0. -1.
</event>
<event>
 5   0  0.1474554E-05  0.2570573E+04  0.7818609E-02  0.8378266E-01
       -1   -1    0    0    0  501  0.00000000000E+00  0.00000000000E+00  0.18711562301E+04  0.18711562301E+04  0.50400001928E-02 0. -1.
        1   -1    0    0  501    0  0.00000000000E+00  0.00000000000E+00 -0.88285621383E+03  0.88285621385E+03  0.50400001928E-02 0.  1.
    10030    2    1    2    0    0  0.00000000000E+00  0.00000000000E+00  0.98830001627E+03  0.27540124440E+04  0.25705734028E+04 0.  0.
        5    1    3    3  502    0 -0.61807555414E+03  0.13358669195E+03 -0.70466290125E+03  0.94680234964E+03  0.46999998093E+01 0.  1.
       -5    1    3    3    0  502  0.61807555414E+03 -0.13358669195E+03  0.16929629175E+04  0.18072100943E+04  0.46999998093E+01 0. -1.
</event>
<event>
 5   0  0.3849687E-05  0.1986662E+04  0.7818609E-02  0.8612882E-01
        2   -1    0    0  501    0  0.00000000000E+00  0.00000000000E+00  0.15665998952E+04  0.15665998952E+04  0.25500000920E-02 0.  1.
       -2   -1    0    0    0  501  0.00000000000E+00  0.00000000000E+00 -0.62983942481E+03  0.62983942482E+03  0.25500000920E-02 0. -1.
    10030    2    1    2    0    0  0.00000000000E+00  0.00000000000E+00  0.93676047042E+03  0.21964393201E+04  0.19866619007E+04 0.  0.
        1    1    3    3  502    0  0.10592337017E+03  0.69007457693E+03 -0.31283182335E+03  0.76504015045E+03  0.50400001928E-02 0. -1.
       -1    1    3    3    0  502 -0.10592337017E+03 -0.69007457693E+03  0.12495922938E+04  0.14313991696E+04  0.50400001928E-02 0.  1.
</event>
<event>
 5   0  0.3647623E-05  0.2764001E+04  0.7818609E-02  0.8314532E-01
       -2   -1    0    0    0  501  0.00000000000E+00  0.00000000000E+00  0.94615093045E+03  0.94615093045E+03  0.25500000920E-02 0.  1.
        2   -1    0    0  501    0  0.00000000000E+00  0.00000000000E+00 -0.20186268397E+04  0.20186268397E+04  0.25500000920E-02 0. -1.
    10030    2    1    2    0    0  0.00000000000E+00  0.00000000000E+00 -0.10724759093E+04  0.29647777702E+04  0.27640012031E+04 0.  0.
        3    1    3    3  502    0 -0.12284424466E+04  0.61021189079E+03 -0.71730850478E+03  0.15478891748E+04  0.10100000352E+00 0.  1.
       -3    1    3    3    0  502  0.12284424466E+04 -0.61021189079E+03 -0.35516740451E+03  0.14168885954E+04  0.10100000352E+00 0. -1.
</event>
<event>
 5   0  0.3499642E-05  0.2737413E+04  0.7818609E-02  0.8322967E-01
       -2   -1    0    0    0  501  0.00000000000E+00  0.00000000000E+00  0.10506065474E+04  0.10506065474E+04  0.25500000920E-02 0. -1.
        2   -1    0    0  501    0  0.00000000000E+00  0.00000000000E+00 -0.17831198418E+04  0.17831198418E+04  0.25500000920E-02 0.  1.
    10030    2    1    2    0    0  0.00000000000E+00  0.00000000000E+00 -0.73251329447E+03  0.28337263892E+04  0.27374129250E+04 0.  0.
        2    1    3    3  502    0 -0.51862178257E+02  0.12631442887E+04  0.17673092643E+03  0.12765018605E+04  0.25500000920E-02 0.  1.
       -2    1    3    3    0  502  0.51862178257E+02 -0.12631442887E+04 -0.90924422090E+03  0.15572245287E+04  0.25500000920E-02 0. -1.
</event>
<event>
 5   0  0.1435062E-05  0.2638304E+04  0.7818609E-02  0.8355305E-01
       -1   -1    0    0    0  501  0.00000000000E+00  0.00000000000E+00  0.95560729193E+03  0.95560729194E+03  0.50400001928E-02 0.  1.
        1   -1    0    0  501    0  0.00000000000E+00  0.00000000000E+00 -0.18210009080E+04  0.18210009080E+04  0.50400001928E-02 0. -1.
    10030    2    1    2    0    0  0.00000000000E+00  0.00000000000E+00 -0.86539361606E+03  0.27766081999E+04  0.26383038084E+04 0.  0.
        2    1    3    3  502    0  0.94163857818E+03 -0.45255483557E+03  0.41492591909E+03  0.11241230402E+04  0.25500000920E-02 0.  1.
       -2    1    3    3    0  502 -0.94163857818E+03  0.45255483557E+03 -0.12803195352E+04  0.16524851598E+04  0.25500000920E-02 0. -1.
</event>
<event>
 5   0  0.3508470E-05  0.2396341E+04  0.7818609E-02  0.8440875E-01
        2   -1    0    0  501    0  0.00000000000E+00  0.00000000000E+00  0.23789761895E+04  0.23789761895E+04  0.25500000920E-02 0.  1.
       -2   -1    0    0    0  501  0.00000000000E+00  0.00000000000E+00 -0.60345812560E+03  0.60345812561E+03  0.25500000920E-02 0. -1.
    10030    2    1    2    0    0  0.00000000000E+00  0.00000000000E+00  0.17755180639E+04  0.29824343151E+04  0.23963409709E+04 0.  0.
        5    1    3    3  502    0  0.30112991403E+03 -0.64217464282E+03  0.20896139174E+04  0.22067115604E+04  0.46999998093E+01 0.  1.
       -5    1    3    3    0  502 -0.30112991403E+03  0.64217464282E+03 -0.31409585349E+03  0.77572275472E+03  0.46999998093E+01 0. -1.
</event>
<event>
 5   0  0.3508470E-05  0.2580652E+04  0.7818609E-02  0.8374803E-01
        2   -1    0    0  501    0  0.00000000000E+00  0.00000000000E+00  0.16069049022E+04  0.16069049022E+04  0.25500000920E-02 0. -1.
       -2   -1    0    0    0  501  0.00000000000E+00  0.00000000000E+00 -0.10361171187E+04  0.10361171187E+04  0.25500000920E-02 0.  1.
    10030    2    1    2    0    0  0.00000000000E+00  0.00000000000E+00  0.57078778349E+03  0.26430220208E+04  0.25806523805E+04 0.  0.
        5    1    3    3  502    0  0.23709904473E+03 -0.84124974181E+03  0.12575461112E+04  0.15314572788E+04  0.46999998093E+01 0. -1.
       -5    1    3    3    0  502 -0.23709904473E+03  0.84124974181E+03 -0.68675832768E+03  0.11115647420E+04  0.46999998093E+01 0.  1.
</event>
<event>
 5   0  0.3849687E-05  0.2496433E+04  0.7818609E-02  0.8404257E-01
       -2   -1    0    0    0  501  0.00000000000E+00  0.00000000000E+00  0.12437416312E+04  0.12437416312E+04  0.25500000920E-02 0. -1.
        2   -1    0    0  501    0  0.00000000000E+00  0.00000000000E+00 -0.12527077414E+04  0.12527077414E+04  0.25500000920E-02 0.  1.
    10030    2    1    2    0    0  0.00000000000E+00  0.00000000000E+00 -0.89661102333E+01  0.24964493726E+04  0.24964332714E+04 0.  0.
        1    1    3    3  502    0  0.34783084214E+03  0.11006891088E+04  0.47043258993E+03  0.12465190054E+04  0.50400001928E-02 0. -1.
       -1    1    3    3    0  502 -0.34783084214E+03 -0.11006891088E+04 -0.47939870016E+03  0.12499303672E+04  0.50400001928E-02 0.  1.
</event>
<event>
 5   0  0.3441646E-05  0.2683836E+04  0.7818609E-02  0.8340269E-01
       -2   -1    0    0    0  501  0.00000000000E+00  0.00000000000E+00  0.83631506932E+03  0.83631506932E+03  0.25500000920E-02 0.  1.
        2   -1    0    0  501    0  0.00000000000E+00  0.00000000000E+00 -0.21531887903E+04  0.21531887903E+04  0.25500000920E-02 0. -1.
    10030    2    1    2    0    0  0.00000000000E+00  0.00000000000E+00 -0.13168737210E+04  0.29895038597E+04  0.26838362338E+04 0.  0.
        4    1    3    3  502    0  0.12065538654E+04  0.33741766951E+03 -0.12293424729E+03  0.12588635176E+04  0.12699999809E+01 0.  1.
       -4    1    3    3    0  502 -0.12065538654E+04 -0.33741766951E+03 -0.11939394737E+04  0.17306403421E+04  0.12699999809E+01 0. -1.
</event>
<event>
 5   0  0.1435062E-05  0.2589367E+04  0.7818609E-02  0.8371822E-01
       -1   -1    0    0    0  501  0.00000000000E+00  0.00000000000E+00  0.10748890077E+04  0.10748890078E+04  0.50400001928E-02 0.  1.
        1   -1    0    0  501    0  0.00000000000E+00  0.00000000000E+00 -0.15594219443E+04  0.15594219443E+04  0.50400001928E-02 0. -1.
    10030    2    1    2    0    0  0.00000000000E+00  0.00000000000E+00 -0.48453293653E+03  0.26343109520E+04  0.25893671091E+04 0.  0.
        2    1    3    3  502    0  0.97392115550E+03 -0.19984027535E+03  0.60143294666E+03  0.11619725221E+04  0.25500000920E-02 0.  1.
       -2    1    3    3    0  502 -0.97392115550E+03  0.19984027535E+03 -0.10859658832E+04  0.14723384299E+04  0.25500000920E-02 0. -1.
</event>
<event>
 5   0  0.1435062E-05  0.2522299E+04  0.7818609E-02  0.8395084E-01
       -1   -1    0    0    0  501  0.00000000000E+00  0.00000000000E+00  0.59960685757E+03  0.59960685759E+03  0.50400001928E-02 0.  1.
        1   -1    0    0  501    0  0.00000000000E+00  0.00000000000E+00 -0.26525690746E+04  0.26525690746E+04  0.50400001928E-02 0. -1.
    10030    2    1    2    0    0  0.00000000000E+00  0.00000000000E+00 -0.20529622170E+04  0.32521759322E+04  0.25222994329E+04 0.  0.
        2    1    3    3  502    0  0.38002576502E+03  0.27828028736E+03 -0.25348996490E+04  0.25782893031E+04  0.25500000920E-02 0. -1.
       -2    1    3    3    0  502 -0.38002576502E+03 -0.27828028736E+03  0.48193743197E+03  0.67388662901E+03  0.25500000920E-02 0.  1.
</event>
<event>
 5   0  0.3508470E-05  0.2623932E+04  0.7818609E-02  0.8360117E-01
        2   -1    0    0  501    0  0.00000000000E+00  0.00000000000E+00  0.15913323128E+04  0.15913323128E+04  0.25500000920E-02 0.  1.
       -2   -1    0    0    0  501  0.00000000000E+00  0.00000000000E+00 -0.10816440811E+04  0.10816440811E+04  0.25500000920E-02 0. -1.
    10030    2    1    2    0    0  0.00000000000E+00  0.00000000000E+00  0.50968823176E+03  0.26729763939E+04  0.26239322988E+04 0.  0.
        5    1    3    3  502    0  0.66362146119E+03  0.34501457084E+03 -0.84317282761E+03  0.11271162341E+04  0.46999998093E+01 0. -1.
       -5    1    3    3    0  502 -0.66362146119E+03 -0.34501457084E+03  0.13528610594E+04  0.15458601598E+04  0.46999998093E+01 0.  1.
</event>
<event>
 5   0  0.3647623E-05  0.2537896E+04  0.7818609E-02  0.8389608E-01
        2   -1    0    0  501    0  0.00000000000E+00  0.00000000000E+00  0.19352700337E+04  0.19352700337E+04  0.25500000920E-02 0.  1.
       -2   -1    0    0    0  501  0.00000000000E+00  0.00000000000E+00 -0.83204326751E+03  0.83204326751E+03  0.25500000920E-02 0. -1.
    10030    2    1    2    0    0  0.00000000000E+00  0.00000000000E+00  0.11032267662E+04  0.27673133013E+04  0.25378955080E+04 0.  0.
        3    1    3    3  502    0 -0.31272521854E+03  0.11792245347E+04  0.93225533663E+03  0.15354046986E+04  0.10100000352E+00 0. -1.
       -3    1    3    3    0  502  0.31272521854E+03 -0.11792245347E+04  0.17097142960E+03  0.12319086027E+04  0.10100000352E+00 0.  1.
</event>
<event>
 5   0  0.1435062E-05  0.2515479E+04  0.7818609E-02  0.8397492E-01
       -1   -1    0    0    0  501  0.00000000000E+00  0.00000000000E+00  0.10596095085E+04  0.10596095086E+04  0.50400001928E-02 0. -1.
        1   -1    0    0  501    0  0.00000000000E+00  0.00000000000E+00 -0.14929164245E+04  0.14929164245E+04  0.50400001928E-02 0.  1.
    10030    2    1    2    0    0  0.00000000000E+00  0.00000000000E+00 -0.43330691596E+03  0.25525259331E+04  0.25154788323E+04 0.  0.
        2    1    3    3  502    0 -0.68728536641E+03 -0.93857651215E+03 -0.70183908956E+03  0.13586262001E+04  0.25500000920E-02 0.  1.
       -2    1    3    3    0  502  0.68728536641E+03  0.93857651215E+03  0.26853217360E+03  0.11938997329E+04  0.25500000920E-02 0. -1.
</event>
<event>
 5   0  0.3441646E-05  0.2620839E+04  0.7818609E-02  0.8361157E-01
        2   -1    0    0  501    0  0.00000000000E+00  0.00000000000E+00  0.16823961788E+04  0.16823961788E+04  0.25500000920E-02 0. -1.
       -2   -1    0    0    0  501  0.00000000000E+00  0.00000000000E+00 -0.10206869589E+04  0.10206869589E+04  0.25500000920E-02 0.  1.
    10030    2    1    2    0    0  0.00000000000E+00  0.00000000000E+00  0.66170921987E+03  0.27030831378E+04  0.26208394377E+04 0.  0.
        4    1    3    3  502    0  0.12751049240E+04  0.30123824302E+03  0.35528724183E+03  0.13575226272E+04  0.12699999809E+01 0.  1.
       -4    1    3    3    0  502 -0.12751049240E+04 -0.30123824302E+03  0.30642197803E+03  0.13455605106E+04  0.12699999809E+01 0. -1.
</event>
<event>
 5   0  0.1533248E-05  0.2580044E+04  0.7818609E-02  0.8375012E-01
       -1   -1    0    0    0  501  0.00000000000E+00  0.00000000000E+00  0.14435039922E+04  0.14435039923E+04  0.50400001928E-02 0. -1.
        1   -1    0    0  501    0  0.00000000000E+00  0.00000000000E+00 -0.11528588777E+04  0.11528588777E+04  0.50400001928E-02 0.  1.
    10030    2    1    2    0    0  0.00000000000E+00  0.00000000000E+00  0.29064511453E+03  0.25963628700E+04  0.25800437147E+04 0.  0.
        4    1    3    3  502    0 -0.60494731339E+03  0.11195853305E+04 -0.67491337150E+02  0.12743583710E+04  0.12699999809E+01 0. -1.
       -4    1    3    3    0  502  0.60494731339E+03 -0.11195853305E+04  0.35813645168E+03  0.13220044989E+04  0.12699999809E+01 0.  1.
</event>
<event>
 5   0  0.1497497E-05  0.2579122E+04  0.7818609E-02  0.8375328E-01
        1   -1    0    0  501    0  0.00000000000E+00  0.00000000000E+00  0.11194464361E+04  0.11194464362E+04  0.50400001928E-02 0. -1.
       -1   -1    0    0    0  501  0.00000000000E+00  0.00000000000E+00 -0.14855264709E+04  0.14855264709E+04  0.50400001928E-02 0.  1.
    10030    2    1    2    0    0  0.00000000000E+00  0.00000000000E+00 -0.36608003477E+03  0.26049729071E+04  0.25791217991E+04 0.  0.
        3    1    3    3  502    0  0.53496862083E+03 -0.20608611905E+03 -0.13497389916E+04  0.14664440901E+04  0.10100000352E+00 0.  1.
       -3    1    3    3    0  502 -0.53496862083E+03  0.20608611905E+03  0.98365895679E+03  0.11385288170E+04  0.10100000352E+00 0. -1.
</event>
<event>
 5   0  0.3849687E-05  0.2624167E+04  0.7818609E-02  0.8360038E-01
        2   -1    0    0  501    0  0.00000000000E+00  0.00000000000E+00  0.18705664264E+04  0.18705664264E+04  0.25500000920E-02 0.  1.
       -2   -1    0    0    0  501  0.00000000000E+00  0.00000000000E+00 -0.92034287110E+03  0.92034287110E+03  0.25500000920E-02 0. -1.
    10030    2    1    2    0    0  0.00000000000E+00  0.00000000000E+00  0.95022355528E+03  0.27909092975E+04  0.26241665156E+04 0.  0.
        1    1    3    3  502    0  0.11062396344E+04 -0.55823198461E+03  0.93400658720E+03  0.15516950030E+04  0.50400001928E-02 0.  1.
       -1    1    3    3    0  502 -0.11062396344E+04  0.55823198461E+03  0.16216968073E+02  0.12392142944E+04  0.50400001928E-02 0. -1.
</event>
<event>
 5   0  0.1435062E-05  0.2627311E+04  0.7818609E-02  0.8358983E-01
       -1   -1    0    0    0  501  0.00000000000E+00  0.00000000000E+00  0.29851843947E+04  0.29851843947E+04  0.50400001928E-02 0.  1.
        1   -1    0    0  501    0  0.00000000000E+00  0.00000000000E+00 -0.57808517700E+03  0.57808517703E+03  0.50400001928E-02 0. -1.
    10030    2    1    2    0    0  0.00000000000E+00  0.00000000000E+00  0.24070992177E+04  0.35632695717E+04  0.26273110583E+04 0.  0.
        2    1    3    3  502    0 -0.13455561175E+03 -0.13067240425E+04  0.12138707204E+04  0.17886070172E+04  0.25500000920E-02 0.  1.
       -2    1    3    3    0  502  0.13455561175E+03  0.13067240425E+04  0.11932284973E+04  0.17746625546E+04  0.25500000920E-02 0. -1.
</event>
<event>
 5   0  0.3849687E-05  0.2527124E+04  0.7818609E-02  0.8393386E-01
        2   -1    0    0  501    0  0.00000000000E+00  0.00000000000E+00  0.13199921803E+04  0.13199921803E+04  0.25500000920E-02 0. -1.
       -2   -1    0    0    0  501  0.00000000000E+00  0.00000000000E+00 -0.12095445773E+04  0.12095445773E+04  0.25500000920E-02 0.  1.
    10030    2    1    2    0    0  0.00000000000E+00  0.00000000000E+00  0.11044760301E+03  0.25295367575E+04  0.25271243607E+04 0.  0.
        1    1    3    3  502    0 -0.61579850077E+03 -0.53929835806E+03  0.10187115628E+04  0.13068373123E+04  0.50400001928E-02 0. -1.
       -1    1    3    3    0  502  0.61579850077E+03  0.53929835806E+03 -0.90826395984E+03  0.12226994452E+04  0.50400001928E-02 0.  1.
</event>
<event>
 5   0  0.3647623E-05  0.1994410E+04  0.7818609E-02  0.8609239E-01
        2   -1    0    0  501    0  0.00000000000E+00  0.00000000000E+00  0.73875095666E+03  0.73875095666E+03  0.25500000920E-02 0.  1.
       -2   -1    0    0    0  501  0.00000000000E+00  0.00000000000E+00 -0.13460801112E+04  0.13460801112E+04  0.25500000920E-02 0. -1.
    10030    2    1    2    0    0  0.00000000000E+00  0.00000000000E+00 -0.60732915453E+03  0.20848310678E+04  0.19944101583E+04 0.  0.
        3    1    3    3  502    0 -0.70642196937E+03  0.15887099406E+02 -0.10392236810E+04  0.12566902037E+04  0.10100000352E+00 0. -1.
       -3    1    3    3    0  502  0.70642196937E+03 -0.15887099406E+02  0.43189452644E+03  0.82814086417E+03  0.10100000352E+00 0.  1.
</event>
<event>
 5   0  0.1451052E-05  0.2582013E+04  0.7818609E-02  0.8374337E-01
       -1   -1    0    0    0  501  0.00000000000E+00  0.00000000000E+00  0.74260713334E+03  0.74260713336E+03  0.50400001928E-02 0.  1.
        1   -1    0    0  501    0  0.00000000000E+00  0.00000000000E+00 -0.22443867150E+04  0.22443867150E+04  0.50400001928E-02 0. -1.
    10030    2    1    2    0    0  0.00000000000E+00  0.00000000000E+00 -0.15017795817E+04  0.29869938484E+04  0.25820128463E+04 0.  0.
        1    1    3    3  502    0  0.43022933212E+03  0.56773407511E+03  0.49468493620E+03  0.86725569724E+03  0.50400001928E-02 0.  1.
       -1    1    3    3    0  502 -0.43022933212E+03 -0.56773407511E+03 -0.19964645179E+04  0.21197381511E+04  0.50400001928E-02 0. -1.
</event>
<event>
 5   0  0.1451052E-05  0.2599924E+04  0.7818609E-02  0.8368227E-01
       -1   -1    0    0    0  501  0.00000000000E+00  0.00000000000E+00  0.13933954811E+04  0.13933954811E+04  0.50400001928E-02 0.  1.
        1   -1    0    0  501    0  0.00000000000E+00  0.00000000000E+00 -0.12127936713E+04  0.12127936713E+04  0.50400001928E-02 0. -1.
    10030    2    1    2    0    0  0.00000000000E+00  0.00000000000E+00  0.18060180986E+03  0.26061891524E+04  0.25999240151E+04 0.  0.
        1    1    3    3  502    0  0.10139586427E+04 -0.81335739374E+03  0.74809148357E+02  0.13020210397E+04  0.50400001928E-02 0. -1.
       -1    1    3    3    0  502 -0.10139586427E+04  0.81335739374E+03  0.10579266150E+03  0.13041681128E+04  0.50400001928E-02 0.  1.
</event>
<event>
 5   0  0.3849687E-05  0.2590738E+04  0.7818609E-02  0.8371354E-01
        2   -1    0    0  501    0  0.00000000000E+00  0.00000000000E+00  0.11935974163E+04  0.11935974163E+04  0.25500000920E-02 0. -1.
       -2   -1    0    0    0  501  0.00000000000E+00  0.00000000000E+00 -0.14058176793E+04  0.14058176793E+04  0.25500000920E-02 0.  1.
    10030    2    1    2    0    0  0.00000000000E+00  0.00000000000E+00 -0.21222026296E+03  0.25994150956E+04  0.25907376168E+04 0.  0.
        1    1    3    3  502    0  0.90302590393E+03  0.41671052377E+03  0.72665593165E+03  0.12317192403E+04  0.50400001928E-02 0. -1.
       -1    1    3    3    0  502 -0.90302590393E+03 -0.41671052377E+03 -0.93887619461E+03  0.13676958553E+04  0.50400001928E-02 0.  1.
</event>
<event>
 5   0  0.1435062E-05  0.2745349E+04  0.7818609E-02  0.8320439E-01
       -1   -1    0    0    0  501  0.00000000000E+00  0.00000000000E+00  0.97716370674E+03  0.97716370675E+03  0.50400001928E-02 0.  1.
        1   -1    0    0  501    0  0.00000000000E+00  0.00000000000E+00 -0.19282694230E+04  0.19282694230E+04  0.50400001928E-02 0. -1.
    10030    2    1    2    0    0  0.00000000000E+00  0.00000000000E+00 -0.95110571626E+03  0.29054331297E+04  0.27453487188E+04 0.  0.
        2    1    3    3  502    0 -0.35143756392E+03  0.82343425612E+02  0.92603874909E+03  0.99389967598E+03  0.25500000920E-02 0.  1.
       -2    1    3    3    0  502  0.35143756392E+03 -0.82343425612E+02 -0.18771444654E+04  0.19115334538E+04  0.25500000920E-02 0. -1.
</event>
<event>
 5   0  0.1451052E-05  0.2880070E+04  0.7818609E-02  0.8278832E-01
        1   -1    0    0  501    0  0.00000000000E+00  0.00000000000E+00  0.95476808376E+03  0.95476808377E+03  0.50400001928E-02 0.  1.
       -1   -1    0    0    0  501  0.00000000000E+00  0.00000000000E+00 -0.21719420432E+04  0.21719420432E+04  0.50400001928E-02 0. -1.
    10030    2    1    2    0    0  0.00000000000E+00  0.00000000000E+00 -0.12171739594E+04  0.31267101270E+04  0.28800700982E+04 0.  0.
        1    1    3    3  502    0 -0.48234205726E+03 -0.79479504191E+03  0.58529169198E+03  0.10985988274E+04  0.50400001928E-02 0.  1.
       -1    1    3    3    0  502  0.48234205726E+03  0.79479504191E+03 -0.18024656514E+04  0.20281112996E+04  0.50400001928E-02 0. -1.
</event>
<event>
 5   0  0.3647623E-05  0.2687000E+04  0.7818609E-02  0.8339235E-01
       -2   -1    0    0    0  501  0.00000000000E+00  0.00000000000E+00  0.66334087089E+03  0.66334087090E+03  0.25500000920E-02 0.  1.
        2   -1    0    0  501    0  0.00000000000E+00  0.00000000000E+00 -0.27210638175E+04  0.27210638175E+04  0.25500000920E-02 0. -1.
    10030    2    1    2    0    0  0.00000000000E+00  0.00000000000E+00 -0.20577229466E+04  0.33844046884E+04  0.26870004410E+04 0.  0.
        3    1    3    3  502    0 -0.26892600320E+02 -0.13408000180E+04 -0.92711893958E+03  0.16303427365E+04  0.10100000352E+00 0.  1.
       -3    1    3    3    0  502  0.26892600320E+02  0.13408000180E+04 -0.11306040071E+04  0.17540619519E+04  0.10100000352E+00 0. -1.
</event>
<event>
 5   0  0.1533248E-05  0.2589396E+04  0.7818609E-02  0.8371812E-01
       -1   -1    0    0    0  501  0.00000000000E+00  0.00000000000E+00  0.11398765465E+04  0.11398765465E+04  0.50400001928E-02 0.  1.
        1   -1    0    0  501    0  0.00000000000E+00  0.00000000000E+00 -0.14705473352E+04  0.14705473352E+04  0.50400001928E-02 0. -1.
    10030    2    1    2    0    0  0.00000000000E+00  0.00000000000E+00 -0.33067078862E+03  0.26104238817E+04  0.25893956190E+04 0.  0.
        4    1    3    3  502    0  0.30447758478E+03 -0.47139102902E+02  0.11023790059E+04  0.11446264806E+04  0.12699999809E+01 0.  1.
       -4    1    3    3    0  502 -0.30447758478E+03  0.47139102902E+02 -0.14330497945E+04  0.14657974011E+04  0.12699999809E+01 0. -1.
</event>
<event>
 5   0  0.1451052E-05  0.1739550E+04  0.7818609E-02  0.8739124E-01
        1   -1    0    0  501    0  0.00000000000E+00  0.00000000000E+00  0.67264408763E+03  0.67264408765E+03  0.50400001928E-02 0. -1.
       -1   -1    0    0    0  501  0.00000000000E+00  0.00000000000E+00 -0.11246785409E+04  0.11246785410E+04  0.50400001928E-02 0.  1.
    10030    2    1    2    0    0  0.00000000000E+00  0.00000000000E+00 -0.45203445331E+03  0.17973226286E+04  0.17395497936E+04 0.  0.
        1    1    3    3  502    0  0.15907428139E+03  0.15800913687E+03 -0.10943063619E+04  0.11170398059E+04  0.50400001928E-02 0.  1.
       -1    1    3    3    0  502 -0.15907428139E+03 -0.15800913687E+03  0.64227190855E+03  0.68028282270E+03  0.50400001928E-02 0. -1.
</event>
<event>
 5   0  0.1451052E-05  0.2603779E+04  0.7818609E-02  0.8366919E-01
       -1   -1    0    0    0  501  0.00000000000E+00  0.00000000000E+00  0.89739941851E+03  0.89739941852E+03  0.50400001928E-02 0.  1.
        1   -1    0    0  501    0  0.00000000000E+00  0.00000000000E+00 -0.18886981909E+04  0.18886981909E+04  0.50400001928E-02 0. -1.
    10030    2    1    2    0    0  0.00000000000E+00  0.00000000000E+00 -0.99129877243E+03  0.27860976095E+04  0.26037792981E+04 0.  0.
        1    1    3    3  502    0  0.35786578464E+03  0.91474045375E+03  0.41863842042E+03  0.10677434826E+04  0.50400001928E-02 0.  1.
       -1    1    3    3    0  502 -0.35786578464E+03 -0.91474045375E+03 -0.14099371928E+04  0.17183541269E+04  0.50400001928E-02 0. -1.
</event>
<event>
 5   0  0.3499642E-05  0.2669226E+04  0.7818609E-02  0.8345060E-01
        2   -1    0    0  501    0  0.00000000000E+00  0.00000000000E+00  0.24924891662E+04  0.24924891662E+04  0.25500000920E-02 0. -1.
       -2   -1    0    0    0  501  0.00000000000E+00  0.00000000000E+00 -0.71462358471E+03  0.71462358472E+03  0.25500000920E-02 0.  1.
    10030    2    1    2    0    0  0.00000000000E+00  0.00000000000E+00  0.17778655815E+04  0.32071127510E+04  0.26692257625E+04 0.  0.
        2    1    3    3  502    0 -0.79843368130E+03  0.99756462206E+03  0.13520382508E+04  0.18602792668E+04  0.25500000920E-02 0. -1.
       -2    1    3    3    0  502  0.79843368130E+03 -0.99756462206E+03  0.42582733071E+03  0.13468334842E+04  0.25500000920E-02 0.  1.
</event>
<event>
 5   0  0.3441646E-05  0.2581448E+04  0.7818609E-02  0.8374530E-01
        2   -1    0    0  501    0  0.00000000000E+00  0.00000000000E+00  0.16030269229E+04  0.16030269229E+04  0.25500000920E-02 0. -1.
       -2   -1    0    0    0  501  0.00000000000E+00  0.00000000000E+00 -0.10392645670E+04  0.10392645670E+04  0.25500000920E-02 0.  1.
    10030    2    1    2    0    0  0.00000000000E+00  0.00000000000E+00  0.56376235591E+03  0.26422914899E+04  0.25814484934E+04 0.  0.
        4    1    3    3  502    0 -0.60747416810E+03  0.61682955000E+03 -0.69800345156E+03  0.11120764317E+04  0.12699999809E+01 0.  1.
       -4    1    3    3    0  502  0.60747416810E+03 -0.61682955000E+03  0.12617658075E+04  0.15302150582E+04  0.12699999809E+01 0. -1.
</event>
<event>
 5   0  0.3647623E-05  0.2578632E+04  0.7818609E-02  0.8375496E-01
        2   -1    0    0  501    0  0.00000000000E+00  0.00000000000E+00  0.14125926472E+04  0.14125926472E+04  0.25500000920E-02 0. -1.
       -2   -1    0    0    0  501  0.00000000000E+00  0.00000000000E+00 -0.11767976970E+04  0.11767976970E+04  0.25500000920E-02 0.  1.
    10030    2    1    2    0    0  0.00000000000E+00  0.00000000000E+00  0.23579495022E+03  0.25893903442E+04  0.25786320203E+04 0.  0.
        3    1    3    3  502    0  0.20697362526E+03 -0.75884755579E+02  0.13935277721E+04  0.14108565624E+04  0.10100000352E+00 0. -1.
       -3    1    3    3    0  502 -0.20697362526E+03  0.75884755579E+02 -0.11577328219E+04  0.11785337818E+04  0.10100000352E+00 0.  1.
</event>
<event>
 5   0  0.1497497E-05  0.2676176E+04  0.7818609E-02  0.8342777E-01
       -1   -1    0    0    0  501  0.00000000000E+00  0.00000000000E+00  0.90301845941E+03  0.90301845943E+03  0.50400001928E-02 0.  1.
        1   -1    0    0  501    0  0.00000000000E+00  0.00000000000E+00 -0.19827715700E+04  0.19827715700E+04  0.50400001928E-02 0. -1.
    10030    2    1    2    0    0  0.00000000000E+00  0.00000000000E+00 -0.10797531106E+04  0.28857900294E+04  0.26761758750E+04 0.  0.
        3    1    3    3  502    0  0.17633991990E+03 -0.35363913504E+02 -0.19696786639E+04  0.19778727014E+04  0.10100000352E+00 0. -1.
       -3    1    3    3    0  502 -0.17633991990E+03  0.35363913504E+02  0.88992555336E+03  0.90791732798E+03  0.10100000352E+00 0.  1.
</event>
<event>
 5   0  0.3508470E-05  0.2586001E+04  0.7818609E-02  0.8372972E-01
       -2   -1    0    0    0  501  0.00000000000E+00  0.00000000000E+00  0.74782775509E+03  0.74782775509E+03  0.25500000920E-02 0.  1.
        2   -1    0    0  501    0  0.00000000000E+00  0.00000000000E+00 -0.22356093405E+04  0.22356093405E+04  0.25500000920E-02 0. -1.
    10030    2    1    2    0    0  0.00000000000E+00  0.00000000000E+00 -0.14877815855E+04  0.29834370956E+04  0.25860013259E+04 0.  0.
        5    1    3    3  502    0 -0.63317690156E+03 -0.46540038134E+03  0.44071534259E+03  0.90097869387E+03  0.46999998093E+01 0.  1.
       -5    1    3    3    0  502  0.63317690156E+03  0.46540038134E+03 -0.19284969280E+04  0.20824584018E+04  0.46999998093E+01 0. -1.
</event>
<event>
 5   0  0.3499642E-05  0.2611007E+04  0.7818609E-02  0.8364472E-01
       -2   -1    0    0    0  501  0.00000000000E+00  0.00000000000E+00  0.84927292245E+03  0.84927292246E+03  0.25500000920E-02 0. -1.
        2   -1    0    0  501    0  0.00000000000E+00  0.00000000000E+00 -0.20068223096E+04  0.20068223096E+04  0.25500000920E-02 0.  1.
    10030    2    1    2    0    0  0.00000000000E+00  0.00000000000E+00 -0.11575493872E+04  0.28560952321E+04  0.26110073518E+04 0.  0.
        2    1    3    3  502    0  0.11613588846E+03 -0.57885409752E+02 -0.19997505009E+04  0.20039561699E+04  0.25500000920E-02 0.  1.
       -2    1    3    3    0  502 -0.11613588846E+03  0.57885409752E+02  0.84220111372E+03  0.85213906213E+03  0.25500000920E-02 0. -1.
</event>
<event>
 5   0  0.1497497E-05  0.2686538E+04  0.7818609E-02  0.8339386E-01
       -1   -1    0    0    0  501  0.00000000000E+00  0.00000000000E+00  0.13667743766E+04  0.13667743767E+04  0.50400001928E-02 0.  1.
        1   -1    0    0  501    0  0.00000000000E+00  0.00000000000E+00 -0.13201682128E+04  0.13201682128E+04  0.50400001928E-02 0. -1.
    10030    2    1    2    0    0  0.00000000000E+00  0.00000000000E+00  0.46606163848E+02  0.26869425895E+04  0.26865383572E+04 0.  0.
        3    1    3    3  502    0  0.91604198800E+03 -0.61917279676E+03 -0.73961192939E+03  0.13302382089E+04  0.10100000352E+00 0. -1.
       -3    1    3    3    0  502 -0.91604198800E+03  0.61917279676E+03  0.78621809324E+03  0.13567043806E+04  0.10100000352E+00 0.  1.
</event>
<event>
 5   0  0.3508470E-05  0.2621556E+04  0.7818609E-02  0.8360916E-01
       -2   -1    0    0    0  501  0.00000000000E+00  0.00000000000E+00  0.73152551298E+03  0.73152551299E+03  0.25500000920E-02 0. -1.
        2   -1    0    0  501    0  0.00000000000E+00  0.00000000000E+00 -0.23487076086E+04  0.23487076086E+04  0.25500000920E-02 0.  1.
    10030    2    1    2    0    0  0.00000000000E+00  0.00000000000E+00 -0.16171820956E+04  0.30802331216E+04  0.26215564371E+04 0.  0.
        5    1    3    3  502    0  0.59070166474E+03 -0.42580808385E+03  0.47199868099E+03  0.86778213041E+03  0.46999998093E+01 0. -1.
       -5    1    3    3    0  502 -0.59070166474E+03  0.42580808385E+03 -0.20891807766E+04  0.22124509912E+04  0.46999998093E+01 0.  1.
</event>
<event>
 5   0  0.1217200E-05  0.2563351E+04  0.7818609E-02  0.8380758E-01
       -3   -1    0    0    0  501  0.00000000000E+00  0.00000000000E+00  0.88010254725E+03  0.88010255304E+03  0.10100000352E+00 0. -1.
        3   -1    0    0  501    0  0.00000000000E+00  0.00000000000E+00 -0.18664781448E+04  0.18664781476E+04  0.10100000352E+00 0.  1.
    10030    2    1    2    0    0  0.00000000000E+00  0.00000000000E+00 -0.98637559759E+03  0.27465807006E+04  0.25633510734E+04 0.  0.
        1    1    3    3  502    0  0.96807431866E+03  0.75932849223E+03 -0.87794410336E+03  0.15114673315E+04  0.50400001928E-02 0. -1.
       -1    1    3    3    0  502 -0.96807431866E+03 -0.75932849223E+03 -0.10843149423E+03  0.12351133691E+04  0.50400001928E-02 0.  1.
</event>
<event>
 5   0  0.3508470E-05  0.2585260E+04  0.7818609E-02  0.8373225E-01
       -2   -1    0    0    0  501  0.00000000000E+00  0.00000000000E+00  0.74247826907E+03  0.74247826907E+03  0.25500000920E-02 0.  1.
        2   -1    0    0  501    0  0.00000000000E+00  0.00000000000E+00 -0.22504254284E+04  0.22504254284E+04  0.25500000920E-02 0. -1.
    10030    2    1    2    0    0  0.00000000000E+00  0.00000000000E+00 -0.15079471593E+04  0.29929036975E+04  0.25852597369E+04 0.  0.
        5    1    3    3  502    0 -0.11512417544E+04  0.10444269066E+03 -0.84313906476E+02  0.11590499461E+04  0.46999998093E+01 0.  1.
       -5    1    3    3    0  502  0.11512417544E+04 -0.10444269066E+03 -0.14236332528E+04  0.18338537514E+04  0.46999998093E+01 0. -1.
</event>
<event>
 5   0  0.3849687E-05  0.2372069E+04  0.7818609E-02  0.8450035E-01
        2   -1    0    0  501    0  0.00000000000E+00  0.00000000000E+00  0.18054283445E+04  0.18054283445E+04  0.25500000920E-02 0. -1.
       -2   -1    0    0    0  501  0.00000000000E+00  0.00000000000E+00 -0.77913804759E+03  0.77913804759E+03  0.25500000920E-02 0.  1.
    10030    2    1    2    0    0  0.00000000000E+00  0.00000000000E+00  0.10262902969E+04  0.25845663921E+04  0.23720690676E+04 0.  0.
        1    1    3    3  502    0  0.79412808645E+03  0.55521011908E+03 -0.23206934033E+03  0.99637034920E+03  0.50400001928E-02 0.  1.
       -1    1    3    3    0  502 -0.79412808645E+03 -0.55521011908E+03  0.12583596373E+04  0.15881960429E+04  0.50400001928E-02 0. -1.
</event>
<event>
 5   0  0.3441646E-05  0.2615595E+04  0.7818609E-02  0.8362923E-01
       -2   -1    0    0    0  501  0.00000000000E+00  0.00000000000E+00  0.89137454352E+03  0.89137454352E+03  0.25500000920E-02 0. -1.
        2   -1    0    0  501    0  0.00000000000E+00  0.00000000000E+00 -0.19187598982E+04  0.19187598982E+04  0.25500000920E-02 0.  1.
    10030    2    1    2    0    0  0.00000000000E+00  0.00000000000E+00 -0.10273853547E+04  0.28101344417E+04  0.26155945622E+04 0.  0.
        4    1    3    3  502    0 -0.78241434641E+03  0.80806519901E+03 -0.12305448993E+04  0.16671484450E+04  0.12699999809E+01 0.  1.
       -4    1    3    3    0  502  0.78241434641E+03 -0.80806519901E+03  0.20315954466E+03  0.11429859968E+04  0.12699999809E+01 0. -1.
</event>
<event>
 5   0  0.1497497E-05  0.2637967E+04  0.7818609E-02  0.8355418E-01
       -1   -1    0    0    0  501  0.00000000000E+00  0.00000000000E+00  0.68130381536E+03  0.68130381538E+03  0.50400001928E-02 0.  1.
        1   -1    0    0  501    0  0.00000000000E+00  0.00000000000E+00 -0.25535114973E+04  0.25535114973E+04  0.50400001928E-02 0. -1.
    10030    2    1    2    0    0  0.00000000000E+00  0.00000000000E+00 -0.18722076819E+04  0.32348153127E+04  0.26379667365E+04 0.  0.
        3    1    3    3  502    0 -0.10409836138E+04  0.77725203784E+03 -0.12155967958E+04  0.17791692429E+04  0.10100000352E+00 0.  1.
       -3    1    3    3    0  502  0.10409836138E+04 -0.77725203784E+03 -0.65661088615E+03  0.14556460698E+04  0.10100000352E+00 0. -1.
</event>
<event>
 5   0  0.1533248E-05  0.2573574E+04  0.7818609E-02  0.8377233E-01
       -1   -1    0    0    0  501  0.00000000000E+00  0.00000000000E+00  0.15018367556E+04  0.15018367556E+04  0.50400001928E-02 0.  1.
        1   -1    0    0  501    0  0.00000000000E+00  0.00000000000E+00 -0.11025308951E+04  0.11025308951E+04  0.50400001928E-02 0. -1.
    10030    2    1    2    0    0  0.00000000000E+00  0.00000000000E+00  0.39930586055E+03  0.26043676507E+04  0.25735744967E+04 0.  0.
        4    1    3    3  502    0 -0.21669907980E+03 -0.97783970709E+03  0.10172123038E+04  0.14275333508E+04  0.12699999809E+01 0.  1.
       -4    1    3    3    0  502  0.21669907980E+03  0.97783970709E+03 -0.61790644321E+03  0.11768342999E+04  0.12699999809E+01 0. -1.
</event>
<event>
 5   0  0.3849687E-05  0.2560192E+04  0.7818609E-02  0.8381850E-01
       -2   -1    0    0    0  501  0.00000000000E+00  0.00000000000E+00  0.79754959333E+03  0.79754959333E+03  0.25500000920E-02 0.  1.
        2   -1    0    0  501    0  0.00000000000E+00  0.00000000000E+00 -0.20546001626E+04  0.20546001626E+04  0.25500000920E-02 0. -1.
    10030    2    1    2    0    0  0.00000000000E+00  0.00000000000E+00 -0.12570505692E+04  0.28521497559E+04  0.25601918085E+04 0.  0.
        1    1    3    3  502    0 -0.38721141517E+03 -0.10007952595E+04 -0.14060577940E+04  0.17687629438E+04  0.50400001928E-02 0. -1.
       -1    1    3    3    0  502  0.38721141517E+03  0.10007952595E+04  0.14900722474E+03  0.10833868121E+04  0.50400001928E-02 0.  1.
</event>
<event>
 5   0  0.1451052E-05  0.2622746E+04  0.7818609E-02  0.8360516E-01
       -1   -1    0    0    0  501  0.00000000000E+00  0.00000000000E+00  0.10989166394E+04  0.10989166395E+04  0.50400001928E-02 0. -1.
        1   -1    0    0  501    0  0.00000000000E+00  0.00000000000E+00 -0.15649046506E+04  0.15649046506E+04  0.50400001928E-02 0.  1.
    10030    2    1    2    0    0  0.00000000000E+00  0.00000000000E+00 -0.46598801116E+03  0.26638212901E+04  0.26227464687E+04 0.  0.
        1    1    3    3  502    0 -0.66484988488E+03  0.69961471827E+03  0.66872401007E+03  0.11741711652E+04  0.50400001928E-02 0. -1.
       -1    1    3    3    0  502  0.66484988488E+03 -0.69961471827E+03 -0.11347120212E+04  0.14896501249E+04  0.50400001928E-02 0.  1.
</event>
<event>
 5   0  0.3441646E-05  0.2603841E+04  0.7818609E-02  0.8366898E-01
       -2   -1    0    0    0  501  0.00000000000E+00  0.00000000000E+00  0.96778919712E+03  0.96778919712E+03  0.25500000920E-02 0.  1.
        2   -1    0    0  501    0  0.00000000000E+00  0.00000000000E+00 -0.17514112368E+04  0.17514112368E+04  0.25500000920E-02 0. -1.
    10030    2    1    2    0    0  0.00000000000E+00  0.00000000000E+00 -0.78362203967E+03  0.27192004339E+04  0.26038409127E+04 0.  0.
        4    1    3    3  502    0 -0.51216158493E+03 -0.46028762751E+03  0.76204808907E+03  0.10270798859E+04  0.12699999809E+01 0.  1.
       -4    1    3    3    0  502  0.51216158493E+03  0.46028762751E+03 -0.15456701287E+04  0.16921205480E+04  0.12699999809E+01 0. -1.
</event>
<event>
 5   0  0.3508470E-05  0.2537912E+04  0.7818609E-02  0.8389602E-01
       -2   -1    0    0    0  501  0.00000000000E+00  0.00000000000E+00  0.12650315636E+04  0.12650315636E+04  0.25500000920E-02 0. -1.
        2   -1    0    0  501    0  0.00000000000E+00  0.00000000000E+00 -0.12728921639E+04  0.12728921639E+04  0.25500000920E-02 0.  1.
    10030    2    1    2    0    0  0.00000000000E+00  0.00000000000E+00 -0.78606003744E+01  0.25379237275E+04  0.25379115543E+04 0.  0.
        5    1    3    3  502    0  0.45026248989E+03  0.72437360794E+03  0.93563433795E+03  0.12660517912E+04  0.46999998093E+01 0. -1.
       -5    1    3    3    0  502 -0.45026248989E+03 -0.72437360794E+03 -0.94349493832E+03  0.12718719363E+04  0.46999998093E+01 0.  1.
</event>
<event>
 5   0  0.3508470E-05  0.2599158E+04  0.7818609E-02  0.8368487E-01
        2   -1    0    0  501    0  0.00000000000E+00  0.00000000000E+00  0.90316745873E+03  0.90316745873E+03  0.25500000920E-02 0. -1.
       -2   -1    0    0    0  501  0.00000000000E+00  0.00000000000E+00 -0.18699800075E+04  0.18699800075E+04  0.25500000920E-02 0.  1.
    10030    2    1    2    0    0  0.00000000000E+00  0.00000000000E+00 -0.96681254876E+03  0.27731474662E+04  0.25991576260E+04 0.  0.
        5    1    3    3  502    0 -0.91868741944E+02  0.36671061841E+03  0.84319490735E+03  0.92407590877E+03  0.46999998093E+01 0. -1.
       -5    1    3    3    0  502  0.91868741944E+02 -0.36671061841E+03 -0.18100074561E+04  0.18490715575E+04  0.46999998093E+01 0.  1.
</event>
<event>
 5   0  0.1533248E-05  0.2592106E+04  0.7818609E-02  0.8370888E-01
       -1   -1    0    0    0  501  0.00000000000E+00  0.00000000000E+00  0.10683318869E+04  0.10683318869E+04  0.50400001928E-02 0. -1.
        1   -1    0    0  501    0  0.00000000000E+00  0.00000000000E+00 -0.15723138679E+04  0.15723138679E+04  0.50400001928E-02 0.  1.
    10030    2    1    2    0    0  0.00000000000E+00  0.00000000000E+00 -0.50398198108E+03  0.26406457548E+04  0.25921057396E+04 0.  0.
        4    1    3    3  502    0  0.93781938464E+02 -0.11043503293E+04  0.43242823554E+03  0.11896976480E+04  0.12699999809E+01 0. -1.
       -4    1    3    3    0  502 -0.93781938464E+02  0.11043503293E+04 -0.93641021662E+03  0.14509481068E+04  0.12699999809E+01 0.  1.
</event>
<event>
 5   0  0.1533248E-05  0.2244648E+04  0.7818609E-02  0.8500071E-01
        1   -1    0    0  501    0  0.00000000000E+00  0.00000000000E+00  0.16272568867E+04  0.16272568867E+04  0.50400001928E-02 0. -1.
       -1   -1    0    0    0  501  0.00000000000E+00  0.00000000000E+00 -0.77407017231E+03  0.77407017232E+03  0.50400001928E-02 0.  1.
    10030    2    1    2    0    0  0.00000000000E+00  0.00000000000E+00  0.85318671440E+03  0.24013270590E+04  0.22446478732E+04 0.  0.
        4    1    3    3  502    0 -0.73117246418E+03 -0.21212902759E+03  0.13087724366E+04  0.15140999968E+04  0.12699999809E+01 0. -1.
       -4    1    3    3    0  502  0.73117246418E+03  0.21212902759E+03 -0.45558572221E+03  0.88722706220E+03  0.12699999809E+01 0.  1.
</event>
<event>
 5   0  0.1451052E-05  0.1725593E+04  0.7818609E-02  0.8746901E-01
        1   -1    0    0  501    0  0.00000000000E+00  0.00000000000E+00  0.94413210734E+03  0.94413210735E+03  0.50400001928E-02 0. -1.
       -1   -1    0    0    0  501  0.00000000000E+00  0.00000000000E+00 -0.78846802310E+03  0.78846802312E+03  0.50400001928E-02 0.  1.
    10030    2    1    2    0    0  0.00000000000E+00  0.00000000000E+00  0.15566408424E+03  0.17326001305E+04  0.17255932038E+04 0.  0.
        1    1    3    3  502    0  0.66253128023E+03 -0.17794348176E+03  0.60322193729E+03  0.91350330357E+03  0.50400001928E-02 0. -1.
       -1    1    3    3    0  502 -0.66253128023E+03  0.17794348176E+03 -0.44755785306E+03  0.81909682690E+03  0.50400001928E-02 0.  1.
</event>
<event>
 5   0  0.3508470E-05  0.2238942E+04  0.7818609E-02  0.8502392E-01
        2   -1    0    0  501    0  0.00000000000E+00  0.00000000000E+00  0.21691367564E+04  0.21691367564E+04  0.25500000920E-02 0. -1.
       -2   -1    0    0    0  501  0.00000000000E+00  0.00000000000E+00 -0.57774836184E+03  0.57774836185E+03  0.25500000920E-02 0.  1.
    10030    2    1    2    0    0  0.00000000000E+00  0.00000000000E+00  0.15913883945E+04  0.27468851182E+04  0.22389418997E+04 0.  0.
        5    1    3    3  502    0 -0.68732609618E+03  0.38722273335E+03 -0.17874645628E+03  0.80890728353E+03  0.46999998093E+01 0.  1.
       -5    1    3    3    0  502  0.68732609618E+03 -0.38722273335E+03  0.17701348508E+04  0.19379778347E+04  0.46999998093E+01 0. -1.
</event>
<event>
 5   0  0.3441646E-05  0.2586308E+04  0.7818609E-02  0.8372867E-01
       -2   -1    0    0    0  501  0.00000000000E+00  0.00000000000E+00  0.14343999724E+04  0.14343999724E+04  0.25500000920E-02 0.  1.
        2   -1    0    0  501    0  0.00000000000E+00  0.00000000000E+00 -0.11658161970E+04  0.11658161970E+04  0.25500000920E-02 0. -1.
    10030    2    1    2    0    0  0.00000000000E+00  0.00000000000E+00  0.26858377537E+03  0.26002161694E+04  0.25863075771E+04 0.  0.
        4    1    3    3  502    0  0.91520902784E+03 -0.44355724316E+03  0.93727001683E+03  0.13830499955E+04  0.12699999809E+01 0.  1.
       -4    1    3    3    0  502 -0.91520902784E+03  0.44355724316E+03 -0.66868624147E+03  0.12171661740E+04  0.12699999809E+01 0. -1.
</event>
<event>
 5   0  0.3849687E-05  0.2496555E+04  0.7818609E-02  0.8404214E-01
       -2   -1    0    0    0  501  0.00000000000E+00  0.00000000000E+00  0.88037318596E+03  0.88037318596E+03  0.25500000920E-02 0.  1.
        2   -1    0    0  501    0  0.00000000000E+00  0.00000000000E+00 -0.17699275676E+04  0.17699275676E+04  0.25500000920E-02 0. -1.
    10030    2    1    2    0    0  0.00000000000E+00  0.00000000000E+00 -0.88955438166E+03  0.26503007536E+04  0.24965550438E+04 0.  0.
        1    1    3    3  502    0  0.13555125216E+03 -0.10833249183E+04  0.19766022297E+03  0.11095208805E+04  0.50400001928E-02 0.  1.
       -1    1    3    3    0  502 -0.13555125216E+03  0.10833249183E+04 -0.10872146046E+04  0.15407798730E+04  0.50400001928E-02 0. -1.
</event>
<event>
 5   0  0.3849687E-05  0.2575031E+04  0.7818609E-02  0.8376733E-01
        2   -1    0    0  501    0  0.00000000000E+00  0.00000000000E+00  0.21339812016E+04  0.21339812016E+04  0.25500000920E-02 0.  1.
       -2   -1    0    0    0  501  0.00000000000E+00  0.00000000000E+00 -0.77680889521E+03  0.77680889521E+03  0.25500000920E-02 0. -1.
    10030    2    1    2    0    0  0.00000000000E+00  0.00000000000E+00  0.13571723064E+04  0.29107900968E+04  0.25750305471E+04 0.  0.
        1    1    3    3  502    0 -0.36495060319E+03  0.25085487915E+03  0.20451803471E+04  0.20925773021E+04  0.50400001928E-02 0.  1.
       -1    1    3    3    0  502  0.36495060319E+03 -0.25085487915E+03 -0.68800804075E+03  0.81821279465E+03  0.50400001928E-02 0. -1.
</event>
<event>
 5   0  0.1435062E-05  0.2638730E+04  0.7818609E-02  0.8355163E-01
       -1   -1    0    0    0  501  0.00000000000E+00  0.00000000000E+00  0.66078235775E+03  0.66078235777E+03  0.50400001928E-02 0.  1.
        1   -1    0    0  501    0  0.00000000000E+00  0.00000000000E+00 -0.26343379333E+04  0.26343379333E+04  0.50400001928E-02 0. -1.
    10030    2    1    2    0    0  0.00000000000E+00  0.00000000000E+00 -0.19735555755E+04  0.32951202910E+04  0.26387300208E+04 0.  0.
        2    1    3    3  502    0 -0.22260778086E+03  0.58012822193E+03  0.46662244652E+03  0.77707109429E+03  0.25500000920E-02 0.  1.
       -2    1    3    3    0  502  0.22260778086E+03 -0.58012822193E+03 -0.24401780220E+04  0.25180491967E+04  0.25500000920E-02 0. -1.
</event>
<event>
 5   0  0.1474554E-05  0.1770674E+04  0.7818609E-02  0.8722052E-01
       -1   -1    0    0    0  501  0.00000000000E+00  0.00000000000E+00  0.10743096728E+04  0.10743096728E+04  0.50400001928E-02 0.  1.
        1   -1    0    0  501    0  0.00000000000E+00  0.00000000000E+00 -0.72960507260E+03  0.72960507262E+03  0.50400001928E-02 0. -1.
    10030    2    1    2    0    0  0.00000000000E+00  0.00000000000E+00  0.34470460017E+03  0.18039147454E+04  0.17706742070E+04 0.  0.
        5    1    3    3  502    0 -0.62314563433E+03  0.62421148950E+03  0.25026831944E+03  0.91684610864E+03  0.46999998093E+01 0.  1.
       -5    1    3    3    0  502  0.62314563433E+03 -0.62421148950E+03  0.94436280736E+02  0.88706863676E+03  0.46999998093E+01 0. -1.
</event>
<event>
 5   0  0.3508470E-05  0.2767918E+04  0.7818609E-02  0.8313298E-01
       -2   -1    0    0    0  501  0.00000000000E+00  0.00000000000E+00  0.10068777399E+04  0.10068777399E+04  0.25500000920E-02 0.  1.
        2   -1    0    0  501    0  0.00000000000E+00  0.00000000000E+00 -0.19022589504E+04  0.19022589504E+04  0.25500000920E-02 0. -1.
    10030    2    1    2    0    0  0.00000000000E+00  0.00000000000E+00 -0.89538121054E+03  0.29091366903E+04  0.27679177680E+04 0.  0.
        5    1    3    3  502    0  0.41391459840E+03  0.11248935526E+04  0.27942172976E+03  0.12307759311E+04  0.46999998093E+01 0.  1.
       -5    1    3    3    0  502 -0.41391459840E+03 -0.11248935526E+04 -0.11748029403E+04  0.16783607592E+04  0.46999998093E+01 0. -1.
</event>
<event>
 5   0  0.1533248E-05  0.2519695E+04  0.7818609E-02  0.8396003E-01
        1   -1    0    0  501    0  0.00000000000E+00  0.00000000000E+00  0.23482443131E+04  0.23482443131E+04  0.50400001928E-02 0. -1.
       -1   -1    0    0    0  501  0.00000000000E+00  0.00000000000E+00 -0.67591582513E+03  0.67591582515E+03  0.50400001928E-02 0.  1.
    10030    2    1    2    0    0  0.00000000000E+00  0.00000000000E+00  0.16723284880E+04  0.30241601383E+04  0.25196948169E+04 0.  0.
        4    1    3    3  502    0  0.93932119800E+03  0.38313580132E+03  0.17327906006E+04  0.20079049364E+04  0.12699999809E+01 0.  1.
       -4    1    3    3    0  502 -0.93932119800E+03 -0.38313580132E+03 -0.60462112645E+02  0.10162552018E+04  0.12699999809E+01 0. -1.
</event>
<event>
 5   0  0.3499642E-05  0.2692512E+04  0.7818609E-02  0.8337439E-01
        2   -1    0    0  501    0  0.00000000000E+00  0.00000000000E+00  0.10986080765E+04  0.10986080765E+04  0.25500000920E-02 0. -1.
       -2   -1    0    0    0  501  0.00000000000E+00  0.00000000000E+00 -0.16497290585E+04  0.16497290585E+04  0.25500000920E-02 0.  1.
    10030    2    1    2    0    0  0.00000000000E+00  0.00000000000E+00 -0.55112098208E+03  0.27483371350E+04  0.26925123344E+04 0.  0.
        2    1    3    3  502    0 -0.45435619382E+03 -0.12545265212E+04 -0.45852341861E+03  0.14108579194E+04  0.25500000920E-02 0. -1.
       -2    1    3    3    0  502  0.45435619382E+03  0.12545265212E+04 -0.92597563476E+02  0.13374792156E+04  0.25500000920E-02 0.  1.
</event>
<event>
 5   0  0.1451052E-05  0.2570446E+04  0.7818609E-02  0.8378310E-01
       -1   -1    0    0    0  501  0.00000000000E+00  0.00000000000E+00  0.11270882966E+04  0.11270882966E+04  0.50400001928E-02 0.  1.
        1   -1    0    0  501    0  0.00000000000E+00  0.00000000000E+00 -0.14655446536E+04  0.14655446536E+04  0.50400001928E-02 0. -1.
    10030    2    1    2    0    0  0.00000000000E+00  0.00000000000E+00 -0.33845635698E+03  0.25926329502E+04  0.25704460525E+04 0.  0.
        1    1    3    3  502    0 -0.80799516464E+02  0.11843044369E+04  0.32766252224E+03  0.12314496700E+04  0.50400001928E-02 0. -1.
       -1    1    3    3    0  502  0.80799516464E+02 -0.11843044369E+04 -0.66611887922E+03  0.13611832802E+04  0.50400001928E-02 0.  1.
</event>
<event>
 5   0  0.3647623E-05  0.2614725E+04  0.7818609E-02  0.8363217E-01
        2   -1    0    0  501    0  0.00000000000E+00  0.00000000000E+00  0.15940243699E+04  0.15940243699E+04  0.25500000920E-02 0.  1.
       -2   -1    0    0    0  501  0.00000000000E+00  0.00000000000E+00 -0.10722523906E+04  0.10722523906E+04  0.25500000920E-02 0. -1.
    10030    2    1    2    0    0  0.00000000000E+00  0.00000000000E+00  0.52177197930E+03  0.26662767604E+04  0.26147247972E+04 0.  0.
        3    1    3    3  502    0 -0.98164410833E+03 -0.40945553487E+03 -0.51431111542E+03  0.11814376514E+04  0.10100000352E+00 0.  1.
       -3    1    3    3    0  502  0.98164410833E+03  0.40945553487E+03  0.10360830947E+04  0.14848391091E+04  0.10100000352E+00 0. -1.
</event>
<event>
 5   0  0.3508470E-05  0.2599706E+04  0.7818609E-02  0.8368301E-01
        2   -1    0    0  501    0  0.00000000000E+00  0.00000000000E+00  0.18561194971E+04  0.18561194971E+04  0.25500000920E-02 0. -1.
       -2   -1    0    0    0  501  0.00000000000E+00  0.00000000000E+00 -0.91029589550E+03  0.91029589550E+03  0.25500000920E-02 0.  1.
    10030    2    1    2    0    0  0.00000000000E+00  0.00000000000E+00  0.94582360158E+03  0.27664153926E+04  0.25997061063E+04 0.  0.
        5    1    3    3  502    0 -0.41915845244E+03  0.35189147937E+03 -0.78170808927E+03  0.95425942402E+03  0.46999998093E+01 0.  1.
       -5    1    3    3    0  502  0.41915845244E+03 -0.35189147937E+03  0.17275316908E+04  0.18121559686E+04  0.46999998093E+01 0. -1.
</event>
<event>
 5   0  0.1451052E-05  0.2468038E+04  0.7818609E-02  0.8414461E-01
       -1   -1    0    0    0  501  0.00000000000E+00  0.00000000000E+00  0.81557277553E+03  0.81557277555E+03  0.50400001928E-02 0. -1.
        1   -1    0    0  501    0  0.00000000000E+00  0.00000000000E+00 -0.18671581923E+04  0.18671581923E+04  0.50400001928E-02 0.  1.
    10030    2    1    2    0    0  0.00000000000E+00  0.00000000000E+00 -0.10515854167E+04  0.26827309678E+04  0.24680384027E+04 0.  0.
        1    1    3    3  502    0  0.12036186829E+04  0.23216254104E+03 -0.37127954298E+03  0.12807989219E+04  0.50400001928E-02 0. -1.
       -1    1    3    3    0  502 -0.12036186829E+04 -0.23216254104E+03 -0.68030587376E+03  0.14019320459E+04  0.50400001928E-02 0.  1.
</event>
<event>
 5   0  0.1533248E-05  0.2371356E+04  0.7818609E-02  0.8450306E-01
       -1   -1    0    0    0  501  0.00000000000E+00  0.00000000000E+00  0.70448591376E+03  0.70448591378E+03  0.50400001928E-02 0.  1.
        1   -1    0    0  501    0  0.00000000000E+00  0.00000000000E+00 -0.19955436533E+04  0.19955436534E+04  0.50400001928E-02 0. -1.
    10030    2    1    2    0    0  0.00000000000E+00  0.00000000000E+00 -0.12910577396E+04  0.27000295671E+04  0.23713560628E+04 0.  0.
        4    1    3    3  502    0  0.92302322646E+03  0.53706449549E+03 -0.58932878353E+02  0.10695255238E+04  0.12699999809E+01 0.  1.
       -4    1    3    3    0  502 -0.92302322646E+03 -0.53706449549E+03 -0.12321248612E+04  0.16305040434E+04  0.12699999809E+01 0. -1.
</event>
<event>
 5   0  0.1217200E-05  0.2332047E+04  0.7818609E-02  0.8465392E-01
        3   -1    0    0  501    0  0.00000000000E+00  0.00000000000E+00  0.80195512845E+03  0.80195513481E+03  0.10100000352E+00 0. -1.
       -3   -1    0    0    0  501  0.00000000000E+00  0.00000000000E+00 -0.16953695454E+04  0.16953695484E+04  0.10100000352E+00 0.  1.
    10030    2    1    2    0    0  0.00000000000E+00  0.00000000000E+00 -0.89341441696E+03  0.24973246832E+04  0.23320465804E+04 0.  0.
        4    1    3    3  502    0 -0.52857107524E+03 -0.69528356050E+03 -0.12739880299E+04  0.15446208999E+04  0.12699999809E+01 0.  1.
       -4    1    3    3    0  502  0.52857107524E+03  0.69528356050E+03  0.38057361293E+03  0.95270378337E+03  0.12699999809E+01 0. -1.
</event>
<event>
 5   0  0.1474554E-05  0.2362600E+04  0.7818609E-02  0.8453640E-01
       -1   -1    0    0    0  501  0.00000000000E+00  0.00000000000E+00  0.82983404106E+03  0.82983404107E+03  0.50400001928E-02 0.  1.
        1   -1    0    0  501    0  0.00000000000E+00  0.00000000000E+00 -0.16816255012E+04  0.16816255012E+04  0.50400001928E-02 0. -1.
    10030    2    1    2    0    0  0.00000000000E+00  0.00000000000E+00 -0.85179146011E+03  0.25114595422E+04  0.23626003346E+04 0.  0.
        5    1    3    3  502    0  0.12104229460E+03 -0.65795321354E+03 -0.14608374333E+04  0.16067425944E+04  0.46999998093E+01 0. -1.
       -5    1    3    3    0  502 -0.12104229460E+03  0.65795321354E+03  0.60904597315E+03  0.90471694783E+03  0.46999998093E+01 0.  1.
</event>
<event>
 5   0  0.3508470E-05  0.2599185E+04  0.7818609E-02  0.8368478E-01
        2   -1    0    0  501    0  0.00000000000E+00  0.00000000000E+00  0.23789319305E+04  0.23789319305E+04  0.25500000920E-02 0.  1.
       -2   -1    0    0    0  501  0.00000000000E+00  0.00000000000E+00 -0.70995732000E+03  0.70995732000E+03  0.25500000920E-02 0. -1.
    10030    2    1    2    0    0  0.00000000000E+00  0.00000000000E+00  0.16689746105E+04  0.30888892505E+04  0.25991845935E+04 0.  0.
        5    1    3    3  502    0  0.94616748377E+03  0.23212168546E+03  0.18566587528E+04  0.20967396592E+04  0.46999998093E+01 0.  1.
       -5    1    3    3    0  502 -0.94616748377E+03 -0.23212168546E+03 -0.18768414231E+03  0.99214959128E+03  0.46999998093E+01 0. -1.
</event>
<event>
 5   0  0.3508470E-05  0.2611693E+04  0.7818609E-02  0.8364240E-01
        2   -1    0    0  501    0  0.00000000000E+00  0.00000000000E+00  0.14508193561E+04  0.14508193561E+04  0.25500000920E-02 0. -1.
       -2   -1    0    0    0  501  0.00000000000E+00  0.00000000000E+00 -0.11753596931E+04  0.11753596931E+04  0.25500000920E-02 0.  1.
    10030    2    1    2    0    0  0.00000000000E+00  0.00000000000E+00  0.27545966302E+03  0.26261790492E+04  0.26116926260E+04 0.  0.
        5    1    3    3  502    0  0.37387991553E+03  0.25146024036E+02  0.13955856243E+04  0.14450258954E+04  0.46999998093E+01 0. -1.
       -5    1    3    3    0  502 -0.37387991553E+03 -0.25146024036E+02 -0.11201259612E+04  0.11811531538E+04  0.46999998093E+01 0.  1.
</event>
<event>
 5   0  0.3647623E-05  0.2421793E+04  0.7818609E-02  0.8431390E-01
       -2   -1    0    0    0  501  0.00000000000E+00  0.00000000000E+00  0.90586091672E+03  0.90586091673E+03  0.25500000920E-02 0.  1.
        2   -1    0    0  501    0  0.00000000000E+00  0.00000000000E+00 -0.16186479050E+04  0.16186479050E+04  0.25500000920E-02 0. -1.
    10030    2    1    2    0    0  0.00000000000E+00  0.00000000000E+00 -0.71278698829E+03  0.25245088217E+04  0.24217926213E+04 0.  0.
        3    1    3    3  502    0 -0.55822619045E+03  0.31602292643E+02 -0.14760320803E+04  0.15783807832E+04  0.10100000352E+00 0. -1.
       -3    1    3    3    0  502  0.55822619045E+03 -0.31602292643E+02  0.76324509200E+03  0.94612803852E+03  0.10100000352E+00 0.  1.
</event>
<event>
 5   0  0.3508470E-05  0.2568029E+04  0.7818609E-02  0.8379143E-01
        2   -1    0    0  501    0  0.00000000000E+00  0.00000000000E+00  0.24919247125E+04  0.24919247125E+04  0.25500000920E-02 0. -1.
       -2   -1    0    0    0  501  0.00000000000E+00  0.00000000000E+00 -0.66161444462E+03  0.66161444462E+03  0.25500000920E-02 0.  1.
    10030    2    1    2    0    0  0.00000000000E+00  0.00000000000E+00  0.18303102679E+04  0.31535391571E+04  0.25680291156E+04 0.  0.
        5    1    3    3  502    0 -0.64805040581E+02  0.15674802207E+03  0.24780962264E+04  0.24838986761E+04  0.46999998093E+01 0. -1.
       -5    1    3    3    0  502  0.64805040581E+02 -0.15674802207E+03 -0.64778595855E+03  0.66964048101E+03  0.46999998093E+01 0.  1.
</event>
<event>
 5   0  0.1435062E-05  0.2506299E+04  0.7818609E-02  0.8400745E-01
       -1   -1    0    0    0  501  0.00000000000E+00  0.00000000000E+00  0.11331429865E+04  0.11331429865E+04  0.50400001928E-02 0. -1.
        1   -1    0    0  501    0  0.00000000000E+00  0.00000000000E+00 -0.13858655894E+04  0.13858655894E+04  0.50400001928E-02 0.  1.
    10030    2    1    2    0    0  0.00000000000E+00  0.00000000000E+00 -0.25272260283E+03  0.25190085759E+04  0.25062991624E+04 0.  0.
        2    1    3    3  502    0 -0.26374436579E+03  0.55956349234E+02  0.11036467213E+04  0.11361022353E+04  0.25500000920E-02 0. -1.
       -2    1    3    3    0  502  0.26374436579E+03 -0.55956349234E+02 -0.13563693242E+04  0.13829063407E+04  0.25500000920E-02 0.  1.
</event>
<event>
 5   0  0.3647623E-05  0.2594038E+04  0.7818609E-02  0.8370229E-01
       -2   -1    0    0    0  501  0.00000000000E+00  0.00000000000E+00  0.66742447919E+03  0.66742447919E+03  0.25500000920E-02 0.  1.
        2   -1    0    0  501    0  0.00000000000E+00  0.00000000000E+00 -0.25205217409E+04  0.25205217409E+04  0.25500000920E-02 0. -1.
    10030    2    1    2    0    0  0.00000000000E+00  0.00000000000E+00 -0.18530972617E+04  0.31879462201E+04  0.25940377100E+04 0.  0.
        3    1    3    3  502    0 -0.45465144138E+03  0.12132528404E+04 -0.85314501918E+03  0.15513048771E+04  0.10100000352E+00 0.  1.
       -3    1    3    3    0  502  0.45465144138E+03 -0.12132528404E+04 -0.99995224254E+03  0.16366413430E+04  0.10100000352E+00 0. -1.
</event>
<event>
 5   0  0.3499642E-05  0.2598415E+04  0.7818609E-02  0.8368740E-01
       -2   -1    0    0    0  501  0.00000000000E+00  0.00000000000E+00  0.11862915903E+04  0.11862915903E+04  0.25500000920E-02 0. -1.
        2   -1    0    0  501    0  0.00000000000E+00  0.00000000000E+00 -0.14228715972E+04  0.14228715972E+04  0.25500000920E-02 0.  1.
    10030    2    1    2    0    0  0.00000000000E+00  0.00000000000E+00 -0.23658000692E+03  0.26091631874E+04  0.25984153708E+04 0.  0.
        2    1    3    3  502    0 -0.30304732983E+03 -0.82960735648E+03 -0.10750451464E+04  0.13913332156E+04  0.25500000920E-02 0.  1.
       -2    1    3    3    0  502  0.30304732983E+03  0.82960735648E+03  0.83846513951E+03  0.12178299718E+04  0.25500000920E-02 0. -1.
</event>
<event>
 5   0  0.3647623E-05  0.2389627E+04  0.7818609E-02  0.8443397E-01
        2   -1    0    0  501    0  0.00000000000E+00  0.00000000000E+00  0.95308489221E+03  0.95308489222E+03  0.25500000920E-02 0.  1.
       -2   -1    0    0    0  501  0.00000000000E+00  0.00000000000E+00 -0.14978508260E+04  0.14978508260E+04  0.25500000920E-02 0. -1.
    10030    2    1    2    0    0  0.00000000000E+00  0.00000000000E+00 -0.54476593382E+03  0.24509357183E+04  0.23896267433E+04 0.  0.
        3    1    3    3  502    0 -0.41053350467E+03 -0.35183952281E+03  0.82043452965E+03  0.98256889626E+03  0.10100000352E+00 0.  1.
       -3    1    3    3    0  502  0.41053350467E+03  0.35183952281E+03 -0.13652004635E+04  0.14683668220E+04  0.10100000352E+00 0. -1.
</event>
<event>
 5   0  0.1435062E-05  0.2287506E+04  0.7818609E-02  0.8482864E-01
       -1   -1    0    0    0  501  0.00000000000E+00  0.00000000000E+00  0.17376734218E+04  0.17376734218E+04  0.50400001928E-02 0.  1.
        1   -1    0    0  501    0  0.00000000000E+00  0.00000000000E+00 -0.75282907024E+03  0.75282907025E+03  0.50400001928E-02 0. -1.
    10030    2    1    2    0    0  0.00000000000E+00  0.00000000000E+00  0.98484435153E+03  0.24905024920E+04  0.22875061237E+04 0.  0.
        2    1    3    3  502    0  0.56859358252E+03  0.63921776850E+03 -0.33407023447E+03  0.91842307202E+03  0.25500000920E-02 0. -1.
       -2    1    3    3    0  502 -0.56859358252E+03 -0.63921776850E+03  0.13189145860E+04  0.15720794200E+04  0.25500000920E-02 0.  1.
</event>
<event>
 5   0  0.3499642E-05  0.2575835E+04  0.7818609E-02  0.8376456E-01
       -2   -1    0    0    0  501  0.00000000000E+00  0.00000000000E+00  0.23269557590E+04  0.23269557590E+04  0.25500000920E-02 0. -1.
        2   -1    0    0  501    0  0.00000000000E+00  0.00000000000E+00 -0.71283333255E+03  0.71283333255E+03  0.25500000920E-02 0.  1.
    10030    2    1    2    0    0  0.00000000000E+00  0.00000000000E+00  0.16141224265E+04  0.30397890916E+04  0.25758351100E+04 0.  0.
        2    1    3    3  502    0 -0.59706498153E+03  0.11317970013E+04  0.63490719449E+03  0.14284810779E+04  0.25500000920E-02 0. -1.
       -2    1    3    3    0  502  0.59706498153E+03 -0.11317970013E+04  0.97921523200E+03  0.16113080137E+04  0.25500000920E-02 0.  1.
</event>
<event>
 5   0  0.1533248E-05  0.2565041E+04  0.7818609E-02  0.8380174E-01
        1   -1    0    0  501    0  0.00000000000E+00  0.00000000000E+00  0.12374289298E+04  0.12374289298E+04  0.50400001928E-02 0. -1.
       -1   -1    0    0    0  501  0.00000000000E+00  0.00000000000E+00 -0.13292555535E+04  0.13292555535E+04  0.50400001928E-02 0.  1.
    10030    2    1    2    0    0  0.00000000000E+00  0.00000000000E+00 -0.91826623656E+02  0.25666844833E+04  0.25650413462E+04 0.  0.
        4    1    3    3  502    0 -0.42198728068E+03 -0.49420815688E+03  0.10604815060E+04  0.12437594642E+04  0.12699999809E+01 0. -1.
       -4    1    3    3    0  502  0.42198728068E+03  0.49420815688E+03 -0.11523081297E+04  0.13229250190E+04  0.12699999809E+01 0.  1.
</event>
<event>
 5   0  0.1533248E-05  0.2597455E+04  0.7818609E-02  0.8369066E-01
       -1   -1    0    0    0  501  0.00000000000E+00  0.00000000000E+00  0.10680242171E+04  0.10680242171E+04  0.50400001928E-02 0.  1.
        1   -1    0    0  501    0  0.00000000000E+00  0.00000000000E+00 -0.15792654095E+04  0.15792654095E+04  0.50400001928E-02 0. -1.
    10030    2    1    2    0    0  0.00000000000E+00  0.00000000000E+00 -0.51124119236E+03  0.26472896266E+04  0.25974554492E+04 0.  0.
        4    1    3    3  502    0 -0.34215620089E+03 -0.73714867126E+03  0.77684681200E+03  0.11242560258E+04  0.12699999809E+01 0.  1.
       -4    1    3    3    0  502  0.34215620089E+03  0.73714867126E+03 -0.12880880044E+04  0.15230336008E+04  0.12699999809E+01 0. -1.
</event>
<event>
 5   0  0.3441646E-05  0.2501612E+04  0.7818609E-02  0.8402411E-01
        2   -1    0    0  501    0  0.00000000000E+00  0.00000000000E+00  0.13517694379E+04  0.13517694379E+04  0.25500000920E-02 0.  1.
       -2   -1    0    0    0  501  0.00000000000E+00  0.00000000000E+00 -0.11573839198E+04  0.11573839198E+04  0.25500000920E-02 0. -1.
    10030    2    1    2    0    0  0.00000000000E+00  0.00000000000E+00  0.19438551805E+03  0.25091533577E+04  0.25016124486E+04 0.  0.
        4    1    3    3  502    0  0.18485515553E+03  0.29690849505E+03 -0.11073388270E+04  0.11612609412E+04  0.12699999809E+01 0. -1.
       -4    1    3    3    0  502 -0.18485515553E+03 -0.29690849505E+03  0.13017243451E+04  0.13478924165E+04  0.12699999809E+01 0.  1.
</event>
<event>
 5   0  0.1497497E-05  0.2139551E+04  0.7818609E-02  0.8544018E-01
       -1   -1    0    0    0  501  0.00000000000E+00  0.00000000000E+00  0.64913825655E+03  0.64913825657E+03  0.50400001928E-02 0.  1.
        1   -1    0    0  501    0  0.00000000000E+00  0.00000000000E+00 -0.17629821731E+04  0.17629821731E+04  0.50400001928E-02 0. -1.
    10030    2    1    2    0    0  0.00000000000E+00  0.00000000000E+00 -0.11138439165E+04  0.24121204296E+04  0.21395505829E+04 0.  0.
        3    1    3    3  502    0 -0.79874998134E+03 -0.61427085203E+03 -0.15186045940E+03  0.10190151234E+04  0.10100000352E+00 0.  1.
       -3    1    3    3    0  502  0.79874998134E+03  0.61427085203E+03 -0.96198345710E+03  0.13931053062E+04  0.10100000352E+00 0. -1.
</event>
<event>
 5   0  0.1435062E-05  0.2656398E+04  0.7818609E-02  0.8349293E-01
        1   -1    0    0  501    0  0.00000000000E+00  0.00000000000E+00  0.24852217492E+04  0.24852217492E+04  0.50400001928E-02 0. -1.
       -1   -1    0    0    0  501  0.00000000000E+00  0.00000000000E+00 -0.70984096569E+03  0.70984096571E+03  0.50400001928E-02 0.  1.
    10030    2    1    2    0    0  0.00000000000E+00  0.00000000000E+00  0.17753807835E+04  0.31950627149E+04  0.26563977161E+04 0.  0.
        2    1    3    3  502    0  0.14629498020E+03  0.71668184195E+03  0.22211376925E+04  0.23384797910E+04  0.25500000920E-02 0. -1.
       -2    1    3    3    0  502 -0.14629498020E+03 -0.71668184195E+03 -0.44575690893E+03  0.85658292399E+03  0.25500000920E-02 0.  1.
</event>
<event>
 5   0  0.3647623E-05  0.2618036E+04  0.7818609E-02  0.8362101E-01
       -2   -1    0    0    0  501  0.00000000000E+00  0.00000000000E+00  0.12689835539E+04  0.12689835539E+04  0.25500000920E-02 0. -1.
        2   -1    0    0  501    0  0.00000000000E+00  0.00000000000E+00 -0.13503150362E+04  0.13503150362E+04  0.25500000920E-02 0.  1.
    10030    2    1    2    0    0  0.00000000000E+00  0.00000000000E+00 -0.81331482293E+02  0.26192985902E+04  0.26180355793E+04 0.  0.
        3    1    3    3  502    0  0.30261948137E+03 -0.33675218877E+03  0.11881559932E+04  0.12714933195E+04  0.10100000352E+00 0. -1.
       -3    1    3    3    0  502 -0.30261948137E+03  0.33675218877E+03 -0.12694874755E+04  0.13478052707E+04  0.10100000352E+00 0.  1.
</event>
<event>
 5   0  0.3647623E-05  0.2557207E+04  0.7818609E-02  0.8382884E-01
       -2   -1    0    0    0  501  0.00000000000E+00  0.00000000000E+00  0.96834438624E+03  0.96834438624E+03  0.25500000920E-02 0. -1.
        2   -1    0    0  501    0  0.00000000000E+00  0.00000000000E+00 -0.16882704263E+04  0.16882704263E+04  0.25500000920E-02 0.  1.
    10030    2    1    2    0    0  0.00000000000E+00  0.00000000000E+00 -0.71992604010E+03  0.26566148126E+04  0.25572072187E+04 0.  0.
        3    1    3    3  502    0  0.66999090097E+03 -0.20318220914E+03 -0.14714393832E+04  0.16295105664E+04  0.10100000352E+00 0.  1.
       -3    1    3    3    0  502 -0.66999090097E+03  0.20318220914E+03  0.75151334307E+03  0.10271042462E+04  0.10100000352E+00 0. -1.
</event>
<event>
 5   0  0.3499642E-05  0.2574266E+04  0.7818609E-02  0.8376995E-01
        2   -1    0    0  501    0  0.00000000000E+00  0.00000000000E+00  0.12677758048E+04  0.12677758048E+04  0.25500000920E-02 0.  1.
       -2   -1    0    0    0  501  0.00000000000E+00  0.00000000000E+00 -0.13067860222E+04  0.13067860222E+04  0.25500000920E-02 0. -1.
    10030    2    1    2    0    0  0.00000000000E+00  0.00000000000E+00 -0.39010217462E+02  0.25745618270E+04  0.25742662652E+04 0.  0.
        2    1    3    3  502    0 -0.69530201981E+03  0.31164714484E+03 -0.10569972707E+04  0.13030011788E+04  0.25500000920E-02 0. -1.
       -2    1    3    3    0  502  0.69530201981E+03 -0.31164714484E+03  0.10179870532E+04  0.12715606482E+04  0.25500000920E-02 0.  1.
</event>
<event>
 5   0  0.1451052E-05  0.2592271E+04  0.7818609E-02  0.8370831E-01
       -1   -1    0    0    0  501  0.00000000000E+00  0.00000000000E+00  0.14476470028E+04  0.14476470029E+04  0.50400001928E-02 0.  1.
        1   -1    0    0  501    0  0.00000000000E+00  0.00000000000E+00 -0.11604808600E+04  0.11604808600E+04  0.50400001928E-02 0. -1.
    10030    2    1    2    0    0  0.00000000000E+00  0.00000000000E+00  0.28716614286E+03  0.26081278629E+04  0.25922705405E+04 0.  0.
        1    1    3    3  502    0 -0.12154601450E+02  0.11390234355E+04  0.76578703638E+03  0.13725712754E+04  0.50400001928E-02 0.  1.
       -1    1    3    3    0  502  0.12154601450E+02 -0.11390234355E+04 -0.47862089352E+03  0.12355565874E+04  0.50400001928E-02 0. -1.
</event>
<event>
 5   0  0.3441646E-05  0.2599432E+04  0.7818609E-02  0.8368394E-01
       -2   -1    0    0    0  501  0.00000000000E+00  0.00000000000E+00  0.97877858660E+03  0.97877858661E+03  0.25500000920E-02 0.  1.
        2   -1    0    0  501    0  0.00000000000E+00  0.00000000000E+00 -0.17258873771E+04  0.17258873771E+04  0.25500000920E-02 0. -1.
    10030    2    1    2    0    0  0.00000000000E+00  0.00000000000E+00 -0.74710879047E+03  0.27046659637E+04  0.25994319438E+04 0.  0.
        4    1    3    3  502    0 -0.95460302170E+03  0.48406408323E+03  0.39363903887E+03  0.11404114483E+04  0.12699999809E+01 0.  1.
       -4    1    3    3    0  502  0.95460302170E+03 -0.48406408323E+03 -0.11407478293E+04  0.15642545153E+04  0.12699999809E+01 0. -1.
</event>
<event>
 5   0  0.1497497E-05  0.2590707E+04  0.7818609E-02  0.8371365E-01
        1   -1    0    0  501    0  0.00000000000E+00  0.00000000000E+00  0.23835455385E+04  0.23835455385E+04  0.50400001928E-02 0. -1.
       -1   -1    0    0    0  501  0.00000000000E+00  0.00000000000E+00 -0.70396829566E+03  0.70396829568E+03  0.50400001928E-02 0.  1.
    10030    2    1    2    0    0  0.00000000000E+00  0.00000000000E+00  0.16795772428E+04  0.30875138342E+04  0.25907068459E+04 0.  0.
        3    1    3    3  502    0  0.30974991398E+03  0.10727392994E+04  0.57182859110E+02  0.11180270583E+04  0.10100000352E+00 0.  1.
       -3    1    3    3    0  502 -0.30974991398E+03 -0.10727392994E+04  0.16223943837E+04  0.19694867758E+04  0.10100000352E+00 0. -1.
</event>
<event>
 5   0  0.3647623E-05  0.2483940E+04  0.7818609E-02  0.8408729E-01
       -2   -1    0    0    0  501  0.00000000000E+00  0.00000000000E+00  0.10632659060E+04  0.10632659061E+04  0.25500000920E-02 0. -1.
        2   -1    0    0  501    0  0.00000000000E+00  0.00000000000E+00 -0.14507089427E+04  0.14507089427E+04  0.25500000920E-02 0.  1.
    10030    2    1    2    0    0  0.00000000000E+00  0.00000000000E+00 -0.38744303662E+03  0.25139748487E+04  0.24839399013E+04 0.  0.
        3    1    3    3  502    0 -0.39013636795E+03 -0.59960925260E+03  0.83381407798E+03  0.10986280391E+04  0.10100000352E+00 0. -1.
       -3    1    3    3    0  502  0.39013636795E+03  0.59960925260E+03 -0.12212571146E+04  0.14153468096E+04  0.10100000352E+00 0.  1.
</event>
<event>
 5   0  0.3647623E-05  0.2547660E+04  0.7818609E-02  0.8386200E-01
       -2   -1    0    0    0  501  0.00000000000E+00  0.00000000000E+00  0.62732193923E+03  0.62732193924E+03  0.25500000920E-02 0. -1.
        2   -1    0    0  501    0  0.00000000000E+00  0.00000000000E+00 -0.25866191025E+04  0.25866191025E+04  0.25500000920E-02 0.  1.
    10030    2    1    2    0    0  0.00000000000E+00  0.00000000000E+00 -0.19592971633E+04  0.32139410417E+04  0.25476600334E+04 0.  0.
        3    1    3    3  502    0  0.97085103427E+03  0.38259370960E+03 -0.58031717168E+02  0.10451303114E+04  0.10100000352E+00 0.  1.
       -3    1    3    3    0  502 -0.97085103427E+03 -0.38259370960E+03 -0.19012654461E+04  0.21688107304E+04  0.10100000352E+00 0. -1.
</event>
<event>
 5   0  0.1451052E-05  0.2571928E+04  0.7818609E-02  0.8377800E-01
       -1   -1    0    0    0  501  0.00000000000E+00  0.00000000000E+00  0.13809771235E+04  0.13809771235E+04  0.50400001928E-02 0. -1.
        1   -1    0    0  501    0  0.00000000000E+00  0.00000000000E+00 -0.11974876914E+04  0.11974876914E+04  0.50400001928E-02 0.  1.
    10030    2    1    2    0    0  0.00000000000E+00  0.00000000000E+00  0.18348943217E+03  0.25784648149E+04  0.25719277653E+04 0.  0.
        1    1    3    3  502    0 -0.70739507846E+02 -0.74707668547E+03  0.11387052291E+04  0.13637365034E+04  0.50400001928E-02 0. -1.
       -1    1    3    3    0  502  0.70739507846E+02  0.74707668547E+03 -0.95521579695E+03  0.12147283115E+04  0.50400001928E-02 0.  1.
</event>
<event>
 5   0  0.1451052E-05  0.2392698E+04  0.7818609E-02  0.8442242E-01
        1   -1    0    0  501    0  0.00000000000E+00  0.00000000000E+00  0.13375296264E+04  0.13375296264E+04  0.50400001928E-02 0. -1.
       -1   -1    0    0    0  501  0.00000000000E+00  0.00000000000E+00 -0.10700701512E+04  0.10700701512E+04  0.50400001928E-02 0.  1.
    10030    2    1    2    0    0  0.00000000000E+00  0.00000000000E+00  0.26745947518E+03  0.24075997776E+04  0.23926976654E+04 0.  0.
        1    1    3    3  502    0  0.10300628327E+04  0.21735902247E+03 -0.43811969206E+03  0.11402733219E+04  0.50400001928E-02 0.  1.
       -1    1    3    3    0  502 -0.10300628327E+04 -0.21735902247E+03  0.70557916723E+03  0.12673264557E+04  0.50400001928E-02 0. -1.
</event>
<event>
 5   0  0.3849687E-05  0.2573742E+04  0.7818609E-02  0.8377175E-01
       -2   -1    0    0    0  501  0.00000000000E+00  0.00000000000E+00  0.10886435231E+04  0.10886435231E+04  0.25500000920E-02 0. -1.
        2   -1    0    0  501    0  0.00000000000E+00  0.00000000000E+00 -0.15211935503E+04  0.15211935503E+04  0.25500000920E-02 0.  1.
    10030    2    1    2    0    0  0.00000000000E+00  0.00000000000E+00 -0.43255002720E+03  0.26098370734E+04  0.25737424159E+04 0.  0.
        1    1    3    3  502    0  0.12319755381E+04 -0.27327610267E+03  0.39439996267E+02  0.12625367591E+04  0.50400001928E-02 0.  1.
       -1    1    3    3    0  502 -0.12319755381E+04  0.27327610267E+03 -0.47199002347E+03  0.13473003143E+04  0.50400001928E-02 0. -1.
</event>
<event>
 5   0  0.1533248E-05  0.2538459E+04  0.7818609E-02  0.8389411E-01
       -1   -1    0    0    0  501  0.00000000000E+00  0.00000000000E+00  0.74969964144E+03  0.74969964145E+03  0.50400001928E-02 0. -1.
        1   -1    0    0  501    0  0.00000000000E+00  0.00000000000E+00 -0.21487858598E+04  0.21487858598E+04  0.50400001928E-02 0.  1.
    10030    2    1    2    0    0  0.00000000000E+00  0.00000000000E+00 -0.13990862184E+04  0.28984855012E+04  0.25384593663E+04 0.  0.
        4    1    3    3  502    0  0.31781872369E+03 -0.54982640791E+02 -0.21012094749E+04  0.21258209478E+04  0.12699999809E+01 0.  1.
       -4    1    3    3    0  502 -0.31781872369E+03  0.54982640791E+02  0.70212325652E+03  0.77266455345E+03  0.12699999809E+01 0. -1.
</event>
<event>
 5   0  0.3508470E-05  0.2661555E+04  0.7818609E-02  0.8347588E-01
        2   -1    0    0  501    0  0.00000000000E+00  0.00000000000E+00  0.20077515012E+04  0.20077515012E+04  0.25500000920E-02 0.  1.
       -2   -1    0    0    0  501  0.00000000000E+00  0.00000000000E+00 -0.88206559117E+03  0.88206559118E+03  0.25500000920E-02 0. -1.
    10030    2    1    2    0    0  0.00000000000E+00  0.00000000000E+00  0.11256859100E+04  0.28898170924E+04  0.26615548199E+04 0.  0.
        5    1    3    3  502    0  0.51235826793E+03 -0.31113603657E+03 -0.72717379150E+03  0.94240142244E+03  0.46999998093E+01 0. -1.
       -5    1    3    3    0  502 -0.51235826793E+03  0.31113603657E+03  0.18528597015E+04  0.19474156699E+04  0.46999998093E+01 0.  1.
</event>
<event>
 5   0  0.1435062E-05  0.2634516E+04  0.7818609E-02  0.8356571E-01
       -1   -1    0    0    0  501  0.00000000000E+00  0.00000000000E+00  0.12325880888E+04  0.12325880888E+04  0.50400001928E-02 0. -1.
        1   -1    0    0  501    0  0.00000000000E+00  0.00000000000E+00 -0.14077439815E+04  0.14077439815E+04  0.50400001928E-02 0.  1.
    10030    2    1    2    0    0  0.00000000000E+00  0.00000000000E+00 -0.17515589266E+03  0.26403320703E+04  0.26345158672E+04 0.  0.
        2    1    3    3  502    0 -0.50977029064E+03  0.13524995319E+03  0.11221536475E+04  0.12399141533E+04  0.25500000920E-02 0. -1.
       -2    1    3    3    0  502  0.50977029064E+03 -0.13524995319E+03 -0.12973095402E+04  0.14004179169E+04  0.25500000920E-02 0.  1.
</event>
<event>
 5   0  0.1474554E-05  0.2271305E+04  0.7818609E-02  0.8489322E-01
       -1   -1    0    0    0  501  0.00000000000E+00  0.00000000000E+00  0.14553244628E+04  0.14553244628E+04  0.50400001928E-02 0.  1.
        1   -1    0    0  501    0  0.00000000000E+00  0.00000000000E+00 -0.88619880931E+03  0.88619880933E+03  0.50400001928E-02 0. -1.
    10030    2    1    2    0    0  0.00000000000E+00  0.00000000000E+00  0.56912565351E+03  0.23415232722E+04  0.22713051809E+04 0.  0.
        5    1    3    3  502    0 -0.86845202458E+02  0.70381912368E+03 -0.62986617762E+03  0.94850247219E+03  0.46999998093E+01 0. -1.
       -5    1    3    3    0  502  0.86845202458E+02 -0.70381912368E+03  0.11989918311E+04  0.13930208000E+04  0.46999998093E+01 0.  1.
</event>
<event>
 5   0  0.1451052E-05  0.2655473E+04  0.7818609E-02  0.8349599E-01
       -1   -1    0    0    0  501  0.00000000000E+00  0.00000000000E+00  0.90997222947E+03  0.90997222949E+03  0.50400001928E-02 0.  1.
        1   -1    0    0  501    0  0.00000000000E+00  0.00000000000E+00 -0.19372951401E+04  0.19372951401E+04  0.50400001928E-02 0. -1.
    10030    2    1    2    0    0  0.00000000000E+00  0.00000000000E+00 -0.10273229106E+04  0.28472673696E+04  0.26554734251E+04 0.  0.
        1    1    3    3  502    0 -0.10048463485E+03  0.95581532379E+03  0.46858448104E+03  0.10692294005E+04  0.50400001928E-02 0.  1.
       -1    1    3    3    0  502  0.10048463485E+03 -0.95581532379E+03 -0.14959073917E+04  0.17780379691E+04  0.50400001928E-02 0. -1.
</event>
<event>
 5   0  0.3508470E-05  0.2580480E+04  0.7818609E-02  0.8374862E-01
       -2   -1    0    0    0  501  0.00000000000E+00  0.00000000000E+00  0.94963799609E+03  0.94963799610E+03  0.25500000920E-02 0. -1.
        2   -1    0    0  501    0  0.00000000000E+00  0.00000000000E+00 -0.17530038020E+04  0.17530038021E+04  0.25500000920E-02 0.  1.
    10030    2    1    2    0    0  0.00000000000E+00  0.00000000000E+00 -0.80336580596E+03  0.27026417981E+04  0.25804798141E+04 0.  0.
        5    1    3    3  502    0  0.72066444573E+03 -0.38616363675E+03  0.64367514998E+03  0.10405860783E+04  0.46999998093E+01 0. -1.
       -5    1    3    3    0  502 -0.72066444573E+03  0.38616363675E+03 -0.14470409559E+04  0.16620557198E+04  0.46999998093E+01 0.  1.
</event>
<event>
 5   0  0.1435062E-05  0.2824483E+04  0.7818609E-02  0.8295707E-01
       -1   -1    0    0    0  501  0.00000000000E+00  0.00000000000E+00  0.10740471901E+04  0.10740471901E+04  0.50400001928E-02 0.  1.
        1   -1    0    0  501    0  0.00000000000E+00  0.00000000000E+00 -0.18569259815E+04  0.18569259815E+04  0.50400001928E-02 0. -1.
    10030    2    1    2    0    0  0.00000000000E+00  0.00000000000E+00 -0.78287879139E+03  0.29309731717E+04  0.28244830555E+04 0.  0.
        2    1    3    3  502    0  0.60391022275E+03 -0.12627855888E+04 -0.19705045189E+03  0.14135642473E+04  0.25500000920E-02 0. -1.
       -2    1    3    3    0  502 -0.60391022275E+03  0.12627855888E+04 -0.58582833950E+03  0.15174089244E+04  0.25500000920E-02 0.  1.
</event>
<event>
 5   0  0.1497497E-05  0.2636283E+04  0.7818609E-02  0.8355980E-01
       -1   -1    0    0    0  501  0.00000000000E+00  0.00000000000E+00  0.19307638312E+04  0.19307638312E+04  0.50400001928E-02 0.  1.
        1   -1    0    0  501    0  0.00000000000E+00  0.00000000000E+00 -0.89990166436E+03  0.89990166437E+03  0.50400001928E-02 0. -1.
    10030    2    1    2    0    0  0.00000000000E+00  0.00000000000E+00  0.10308621669E+04  0.28306654956E+04  0.26362834333E+04 0.  0.
        3    1    3    3  502    0  0.11479214222E+04 -0.36483430449E+03  0.10903247292E+04  0.16246955674E+04  0.10100000352E+00 0. -1.
       -3    1    3    3    0  502 -0.11479214222E+04  0.36483430449E+03 -0.59462562350E+02  0.12059699282E+04  0.10100000352E+00 0.  1.
</event>
<event>
 5   0  0.3647623E-05  0.2577047E+04  0.7818609E-02  0.8376040E-01
       -2   -1    0    0    0  501  0.00000000000E+00  0.00000000000E+00  0.10565054333E+04  0.10565054333E+04  0.25500000920E-02 0.  1.
        2   -1    0    0  501    0  0.00000000000E+00  0.00000000000E+00 -0.15714942890E+04  0.15714942890E+04  0.25500000920E-02 0. -1.
    10030    2    1    2    0    0  0.00000000000E+00  0.00000000000E+00 -0.51498885569E+03  0.26279997223E+04  0.25770465690E+04 0.  0.
        3    1    3    3  502    0  0.23417926585E+03  0.68154231043E+03 -0.13467676077E+04  0.15274563329E+04  0.10100000352E+00 0. -1.
       -3    1    3    3    0  502 -0.23417926585E+03 -0.68154231043E+03  0.83177875201E+03  0.11005433894E+04  0.10100000352E+00 0.  1.
</event>
<event>
 5   0  0.3508470E-05  0.2624718E+04  0.7818609E-02  0.8359853E-01
       -2   -1    0    0    0  501  0.00000000000E+00  0.00000000000E+00  0.11216957983E+04  0.11216957983E+04  0.25500000920E-02 0. -1.
        2   -1    0    0  501    0  0.00000000000E+00  0.00000000000E+00 -0.15354309469E+04  0.15354309469E+04  0.25500000920E-02 0.  1.
    10030    2    1    2    0    0  0.00000000000E+00  0.00000000000E+00 -0.41373514853E+03  0.26571267452E+04  0.26247182262E+04 0.  0.
        5    1    3    3  502    0 -0.80118665162E+03 -0.37744475731E+03 -0.11872777163E+04  0.14812208010E+04  0.46999998093E+01 0.  1.
       -5    1    3    3    0  502  0.80118665162E+03  0.37744475731E+03  0.77354256778E+03  0.11759059442E+04  0.46999998093E+01 0. -1.
</event>
<event>
 5   0  0.3849687E-05  0.2588706E+04  0.7818609E-02  0.8372048E-01
       -2   -1    0    0    0  501  0.00000000000E+00  0.00000000000E+00  0.11418596576E+04  0.11418596576E+04  0.25500000920E-02 0. -1.
        2   -1    0    0  501    0  0.00000000000E+00  0.00000000000E+00 -0.14672117080E+04  0.14672117080E+04  0.25500000920E-02 0.  1.
    10030    2    1    2    0    0  0.00000000000E+00  0.00000000000E+00 -0.32535205048E+03  0.26090713656E+04  0.25887061313E+04 0.  0.
        1    1    3    3  502    0  0.83781278536E+03 -0.83869276502E+03  0.36104062387E+03  0.12392280458E+04  0.50400001928E-02 0. -1.
       -1    1    3    3    0  502 -0.83781278536E+03  0.83869276502E+03 -0.68639267435E+03  0.13698433198E+04  0.50400001928E-02 0.  1.
</event>
<event>
 5   0  0.1533248E-05  0.2654037E+04  0.7818609E-02  0.8350074E-01
        1   -1    0    0  501    0  0.00000000000E+00  0.00000000000E+00  0.20060944228E+04  0.20060944228E+04  0.50400001928E-02 0.  1.
       -1   -1    0    0    0  501  0.00000000000E+00  0.00000000000E+00 -0.87781444204E+03  0.87781444206E+03  0.50400001928E-02 0. -1.
    10030    2    1    2    0    0  0.00000000000E+00  0.00000000000E+00  0.11282799808E+04  0.28839088649E+04  0.26540374198E+04 0.  0.
        4    1    3    3  502    0  0.21987095196E+03 -0.83592720986E+03  0.16582560164E+04  0.18700086001E+04  0.12699999809E+01 0.  1.
       -4    1    3    3    0  502 -0.21987095196E+03  0.83592720986E+03 -0.52997603561E+03  0.10139002648E+04  0.12699999809E+01 0. -1.
</event>
<event>
 5   0  0.1474554E-05  0.2646583E+04  0.7818609E-02  0.8352548E-01
       -1   -1    0    0    0  501  0.00000000000E+00  0.00000000000E+00  0.13141028147E+04  0.13141028147E+04  0.50400001928E-02 0.  1.
        1   -1    0    0  501    0  0.00000000000E+00  0.00000000000E+00 -0.13325442446E+04  0.13325442446E+04  0.50400001928E-02 0. -1.
    10030    2    1    2    0    0  0.00000000000E+00  0.00000000000E+00 -0.18441429943E+02  0.26466470593E+04  0.26465828100E+04 0.  0.
        5    1    3    3  502    0 -0.43782565793E+03  0.73653879440E+03  0.99921704898E+03  0.13162968903E+04  0.46999998093E+01 0.  1.
       -5    1    3    3    0  502  0.43782565793E+03 -0.73653879440E+03 -0.10176584789E+04  0.13303501690E+04  0.46999998093E+01 0. -1.
</event>
<event>
 5   0  0.1497497E-05  0.2594365E+04  0.7818609E-02  0.8370118E-01
        1   -1    0    0  501    0  0.00000000000E+00  0.00000000000E+00  0.98328632415E+03  0.98328632416E+03  0.50400001928E-02 0. -1.
       -1   -1    0    0    0  501  0.00000000000E+00  0.00000000000E+00 -0.17112843738E+04  0.17112843738E+04  0.50400001928E-02 0.  1.
    10030    2    1    2    0    0  0.00000000000E+00  0.00000000000E+00 -0.72799804962E+03  0.26945706979E+04  0.25943650641E+04 0.  0.
        3    1    3    3  502    0  0.68689761351E+03 -0.34039098844E+03  0.72283494926E+03  0.10536530409E+04  0.10100000352E+00 0. -1.
       -3    1    3    3    0  502 -0.68689761351E+03  0.34039098844E+03 -0.14508329989E+04  0.16409176571E+04  0.10100000352E+00 0.  1.
</event>
<event>
 5   0  0.3499642E-05  0.2604213E+04  0.7818609E-02  0.8366771E-01
       -2   -1    0    0    0  501  0.00000000000E+00  0.00000000000E+00  0.91556806626E+03  0.91556806627E+03  0.25500000920E-02 0.  1.
        2   -1    0    0  501    0  0.00000000000E+00  0.00000000000E+00 -0.18518356643E+04  0.18518356643E+04  0.25500000920E-02 0. -1.
    10030    2    1    2    0    0  0.00000000000E+00  0.00000000000E+00 -0.93626759807E+03  0.27674037306E+04  0.26042132004E+04 0.  0.
        2    1    3    3  502    0  0.95371194169E+03  0.95790980687E+02  0.46842188289E+03  0.10668464932E+04  0.25500000920E-02 0.  1.
       -2    1    3    3    0  502 -0.95371194169E+03 -0.95790980687E+02 -0.14046894810E+04  0.17005572374E+04  0.25500000920E-02 0. -1.
</event>
<event>
 5   0  0.1497497E-05  0.2561851E+04  0.7818609E-02  0.8381276E-01
        1   -1    0    0  501    0  0.00000000000E+00  0.00000000000E+00  0.10601283797E+04  0.10601283797E+04  0.50400001928E-02 0. -1.
       -1   -1    0    0    0  501  0.00000000000E+00  0.00000000000E+00 -0.15477084207E+04  0.15477084207E+04  0.50400001928E-02 0.  1.
    10030    2    1    2    0    0  0.00000000000E+00  0.00000000000E+00 -0.48758004095E+03  0.26078368004E+04  0.25618505970E+04 0.  0.
        3    1    3    3  502    0 -0.73401963145E+03  0.95151021008E+03  0.20758014331E+03  0.12195269679E+04  0.10100000352E+00 0. -1.
       -3    1    3    3    0  502  0.73401963145E+03 -0.95151021008E+03 -0.69516018426E+03  0.13883098326E+04  0.10100000352E+00 0.  1.
</event>
<event>
 5   0  0.1435062E-05  0.2591008E+04  0.7818609E-02  0.8371262E-01
        1   -1    0    0  501    0  0.00000000000E+00  0.00000000000E+00  0.20926625109E+04  0.20926625109E+04  0.50400001928E-02 0. -1.
       -1   -1    0    0    0  501  0.00000000000E+00  0.00000000000E+00 -0.80200722283E+03  0.80200722285E+03  0.50400001928E-02 0.  1.
    10030    2    1    2    0    0  0.00000000000E+00  0.00000000000E+00  0.12906552881E+04  0.28946697337E+04  0.25910078724E+04 0.  0.
        2    1    3    3  502    0  0.68833041535E+03 -0.87083045802E+03 -0.10092908123E+03  0.11145990879E+04  0.25500000920E-02 0.  1.
       -2    1    3    3    0  502 -0.68833041535E+03  0.87083045802E+03  0.13915843693E+04  0.17800706458E+04  0.25500000920E-02 0. -1.
</event>
<event>
 5   0  0.1533248E-05  0.2724085E+04  0.7818609E-02  0.8327232E-01
        1   -1    0    0  501    0  0.00000000000E+00  0.00000000000E+00  0.14796003094E+04  0.14796003094E+04  0.50400001928E-02 0. -1.
       -1   -1    0    0    0  501  0.00000000000E+00  0.00000000000E+00 -0.12538251189E+04  0.12538251189E+04  0.50400001928E-02 0.  1.
    10030    2    1    2    0    0  0.00000000000E+00  0.00000000000E+00  0.22577519051E+03  0.27334254284E+04  0.27240851925E+04 0.  0.
        4    1    3    3  502    0  0.82811929415E+03  0.10678977852E+04  0.28368041446E+03  0.13808198418E+04  0.12699999809E+01 0.  1.
       -4    1    3    3    0  502 -0.82811929415E+03 -0.10678977852E+04 -0.57905223951E+02  0.13526055866E+04  0.12699999809E+01 0. -1.
</event>
<event>
 5   0  0.3849687E-05  0.2485058E+04  0.7818609E-02  0.8408328E-01
        2   -1    0    0  501    0  0.00000000000E+00  0.00000000000E+00  0.13748462198E+04  0.13748462198E+04  0.25500000920E-02 0.  1.
       -2   -1    0    0    0  501  0.00000000000E+00  0.00000000000E+00 -0.11229464193E+04  0.11229464193E+04  0.25500000920E-02 0. -1.
    10030    2    1    2    0    0  0.00000000000E+00  0.00000000000E+00  0.25189980050E+03  0.24977926391E+04  0.24850582606E+04 0.  0.
        1    1    3    3  502    0  0.30653869261E+03  0.38382546480E+03  0.12731093582E+04  0.13645861627E+04  0.50400001928E-02 0.  1.
       -1    1    3    3    0  502 -0.30653869261E+03 -0.38382546480E+03 -0.10212095577E+04  0.11332064764E+04  0.50400001928E-02 0. -1.
</event>
<event>
 5   0  0.3647623E-05  0.2590616E+04  0.7818609E-02  0.8371396E-01
       -2   -1    0    0    0  501  0.00000000000E+00  0.00000000000E+00  0.88324078856E+03  0.88324078856E+03  0.25500000920E-02 0.  1.
        2   -1    0    0  501    0  0.00000000000E+00  0.00000000000E+00 -0.18996210036E+04  0.18996210036E+04  0.25500000920E-02 0. -1.
    10030    2    1    2    0    0  0.00000000000E+00  0.00000000000E+00 -0.10163802150E+04  0.27828617921E+04  0.25906159524E+04 0.  0.
        3    1    3    3  502    0  0.15134002477E+03  0.11180173727E+04  0.17539496775E+03  0.11417661992E+04  0.10100000352E+00 0.  1.
       -3    1    3    3    0  502 -0.15134002477E+03 -0.11180173727E+04 -0.11917751828E+04  0.16410955929E+04  0.10100000352E+00 0. -1.
</event>
<event>
 5   0  0.1435062E-05  0.2564738E+04  0.7818609E-02  0.8380278E-01
        1   -1    0    0  501    0  0.00000000000E+00  0.00000000000E+00  0.13725858439E+04  0.13725858439E+04  0.50400001928E-02 0.  1.
       -1   -1    0    0    0  501  0.00000000000E+00  0.00000000000E+00 -0.11980823633E+04  0.11980823633E+04  0.50400001928E-02 0. -1.
    10030    2    1    2    0    0  0.00000000000E+00  0.00000000000E+00  0.17450348059E+03  0.25706682073E+04  0.25647384988E+04 0.  0.
        2    1    3    3  502    0  0.35215106077E+03 -0.77931947494E+03  0.10450350443E+04  0.13503508645E+04  0.25500000920E-02 0.  1.
       -2    1    3    3    0  502 -0.35215106077E+03  0.77931947494E+03 -0.87053156368E+03  0.12203173427E+04  0.25500000920E-02 0. -1.
</event>
<event>
 5   0  0.1474554E-05  0.2575991E+04  0.7818609E-02  0.8376403E-01
       -1   -1    0    0    0  501  0.00000000000E+00  0.00000000000E+00  0.98802732586E+03  0.98802732587E+03  0.50400001928E-02 0. -1.
        1   -1    0    0  501    0  0.00000000000E+00  0.00000000000E+00 -0.16790343578E+04  0.16790343578E+04  0.50400001928E-02 0.  1.
    10030    2    1    2    0    0  0.00000000000E+00  0.00000000000E+00 -0.69100703194E+03  0.26670616837E+04  0.25759905486E+04 0.  0.
        5    1    3    3  502    0 -0.11872562953E+04 -0.32295380934E+03 -0.73979945516E+03  0.14356886840E+04  0.46999998093E+01 0. -1.
       -5    1    3    3    0  502  0.11872562953E+04  0.32295380934E+03  0.48792423223E+02  0.12313729996E+04  0.46999998093E+01 0.  1.
</event>
<event>
 5   0  0.3508470E-05  0.2543039E+04  0.7818609E-02  0.8387811E-01
       -2   -1    0    0    0  501  0.00000000000E+00  0.00000000000E+00  0.15049569635E+04  0.15049569635E+04  0.25500000920E-02 0. -1.
        2   -1    0    0  501    0  0.00000000000E+00  0.00000000000E+00 -0.10742912070E+04  0.10742912070E+04  0.25500000920E-02 0.  1.
    10030    2    1    2    0    0  0.00000000000E+00  0.00000000000E+00  0.43066575650E+03  0.25792481705E+04  0.25430391526E+04 0.  0.
        5    1    3    3  502    0 -0.46497374571E+03  0.31447168827E+03  0.13724749429E+04  0.14828359942E+04  0.46999998093E+01 0. -1.
       -5    1    3    3    0  502  0.46497374571E+03 -0.31447168827E+03 -0.94180918636E+03  0.10964121763E+04  0.46999998093E+01 0.  1.
</event>
<event>
 5   0  0.3849687E-05  0.2726993E+04  0.7818609E-02  0.8326299E-01
        2   -1    0    0  501    0  0.00000000000E+00  0.00000000000E+00  0.17818920903E+04  0.17818920903E+04  0.25500000920E-02 0. -1.
       -2   -1    0    0    0  501  0.00000000000E+00  0.00000000000E+00 -0.10433422154E+04  0.10433422154E+04  0.25500000920E-02 0.  1.
    10030    2    1    2    0    0  0.00000000000E+00  0.00000000000E+00  0.73854987488E+03  0.28252343057E+04  0.27269933928E+04 0.  0.
        1    1    3    3  502    0  0.13351792124E+03  0.44717182418E+03  0.16965740709E+04  0.17595889445E+04  0.50400001928E-02 0. -1.
       -1    1    3    3    0  502 -0.13351792124E+03 -0.44717182418E+03 -0.95802419602E+03  0.10656453612E+04  0.50400001928E-02 0.  1.
</event>
<event>
 5   0  0.1217200E-05  0.2584733E+04  0.7818609E-02  0.8373405E-01
        3   -1    0    0  501    0  0.00000000000E+00  0.00000000000E+00  0.13411877063E+04  0.13411877101E+04  0.10100000352E+00 0. -1.
       -3   -1    0    0    0  501  0.00000000000E+00  0.00000000000E+00 -0.12453228659E+04  0.12453228700E+04  0.10100000352E+00 0.  1.
    10030    2    1    2    0    0  0.00000000000E+00  0.00000000000E+00  0.95864840412E+02  0.25865105800E+04  0.25847334317E+04 0.  0.
        4    1    3    3  502    0  0.81407000551E+03  0.71568074833E+02 -0.95394432258E+03  0.12561223454E+04  0.12699999809E+01 0.  1.
       -4    1    3    3    0  502 -0.81407000551E+03 -0.71568074833E+02  0.10498091630E+04  0.13303882346E+04  0.12699999809E+01 0. -1.
</event>
<event>
 5   0  0.1533248E-05  0.2847895E+04  0.7818609E-02  0.8288551E-01
       -1   -1    0    0    0  501  0.00000000000E+00  0.00000000000E+00  0.19556333680E+04  0.19556333680E+04  0.50400001928E-02 0. -1.
        1   -1    0    0  501    0  0.00000000000E+00  0.00000000000E+00 -0.10368133759E+04  0.10368133759E+04  0.50400001928E-02 0.  1.
    10030    2    1    2    0    0  0.00000000000E+00  0.00000000000E+00  0.91881999211E+03  0.29924467440E+04  0.28478952469E+04 0.  0.
        4    1    3    3  502    0  0.98763095078E+03  0.43705223712E+03 -0.51569939207E+03  0.11968195473E+04  0.12699999809E+01 0. -1.
       -4    1    3    3    0  502 -0.98763095078E+03 -0.43705223712E+03  0.14345193842E+04  0.17956271967E+04  0.12699999809E+01 0.  1.
</event>
<event>
 5   0  0.3441646E-05  0.2630242E+04  0.7818609E-02  0.8358001E-01
        2   -1    0    0  501    0  0.00000000000E+00  0.00000000000E+00  0.22351498374E+04  0.22351498374E+04  0.25500000920E-02 0.  1.
       -2   -1    0    0    0  501  0.00000000000E+00  0.00000000000E+00 -0.77379319989E+03  0.77379319990E+03  0.25500000920E-02 0. -1.
    10030    2    1    2    0    0  0.00000000000E+00  0.00000000000E+00  0.14613566375E+04  0.30089430373E+04  0.26302423804E+04 0.  0.
        4    1    3    3  502    0 -0.77856148346E+03  0.71720384483E+03  0.16234241632E+04  0.19380523639E+04  0.12699999809E+01 0.  1.
       -4    1    3    3    0  502  0.77856148346E+03 -0.71720384483E+03 -0.16206752572E+03  0.10708906734E+04  0.12699999809E+01 0. -1.
</event>
<event>
 5   0  0.3647623E-05  0.2619983E+04  0.7818609E-02  0.8361445E-01
        2   -1    0    0  501    0  0.00000000000E+00  0.00000000000E+00  0.12188973957E+04  0.12188973957E+04  0.25500000920E-02 0. -1.
       -2   -1    0    0    0  501  0.00000000000E+00  0.00000000000E+00 -0.14078933844E+04  0.14078933844E+04  0.25500000920E-02 0.  1.
    10030    2    1    2    0    0  0.00000000000E+00  0.00000000000E+00 -0.18899598866E+03  0.26267907801E+04  0.26199828852E+04 0.  0.
        3    1    3    3  502    0  0.84304387424E+03 -0.82999755460E+03  0.46951033513E+03  0.12728153360E+04  0.10100000352E+00 0. -1.
       -3    1    3    3    0  502 -0.84304387424E+03  0.82999755460E+03 -0.65850632379E+03  0.13539754441E+04  0.10100000352E+00 0.  1.
</event>
<event>
 5   0  0.3508470E-05  0.2595507E+04  0.7818609E-02  0.8369729E-01
       -2   -1    0    0    0  501  0.00000000000E+00  0.00000000000E+00  0.10017983244E+04  0.10017983244E+04  0.25500000920E-02 0. -1.
        2   -1    0    0  501    0  0.00000000000E+00  0.00000000000E+00 -0.16811402995E+04  0.16811402995E+04  0.25500000920E-02 0.  1.
    10030    2    1    2    0    0  0.00000000000E+00  0.00000000000E+00 -0.67934197511E+03  0.26829386239E+04  0.25955065287E+04 0.  0.
        5    1    3    3  502    0  0.46596319337E+03  0.11931059488E+04 -0.55530774325E+03  0.13960702999E+04  0.46999998093E+01 0.  1.
       -5    1    3    3    0  502 -0.46596319337E+03 -0.11931059488E+04 -0.12403423186E+03  0.12868683240E+04  0.46999998093E+01 0. -1.
</event>
<event>
 5   0  0.3508470E-05  0.2610399E+04  0.7818609E-02  0.8364677E-01
       -2   -1    0    0    0  501  0.00000000000E+00  0.00000000000E+00  0.10862363222E+04  0.10862363222E+04  0.25500000920E-02 0.  1.
        2   -1    0    0  501    0  0.00000000000E+00  0.00000000000E+00 -0.15683016835E+04  0.15683016835E+04  0.25500000920E-02 0. -1.
    10030    2    1    2    0    0  0.00000000000E+00  0.00000000000E+00 -0.48206536122E+03  0.26545380057E+04  0.26103993969E+04 0.  0.
        5    1    3    3  502    0  0.11075743931E+03 -0.53030121581E+03 -0.14485610142E+04  0.15465567211E+04  0.46999998093E+01 0. -1.
       -5    1    3    3    0  502 -0.11075743931E+03  0.53030121581E+03  0.96649565295E+03  0.11079812846E+04  0.46999998093E+01 0.  1.
</event>
<event>
 5   0  0.3508470E-05  0.2321409E+04  0.7818609E-02  0.8469527E-01
        2   -1    0    0  501    0  0.00000000000E+00  0.00000000000E+00  0.21710298395E+04  0.21710298395E+04  0.25500000920E-02 0. -1.
       -2   -1    0    0    0  501  0.00000000000E+00  0.00000000000E+00 -0.62055114982E+03  0.62055114982E+03  0.25500000920E-02 0.  1.
    10030    2    1    2    0    0  0.00000000000E+00  0.00000000000E+00  0.15504786897E+04  0.27915809893E+04  0.23214091093E+04 0.  0.
        5    1    3    3  502    0  0.76979218814E+03 -0.26499115256E+03 -0.21961055743E+03  0.84323852544E+03  0.46999998093E+01 0.  1.
       -5    1    3    3    0  502 -0.76979218814E+03  0.26499115256E+03  0.17700892471E+04  0.19483424639E+04  0.46999998093E+01 0. -1.
</event>
<event>
 5   0  0.1474554E-05  0.2623071E+04  0.7818609E-02  0.8360407E-01
        1   -1    0    0  501    0  0.00000000000E+00  0.00000000000E+00  0.15050144658E+04  0.15050144658E+04  0.50400001928E-02 0. -1.
       -1   -1    0    0    0  501  0.00000000000E+00  0.00000000000E+00 -0.11429290299E+04  0.11429290299E+04  0.50400001928E-02 0.  1.
    10030    2    1    2    0    0  0.00000000000E+00  0.00000000000E+00  0.36208543597E+03  0.26479434957E+04  0.26230705087E+04 0.  0.
        5    1    3    3  502    0 -0.82618755828E+03 -0.11615783312E+03  0.12025791026E+04  0.14636588098E+04  0.46999998093E+01 0. -1.
       -5    1    3    3    0  502  0.82618755828E+03  0.11615783312E+03 -0.84049366659E+03  0.11842846859E+04  0.46999998093E+01 0.  1.
</event>
<event>
 5   0  0.3849687E-05  0.2046590E+04  0.7818609E-02  0.8585143E-01
        2   -1    0    0  501    0  0.00000000000E+00  0.00000000000E+00  0.21331618347E+04  0.21331618347E+04  0.25500000920E-02 0. -1.
       -2   -1    0    0    0  501  0.00000000000E+00  0.00000000000E+00 -0.49088276040E+03  0.49088276040E+03  0.25500000920E-02 0.  1.
    10030    2    1    2    0    0  0.00000000000E+00  0.00000000000E+00  0.16422790743E+04  0.26240445951E+04  0.20465897193E+04 0.  0.
        1    1    3    3  502    0 -0.43401999311E+03  0.31866929241E+03  0.19368417065E+04  0.20102933289E+04  0.50400001928E-02 0. -1.
       -1    1    3    3    0  502  0.43401999311E+03 -0.31866929241E+03 -0.29456263223E+03  0.61375126613E+03  0.50400001928E-02 0.  1.
</event>
<event>
 5   0  0.1435062E-05  0.2529351E+04  0.7818609E-02  0.8392603E-01
       -1   -1    0    0    0  501  0.00000000000E+00  0.00000000000E+00  0.16691812843E+04  0.16691812843E+04  0.50400001928E-02 0. -1.
        1   -1    0    0  501    0  0.00000000000E+00  0.00000000000E+00 -0.95819654910E+03  0.95819654911E+03  0.50400001928E-02 0.  1.
    10030    2    1    2    0    0  0.00000000000E+00  0.00000000000E+00  0.71098473517E+03  0.26273778334E+04  0.25293507044E+04 0.  0.
        2    1    3    3  502    0  0.10495634692E+03  0.76793074919E+03 -0.68257262048E+03  0.10327820935E+04  0.25500000920E-02 0.  1.
       -2    1    3    3    0  502 -0.10495634692E+03 -0.76793074919E+03  0.13935573557E+04  0.15945957399E+04  0.25500000920E-02 0. -1.
</event>
<event>
 5   0  0.1435062E-05  0.2594506E+04  0.7818609E-02  0.8370070E-01
        1   -1    0    0  501    0  0.00000000000E+00  0.00000000000E+00  0.15786058916E+04  0.15786058916E+04  0.50400001928E-02 0.  1.
       -1   -1    0    0    0  501  0.00000000000E+00  0.00000000000E+00 -0.10660450327E+04  0.10660450327E+04  0.50400001928E-02 0. -1.
    10030    2    1    2    0    0  0.00000000000E+00  0.00000000000E+00  0.51256085884E+03  0.26446509243E+04  0.25945057096E+04 0.  0.
        2    1    3    3  502    0  0.11072803717E+04  0.38547970108E+03 -0.30960749780E+03  0.12126504955E+04  0.25500000920E-02 0. -1.
       -2    1    3    3    0  502 -0.11072803717E+04 -0.38547970108E+03  0.82216835664E+03  0.14320004288E+04  0.25500000920E-02 0.  1.
</event>
<event>
 5   0  0.1497497E-05  0.2544227E+04  0.7818609E-02  0.8387397E-01
       -1   -1    0    0    0  501  0.00000000000E+00  0.00000000000E+00  0.11701989249E+04  0.11701989249E+04  0.50400001928E-02 0. -1.
        1   -1    0    0  501    0  0.00000000000E+00  0.00000000000E+00 -0.13829037892E+04  0.13829037893E+04  0.50400001928E-02 0.  1.
    10030    2    1    2    0    0  0.00000000000E+00  0.00000000000E+00 -0.21270486436E+03  0.25531027142E+04  0.25442268196E+04 0.  0.
        3    1    3    3  502    0  0.19990180677E+03  0.11957866998E+04 -0.49293131144E+03  0.13087581334E+04  0.10100000352E+00 0.  1.
       -3    1    3    3    0  502 -0.19990180677E+03 -0.11957866998E+04  0.28022644708E+03  0.12443445807E+04  0.10100000352E+00 0. -1.
</event>
<event>
 5   0  0.3849687E-05  0.2557848E+04  0.7818609E-02  0.8382662E-01
        2   -1    0    0  501    0  0.00000000000E+00  0.00000000000E+00  0.17879187108E+04  0.17879187108E+04  0.25500000920E-02 0. -1.
       -2   -1    0    0    0  501  0.00000000000E+00  0.00000000000E+00 -0.91483295778E+03  0.91483295778E+03  0.25500000920E-02 0.  1.
    10030    2    1    2    0    0  0.00000000000E+00  0.00000000000E+00  0.87308575299E+03  0.27027516686E+04  0.25578482851E+04 0.  0.
        1    1    3    3  502    0  0.22226884689E+02 -0.80551083809E+03 -0.61284738136E+03  0.10123851330E+04  0.50400001928E-02 0.  1.
       -1    1    3    3    0  502 -0.22226884689E+02  0.80551083809E+03  0.14859331343E+04  0.16903665355E+04  0.50400001928E-02 0. -1.
</event>
<event>
 5   0  0.1533248E-05  0.2650236E+04  0.7818609E-02  0.8351335E-01
        1   -1    0    0  501    0  0.00000000000E+00  0.00000000000E+00  0.14282531380E+04  0.14282531380E+04  0.50400001928E-02 0. -1.
       -1   -1    0    0    0  501  0.00000000000E+00  0.00000000000E+00 -0.12294300737E+04  0.12294300737E+04  0.50400001928E-02 0.  1.
    10030    2    1    2    0    0  0.00000000000E+00  0.00000000000E+00  0.19882306423E+03  0.26576832117E+04  0.26502357335E+04 0.  0.
        4    1    3    3  502    0 -0.11515260833E+04  0.23788924028E+03 -0.51331458963E+03  0.12830031536E+04  0.12699999809E+01 0. -1.
       -4    1    3    3    0  502  0.11515260833E+04 -0.23788924028E+03  0.71213765386E+03  0.13746800581E+04  0.12699999809E+01 0.  1.
</event>
<event>
 5   0  0.1533248E-05  0.2560926E+04  0.7818609E-02  0.8381596E-01
        1   -1    0    0  501    0  0.00000000000E+00  0.00000000000E+00  0.17740720423E+04  0.17740720423E+04  0.50400001928E-02 0. -1.
       -1   -1    0    0    0  501  0.00000000000E+00  0.00000000000E+00 -0.92419335683E+03  0.92419335684E+03  0.50400001928E-02 0.  1.
    10030    2    1    2    0    0  0.00000000000E+00  0.00000000000E+00  0.84987868551E+03  0.26982653992E+04  0.25609260794E+04 0.  0.
        4    1    3    3  502    0 -0.49304880954E+03  0.11372997582E+04  0.86732524820E+02  0.12426069420E+04  0.12699999809E+01 0.  1.
       -4    1    3    3    0  502  0.49304880954E+03 -0.11372997582E+04  0.76314616069E+03  0.14556584572E+04  0.12699999809E+01 0. -1.
</event>
<event>
 5   0  0.1474554E-05  0.2600721E+04  0.7818609E-02  0.8367956E-01
       -1   -1    0    0    0  501  0.00000000000E+00  0.00000000000E+00  0.10567504008E+04  0.10567504009E+04  0.50400001928E-02 0. -1.
        1   -1    0    0  501    0  0.00000000000E+00  0.00000000000E+00 -0.16001292325E+04  0.16001292325E+04  0.50400001928E-02 0.  1.
    10030    2    1    2    0    0  0.00000000000E+00  0.00000000000E+00 -0.54337883167E+03  0.26568796334E+04  0.26007208292E+04 0.  0.
        5    1    3    3  502    0  0.97216508468E+03  0.56524230558E+03  0.39533474778E+03  0.11920215890E+04  0.46999998093E+01 0. -1.
       -5    1    3    3    0  502 -0.97216508468E+03 -0.56524230558E+03 -0.93871357945E+03  0.14648580444E+04  0.46999998093E+01 0.  1.
</event>
<event>
 5   0  0.3499642E-05  0.2756669E+04  0.7818609E-02  0.8316848E-01
       -2   -1    0    0    0  501  0.00000000000E+00  0.00000000000E+00  0.93161894627E+03  0.93161894627E+03  0.25500000920E-02 0.  1.
        2   -1    0    0  501    0  0.00000000000E+00  0.00000000000E+00 -0.20392527716E+04  0.20392527716E+04  0.25500000920E-02 0. -1.
    10030    2    1    2    0    0  0.00000000000E+00  0.00000000000E+00 -0.11076338253E+04  0.29708717179E+04  0.27566693804E+04 0.  0.
        2    1    3    3  502    0 -0.10053284380E+04  0.47849759526E+03 -0.14294542027E+04  0.18119008070E+04  0.25500000920E-02 0. -1.
       -2    1    3    3    0  502  0.10053284380E+04 -0.47849759526E+03  0.32182037735E+03  0.11589709108E+04  0.25500000920E-02 0.  1.
</event>
<event>
 5   0  0.3441646E-05  0.2269644E+04  0.7818609E-02  0.8489987E-01
       -2   -1    0    0    0  501  0.00000000000E+00  0.00000000000E+00  0.86669066470E+03  0.86669066471E+03  0.25500000920E-02 0.  1.
        2   -1    0    0  501    0  0.00000000000E+00  0.00000000000E+00 -0.14859060901E+04  0.14859060901E+04  0.25500000920E-02 0. -1.
    10030    2    1    2    0    0  0.00000000000E+00  0.00000000000E+00 -0.61921542539E+03  0.23525967548E+04  0.22696439694E+04 0.  0.
        4    1    3    3  502    0  0.10643087640E+04  0.38063689829E+03 -0.20501520944E+03  0.11487690988E+04  0.12699999809E+01 0.  1.
       -4    1    3    3    0  502 -0.10643087640E+04 -0.38063689829E+03 -0.41420021595E+03  0.12038276560E+04  0.12699999809E+01 0. -1.
</event>
<event>
 5   0  0.3508470E-05  0.2569796E+04  0.7818609E-02  0.8378534E-01
        2   -1    0    0  501    0  0.00000000000E+00  0.00000000000E+00  0.16099913153E+04  0.16099913153E+04  0.25500000920E-02 0.  1.
       -2   -1    0    0    0  501  0.00000000000E+00  0.00000000000E+00 -0.10254485876E+04  0.10254485876E+04  0.25500000920E-02 0. -1.
    10030    2    1    2    0    0  0.00000000000E+00  0.00000000000E+00  0.58454272770E+03  0.26354399028E+04  0.25697963501E+04 0.  0.
        5    1    3    3  502    0 -0.86684600163E+02  0.12780659114E+04  0.39469513740E+03  0.13404376282E+04  0.46999998093E+01 0.  1.
       -5    1    3    3    0  502  0.86684600163E+02 -0.12780659114E+04  0.18984759030E+03  0.12950022746E+04  0.46999998093E+01 0. -1.
</event>
<event>
 5   0  0.3647623E-05  0.2525949E+04  0.7818609E-02  0.8393799E-01
        2   -1    0    0  501    0  0.00000000000E+00  0.00000000000E+00  0.11736376136E+04  0.11736376136E+04  0.25500000920E-02 0.  1.
       -2   -1    0    0    0  501  0.00000000000E+00  0.00000000000E+00 -0.13591121802E+04  0.13591121803E+04  0.25500000920E-02 0. -1.
    10030    2    1    2    0    0  0.00000000000E+00  0.00000000000E+00 -0.18547456665E+03  0.25327497939E+04  0.25259494657E+04 0.  0.
        3    1    3    3  502    0 -0.49741880041E+03 -0.26611258441E+03 -0.12257633914E+04  0.13493469800E+04  0.10100000352E+00 0. -1.
       -3    1    3    3    0  502  0.49741880041E+03  0.26611258441E+03  0.10402888248E+04  0.11834028138E+04  0.10100000352E+00 0.  1.
</event>
<event>
 5   0  0.3508470E-05  0.2642611E+04  0.7818609E-02  0.8353870E-01
        2   -1    0    0  501    0  0.00000000000E+00  0.00000000000E+00  0.13770234108E+04  0.13770234108E+04  0.25500000920E-02 0. -1.
       -2   -1    0    0    0  501  0.00000000000E+00  0.00000000000E+00 -0.12678418350E+04  0.12678418351E+04  0.25500000920E-02 0.  1.
    10030    2    1    2    0    0  0.00000000000E+00  0.00000000000E+00  0.10918157579E+03  0.26448652459E+04  0.26426107455E+04 0.  0.
        5    1    3    3  502    0  0.66264507182E+03  0.45608160403E+03  0.11036820050E+04  0.13657397186E+04  0.46999998093E+01 0. -1.
       -5    1    3    3    0  502 -0.66264507182E+03 -0.45608160403E+03 -0.99450042925E+03  0.12791255273E+04  0.46999998093E+01 0.  1.
</event>
<event>
 5   0  0.3499642E-05  0.2659943E+04  0.7818609E-02  0.8348120E-01
       -2   -1    0    0    0  501  0.00000000000E+00  0.00000000000E+00  0.67211697610E+03  0.67211697610E+03  0.25500000920E-02 0.  1.
        2   -1    0    0  501    0  0.00000000000E+00  0.00000000000E+00 -0.26317201042E+04  0.26317201042E+04  0.25500000920E-02 0. -1.
    10030    2    1    2    0    0  0.00000000000E+00  0.00000000000E+00 -0.19596031281E+04  0.33038370803E+04  0.26599426749E+04 0.  0.
        2    1    3    3  502    0  0.12035235254E+04 -0.34926006136E+03 -0.15330075252E+04  0.19800412973E+04  0.25500000920E-02 0. -1.
       -2    1    3    3    0  502 -0.12035235254E+04  0.34926006136E+03 -0.42659560288E+03  0.13237957830E+04  0.25500000920E-02 0.  1.
</event>
<event>
 5   0  0.1451052E-05  0.2622405E+04  0.7818609E-02  0.8360630E-01
       -1   -1    0    0    0  501  0.00000000000E+00  0.00000000000E+00  0.20459516390E+04  0.20459516390E+04  0.50400001928E-02 0. -1.
        1   -1    0    0  501    0  0.00000000000E+00  0.00000000000E+00 -0.84031906105E+03  0.84031906106E+03  0.50400001928E-02 0.  1.
    10030    2    1    2    0    0  0.00000000000E+00  0.00000000000E+00  0.12056325779E+04  0.28862707001E+04  0.26224051253E+04 0.  0.
        1    1    3    3  502    0  0.10561287181E+04 -0.31839178693E+03  0.13829926003E+04  0.17690250795E+04  0.50400001928E-02 0. -1.
       -1    1    3    3    0  502 -0.10561287181E+04  0.31839178693E+03 -0.17736002238E+03  0.11172456206E+04  0.50400001928E-02 0.  1.
</event>
<event>
 5   0  0.1533248E-05  0.2564790E+04  0.7818609E-02  0.8380260E-01
        1   -1    0    0  501    0  0.00000000000E+00  0.00000000000E+00  0.14466263558E+04  0.14466263558E+04  0.50400001928E-02 0.  1.
       -1   -1    0    0    0  501  0.00000000000E+00  0.00000000000E+00 -0.11368088030E+04  0.11368088030E+04  0.50400001928E-02 0. -1.
    10030    2    1    2    0    0  0.00000000000E+00  0.00000000000E+00  0.30981755280E+03  0.25834351588E+04  0.25647904990E+04 0.  0.
        4    1    3    3  502    0 -0.53981766373E+03  0.26481683630E+03 -0.98602339520E+03  0.11548916900E+04  0.12699999809E+01 0. -1.
       -4    1    3    3    0  502  0.53981766373E+03 -0.26481683630E+03  0.12958409480E+04  0.14285434688E+04  0.12699999809E+01 0.  1.
</event>
<event>
 5   0  0.3441646E-05  0.2678145E+04  0.7818609E-02  0.8342131E-01
        2   -1    0    0  501    0  0.00000000000E+00  0.00000000000E+00  0.19282356430E+04  0.19282356430E+04  0.25500000920E-02 0.  1.
       -2   -1    0    0    0  501  0.00000000000E+00  0.00000000000E+00 -0.92992560254E+03  0.92992560254E+03  0.25500000920E-02 0. -1.
    10030    2    1    2    0    0  0.00000000000E+00  0.00000000000E+00  0.99831004046E+03  0.28581612455E+04  0.26781453972E+04 0.  0.
        4    1    3    3  502    0 -0.11448028208E+03 -0.12479429039E+04  0.10027261869E+04  0.16049699826E+04  0.12699999809E+01 0. -1.
       -4    1    3    3    0  502  0.11448028208E+03  0.12479429039E+04 -0.44161464486E+01  0.12531912629E+04  0.12699999809E+01 0.  1.
</event>
<event>
 5   0  0.3441646E-05  0.2595108E+04  0.7818609E-02  0.8369865E-01
        2   -1    0    0  501    0  0.00000000000E+00  0.00000000000E+00  0.18517513151E+04  0.18517513151E+04  0.25500000920E-02 0.  1.
       -2   -1    0    0    0  501  0.00000000000E+00  0.00000000000E+00 -0.90921873957E+03  0.90921873958E+03  0.25500000920E-02 0. -1.
    10030    2    1    2    0    0  0.00000000000E+00  0.00000000000E+00  0.94253257551E+03  0.27609700547E+04  0.25951084730E+04 0.  0.
        4    1    3    3  502    0  0.81892334403E+03  0.45566509862E+03 -0.48352050073E+03  0.10545424662E+04  0.12699999809E+01 0. -1.
       -4    1    3    3    0  502 -0.81892334403E+03 -0.45566509862E+03  0.14260530762E+04  0.17064275885E+04  0.12699999809E+01 0.  1.
</event>
<event>
 5   0  0.1435062E-05  0.2544570E+04  0.7818609E-02  0.8387277E-01
       -1   -1    0    0    0  501  0.00000000000E+00  0.00000000000E+00  0.90829402171E+03  0.90829402172E+03  0.50400001928E-02 0. -1.
        1   -1    0    0  501    0  0.00000000000E+00  0.00000000000E+00 -0.17821419458E+04  0.17821419458E+04  0.50400001928E-02 0.  1.
    10030    2    1    2    0    0  0.00000000000E+00  0.00000000000E+00 -0.87384792408E+03  0.26904359675E+04  0.25445698066E+04 0.  0.
        2    1    3    3  502    0  0.82637416686E+03  0.12513959236E+03 -0.14511592427E+04  0.16746394624E+04  0.25500000920E-02 0.  1.
       -2    1    3    3    0  502 -0.82637416686E+03 -0.12513959236E+03  0.57731131863E+03  0.10157965051E+04  0.25500000920E-02 0. -1.
</event>
<event>
 5   0  0.1435062E-05  0.2572862E+04  0.7818609E-02  0.8377478E-01
        1   -1    0    0  501    0  0.00000000000E+00  0.00000000000E+00  0.25168540342E+04  0.25168540342E+04  0.50400001928E-02 0. -1.
       -1   -1    0    0    0  501  0.00000000000E+00  0.00000000000E+00 -0.65752891525E+03  0.65752891527E+03  0.50400001928E-02 0.  1.
    10030    2    1    2    0    0  0.00000000000E+00  0.00000000000E+00  0.18593251190E+04  0.31743829495E+04  0.25728616776E+04 0.  0.
        2    1    3    3  502    0 -0.11448228614E+04 -0.47800991563E+03  0.13494999423E+04  0.18331020042E+04  0.25500000920E-02 0. -1.
       -2    1    3    3    0  502  0.11448228614E+04  0.47800991563E+03  0.50982517666E+03  0.13412809453E+04  0.25500000920E-02 0.  1.
</event>
<event>
 5   0  0.3499642E-05  0.2692701E+04  0.7818609E-02  0.8337377E-01
        2   -1    0    0  501    0  0.00000000000E+00  0.00000000000E+00  0.17738695425E+04  0.17738695425E+04  0.25500000920E-02 0.  1.
       -2   -1    0    0    0  501  0.00000000000E+00  0.00000000000E+00 -0.10218677363E+04  0.10218677363E+04  0.25500000920E-02 0. -1.
    10030    2    1    2    0    0  0.00000000000E+00  0.00000000000E+00  0.75200180616E+03  0.27957372787E+04  0.26927012859E+04 0.  0.
        2    1    3    3  502    0 -0.99093818575E+03 -0.67963704128E+03  0.10065236022E+04  0.15674676257E+04  0.25500000920E-02 0.  1.
       -2    1    3    3    0  502  0.99093818575E+03  0.67963704128E+03 -0.25452179605E+03  0.12282696530E+04  0.25500000920E-02 0. -1.
</event>
<event>
 5   0  0.3647623E-05  0.2569725E+04  0.7818609E-02  0.8378558E-01
       -2   -1    0    0    0  501  0.00000000000E+00  0.00000000000E+00  0.96887725239E+03  0.96887725239E+03  0.25500000920E-02 0.  1.
        2   -1    0    0  501    0  0.00000000000E+00  0.00000000000E+00 -0.17039020150E+04  0.17039020150E+04  0.25500000920E-02 0. -1.
    10030    2    1    2    0    0  0.00000000000E+00  0.00000000000E+00 -0.73502476261E+03  0.26727792674E+04  0.25697252014E+04 0.  0.
        3    1    3    3  502    0 -0.52167642710E+03 -0.68752550480E+03 -0.13575432240E+04  0.16086519915E+04  0.10100000352E+00 0. -1.
       -3    1    3    3    0  502  0.52167642710E+03  0.68752550480E+03  0.62251846143E+03  0.10641272759E+04  0.10100000352E+00 0.  1.
</event>
<event>
 5   0  0.3499642E-05  0.2608742E+04  0.7818609E-02  0.8365238E-01
       -2   -1    0    0    0  501  0.00000000000E+00  0.00000000000E+00  0.98707076614E+03  0.98707076614E+03  0.25500000920E-02 0. -1.
        2   -1    0    0  501    0  0.00000000000E+00  0.00000000000E+00 -0.17236690016E+04  0.17236690016E+04  0.25500000920E-02 0.  1.
    10030    2    1    2    0    0  0.00000000000E+00  0.00000000000E+00 -0.73659823546E+03  0.27107397677E+04  0.26087416752E+04 0.  0.
        2    1    3    3  502    0  0.68993462285E+03  0.11034929162E+04 -0.45934266805E+03  0.13801094473E+04  0.25500000920E-02 0. -1.
       -2    1    3    3    0  502 -0.68993462285E+03 -0.11034929162E+04 -0.27725556742E+03  0.13306303204E+04  0.25500000920E-02 0.  1.
</event>
<event>
 5   0  0.3849687E-05  0.2589588E+04  0.7818609E-02  0.8371746E-01
        2   -1    0    0  501    0  0.00000000000E+00  0.00000000000E+00  0.16702063897E+04  0.16702063897E+04  0.25500000920E-02 0.  1.
       -2   -1    0    0    0  501  0.00000000000E+00  0.00000000000E+00 -0.10037633545E+04  0.10037633545E+04  0.25500000920E-02 0. -1.
    10030    2    1    2    0    0  0.00000000000E+00  0.00000000000E+00  0.66644303524E+03  0.26739697443E+04  0.25895883600E+04 0.  0.
        1    1    3    3  502    0 -0.89139612894E+02  0.46329568165E+03  0.15782907532E+04  0.16472979272E+04  0.50400001928E-02 0.  1.
       -1    1    3    3    0  502  0.89139612894E+02 -0.46329568165E+03 -0.91184771796E+03  0.10266718171E+04  0.50400001928E-02 0. -1.
</event>
<event>
 5   0  0.1474554E-05  0.2602931E+04  0.7818609E-02  0.8367206E-01
       -1   -1    0    0    0  501  0.00000000000E+00  0.00000000000E+00  0.15236663907E+04  0.15236663907E+04  0.50400001928E-02 0.  1.
        1   -1    0    0  501    0  0.00000000000E+00  0.00000000000E+00 -0.11116687086E+04  0.11116687086E+04  0.50400001928E-02 0. -1.
    10030    2    1    2    0    0  0.00000000000E+00  0.00000000000E+00  0.41199768216E+03  0.26353350993E+04  0.26029308472E+04 0.  0.
        5    1    3    3  502    0 -0.90444067453E+03  0.15986378316E+03  0.11395520536E+04  0.14636155013E+04  0.46999998093E+01 0.  1.
       -5    1    3    3    0  502  0.90444067453E+03 -0.15986378316E+03 -0.72755437143E+03  0.11717195980E+04  0.46999998093E+01 0. -1.
</event>
<event>
 5   0  0.3508470E-05  0.1947418E+04  0.7818609E-02  0.8631607E-01
       -2   -1    0    0    0  501  0.00000000000E+00  0.00000000000E+00  0.28322939392E+03  0.28322939393E+03  0.25500000920E-02 0.  1.
        2   -1    0    0  501    0  0.00000000000E+00  0.00000000000E+00 -0.33474956990E+04  0.33474956990E+04  0.25500000920E-02 0. -1.
    10030    2    1    2    0    0  0.00000000000E+00  0.00000000000E+00 -0.30642663051E+04  0.36307250930E+04  0.19474179603E+04 0.  0.
        5    1    3    3  502    0  0.29553977962E+03  0.70136167913E+03 -0.39986229283E+03  0.85974642164E+03  0.46999998093E+01 0.  1.
       -5    1    3    3    0  502 -0.29553977962E+03 -0.70136167913E+03 -0.26644040123E+04  0.27709786713E+04  0.46999998093E+01 0. -1.
</event>
<event>
 5   0  0.3441646E-05  0.2598954E+04  0.7818609E-02  0.8368557E-01
       -2   -1    0    0    0  501  0.00000000000E+00  0.00000000000E+00  0.84279092070E+03  0.84279092070E+03  0.25500000920E-02 0. -1.
        2   -1    0    0  501    0  0.00000000000E+00  0.00000000000E+00 -0.20036293071E+04  0.20036293071E+04  0.25500000920E-02 0.  1.
    10030    2    1    2    0    0  0.00000000000E+00  0.00000000000E+00 -0.11608383864E+04  0.28464202278E+04  0.25989540885E+04 0.  0.
        4    1    3    3  502    0  0.38915263922E+03 -0.89257072143E+03 -0.15228898548E+04  0.18075722370E+04  0.12699999809E+01 0.  1.
       -4    1    3    3    0  502 -0.38915263922E+03  0.89257072143E+03  0.36205146835E+03  0.10388479908E+04  0.12699999809E+01 0. -1.
</event>
<event>
 5   0  0.3499642E-05  0.2381375E+04  0.7818609E-02  0.8446510E-01
       -2   -1    0    0    0  501  0.00000000000E+00  0.00000000000E+00  0.73773043620E+03  0.73773043621E+03  0.25500000920E-02 0. -1.
        2   -1    0    0  501    0  0.00000000000E+00  0.00000000000E+00 -0.19217545936E+04  0.19217545936E+04  0.25500000920E-02 0.  1.
    10030    2    1    2    0    0  0.00000000000E+00  0.00000000000E+00 -0.11840241574E+04  0.26594850298E+04  0.23813751108E+04 0.  0.
        2    1    3    3  502    0 -0.77582255951E+03 -0.43946439221E+03  0.28926343603E+03  0.93739155708E+03  0.25500000920E-02 0. -1.
       -2    1    3    3    0  502  0.77582255951E+03  0.43946439221E+03 -0.14732875934E+04  0.17220934727E+04  0.25500000920E-02 0.  1.
</event>
<event>
 5   0  0.1474554E-05  0.2649524E+04  0.7818609E-02  0.8351571E-01
       -1   -1    0    0    0  501  0.00000000000E+00  0.00000000000E+00  0.91892021190E+03  0.91892021191E+03  0.50400001928E-02 0. -1.
        1   -1    0    0  501    0  0.00000000000E+00  0.00000000000E+00 -0.19098444098E+04  0.19098444098E+04  0.50400001928E-02 0.  1.
    10030    2    1    2    0    0  0.00000000000E+00  0.00000000000E+00 -0.99092419791E+03  0.28287646217E+04  0.26495242062E+04 0.  0.
        5    1    3    3  502    0  0.70929162669E+03 -0.70845454909E+03 -0.14200557118E+04  0.17382700523E+04  0.46999998093E+01 0.  1.
       -5    1    3    3    0  502 -0.70929162669E+03  0.70845454909E+03  0.42913151393E+03  0.10904945695E+04  0.46999998093E+01 0. -1.
</event>
<event>
 5   0  0.1474554E-05  0.2610049E+04  0.7818609E-02  0.8364796E-01
       -1   -1    0    0    0  501  0.00000000000E+00  0.00000000000E+00  0.81750319813E+03  0.81750319814E+03  0.50400001928E-02 0. -1.
        1   -1    0    0  501    0  0.00000000000E+00  0.00000000000E+00 -0.20832810248E+04  0.20832810248E+04  0.50400001928E-02 0.  1.
    10030    2    1    2    0    0  0.00000000000E+00  0.00000000000E+00 -0.12657778267E+04  0.29007842229E+04  0.26100489654E+04 0.  0.
        5    1    3    3  502    0  0.15850014224E+03 -0.30823972959E+03  0.76540351740E+03  0.84023726437E+03  0.46999998093E+01 0. -1.
       -5    1    3    3    0  502 -0.15850014224E+03  0.30823972959E+03 -0.20311813441E+04  0.20605469586E+04  0.46999998093E+01 0.  1.
</event>
<event>
 5   0  0.3849687E-05  0.2646182E+04  0.7818609E-02  0.8352681E-01
        2   -1    0    0  501    0  0.00000000000E+00  0.00000000000E+00  0.26569133422E+04  0.26569133422E+04  0.25500000920E-02 0. -1.
       -2   -1    0    0    0  501  0.00000000000E+00  0.00000000000E+00 -0.65887373466E+03  0.65887373467E+03  0.25500000920E-02 0.  1.
    10030    2    1    2    0    0  0.00000000000E+00  0.00000000000E+00  0.19980396076E+04  0.33157870769E+04  0.26461824703E+04 0.  0.
        1    1    3    3  502    0 -0.31093252862E+03 -0.28518450277E+03 -0.57232184422E+03  0.71102850251E+03  0.50400001928E-02 0.  1.
       -1    1    3    3    0  502  0.31093252862E+03  0.28518450277E+03  0.25703614518E+04  0.26047585744E+04  0.50400001928E-02 0. -1.
</event>
<event>
 5   0  0.3508470E-05  0.2513521E+04  0.7818609E-02  0.8398184E-01
       -2   -1    0    0    0  501  0.00000000000E+00  0.00000000000E+00  0.45906616815E+03  0.45906616816E+03  0.25500000920E-02 0.  1.
        2   -1    0    0  501    0  0.00000000000E+00  0.00000000000E+00 -0.34405649626E+04  0.34405649626E+04  0.25500000920E-02 0. -1.
    10030    2    1    2    0    0  0.00000000000E+00  0.00000000000E+00 -0.29814987945E+04  0.38996311308E+04  0.25135210154E+04 0.  0.
        5    1    3    3  502    0 -0.12097154118E+04 -0.29165323210E+03 -0.12177984202E+04  0.17411283892E+04  0.46999998093E+01 0.  1.
       -5    1    3    3    0  502  0.12097154118E+04  0.29165323210E+03 -0.17637003742E+04  0.21585027416E+04  0.46999998093E+01 0. -1.
</event>
<event>
 5   0  0.3508470E-05  0.2596165E+04  0.7818609E-02  0.8369505E-01
        2   -1    0    0  501    0  0.00000000000E+00  0.00000000000E+00  0.12915687130E+04  0.12915687130E+04  0.25500000920E-02 0. -1.
       -2   -1    0    0    0  501  0.00000000000E+00  0.00000000000E+00 -0.13046287757E+04  0.13046287757E+04  0.25500000920E-02 0.  1.
    10030    2    1    2    0    0  0.00000000000E+00  0.00000000000E+00 -0.13060062688E+02  0.25961974887E+04  0.25961646395E+04 0.  0.
        5    1    3    3  502    0 -0.11229452884E+04  0.64857704626E+03  0.51240182585E+02  0.12978081337E+04  0.46999998093E+01 0. -1.
       -5    1    3    3    0  502  0.11229452884E+04 -0.64857704626E+03 -0.64300245273E+02  0.12983893550E+04  0.46999998093E+01 0.  1.
</event>
<event>
 5   0  0.1533248E-05  0.2067260E+04  0.7818609E-02  0.8575804E-01
        1   -1    0    0  501    0  0.00000000000E+00  0.00000000000E+00  0.23023248140E+04  0.23023248140E+04  0.50400001928E-02 0.  1.
       -1   -1    0    0    0  501  0.00000000000E+00  0.00000000000E+00 -0.46404893307E+03  0.46404893310E+03  0.50400001928E-02 0. -1.
    10030    2    1    2    0    0  0.00000000000E+00  0.00000000000E+00  0.18382758809E+04  0.27663737471E+04  0.20672603837E+04 0.  0.
        4    1    3    3  502    0 -0.62474501312E+02  0.47037378395E+03  0.21479629348E+04  0.21997501999E+04  0.12699999809E+01 0.  1.
       -4    1    3    3    0  502  0.62474501312E+02 -0.47037378395E+03 -0.30968705389E+03  0.56662354715E+03  0.12699999809E+01 0. -1.
</event>
<event>
 5   0  0.1533248E-05  0.1600686E+04  0.7818609E-02  0.8820127E-01
       -1   -1    0    0    0  501  0.00000000000E+00  0.00000000000E+00  0.83285223293E+03  0.83285223295E+03  0.50400001928E-02 0. -1.
        1   -1    0    0  501    0  0.00000000000E+00  0.00000000000E+00 -0.76910231186E+03  0.76910231187E+03  0.50400001928E-02 0.  1.
    10030    2    1    2    0    0  0.00000000000E+00  0.00000000000E+00  0.63749921072E+02  0.16019545448E+04  0.16006855754E+04 0.  0.
        4    1    3    3  502    0  0.22800807523E+03  0.72754759425E+03  0.27544781401E+03  0.81067027540E+03  0.12699999809E+01 0. -1.
       -4    1    3    3    0  502 -0.22800807523E+03 -0.72754759425E+03 -0.21169789294E+03  0.79128426943E+03  0.12699999809E+01 0.  1.
</event>
<event>
 5   0  0.1435062E-05  0.2626327E+04  0.7818609E-02  0.8359313E-01
        1   -1    0    0  501    0  0.00000000000E+00  0.00000000000E+00  0.20991788686E+04  0.20991788686E+04  0.50400001928E-02 0. -1.
       -1   -1    0    0    0  501  0.00000000000E+00  0.00000000000E+00 -0.82146308471E+03  0.82146308472E+03  0.50400001928E-02 0.  1.
    10030    2    1    2    0    0  0.00000000000E+00  0.00000000000E+00  0.12777157839E+04  0.29206419534E+04  0.26263266734E+04 0.  0.
        2    1    3    3  502    0  0.28531643105E+03 -0.11674411978E+04  0.12273838317E+04  0.17177879632E+04  0.25500000920E-02 0. -1.
       -2    1    3    3    0  502 -0.28531643105E+03  0.11674411978E+04  0.50331952184E+02  0.12028539901E+04  0.25500000920E-02 0.  1.
</event>
<event>
 5   0  0.3849687E-05  0.2618350E+04  0.7818609E-02  0.8361995E-01
       -2   -1    0    0    0  501  0.00000000000E+00  0.00000000000E+00  0.11818796113E+04  0.11818796113E+04  0.25500000920E-02 0. -1.
        2   -1    0    0  501    0  0.00000000000E+00  0.00000000000E+00 -0.14501811211E+04  0.14501811211E+04  0.25500000920E-02 0.  1.
    10030    2    1    2    0    0  0.00000000000E+00  0.00000000000E+00 -0.26830150980E+03  0.26320607325E+04  0.26183502438E+04 0.  0.
        1    1    3    3  502    0 -0.10083072761E+04 -0.74007769116E+03  0.25457939967E+03  0.12764048036E+04  0.50400001928E-02 0. -1.
       -1    1    3    3    0  502  0.10083072761E+04  0.74007769116E+03 -0.52288090947E+03  0.13556559289E+04  0.50400001928E-02 0.  1.
</event>
<event>
 5   0  0.3508470E-05  0.2520911E+04  0.7818609E-02  0.8395573E-01
        2   -1    0    0  501    0  0.00000000000E+00  0.00000000000E+00  0.22644624521E+04  0.22644624521E+04  0.25500000920E-02 0. -1.
       -2   -1    0    0    0  501  0.00000000000E+00  0.00000000000E+00 -0.70160081066E+03  0.70160081066E+03  0.25500000920E-02 0.  1.
    10030    2    1    2    0    0  0.00000000000E+00  0.00000000000E+00  0.15628616414E+04  0.29660632627E+04  0.25209114955E+04 0.  0.
        5    1    3    3  502    0 -0.12835992595E+03  0.28926076453E+03  0.22169489718E+04  0.22394269120E+04  0.46999998093E+01 0. -1.
       -5    1    3    3    0  502  0.12835992595E+03 -0.28926076453E+03 -0.65408733038E+03  0.72663635077E+03  0.46999998093E+01 0.  1.
</event>
<event>
 5   0  0.3647623E-05  0.2562602E+04  0.7818609E-02  0.8381016E-01
       -2   -1    0    0    0  501  0.00000000000E+00  0.00000000000E+00  0.16514979497E+04  0.16514979497E+04  0.25500000920E-02 0.  1.
        2   -1    0    0  501    0  0.00000000000E+00  0.00000000000E+00 -0.99408705131E+03  0.99408705131E+03  0.25500000920E-02 0. -1.
    10030    2    1    2    0    0  0.00000000000E+00  0.00000000000E+00  0.65741089836E+03  0.26455850010E+04  0.25626023703E+04 0.  0.
        3    1    3    3  502    0  0.67787696215E+03  0.10602405261E+04  0.79848730190E+02  0.12609532025E+04  0.10100000352E+00 0. -1.
       -3    1    3    3    0  502 -0.67787696215E+03 -0.10602405261E+04  0.57756216817E+03  0.13846317985E+04  0.10100000352E+00 0.  1.
</event>
<event>
 5   0  0.1451052E-05  0.2682884E+04  0.7818609E-02  0.8340580E-01
       -1   -1    0    0    0  501  0.00000000000E+00  0.00000000000E+00  0.10989538771E+04  0.10989538771E+04  0.50400001928E-02 0.  1.
        1   -1    0    0  501    0  0.00000000000E+00  0.00000000000E+00 -0.16374364728E+04  0.16374364728E+04  0.50400001928E-02 0. -1.
    10030    2    1    2    0    0  0.00000000000E+00  0.00000000000E+00 -0.53848259569E+03  0.27363903499E+04  0.26828843884E+04 0.  0.
        1    1    3    3  502    0 -0.46034017342E+03 -0.47669695301E+03  0.92034428381E+03  0.11341016978E+04  0.50400001928E-02 0.  1.
       -1    1    3    3    0  502  0.46034017342E+03  0.47669695301E+03 -0.14588268795E+04  0.16022886521E+04  0.50400001928E-02 0. -1.
</event>
<event>
 5   0  0.3849687E-05  0.2467865E+04  0.7818609E-02  0.8414524E-01
        2   -1    0    0  501    0  0.00000000000E+00  0.00000000000E+00  0.15065493182E+04  0.15065493182E+04  0.25500000920E-02 0.  1.
       -2   -1    0    0    0  501  0.00000000000E+00  0.00000000000E+00 -0.10106468841E+04  0.10106468841E+04  0.25500000920E-02 0. -1.
    10030    2    1    2    0    0  0.00000000000E+00  0.00000000000E+00  0.49590243417E+03  0.25171962023E+04  0.24678649673E+04 0.  0.
        1    1    3    3  502    0 -0.12045930500E+04 -0.50755313890E+02 -0.19917616457E+02  0.12058263679E+04  0.50400001928E-02 0. -1.
       -1    1    3    3    0  502  0.12045930500E+04  0.50755313890E+02  0.51582005063E+03  0.13113698344E+04  0.50400001928E-02 0.  1.
</event>
<event>
 5   0  0.1533248E-05  0.2576239E+04  0.7818609E-02  0.8376317E-01
       -1   -1    0    0    0  501  0.00000000000E+00  0.00000000000E+00  0.19560930434E+04  0.19560930434E+04  0.50400001928E-02 0. -1.
        1   -1    0    0  501    0  0.00000000000E+00  0.00000000000E+00 -0.84824775005E+03  0.84824775006E+03  0.50400001928E-02 0.  1.
    10030    2    1    2    0    0  0.00000000000E+00  0.00000000000E+00  0.11078452933E+04  0.28043407935E+04  0.25762387490E+04 0.  0.
        4    1    3    3  502    0  0.16416094569E+03 -0.98980003764E+03 -0.32543837451E+03  0.10547818159E+04  0.12699999809E+01 0.  1.
       -4    1    3    3    0  502 -0.16416094569E+03  0.98980003764E+03  0.14332836679E+04  0.17495589776E+04  0.12699999809E+01 0. -1.
</event>
<event>
 5   0  0.3647623E-05  0.2596927E+04  0.7818609E-02  0.8369246E-01
       -2   -1    0    0    0  501  0.00000000000E+00  0.00000000000E+00  0.13960240375E+04  0.13960240375E+04  0.25500000920E-02 0.  1.
        2   -1    0    0  501    0  0.00000000000E+00  0.00000000000E+00 -0.12077207582E+04  0.12077207582E+04  0.25500000920E-02 0. -1.
    10030    2    1    2    0    0  0.00000000000E+00  0.00000000000E+00  0.18830327924E+03  0.26037447957E+04  0.25969268061E+04 0.  0.
        3    1    3    3  502    0  0.10309479278E+04  0.78564273471E+03  0.17014210358E+02  0.12962938055E+04  0.10100000352E+00 0.  1.
       -3    1    3    3    0  502 -0.10309479278E+04 -0.78564273471E+03  0.17128906888E+03  0.13074509902E+04  0.10100000352E+00 0. -1.
</event>
<event>
 5   0  0.3441646E-05  0.2659685E+04  0.7818609E-02  0.8348206E-01
        2   -1    0    0  501    0  0.00000000000E+00  0.00000000000E+00  0.18376571715E+04  0.18376571715E+04  0.25500000920E-02 0.  1.
       -2   -1    0    0    0  501  0.00000000000E+00  0.00000000000E+00 -0.96235616014E+03  0.96235616014E+03  0.25500000920E-02 0. -1.
    10030    2    1    2    0    0  0.00000000000E+00  0.00000000000E+00  0.87530101134E+03  0.28000133316E+04  0.26596847176E+04 0.  0.
        4    1    3    3  502    0  0.46787477085E+03  0.40084319699E+03  0.16783453107E+04  0.17878553254E+04  0.12699999809E+01 0.  1.
       -4    1    3    3    0  502 -0.46787477085E+03 -0.40084319699E+03 -0.80304429939E+03  0.10121580062E+04  0.12699999809E+01 0. -1.
</event>
<event>
 5   0  0.1451052E-05  0.2597830E+04  0.7818609E-02  0.8368939E-01
        1   -1    0    0  501    0  0.00000000000E+00  0.00000000000E+00  0.10725567986E+04  0.10725567986E+04  0.50400001928E-02 0. -1.
       -1   -1    0    0    0  501  0.00000000000E+00  0.00000000000E+00 -0.15730454923E+04  0.15730454923E+04  0.50400001928E-02 0.  1.
    10030    2    1    2    0    0  0.00000000000E+00  0.00000000000E+00 -0.50048869367E+03  0.26456022909E+04  0.25978303541E+04 0.  0.
        1    1    3    3  502    0  0.11293110859E+04  0.64170097924E+03 -0.25793043895E+03  0.13242551819E+04  0.50400001928E-02 0. -1.
       -1    1    3    3    0  502 -0.11293110859E+04 -0.64170097924E+03 -0.24255825472E+03  0.13213471090E+04  0.50400001928E-02 0.  1.
</event>
<event>
 5   0  0.3849687E-05  0.2638126E+04  0.7818609E-02  0.8355365E-01
        2   -1    0    0  501    0  0.00000000000E+00  0.00000000000E+00  0.12732589200E+04  0.12732589200E+04  0.25500000920E-02 0. -1.
       -2   -1    0    0    0  501  0.00000000000E+00  0.00000000000E+00 -0.13665150405E+04  0.13665150405E+04  0.25500000920E-02 0.  1.
    10030    2    1    2    0    0  0.00000000000E+00  0.00000000000E+00 -0.93256120443E+02  0.26397739605E+04  0.26381262022E+04 0.  0.
        1    1    3    3  502    0 -0.44190630603E+03 -0.95413967740E+03  0.75027614965E+03  0.12917344960E+04  0.50400001928E-02 0. -1.
       -1    1    3    3    0  502  0.44190630603E+03  0.95413967740E+03 -0.84353227009E+03  0.13480394646E+04  0.50400001928E-02 0.  1.
</event>
<event>
 5   0  0.1474554E-05  0.2601095E+04  0.7818609E-02  0.8367829E-01
       -1   -1    0    0    0  501  0.00000000000E+00  0.00000000000E+00  0.15154344324E+04  0.15154344324E+04  0.50400001928E-02 0.  1.
        1   -1    0    0  501    0  0.00000000000E+00  0.00000000000E+00 -0.11161311468E+04  0.11161311468E+04  0.50400001928E-02 0. -1.
    10030    2    1    2    0    0  0.00000000000E+00  0.00000000000E+00  0.39930328566E+03  0.26315655792E+04  0.26010948241E+04 0.  0.
        5    1    3    3  502    0  0.35351813425E+03 -0.66370450169E+03 -0.87387371748E+03  0.11528903248E+04  0.46999998093E+01 0. -1.
       -5    1    3    3    0  502 -0.35351813425E+03  0.66370450169E+03  0.12731770031E+04  0.14786752545E+04  0.46999998093E+01 0.  1.
</event>
<event>
 5   0  0.1474554E-05  0.2549027E+04  0.7818609E-02  0.8385725E-01
       -1   -1    0    0    0  501  0.00000000000E+00  0.00000000000E+00  0.20115379781E+04  0.20115379781E+04  0.50400001928E-02 0.  1.
        1   -1    0    0  501    0  0.00000000000E+00  0.00000000000E+00 -0.80753392902E+03  0.80753392904E+03  0.50400001928E-02 0. -1.
    10030    2    1    2    0    0  0.00000000000E+00  0.00000000000E+00  0.12040040491E+04  0.28190719071E+04  0.25490273964E+04 0.  0.
        5    1    3    3  502    0  0.75895825450E+03  0.42832292791E+03 -0.42651340563E+03  0.97026488024E+03  0.46999998093E+01 0. -1.
       -5    1    3    3    0  502 -0.75895825450E+03 -0.42832292791E+03  0.16305174547E+04  0.18488070269E+04  0.46999998093E+01 0.  1.
</event>
<event>
 5   0  0.1451052E-05  0.2545054E+04  0.7818609E-02  0.8387108E-01
       -1   -1    0    0    0  501  0.00000000000E+00  0.00000000000E+00  0.61835215351E+03  0.61835215353E+03  0.50400001928E-02 0.  1.
        1   -1    0    0  501    0  0.00000000000E+00  0.00000000000E+00 -0.26187752917E+04  0.26187752917E+04  0.50400001928E-02 0. -1.
    10030    2    1    2    0    0  0.00000000000E+00  0.00000000000E+00 -0.20004231382E+04  0.32371274452E+04  0.25450542951E+04 0.  0.
        1    1    3    3  502    0 -0.28244215746E+03  0.17064438988E+03  0.56298420592E+03  0.65256746490E+03  0.50400001928E-02 0.  1.
       -1    1    3    3    0  502  0.28244215746E+03 -0.17064438988E+03 -0.25634073441E+04  0.25845599803E+04  0.50400001928E-02 0. -1.
</event>
<event>
 5   0  0.1497497E-05  0.2576289E+04  0.7818609E-02  0.8376300E-01
       -1   -1    0    0    0  501  0.00000000000E+00  0.00000000000E+00  0.21314884791E+04  0.21314884791E+04  0.50400001928E-02 0.  1.
        1   -1    0    0  501    0  0.00000000000E+00  0.00000000000E+00 -0.77847786999E+03  0.77847787001E+03  0.50400001928E-02 0. -1.
    10030    2    1    2    0    0  0.00000000000E+00  0.00000000000E+00  0.13530106091E+04  0.29099663491E+04  0.25762892781E+04 0.  0.
        3    1    3    3  502    0  0.10564987984E+03 -0.77472738195E+02 -0.77093315262E+03  0.78198584276E+03  0.10100000352E+00 0. -1.
       -3    1    3    3    0  502 -0.10564987984E+03  0.77472738195E+02  0.21239437617E+04  0.21279805063E+04  0.10100000352E+00 0.  1.
</event>
<event>
 5   0  0.1497497E-05  0.2235878E+04  0.7818609E-02  0.8503641E-01
       -1   -1    0    0    0  501  0.00000000000E+00  0.00000000000E+00  0.91788511120E+03  0.91788511121E+03  0.50400001928E-02 0. -1.
        1   -1    0    0  501    0  0.00000000000E+00  0.00000000000E+00 -0.13615953947E+04  0.13615953947E+04  0.50400001928E-02 0.  1.
    10030    2    1    2    0    0  0.00000000000E+00  0.00000000000E+00 -0.44371028352E+03  0.22794805059E+04  0.22358784764E+04 0.  0.
        3    1    3    3  502    0 -0.75552806395E+02  0.93647300879E+03 -0.83955687379E+03  0.12599784432E+04  0.10100000352E+00 0. -1.
       -3    1    3    3    0  502  0.75552806395E+02 -0.93647300879E+03  0.39584659027E+03  0.10195020628E+04  0.10100000352E+00 0.  1.
</event>
<event>
 5   0  0.1533248E-05  0.2473673E+04  0.7818609E-02  0.8412425E-01
        1   -1    0    0  501    0  0.00000000000E+00  0.00000000000E+00  0.20205147395E+04  0.20205147395E+04  0.50400001928E-02 0.  1.
       -1   -1    0    0    0  501  0.00000000000E+00  0.00000000000E+00 -0.75711595152E+03  0.75711595154E+03  0.50400001928E-02 0. -1.
    10030    2    1    2    0    0  0.00000000000E+00  0.00000000000E+00  0.12633987880E+04  0.27776306910E+04  0.24736725245E+04 0.  0.
        4    1    3    3  502    0  0.11738985777E+04  0.28876094777E+03  0.33815433419E+03  0.12552970654E+04  0.12699999809E+01 0.  1.
       -4    1    3    3    0  502 -0.11738985777E+04 -0.28876094777E+03  0.92524445379E+03  0.15223336257E+04  0.12699999809E+01 0. -1.
</event>
<event>
 5   0  0.1497497E-05  0.1969546E+04  0.7818609E-02  0.8620993E-01
        1   -1    0    0  501    0  0.00000000000E+00  0.00000000000E+00  0.10198526158E+04  0.10198526158E+04  0.50400001928E-02 0. -1.
       -1   -1    0    0    0  501  0.00000000000E+00  0.00000000000E+00 -0.95090026736E+03  0.95090026738E+03  0.50400001928E-02 0.  1.
    10030    2    1    2    0    0  0.00000000000E+00  0.00000000000E+00  0.68952348387E+02  0.19707528831E+04  0.19695462676E+04 0.  0.
        3    1    3    3  502    0  0.63398455665E+03 -0.65572104767E+03 -0.33706196173E+03  0.97237713191E+03  0.10100000352E+00 0.  1.
       -3    1    3    3    0  502 -0.63398455665E+03  0.65572104767E+03  0.40601431012E+03  0.99837575123E+03  0.10100000352E+00 0. -1.
</event>
<event>
 5   0  0.1451052E-05  0.2548703E+04  0.7818609E-02  0.8385837E-01
       -1   -1    0    0    0  501  0.00000000000E+00  0.00000000000E+00  0.11609787624E+04  0.11609787624E+04  0.50400001928E-02 0.  1.
        1   -1    0    0  501    0  0.00000000000E+00  0.00000000000E+00 -0.13987953352E+04  0.13987953352E+04  0.50400001928E-02 0. -1.
    10030    2    1    2    0    0  0.00000000000E+00  0.00000000000E+00 -0.23781657277E+03  0.25597740977E+04  0.25487029463E+04 0.  0.
        1    1    3    3  502    0  0.54909804522E+03  0.10686257525E+04  0.30779250293E+03  0.12402442853E+04  0.50400001928E-02 0. -1.
       -1    1    3    3    0  502 -0.54909804522E+03 -0.10686257525E+04 -0.54560907570E+03  0.13195298124E+04  0.50400001928E-02 0.  1.
</event>
<event>
 5   0  0.1474554E-05  0.2595457E+04  0.7818609E-02  0.8369746E-01
       -1   -1    0    0    0  501  0.00000000000E+00  0.00000000000E+00  0.83011454687E+03  0.83011454689E+03  0.50400001928E-02 0.  1.
        1   -1    0    0  501    0  0.00000000000E+00  0.00000000000E+00 -0.20287557142E+04  0.20287557142E+04  0.50400001928E-02 0. -1.
    10030    2    1    2    0    0  0.00000000000E+00  0.00000000000E+00 -0.11986411673E+04  0.28588702611E+04  0.25954572856E+04 0.  0.
        5    1    3    3  502    0 -0.10502167459E+04 -0.64203095866E+03 -0.10520297269E+04  0.16192429100E+04  0.46999998093E+01 0. -1.
       -5    1    3    3    0  502  0.10502167459E+04  0.64203095866E+03 -0.14661144039E+03  0.12396273511E+04  0.46999998093E+01 0.  1.
</event>
<event>
 5   0  0.3647623E-05  0.2581075E+04  0.7818609E-02  0.8374658E-01
        2   -1    0    0  501    0  0.00000000000E+00  0.00000000000E+00  0.15800722536E+04  0.15800722536E+04  0.25500000920E-02 0. -1.
       -2   -1    0    0    0  501  0.00000000000E+00  0.00000000000E+00 -0.10540576934E+04  0.10540576934E+04  0.25500000920E-02 0.  1.
    10030    2    1    2    0    0  0.00000000000E+00  0.00000000000E+00  0.52601456025E+03  0.26341299470E+04  0.25810752139E+04 0.  0.
        3    1    3    3  502    0  0.20403219865E+03 -0.50694054217E+03 -0.93015648114E+03  0.10787997687E+04  0.10100000352E+00 0.  1.
       -3    1    3    3    0  502 -0.20403219865E+03  0.50694054217E+03  0.14561710414E+04  0.15553301782E+04  0.10100000352E+00 0. -1.
</event>
<event>
 5   0  0.3499642E-05  0.2590280E+04  0.7818609E-02  0.8371510E-01
        2   -1    0    0  501    0  0.00000000000E+00  0.00000000000E+00  0.16987673094E+04  0.16987673094E+04  0.25500000920E-02 0.  1.
       -2   -1    0    0    0  501  0.00000000000E+00  0.00000000000E+00 -0.98741436920E+03  0.98741436920E+03  0.25500000920E-02 0. -1.
    10030    2    1    2    0    0  0.00000000000E+00  0.00000000000E+00  0.71135294020E+03  0.26861816786E+04  0.25902797156E+04 0.  0.
        2    1    3    3  502    0 -0.11978909065E+04  0.30196521341E+03  0.75899958868E+03  0.14498986135E+04  0.25500000920E-02 0.  1.
       -2    1    3    3    0  502  0.11978909065E+04 -0.30196521341E+03 -0.47646648472E+02  0.12362830651E+04  0.25500000920E-02 0. -1.
</event>
<event>
 5   0  0.1474554E-05  0.2586514E+04  0.7818609E-02  0.8372797E-01
       -1   -1    0    0    0  501  0.00000000000E+00  0.00000000000E+00  0.75298975511E+03  0.75298975512E+03  0.50400001928E-02 0.  1.
        1   -1    0    0  501    0  0.00000000000E+00  0.00000000000E+00 -0.22211631861E+04  0.22211631862E+04  0.50400001928E-02 0. -1.
    10030    2    1    2    0    0  0.00000000000E+00  0.00000000000E+00 -0.14681734310E+04  0.29741529413E+04  0.25865135790E+04 0.  0.
        5    1    3    3  502    0 -0.26105369802E+03 -0.50884837403E+03  0.59967031367E+03  0.82867501235E+03  0.46999998093E+01 0.  1.
       -5    1    3    3    0  502  0.26105369802E+03  0.50884837403E+03 -0.20678437447E+04  0.21454779289E+04  0.46999998093E+01 0. -1.
</event>
<event>
 5   0  0.3647623E-05  0.2388551E+04  0.7818609E-02  0.8443802E-01
       -2   -1    0    0    0  501  0.00000000000E+00  0.00000000000E+00  0.55024663139E+03  0.55024663139E+03  0.25500000920E-02 0.  1.
        2   -1    0    0  501    0  0.00000000000E+00  0.00000000000E+00 -0.25920995686E+04  0.25920995686E+04  0.25500000920E-02 0. -1.
    10030    2    1    2    0    0  0.00000000000E+00  0.00000000000E+00 -0.20418529372E+04  0.31423462000E+04  0.23885510720E+04 0.  0.
        3    1    3    3  502    0 -0.58454705495E+03 -0.10959243189E+02 -0.23909562515E+04  0.24613994335E+04  0.10100000352E+00 0. -1.
       -3    1    3    3    0  502  0.58454705495E+03  0.10959243189E+02  0.34910331433E+03  0.68094676645E+03  0.10100000352E+00 0.  1.
</event>
<event>
 5   0  0.3849687E-05  0.2641160E+04  0.7818609E-02  0.8354353E-01
        2   -1    0    0  501    0  0.00000000000E+00  0.00000000000E+00  0.18928847267E+04  0.18928847267E+04  0.25500000920E-02 0. -1.
       -2   -1    0    0    0  501  0.00000000000E+00  0.00000000000E+00 -0.92130873844E+03  0.92130873844E+03  0.25500000920E-02 0.  1.
    10030    2    1    2    0    0  0.00000000000E+00  0.00000000000E+00  0.97157598825E+03  0.28141934651E+04  0.26411597752E+04 0.  0.
        1    1    3    3  502    0 -0.12948523133E+04  0.25386547290E+03  0.54258148431E+03  0.14267041945E+04  0.50400001928E-02 0.  1.
       -1    1    3    3    0  502  0.12948523133E+04 -0.25386547290E+03  0.42899450395E+03  0.13874892706E+04  0.50400001928E-02 0. -1.
</event>
<event>
 5   0  0.3441646E-05  0.2617590E+04  0.7818609E-02  0.8362251E-01
        2   -1    0    0  501    0  0.00000000000E+00  0.00000000000E+00  0.16458159433E+04  0.16458159433E+04  0.25500000920E-02 0.  1.
       -2   -1    0    0    0  501  0.00000000000E+00  0.00000000000E+00 -0.10407876625E+04  0.10407876625E+04  0.25500000920E-02 0. -1.
    10030    2    1    2    0    0  0.00000000000E+00  0.00000000000E+00  0.60502828082E+03  0.26866036058E+04  0.26175904405E+04 0.  0.
        4    1    3    3  502    0  0.47332087828E+03 -0.67849145754E+02  0.15529568184E+04  0.16249038904E+04  0.12699999809E+01 0.  1.
       -4    1    3    3    0  502 -0.47332087828E+03  0.67849145754E+02 -0.94792853758E+03  0.10616997154E+04  0.12699999809E+01 0. -1.
</event>
<event>
 5   0  0.3499642E-05  0.2808471E+04  0.7818609E-02  0.8300643E-01
       -2   -1    0    0    0  501  0.00000000000E+00  0.00000000000E+00  0.14331380132E+04  0.14331380132E+04  0.25500000920E-02 0. -1.
        2   -1    0    0  501    0  0.00000000000E+00  0.00000000000E+00 -0.13759156581E+04  0.13759156581E+04  0.25500000920E-02 0.  1.
    10030    2    1    2    0    0  0.00000000000E+00  0.00000000000E+00  0.57222355065E+02  0.28090536712E+04  0.28084707814E+04 0.  0.
        2    1    3    3  502    0  0.83164194707E+03  0.29197892707E+03  0.11219972476E+04  0.14267998618E+04  0.25500000920E-02 0. -1.
       -2    1    3    3    0  502 -0.83164194707E+03 -0.29197892707E+03 -0.10647748925E+04  0.13822538095E+04  0.25500000920E-02 0.  1.
</event>
<event>
 5   0  0.1474554E-05  0.2266285E+04  0.7818609E-02  0.8491334E-01
       -1   -1    0    0    0  501  0.00000000000E+00  0.00000000000E+00  0.11349266237E+04  0.11349266238E+04  0.50400001928E-02 0.  1.
        1   -1    0    0  501    0  0.00000000000E+00  0.00000000000E+00 -0.11313612154E+04  0.11313612154E+04  0.50400001928E-02 0. -1.
    10030    2    1    2    0    0  0.00000000000E+00  0.00000000000E+00  0.35654083256E+01  0.22662878392E+04  0.22662850346E+04 0.  0.
        5    1    3    3  502    0 -0.24663450972E+03  0.87194442956E+03 -0.67856672848E+03  0.11320735686E+04  0.46999998093E+01 0. -1.
       -5    1    3    3    0  502  0.24663450972E+03 -0.87194442956E+03  0.68213213681E+03  0.11342142706E+04  0.46999998093E+01 0.  1.
</event>
<event>
 5   0  0.3499642E-05  0.2636323E+04  0.7818609E-02  0.8355967E-01
       -2   -1    0    0    0  501  0.00000000000E+00  0.00000000000E+00  0.80832723882E+03  0.80832723882E+03  0.25500000920E-02 0. -1.
        2   -1    0    0  501    0  0.00000000000E+00  0.00000000000E+00 -0.21495618228E+04  0.21495618228E+04  0.25500000920E-02 0.  1.
    10030    2    1    2    0    0  0.00000000000E+00  0.00000000000E+00 -0.13412345840E+04  0.29578890616E+04  0.26363227214E+04 0.  0.
        2    1    3    3  502    0 -0.10292489132E+04 -0.72708204968E+03 -0.23673369019E+03  0.12822029763E+04  0.25500000920E-02 0. -1.
       -2    1    3    3    0  502  0.10292489132E+04  0.72708204968E+03 -0.11045008938E+04  0.16756860853E+04  0.25500000920E-02 0.  1.
</event>
<event>
 5   0  0.1474554E-05  0.2552804E+04  0.7818609E-02  0.8384412E-01
       -1   -1    0    0    0  501  0.00000000000E+00  0.00000000000E+00  0.15248285369E+04  0.15248285369E+04  0.50400001928E-02 0.  1.
        1   -1    0    0  501    0  0.00000000000E+00  0.00000000000E+00 -0.10684496778E+04  0.10684496778E+04  0.50400001928E-02 0. -1.
    10030    2    1    2    0    0  0.00000000000E+00  0.00000000000E+00  0.45637885908E+03  0.25932782147E+04  0.25528043865E+04 0.  0.
        5    1    3    3  502    0  0.32336684673E+03  0.30259788506E+03  0.14442692306E+04  0.15106512828E+04  0.46999998093E+01 0.  1.
       -5    1    3    3    0  502 -0.32336684673E+03 -0.30259788506E+03 -0.98789037154E+03  0.10826269320E+04  0.46999998093E+01 0. -1.
</event>
<event>
 5   0  0.1533248E-05  0.2548327E+04  0.7818609E-02  0.8385968E-01
        1   -1    0    0  501    0  0.00000000000E+00  0.00000000000E+00  0.11652807526E+04  0.11652807526E+04  0.50400001928E-02 0. -1.
       -1   -1    0    0    0  501  0.00000000000E+00  0.00000000000E+00 -0.13932196608E+04  0.13932196608E+04  0.50400001928E-02 0.  1.
    10030    2    1    2    0    0  0.00000000000E+00  0.00000000000E+00 -0.22793890821E+03  0.25585004135E+04  0.25483265528E+04 0.  0.
        4    1    3    3  502    0 -0.12135812013E+04  0.45486402441E+02 -0.50104998126E+03  0.13137355296E+04  0.12699999809E+01 0. -1.
       -4    1    3    3    0  502  0.12135812013E+04 -0.45486402441E+02  0.27311107305E+03  0.12447648839E+04  0.12699999809E+01 0.  1.
</event>
<event>
 5   0  0.1435062E-05  0.2625992E+04  0.7818609E-02  0.8359426E-01
       -1   -1    0    0    0  501  0.00000000000E+00  0.00000000000E+00  0.83609444316E+03  0.83609444318E+03  0.50400001928E-02 0. -1.
        1   -1    0    0  501    0  0.00000000000E+00  0.00000000000E+00 -0.20619178496E+04  0.20619178497E+04  0.50400001928E-02 0.  1.
    10030    2    1    2    0    0  0.00000000000E+00  0.00000000000E+00 -0.12258234065E+04  0.28980122928E+04  0.26259916652E+04 0.  0.
        2    1    3    3  502    0  0.29319719312E+03 -0.12503247928E+04 -0.31132441529E+03  0.13214384485E+04  0.25500000920E-02 0. -1.
       -2    1    3    3    0  502 -0.29319719312E+03  0.12503247928E+04 -0.91449899120E+03  0.15765738443E+04  0.25500000920E-02 0.  1.
</event>
<event>
 5   0  0.1533248E-05  0.2605602E+04  0.7818609E-02  0.8366301E-01
       -1   -1    0    0    0  501  0.00000000000E+00  0.00000000000E+00  0.65724323023E+03  0.65724323025E+03  0.50400001928E-02 0.  1.
        1   -1    0    0  501    0  0.00000000000E+00  0.00000000000E+00 -0.25824395533E+04  0.25824395533E+04  0.50400001928E-02 0. -1.
    10030    2    1    2    0    0  0.00000000000E+00  0.00000000000E+00 -0.19251963230E+04  0.32396827835E+04  0.26056023595E+04 0.  0.
        4    1    3    3  502    0 -0.11369440180E+04  0.61813952350E+03 -0.11493128603E+04  0.17307974562E+04  0.12699999809E+01 0. -1.
       -4    1    3    3    0  502  0.11369440180E+04 -0.61813952350E+03 -0.77588346272E+03  0.15088853274E+04  0.12699999809E+01 0.  1.
</event>
<event>
 5   0  0.3849687E-05  0.2613036E+04  0.7818609E-02  0.8363787E-01
       -2   -1    0    0    0  501  0.00000000000E+00  0.00000000000E+00  0.14514411970E+04  0.14514411970E+04  0.25500000920E-02 0.  1.
        2   -1    0    0  501    0  0.00000000000E+00  0.00000000000E+00 -0.11760651557E+04  0.11760651557E+04  0.25500000920E-02 0. -1.
    10030    2    1    2    0    0  0.00000000000E+00  0.00000000000E+00  0.27537604132E+03  0.26275063527E+04  0.26130361018E+04 0.  0.
        1    1    3    3  502    0 -0.69906829785E+03 -0.75777176607E+03  0.94467503497E+03  0.13983295235E+04  0.50400001928E-02 0.  1.
       -1    1    3    3    0  502  0.69906829785E+03  0.75777176607E+03 -0.66929899365E+03  0.12291768292E+04  0.50400001928E-02 0. -1.
</event>
<event>
 5   0  0.3441646E-05  0.2643459E+04  0.7818609E-02  0.8353587E-01
       -2   -1    0    0    0  501  0.00000000000E+00  0.00000000000E+00  0.72414936910E+03  0.72414936911E+03  0.25500000920E-02 0. -1.
        2   -1    0    0  501    0  0.00000000000E+00  0.00000000000E+00 -0.24124418350E+04  0.24124418350E+04  0.25500000920E-02 0.  1.
    10030    2    1    2    0    0  0.00000000000E+00  0.00000000000E+00 -0.16882924659E+04  0.31365912041E+04  0.26434585170E+04 0.  0.
        4    1    3    3  502    0 -0.60449061716E+03 -0.39634586996E+03 -0.21571291669E+04  0.22750179803E+04  0.12699999809E+01 0.  1.
       -4    1    3    3    0  502  0.60449061716E+03  0.39634586996E+03  0.46883670104E+03  0.86157322382E+03  0.12699999809E+01 0. -1.
</event>
<event>
 5   0  0.1497497E-05  0.2588313E+04  0.7818609E-02  0.8372182E-01
        1   -1    0    0  501    0  0.00000000000E+00  0.00000000000E+00  0.15353893544E+04  0.15353893544E+04  0.50400001928E-02 0. -1.
       -1   -1    0    0    0  501  0.00000000000E+00  0.00000000000E+00 -0.10908251883E+04  0.10908251883E+04  0.50400001928E-02 0.  1.
    10030    2    1    2    0    0  0.00000000000E+00  0.00000000000E+00  0.44456416612E+03  0.26262145427E+04  0.25883132590E+04 0.  0.
        3    1    3    3  502    0  0.40919389379E+03  0.31470314990E+03  0.14264048544E+04  0.15169405177E+04  0.10100000352E+00 0. -1.
       -3    1    3    3    0  502 -0.40919389379E+03 -0.31470314990E+03 -0.98184068828E+03  0.11092740250E+04  0.10100000352E+00 0.  1.
</event>
<event>
 5   0  0.3647623E-05  0.2603784E+04  0.7818609E-02  0.8366917E-01
        2   -1    0    0  501    0  0.00000000000E+00  0.00000000000E+00  0.19811253897E+04  0.19811253897E+04  0.25500000920E-02 0.  1.
       -2   -1    0    0    0  501  0.00000000000E+00  0.00000000000E+00 -0.85553510502E+03  0.85553510502E+03  0.25500000920E-02 0. -1.
    10030    2    1    2    0    0  0.00000000000E+00  0.00000000000E+00  0.11255902847E+04  0.28366604947E+04  0.26037836457E+04 0.  0.
        3    1    3    3  502    0 -0.46221482244E+03  0.40915602701E+03  0.18115547640E+04  0.19138395622E+04  0.10100000352E+00 0.  1.
       -3    1    3    3    0  502  0.46221482244E+03 -0.40915602701E+03 -0.68596447931E+03  0.92282093257E+03  0.10100000352E+00 0. -1.
</event>
<event>
 5   0  0.1497497E-05  0.2582046E+04  0.7818609E-02  0.8374325E-01
        1   -1    0    0  501    0  0.00000000000E+00  0.00000000000E+00  0.23092002820E+04  0.23092002820E+04  0.50400001928E-02 0. -1.
       -1   -1    0    0    0  501  0.00000000000E+00  0.00000000000E+00 -0.72178252538E+03  0.72178252540E+03  0.50400001928E-02 0.  1.
    10030    2    1    2    0    0  0.00000000000E+00  0.00000000000E+00  0.15874177567E+04  0.30309828074E+04  0.25820460191E+04 0.  0.
        3    1    3    3  502    0  0.53963912998E+03 -0.74055804684E+03  0.18612865943E+04  0.20746142792E+04  0.10100000352E+00 0. -1.
       -3    1    3    3    0  502 -0.53963912998E+03  0.74055804684E+03 -0.27386883761E+03  0.95636852822E+03  0.10100000352E+00 0.  1.
</event>
<event>
 5   0  0.1435062E-05  0.2706027E+04  0.7818609E-02  0.8333052E-01
       -1   -1    0    0    0  501  0.00000000000E+00  0.00000000000E+00  0.10195313933E+04  0.10195313933E+04  0.50400001928E-02 0.  1.
        1   -1    0    0  501    0  0.00000000000E+00  0.00000000000E+00 -0.17955748327E+04  0.17955748327E+04  0.50400001928E-02 0. -1.
    10030    2    1    2    0    0  0.00000000000E+00  0.00000000000E+00 -0.77604343935E+03  0.28151062260E+04  0.27060265416E+04 0.  0.
        2    1    3    3  502    0 -0.61532786930E+02  0.44440153043E+03  0.93989869548E+03  0.10414838270E+04  0.25500000920E-02 0.  1.
       -2    1    3    3    0  502  0.61532786930E+02 -0.44440153043E+03 -0.17159421348E+04  0.17736223990E+04  0.25500000920E-02 0. -1.
</event>
<event>
 5   0  0.3499642E-05  0.2543548E+04  0.7818609E-02  0.8387634E-01
        2   -1    0    0  501    0  0.00000000000E+00  0.00000000000E+00  0.19465443639E+04  0.19465443639E+04  0.25500000920E-02 0. -1.
       -2   -1    0    0    0  501  0.00000000000E+00  0.00000000000E+00 -0.83091303808E+03  0.83091303808E+03  0.25500000920E-02 0.  1.
    10030    2    1    2    0    0  0.00000000000E+00  0.00000000000E+00  0.11156313258E+04  0.27774574020E+04  0.25435479875E+04 0.  0.
        2    1    3    3  502    0  0.54012901387E+03  0.10988214527E+04  0.18229959139E+03  0.12378938070E+04  0.25500000920E-02 0. -1.
       -2    1    3    3    0  502 -0.54012901387E+03 -0.10988214527E+04  0.93333173445E+03  0.15395635950E+04  0.25500000920E-02 0.  1.
</event>
<event>
 5   0  0.1217200E-05  0.1634335E+04  0.7818609E-02  0.8799728E-01
       -3   -1    0    0    0  501  0.00000000000E+00  0.00000000000E+00  0.97498554479E+03  0.97498555002E+03  0.10100000352E+00 0.  1.
        3   -1    0    0  501    0  0.00000000000E+00  0.00000000000E+00 -0.68489535873E+03  0.68489536618E+03  0.10100000352E+00 0. -1.
    10030    2    1    2    0    0  0.00000000000E+00  0.00000000000E+00  0.29009018606E+03  0.16598809162E+04  0.16343354429E+04 0.  0.
        2    1    3    3  502    0 -0.50960055411E+03 -0.17519219721E+03 -0.47886793344E+03  0.72090188541E+03  0.25500000920E-02 0. -1.
       -2    1    3    3    0  502  0.50960055411E+03  0.17519219721E+03  0.76895811949E+03  0.93897903078E+03  0.25500000920E-02 0.  1.
</event>
<event>
 5   0  0.1451052E-05  0.2483009E+04  0.7818609E-02  0.8409064E-01
        1   -1    0    0  501    0  0.00000000000E+00  0.00000000000E+00  0.12450726773E+04  0.12450726773E+04  0.50400001928E-02 0. -1.
       -1   -1    0    0    0  501  0.00000000000E+00  0.00000000000E+00 -0.12379464575E+04  0.12379464575E+04  0.50400001928E-02 0.  1.
    10030    2    1    2    0    0  0.00000000000E+00  0.00000000000E+00  0.71262198210E+01  0.24830191349E+04  0.24830089088E+04 0.  0.
        1    1    3    3  502    0 -0.67322673184E+03 -0.68216108076E+03  0.79271484895E+03  0.12437744186E+04  0.50400001928E-02 0. -1.
       -1    1    3    3    0  502  0.67322673184E+03  0.68216108076E+03 -0.78558862913E+03  0.12392447163E+04  0.50400001928E-02 0.  1.
</event>
<event>
 5   0  0.3441646E-05  0.2342253E+04  0.7818609E-02  0.8461445E-01
       -2   -1    0    0    0  501  0.00000000000E+00  0.00000000000E+00  0.62573522652E+03  0.62573522653E+03  0.25500000920E-02 0.  1.
        2   -1    0    0  501    0  0.00000000000E+00  0.00000000000E+00 -0.21918806342E+04  0.21918806342E+04  0.25500000920E-02 0. -1.
    10030    2    1    2    0    0  0.00000000000E+00  0.00000000000E+00 -0.15661454076E+04  0.28176158607E+04  0.23422526978E+04 0.  0.
        4    1    3    3  502    0 -0.52616884918E+03 -0.10279263728E+04 -0.54842310802E+03  0.12783801485E+04  0.12699999809E+01 0.  1.
       -4    1    3    3    0  502  0.52616884918E+03  0.10279263728E+04 -0.10177222996E+04  0.15392357122E+04  0.12699999809E+01 0. -1.
</event>
<event>
 5   0  0.1451052E-05  0.2580781E+04  0.7818609E-02  0.8374759E-01
       -1   -1    0    0    0  501  0.00000000000E+00  0.00000000000E+00  0.14943007670E+04  0.14943007670E+04  0.50400001928E-02 0.  1.
        1   -1    0    0  501    0  0.00000000000E+00  0.00000000000E+00 -0.11143058763E+04  0.11143058763E+04  0.50400001928E-02 0. -1.
    10030    2    1    2    0    0  0.00000000000E+00  0.00000000000E+00  0.37999489070E+03  0.26086066432E+04  0.25807813743E+04 0.  0.
        1    1    3    3  502    0 -0.58323319094E+03 -0.28435462145E+03 -0.93741600941E+03  0.11400733663E+04  0.50400001928E-02 0. -1.
       -1    1    3    3    0  502  0.58323319094E+03  0.28435462145E+03  0.13174109001E+04  0.14685332769E+04  0.50400001928E-02 0.  1.
</event>
<event>
 5   0  0.3441646E-05  0.2814563E+04  0.7818609E-02  0.8298761E-01
        2   -1    0    0  501    0  0.00000000000E+00  0.00000000000E+00  0.22927672921E+04  0.22927672921E+04  0.25500000920E-02 0. -1.
       -2   -1    0    0    0  501  0.00000000000E+00  0.00000000000E+00 -0.86377748051E+03  0.86377748051E+03  0.25500000920E-02 0.  1.
    10030    2    1    2    0    0  0.00000000000E+00  0.00000000000E+00  0.14289898116E+04  0.31565447726E+04  0.28145626694E+04 0.  0.
        4    1    3    3  502    0  0.11252443275E+04  0.21196988938E+03 -0.20303913472E+03  0.11628983333E+04  0.12699999809E+01 0.  1.
       -4    1    3    3    0  502 -0.11252443275E+04 -0.21196988938E+03  0.16320289463E+04  0.19936464393E+04  0.12699999809E+01 0. -1.
</event>
<event>
 5   0  0.3508470E-05  0.2599420E+04  0.7818609E-02  0.8368398E-01
       -2   -1    0    0    0  501  0.00000000000E+00  0.00000000000E+00  0.87960427299E+03  0.87960427299E+03  0.25500000920E-02 0. -1.
        2   -1    0    0  501    0  0.00000000000E+00  0.00000000000E+00 -0.19204621357E+04  0.19204621357E+04  0.25500000920E-02 0.  1.
    10030    2    1    2    0    0  0.00000000000E+00  0.00000000000E+00 -0.10408578627E+04  0.28000664087E+04  0.25994204744E+04 0.  0.
        5    1    3    3  502    0 -0.37711232953E+03 -0.48440906630E+03  0.71357937533E+03  0.94132006645E+03  0.46999998093E+01 0. -1.
       -5    1    3    3    0  502  0.37711232953E+03  0.48440906630E+03 -0.17544372381E+04  0.18587463423E+04  0.46999998093E+01 0.  1.
</event>
<event>
 5   0  0.1533248E-05  0.2396916E+04  0.7818609E-02  0.8440659E-01
       -1   -1    0    0    0  501  0.00000000000E+00  0.00000000000E+00  0.78570497376E+03  0.78570497378E+03  0.50400001928E-02 0. -1.
        1   -1    0    0  501    0  0.00000000000E+00  0.00000000000E+00 -0.18280417068E+04  0.18280417068E+04  0.50400001928E-02 0.  1.
    10030    2    1    2    0    0  0.00000000000E+00  0.00000000000E+00 -0.10423367330E+04  0.26137466806E+04  0.23969159028E+04 0.  0.
        4    1    3    3  502    0 -0.44884819165E+03 -0.72757914153E+03 -0.14370683397E+04  0.16721253339E+04  0.12699999809E+01 0.  1.
       -4    1    3    3    0  502  0.44884819165E+03  0.72757914153E+03  0.39473160668E+03  0.94162134669E+03  0.12699999809E+01 0. -1.
</event>
<event>
 5   0  0.3508470E-05  0.2607430E+04  0.7818609E-02  0.8365682E-01
       -2   -1    0    0    0  501  0.00000000000E+00  0.00000000000E+00  0.81067776658E+03  0.81067776658E+03  0.25500000920E-02 0.  1.
        2   -1    0    0  501    0  0.00000000000E+00  0.00000000000E+00 -0.20966076985E+04  0.20966076985E+04  0.25500000920E-02 0. -1.
    10030    2    1    2    0    0  0.00000000000E+00  0.00000000000E+00 -0.12859299319E+04  0.29072854650E+04  0.26074303415E+04 0.  0.
        5    1    3    3  502    0  0.40404816046E+03 -0.43512908035E+03  0.65113629029E+03  0.88124502329E+03  0.46999998093E+01 0.  1.
       -5    1    3    3    0  502 -0.40404816046E+03  0.43512908035E+03 -0.19370662222E+04  0.20260404418E+04  0.46999998093E+01 0. -1.
</event>
<event>
 5   0  0.1435062E-05  0.2594531E+04  0.7818609E-02  0.8370061E-01
        1   -1    0    0  501    0  0.00000000000E+00  0.00000000000E+00  0.93899366682E+03  0.93899366684E+03  0.50400001928E-02 0.  1.
       -1   -1    0    0    0  501  0.00000000000E+00  0.00000000000E+00 -0.17922359487E+04  0.17922359487E+04  0.50400001928E-02 0. -1.
    10030    2    1    2    0    0  0.00000000000E+00  0.00000000000E+00 -0.85324228189E+03  0.27312296156E+04  0.25945313298E+04 0.  0.
        2    1    3    3  502    0 -0.87385855569E+03  0.23437223901E+03  0.55206033740E+03  0.10598725102E+04  0.25500000920E-02 0.  1.
       -2    1    3    3    0  502  0.87385855569E+03 -0.23437223901E+03 -0.14053026193E+04  0.16713571053E+04  0.25500000920E-02 0. -1.
</event>
<event>
 5   0  0.3499642E-05  0.2557405E+04  0.7818609E-02  0.8382815E-01
       -2   -1    0    0    0  501  0.00000000000E+00  0.00000000000E+00  0.97154355099E+03  0.97154355099E+03  0.25500000920E-02 0. -1.
        2   -1    0    0  501    0  0.00000000000E+00  0.00000000000E+00 -0.16829719911E+04  0.16829719911E+04  0.25500000920E-02 0.  1.
    10030    2    1    2    0    0  0.00000000000E+00  0.00000000000E+00 -0.71142844009E+03  0.26545155421E+04  0.25574053917E+04 0.  0.
        2    1    3    3  502    0 -0.62751652662E+02 -0.12270580645E+04 -0.72338399638E+03  0.14257958023E+04  0.25500000920E-02 0.  1.
       -2    1    3    3    0  502  0.62751652662E+02  0.12270580645E+04  0.11955556298E+02  0.12287197398E+04  0.25500000920E-02 0. -1.
</event>
<event>
 5   0  0.1474554E-05  0.2636092E+04  0.7818609E-02  0.8356044E-01
        1   -1    0    0  501    0  0.00000000000E+00  0.00000000000E+00  0.18585027859E+04  0.18585027859E+04  0.50400001928E-02 0. -1.
       -1   -1    0    0    0  501  0.00000000000E+00  0.00000000000E+00 -0.93475519746E+03  0.93475519748E+03  0.50400001928E-02 0.  1.
    10030    2    1    2    0    0  0.00000000000E+00  0.00000000000E+00  0.92374758840E+03  0.27932579834E+04  0.26360919093E+04 0.  0.
        5    1    3    3  502    0 -0.27108056169E+03 -0.10567369244E+04  0.12455960967E+04  0.16558107755E+04  0.46999998093E+01 0. -1.
       -5    1    3    3    0  502  0.27108056169E+03  0.10567369244E+04 -0.32184850833E+03  0.11374472078E+04  0.46999998093E+01 0.  1.
</event>
</LesHouchesEvents>
