<LesHouchesEvents version="3.0">
<header>
<!--
#*********************************************************************
#                                                                    *
#                        MadGraph5_aMC@NLO                           *
#                                                                    *
#                           Going Beyond                             *
#                                                                    *
#                   http://madgraph.hep.uiuc.edu                     *
#                   http://madgraph.phys.ucl.ac.be                   *
#                   http://amcatnlo.cern.ch                          *
#                                                                    *
#                     The MadGraph5_aMC@NLO team                     *
#                                                                    *
#....................................................................*
#                                                                    *
# This file contains all the information necessary to reproduce      *
# the events generated:                                              *
#                                                                    *
# 1. software version                                                *
# 2. proc_card          : code generation info including model       *
# 3. param_card         : model primary parameters in the LH format  *
# 4. run_card           : running parameters (collider and cuts)     *
# 5. pythia_card        : present only if pythia has been run        *
# 6. pgs_card           : present only if pgs has been run           *
# 7. delphes_cards      : present only if delphes has been run       *
#                                                                    *
#                                                                    *
#*********************************************************************
-->
<MGVersion>
#5.2.2.3
</MGVersion>
<MG5ProcCard>
#************************************************************
#*                     MadGraph5_aMC@NLO                    *
#*                                                          *
#*                *                       *                 *
#*                  *        * *        *                   *
#*                    * * * * 5 * * * *                     *
#*                  *        * *        *                   *
#*                *                       *                 *
#*                                                          *
#*                                                          *
#*         VERSION 2.2.3                 2015-02-10         *
#*                                                          *
#*    The MadGraph5_aMC@NLO Development Team - Find us at   *
#*    https://server06.fynu.ucl.ac.be/projects/madgraph     *
#*                                                          *
#************************************************************
#*                                                          *
#*               Command File for MadGraph5_aMC@NLO         *
#*                                                          *
#*     run as ./bin/mg5_aMC  filename                       *
#*                                                          *
#************************************************************
set group_subprocesses Auto
set ignore_six_quark_processes False
set loop_optimized_output True
set gauge unitary
set complex_mass_scheme False
import model sm
define p = g u c d s u~ c~ d~ s~
define j = g u c d s u~ c~ d~ s~
define l+ = e+ mu+
define l- = e- mu-
define vl = ve vm vt
define vl~ = ve~ vm~ vt~
import model Zprime_UFO
generate p p > zph, zph > j j
add process p p > zph, zph > b b~
output Dijet_signal
</MG5ProcCard>
<MGProcCard>
#*********************************************************************
#                        MadGraph/MadEvent                           *
#                   http://madgraph.hep.uiuc.edu                     *
#                                                                    *
#                          proc_card.dat                             *
#*********************************************************************
#                                                                    *
#            This Files is generated by MADGRAPH 5                   *
#                                                                    *
# WARNING: This Files is generated for MADEVENT (compatibility issue)*
#          This files is NOT a valid MG4 proc_card.dat               *
#          Running this in MG4 will NEVER reproduce the result of MG5*
#                                                                    *
#*********************************************************************
#*********************************************************************
# Process(es) requested : mg2 input                                  *
#*********************************************************************
# Begin PROCESS # This is TAG. Do not modify this line
p p > zph , zph > j j           #Process
# Be carefull the coupling are here in MG5 convention
          
end_coup           # End the couplings input

done               # this tells MG there are no more procs
# End PROCESS  # This is TAG. Do not modify this line
#*********************************************************************
# Model information                                                  *
#*********************************************************************
# Begin MODEL  # This is TAG. Do not modify this line
Zprime_UFO
# End   MODEL  # This is TAG. Do not modify this line
#*********************************************************************
# Start multiparticle definitions                                    *
#*********************************************************************
# Begin MULTIPARTICLES # This is TAG. Do not modify this line

# End  MULTIPARTICLES # This is TAG. Do not modify this line
</MGProcCard>
<MGRunCard>
#*********************************************************************
#                       MadGraph5_aMC@NLO                            *
#                                                                    *
#                     run_card.dat MadEvent                          *
#                                                                    *
#  This file is used to set the parameters of the run.               *
#                                                                    *
#  Some notation/conventions:                                        *
#                                                                    *
#   Lines starting with a '# ' are info or comments                  *
#                                                                    *
#   mind the format:   value    = variable     ! comment             *
#*********************************************************************
#
#*******************                                                 
# Running parameters
#*******************                                                 
#                                                                    
#*********************************************************************
# Tag name for the run (one word)                                    *
#*********************************************************************
  tag_1     = run_tag ! name of the run 
#*********************************************************************
# Run to generate the grid pack                                      *
#*********************************************************************
  .false.     = gridpack  !True = setting up the grid pack
#*********************************************************************
# Number of events and rnd seed                                      *
# Warning: Do not generate more than 1M events in a single run       *
# If you want to run Pythia, avoid more than 50k events in a run.    *
#*********************************************************************
  2000 = nevents ! Number of unweighted events requested 
 1776 = iseed   ! rnd seed (0=assigned automatically=default))
#*********************************************************************
# Collider type and energy                                           *
# lpp: 0=No PDF, 1=proton, -1=antiproton, 2=photon from proton,      *
#                                         3=photon from electron     *
#*********************************************************************
        1     = lpp1    ! beam 1 type 
        1     = lpp2    ! beam 2 type
     4000     = ebeam1  ! beam 1 total energy in GeV
     4000     = ebeam2  ! beam 2 total energy in GeV
#*********************************************************************
# Beam polarization from -100 (left-handed) to 100 (right-handed)    *
#*********************************************************************
        0     = polbeam1 ! beam polarization for beam 1
        0     = polbeam2 ! beam polarization for beam 2
#*********************************************************************
# PDF CHOICE: this automatically fixes also alpha_s and its evol.    *
#*********************************************************************
 'nn23lo1'    = pdlabel     ! PDF set                                     
 230000    = lhaid     ! if pdlabel=lhapdf, this is the lhapdf number
#*********************************************************************
# Renormalization and factorization scales                           *
#*********************************************************************
 F        = fixed_ren_scale  ! if .true. use fixed ren scale
 F        = fixed_fac_scale  ! if .true. use fixed fac scale
 91.1880  = scale            ! fixed ren scale
 91.1880  = dsqrt_q2fact1    ! fixed fact scale for pdf1
 91.1880  = dsqrt_q2fact2    ! fixed fact scale for pdf2
 1        = scalefact        ! scale factor for event-by-event scales
#*********************************************************************
# Matching - Warning! ickkw > 1 is still beta
#*********************************************************************
 0        = ickkw            ! 0 no matching, 1 MLM, 2 CKKW matching
 1        = highestmult      ! for ickkw=2, highest mult group
 1        = ktscheme         ! for ickkw=1, 1 Durham kT, 2 Pythia pTE
 1        = alpsfact         ! scale factor for QCD emission vx
 F        = chcluster        ! cluster only according to channel diag
 T        = pdfwgt           ! for ickkw=1, perform pdf reweighting
 5        = asrwgtflavor     ! highest quark flavor for a_s reweight
 T        = clusinfo         ! include clustering tag in output
 3.0      = lhe_version       ! Change the way clustering information pass to shower.        
#*********************************************************************
#**********************************************************
#
#**********************************************************
# Automatic ptj and mjj cuts if xqcut > 0
# (turn off for VBF and single top processes)
#**********************************************************
   T  = auto_ptj_mjj  ! Automatic setting of ptj and mjj
#**********************************************************
#                                                                    
#**********************************
# BW cutoff (M+/-bwcutoff*Gamma)
#**********************************
  15  = bwcutoff      ! (M+/-bwcutoff*Gamma)
#**********************************************************
# Apply pt/E/eta/dr/mij cuts on decay products or not
# (note that etmiss/ptll/ptheavy/ht/sorted cuts always apply)
#**********************************************************
   T  = cut_decays    ! Cut decay products 
#*************************************************************
# Number of helicities to sum per event (0 = all helicities)
# 0 gives more stable result, but longer run time (needed for
# long decay chains e.g.).
# Use >=2 if most helicities contribute, e.g. pure QCD.
#*************************************************************
   0  = nhel          ! Number of helicities used per event
#*******************                                                 
# Standard Cuts
#*******************                                                 
#                                                                    
#*********************************************************************
# Minimum and maximum pt's (for max, -1 means no cut)                *
#*********************************************************************
 20  = ptj       ! minimum pt for the jets 
  0  = ptb       ! minimum pt for the b 
 10  = pta       ! minimum pt for the photons 
 10  = ptl       ! minimum pt for the charged leptons 
  0  = misset    ! minimum missing Et (sum of neutrino's momenta)
  0  = ptheavy   ! minimum pt for one heavy final state
 1.0 = ptonium   ! minimum pt for the quarkonium states
 -1  = ptjmax    ! maximum pt for the jets
 -1  = ptbmax    ! maximum pt for the b
 -1  = ptamax    ! maximum pt for the photons
 -1  = ptlmax    ! maximum pt for the charged leptons
 -1  = missetmax ! maximum missing Et (sum of neutrino's momenta)
#*********************************************************************
# Minimum and maximum E's (in the center of mass frame)              *
#*********************************************************************
  0  = ej     ! minimum E for the jets 
  0  = eb     ! minimum E for the b 
  0  = ea     ! minimum E for the photons 
  0  = el     ! minimum E for the charged leptons 
 -1   = ejmax ! maximum E for the jets
 -1   = ebmax ! maximum E for the b
 -1   = eamax ! maximum E for the photons
 -1   = elmax ! maximum E for the charged leptons
#*********************************************************************
# Maximum and minimum absolute rapidity (for max, -1 means no cut)   *
#*********************************************************************
   5  = etaj    ! max rap for the jets 
  -1  = etab    ! max rap for the b
 2.5  = etaa    ! max rap for the photons 
 2.5  = etal    ! max rap for the charged leptons 
 0.6  = etaonium ! max rap for the quarkonium states
   0  = etajmin ! min rap for the jets
   0  = etabmin ! min rap for the b
   0  = etaamin ! min rap for the photons
   0  = etalmin ! main rap for the charged leptons
#*********************************************************************
# Minimum and maximum DeltaR distance                                *
#*********************************************************************
 0.4 = drjj    ! min distance between jets 
 0   = drbb    ! min distance between b's 
 0.4 = drll    ! min distance between leptons 
 0.4 = draa    ! min distance between gammas 
 0   = drbj    ! min distance between b and jet 
 0.4 = draj    ! min distance between gamma and jet 
 0.4 = drjl    ! min distance between jet and lepton 
 0   = drab    ! min distance between gamma and b 
 0   = drbl    ! min distance between b and lepton 
 0.4 = dral    ! min distance between gamma and lepton 
 -1  = drjjmax ! max distance between jets
 -1  = drbbmax ! max distance between b's
 -1  = drllmax ! max distance between leptons
 -1  = draamax ! max distance between gammas
 -1  = drbjmax ! max distance between b and jet
 -1  = drajmax ! max distance between gamma and jet
 -1  = drjlmax ! max distance between jet and lepton
 -1  = drabmax ! max distance between gamma and b
 -1  = drblmax ! max distance between b and lepton
 -1  = dralmax ! maxdistance between gamma and lepton
#*********************************************************************
# Minimum and maximum invariant mass for pairs                       *
# WARNING: for four lepton final state mmll cut require to have      *
#          different lepton masses for each flavor!                  *           
#*********************************************************************
 0   = mmjj    ! min invariant mass of a jet pair 
 0   = mmbb    ! min invariant mass of a b pair 
 0   = mmaa    ! min invariant mass of gamma gamma pair
 0   = mmll    ! min invariant mass of l+l- (same flavour) lepton pair
 -1  = mmjjmax ! max invariant mass of a jet pair
 -1  = mmbbmax ! max invariant mass of a b pair
 -1  = mmaamax ! max invariant mass of gamma gamma pair
 -1  = mmllmax ! max invariant mass of l+l- (same flavour) lepton pair
#*********************************************************************
# Minimum and maximum invariant mass for all letpons                 *
#*********************************************************************
 0   = mmnl    ! min invariant mass for all letpons (l+- and vl) 
 -1  = mmnlmax ! max invariant mass for all letpons (l+- and vl) 
#*********************************************************************
# Minimum and maximum pt for 4-momenta sum of leptons                *
#*********************************************************************
 0   = ptllmin  ! Minimum pt for 4-momenta sum of leptons(l and vl)
 -1  = ptllmax  ! Maximum pt for 4-momenta sum of leptons(l and vl)
#*********************************************************************
# Inclusive cuts                                                     *
#*********************************************************************
 0  = xptj ! minimum pt for at least one jet  
 0  = xptb ! minimum pt for at least one b 
 0  = xpta ! minimum pt for at least one photon 
 0  = xptl ! minimum pt for at least one charged lepton 
#*********************************************************************
# Control the pt's of the jets sorted by pt                          *
#*********************************************************************
 0   = ptj1min ! minimum pt for the leading jet in pt
 0   = ptj2min ! minimum pt for the second jet in pt
 0   = ptj3min ! minimum pt for the third jet in pt
 0   = ptj4min ! minimum pt for the fourth jet in pt
 -1  = ptj1max ! maximum pt for the leading jet in pt 
 -1  = ptj2max ! maximum pt for the second jet in pt
 -1  = ptj3max ! maximum pt for the third jet in pt
 -1  = ptj4max ! maximum pt for the fourth jet in pt
 0   = cutuse  ! reject event if fails any (0) / all (1) jet pt cuts
#*********************************************************************
# Control the pt's of leptons sorted by pt                           *
#*********************************************************************
 0   = ptl1min ! minimum pt for the leading lepton in pt
 0   = ptl2min ! minimum pt for the second lepton in pt
 0   = ptl3min ! minimum pt for the third lepton in pt
 0   = ptl4min ! minimum pt for the fourth lepton in pt
 -1  = ptl1max ! maximum pt for the leading lepton in pt 
 -1  = ptl2max ! maximum pt for the second lepton in pt
 -1  = ptl3max ! maximum pt for the third lepton in pt
 -1  = ptl4max ! maximum pt for the fourth lepton in pt
#*********************************************************************
# Control the Ht(k)=Sum of k leading jets                            *
#*********************************************************************
 0   = htjmin ! minimum jet HT=Sum(jet pt)
 -1  = htjmax ! maximum jet HT=Sum(jet pt)
 0   = ihtmin  !inclusive Ht for all partons (including b)
 -1  = ihtmax  !inclusive Ht for all partons (including b)
 0   = ht2min ! minimum Ht for the two leading jets
 0   = ht3min ! minimum Ht for the three leading jets
 0   = ht4min ! minimum Ht for the four leading jets
 -1  = ht2max ! maximum Ht for the two leading jets
 -1  = ht3max ! maximum Ht for the three leading jets
 -1  = ht4max ! maximum Ht for the four leading jets
#***********************************************************************
# Photon-isolation cuts, according to hep-ph/9801442                   *
# When ptgmin=0, all the other parameters are ignored                  *
# When ptgmin>0, pta and draj are not going to be used                 *
#***********************************************************************
   0 = ptgmin ! Min photon transverse momentum
 0.4 = R0gamma ! Radius of isolation code
 1.0 = xn ! n parameter of eq.(3.4) in hep-ph/9801442
 1.0 = epsgamma ! epsilon_gamma parameter of eq.(3.4) in hep-ph/9801442
 .true. = isoEM ! isolate photons from EM energy (photons and leptons)
#*********************************************************************
# WBF cuts                                                           *
#*********************************************************************
 0   = xetamin ! minimum rapidity for two jets in the WBF case  
 0   = deltaeta ! minimum rapidity for two jets in the WBF case 
#*********************************************************************
# KT DURHAM CUT                                                      *
#*********************************************************************
 -1    =  ktdurham        
 0.4  =  dparameter 
#*********************************************************************
# maximal pdg code for quark to be considered as a light jet         *
# (otherwise b cuts are applied)                                     *
#*********************************************************************
 4 = maxjetflavor    ! Maximum jet pdg code
#*********************************************************************
# Jet measure cuts                                                   *
#*********************************************************************
 0   = xqcut   ! minimum kt jet measure between partons
#*********************************************************************
#
#*********************************************************************
# Store info for systematics studies                                 *
# WARNING: If use_syst is T, matched Pythia output is                *
#          meaningful ONLY if plotted taking matchscale              *
#          reweighting into account!                                 *
#*********************************************************************
   F  = use_syst      ! Enable systematics studies
#
#**************************************
# Parameter of the systematics study
#  will be used by SysCalc (if installed)
#**************************************                                  
#
0.5 1 2 = sys_scalefact  # factorization/renormalization scale factor
0.5 1 2 = sys_alpsfact  # \alpha_s emission scale factors
30 50 = sys_matchscale # variation of merging scale
# PDF sets and number of members (0 or none for all members).
CT10nlo.LHgrid = sys_pdf # matching scales
# MSTW2008nlo68cl.LHgrid 1  = sys_pdf
</MGRunCard>
<slha>
######################################################################
## PARAM_CARD AUTOMATICALY GENERATED BY MG5 FOLLOWING UFO MODEL   ####
######################################################################
##                                                                  ##
##  Width set on Auto will be computed following the information    ##
##        present in the decay.py files of the model.               ##
##        See  arXiv:1402.1178 for more details.                    ##
##                                                                  ##
######################################################################

###################################
## INFORMATION FOR CKMBLOCK
###################################
Block ckmblock 
    1 2.277360e-01 # cabi 

###################################
## INFORMATION FOR FRBLOCK
###################################
Block frblock 
    1 8.000000e-01 # gz 

###################################
## INFORMATION FOR MASS
###################################
Block mass 
    1 5.040000e-03 # MD 
    2 2.550000e-03 # MU 
    3 1.010000e-01 # MS 
    4 1.270000e+00 # MC 
    5 4.700000e+00 # MB 
    6 1.720000e+02 # MT 
   11 5.110000e-04 # Me 
   13 1.056600e-01 # MM 
   15 1.777000e+00 # MTA 
   23 9.118760e+01 # MZ 
   25 1.200000e+02 # MH 
  10030 3.900000e+03 # MZph 
  10031 3.000000e+02 # MZpl 
## Dependent parameters, given by model restrictions.
## Those values should be edited following the 
## analytical expression. MG5 ignores those values 
## but they are important for interfacing the output of MG5
## to external program such as Pythia.
  12 0.000000 # ve : 0.0 
  14 0.000000 # vm : 0.0 
  16 0.000000 # vt : 0.0 
  21 0.000000 # g : 0.0 
  22 0.000000 # a : 0.0 
  24 79.824360 # w+ : cmath.sqrt(MZ__exp__2/2. + cmath.sqrt(MZ__exp__4/4. - (aEW*cmath.pi*MZ__exp__2)/(Gf*sqrt__2))) 

###################################
## INFORMATION FOR SMINPUTS
###################################
Block sminputs 
    1 1.279000e+02 # aEWM1 
    2 1.166370e-05 # Gf 
    3 1.184000e-01 # aS 

###################################
## INFORMATION FOR YUKAWA
###################################
Block yukawa 
    1 5.040000e-03 # ymdo 
    2 2.550000e-03 # ymup 
    3 1.010000e-01 # yms 
    4 1.270000e+00 # ymc 
    5 4.700000e+00 # ymb 
    6 1.720000e+02 # ymt 
   11 5.110000e-04 # yme 
   13 1.056600e-01 # ymm 
   15 1.777000e+00 # ymtau 

###################################
## INFORMATION FOR DECAY
###################################
DECAY   6 1.508336e+00 # WT 
DECAY  23 2.495200e+00 # WZ 
DECAY  24 2.085000e+00 # WW 
DECAY  25 5.753088e-03 # WH 
## Dependent parameters, given by model restrictions.
## Those values should be edited following the 
## analytical expression. MG5 ignores those values 
## but they are important for interfacing the output of MG5
## to external program such as Pythia.
DECAY  1 0.000000 # d : 0.0 
DECAY  2 0.000000 # u : 0.0 
DECAY  3 0.000000 # s : 0.0 
DECAY  4 0.000000 # c : 0.0 
DECAY  5 0.000000 # b : 0.0 
DECAY  11 0.000000 # e- : 0.0 
DECAY  12 0.000000 # ve : 0.0 
DECAY  13 0.000000 # mu- : 0.0 
DECAY  14 0.000000 # vm : 0.0 
DECAY  15 0.000000 # ta- : 0.0 
DECAY  16 0.000000 # vt : 0.0 
DECAY  21 0.000000 # g : 0.0 
DECAY  22 0.000000 # a : 0.0 
DECAY  10030 0.308725 # zph : (gz__exp__2*MZph*(5 + cmath.sqrt(1 - (4*MT__exp__2)/MZph__exp__2)))/(144.*cmath.pi) 
DECAY  10031 0.132629 # zpl : (5*gz__exp__2*MZpl)/(144.*cmath.pi) 
#===========================================================
# QUANTUM NUMBERS OF NEW STATE(S) (NON SM PDG CODE)
#===========================================================

Block QNUMBERS 10030  # zph 
        1 0  # 3 times electric charge
        2 3  # number of spin states (2S+1)
        3 1  # colour rep (1: singlet, 3: triplet, 8: octet)
        4 0  # Particle/Antiparticle distinction (0=own anti)
Block QNUMBERS 10031  # zpl 
        1 0  # 3 times electric charge
        2 3  # number of spin states (2S+1)
        3 1  # colour rep (1: singlet, 3: triplet, 8: octet)
        4 0  # Particle/Antiparticle distinction (0=own anti)
</slha>
## END BANNER##
<MGGenerationInfo>
#  Number of Events        :         3816
#  Integrated weight (pb)  :  0.38001E-04
#  Max wgt                 :  0.15468E-07
#  Average wgt             :  0.99583E-08
</MGGenerationInfo>
</header>
<init>
     2212     2212  0.40000000000E+04  0.40000000000E+04 0 0  247000  247000 2   1
  0.38023279798E-04  0.72504484112E-07  0.15468460000E-07   0
</init>
<event>
 5   0  0.1538018E-07  0.3908547E+04  0.7818609E-02  0.8023254E-01
       -2   -1    0    0    0  501  0.00000000000E+00  0.00000000000E+00  0.17269515313E+04  0.17269515313E+04  0.25500000920E-02 0.  1.
        2   -1    0    0  501    0  0.00000000000E+00  0.00000000000E+00 -0.22115180773E+04  0.22115180773E+04  0.25500000920E-02 0. -1.
    10030    2    1    2    0    0  0.00000000000E+00  0.00000000000E+00 -0.48456654598E+03  0.39384696086E+04  0.39085468042E+04 0.  0.
        1    1    3    3  502    0  0.84466264190E+03  0.31869327345E+01  0.15335136075E+04  0.17507510159E+04  0.50400001928E-02 0.  1.
       -1    1    3    3    0  502 -0.84466264190E+03 -0.31869327345E+01 -0.20180801535E+04  0.21877185927E+04  0.50400001928E-02 0. -1.
</event>
<event>
 5   0  0.1538018E-07  0.3907354E+04  0.7818609E-02  0.8023501E-01
        2   -1    0    0  501    0  0.00000000000E+00  0.00000000000E+00  0.24423209610E+04  0.24423209610E+04  0.25500000920E-02 0.  1.
       -2   -1    0    0    0  501  0.00000000000E+00  0.00000000000E+00 -0.15627977465E+04  0.15627977465E+04  0.25500000920E-02 0. -1.
    10030    2    1    2    0    0  0.00000000000E+00  0.00000000000E+00  0.87952321451E+03  0.40051187075E+04  0.39073539354E+04 0.  0.
        1    1    3    3  502    0  0.38083811197E+03 -0.97486891071E+03  0.21307185595E+04  0.23738931400E+04  0.50400001928E-02 0.  1.
       -1    1    3    3    0  502 -0.38083811197E+03  0.97486891071E+03 -0.12511953450E+04  0.16312255674E+04  0.50400001928E-02 0. -1.
</event>
<event>
 5   0  0.1503228E-07  0.3851088E+04  0.7818609E-02  0.8035279E-01
       -2   -1    0    0    0  501  0.00000000000E+00  0.00000000000E+00  0.20387927199E+04  0.20387927199E+04  0.25500000920E-02 0.  1.
        2   -1    0    0  501    0  0.00000000000E+00  0.00000000000E+00 -0.18185861694E+04  0.18185861694E+04  0.25500000920E-02 0. -1.
    10030    2    1    2    0    0  0.00000000000E+00  0.00000000000E+00  0.22020655050E+03  0.38573788892E+04  0.38510882839E+04 0.  0.
        3    1    3    3  502    0 -0.13787309023E+04 -0.13405996919E+04  0.11893139900E+02  0.19230829134E+04  0.10100000352E+00 0. -1.
       -3    1    3    3    0  502  0.13787309023E+04  0.13405996919E+04  0.20831341060E+03  0.19342959758E+04  0.10100000352E+00 0.  1.
</event>
<event>
 5   0  0.1538018E-07  0.3882848E+04  0.7818609E-02  0.8028606E-01
       -2   -1    0    0    0  501  0.00000000000E+00  0.00000000000E+00  0.30394355454E+04  0.30394355454E+04  0.25500000920E-02 0. -1.
        2   -1    0    0  501    0  0.00000000000E+00  0.00000000000E+00 -0.12400748088E+04  0.12400748088E+04  0.25500000920E-02 0.  1.
    10030    2    1    2    0    0  0.00000000000E+00  0.00000000000E+00  0.17993607366E+04  0.42795103541E+04  0.38828481570E+04 0.  0.
        1    1    3    3  502    0  0.97967269809E+03 -0.23432203817E+03 -0.92952332648E+03  0.13706491263E+04  0.50400001928E-02 0.  1.
       -1    1    3    3    0  502 -0.97967269809E+03  0.23432203817E+03  0.27288840631E+04  0.29088612278E+04  0.50400001928E-02 0. -1.
</event>
<event>
 5   0  0.1503228E-07  0.3892852E+04  0.7818609E-02  0.8026518E-01
       -2   -1    0    0    0  501  0.00000000000E+00  0.00000000000E+00  0.15405873085E+04  0.15405873085E+04  0.25500000920E-02 0. -1.
        2   -1    0    0  501    0  0.00000000000E+00  0.00000000000E+00 -0.24591746541E+04  0.24591746541E+04  0.25500000920E-02 0.  1.
    10030    2    1    2    0    0  0.00000000000E+00  0.00000000000E+00 -0.91858734556E+03  0.39997619626E+04  0.38928515314E+04 0.  0.
        3    1    3    3  502    0  0.51445158906E+03 -0.63374520142E+03 -0.22748186051E+04  0.24168353511E+04  0.10100000352E+00 0.  1.
       -3    1    3    3    0  502 -0.51445158906E+03  0.63374520142E+03  0.13562312596E+04  0.15829266115E+04  0.10100000352E+00 0. -1.
</event>
<event>
 5   0  0.4750125E-08  0.3849328E+04  0.7818609E-02  0.8035651E-01
       -1   -1    0    0    0  501  0.00000000000E+00  0.00000000000E+00  0.14394740049E+04  0.14394740049E+04  0.50400001928E-02 0. -1.
        1   -1    0    0  501    0  0.00000000000E+00  0.00000000000E+00 -0.25733925872E+04  0.25733925872E+04  0.50400001928E-02 0.  1.
    10030    2    1    2    0    0  0.00000000000E+00  0.00000000000E+00 -0.11339185824E+04  0.40128665921E+04  0.38493281147E+04 0.  0.
        1    1    3    3  502    0 -0.56130586322E+03  0.18406399570E+04 -0.52919873080E+03  0.19957632675E+04  0.50400001928E-02 0.  1.
       -1    1    3    3    0  502  0.56130586322E+03 -0.18406399570E+04 -0.60471985155E+03  0.20171033246E+04  0.50400001928E-02 0. -1.
</event>
<event>
 5   0  0.4750125E-08  0.3912769E+04  0.7818609E-02  0.8022379E-01
        1   -1    0    0  501    0  0.00000000000E+00  0.00000000000E+00  0.15971555389E+04  0.15971555389E+04  0.50400001928E-02 0.  1.
       -1   -1    0    0    0  501  0.00000000000E+00  0.00000000000E+00 -0.23964103981E+04  0.23964103981E+04  0.50400001928E-02 0. -1.
    10030    2    1    2    0    0  0.00000000000E+00  0.00000000000E+00 -0.79925485929E+03  0.39935659370E+04  0.39127689126E+04 0.  0.
        3    1    3    3  502    0  0.19262892877E+04  0.33310826760E+03 -0.47794918637E+03  0.20124579431E+04  0.10100000352E+00 0. -1.
       -3    1    3    3    0  502 -0.19262892877E+04 -0.33310826760E+03 -0.32130567292E+03  0.19811079939E+04  0.10100000352E+00 0.  1.
</event>
<event>
 5   0  0.1538018E-07  0.3900963E+04  0.7818609E-02  0.8024829E-01
       -2   -1    0    0    0  501  0.00000000000E+00  0.00000000000E+00  0.16223275126E+04  0.16223275126E+04  0.25500000920E-02 0.  1.
        2   -1    0    0  501    0  0.00000000000E+00  0.00000000000E+00 -0.23450121605E+04  0.23450121605E+04  0.25500000920E-02 0. -1.
    10030    2    1    2    0    0  0.00000000000E+00  0.00000000000E+00 -0.72268464783E+03  0.39673396731E+04  0.39009628275E+04 0.  0.
        1    1    3    3  502    0 -0.92427817056E+03  0.90050556539E+03  0.11261371024E+04  0.17127128140E+04  0.50400001928E-02 0.  1.
       -1    1    3    3    0  502  0.92427817056E+03 -0.90050556539E+03 -0.18488217502E+04  0.22546268591E+04  0.50400001928E-02 0. -1.
</event>
<event>
 5   0  0.4762788E-08  0.3987971E+04  0.7818609E-02  0.8006978E-01
       -1   -1    0    0    0  501  0.00000000000E+00  0.00000000000E+00  0.25235569421E+04  0.25235569421E+04  0.50400001928E-02 0. -1.
        1   -1    0    0  501    0  0.00000000000E+00  0.00000000000E+00 -0.15755450205E+04  0.15755450205E+04  0.50400001928E-02 0.  1.
    10030    2    1    2    0    0  0.00000000000E+00  0.00000000000E+00  0.94801192154E+03  0.40991019626E+04  0.39879706991E+04 0.  0.
        2    1    3    3  502    0 -0.30204456278E+03  0.69322460168E+03 -0.14224528854E+04  0.16109511096E+04  0.25500000920E-02 0.  1.
       -2    1    3    3    0  502  0.30204456278E+03 -0.69322460168E+03  0.23704648070E+04  0.24881508530E+04  0.25500000920E-02 0. -1.
</event>
<event>
 5   0  0.1538018E-07  0.3595190E+04  0.7818609E-02  0.8091594E-01
       -2   -1    0    0    0  501  0.00000000000E+00  0.00000000000E+00  0.13775830548E+04  0.13775830548E+04  0.25500000920E-02 0. -1.
        2   -1    0    0  501    0  0.00000000000E+00  0.00000000000E+00 -0.23456652163E+04  0.23456652163E+04  0.25500000920E-02 0.  1.
    10030    2    1    2    0    0  0.00000000000E+00  0.00000000000E+00 -0.96808216148E+03  0.37232482711E+04  0.35951904841E+04 0.  0.
        1    1    3    3  502    0 -0.16872788003E+04  0.39476752581E+02 -0.11248546650E+04  0.20282421408E+04  0.50400001928E-02 0.  1.
       -1    1    3    3    0  502  0.16872788003E+04 -0.39476752581E+02  0.15677250354E+03  0.16950061304E+04  0.50400001928E-02 0. -1.
</event>
<event>
 5   0  0.4762788E-08  0.3897475E+04  0.7818609E-02  0.8025555E-01
       -1   -1    0    0    0  501  0.00000000000E+00  0.00000000000E+00  0.15439831713E+04  0.15439831714E+04  0.50400001928E-02 0.  1.
        1   -1    0    0  501    0  0.00000000000E+00  0.00000000000E+00 -0.24595978080E+04  0.24595978080E+04  0.50400001928E-02 0. -1.
    10030    2    1    2    0    0  0.00000000000E+00  0.00000000000E+00 -0.91561463664E+03  0.40035809793E+04  0.38974748871E+04 0.  0.
        2    1    3    3  502    0  0.91422022921E+03 -0.42929985409E+03 -0.21697562737E+04  0.23933113628E+04  0.25500000920E-02 0. -1.
       -2    1    3    3    0  502 -0.91422022921E+03  0.42929985409E+03  0.12541416370E+04  0.16102696165E+04  0.25500000920E-02 0.  1.
</event>
<event>
 5   0  0.1501585E-07  0.3886679E+04  0.7818609E-02  0.8027805E-01
        2   -1    0    0  501    0  0.00000000000E+00  0.00000000000E+00  0.30716000558E+04  0.30716000558E+04  0.25500000920E-02 0. -1.
       -2   -1    0    0    0  501  0.00000000000E+00  0.00000000000E+00 -0.12295116861E+04  0.12295116861E+04  0.25500000920E-02 0.  1.
    10030    2    1    2    0    0  0.00000000000E+00  0.00000000000E+00  0.18420883697E+04  0.43011117419E+04  0.38866788720E+04 0.  0.
        5    1    3    3  502    0 -0.81696992812E+03 -0.98570664569E+03  0.25389527402E+04  0.28434768439E+04  0.46999998093E+01 0. -1.
       -5    1    3    3    0  502  0.81696992812E+03  0.98570664569E+03 -0.69686437048E+03  0.14576348979E+04  0.46999998093E+01 0.  1.
</event>
<event>
 5   0  0.4750125E-08  0.3921802E+04  0.7818609E-02  0.8020510E-01
       -1   -1    0    0    0  501  0.00000000000E+00  0.00000000000E+00  0.23275564184E+04  0.23275564184E+04  0.50400001928E-02 0.  1.
        1   -1    0    0  501    0  0.00000000000E+00  0.00000000000E+00 -0.16520041607E+04  0.16520041607E+04  0.50400001928E-02 0. -1.
    10030    2    1    2    0    0  0.00000000000E+00  0.00000000000E+00  0.67555225774E+03  0.39795605791E+04  0.39218020793E+04 0.  0.
        5    1    3    3  502    0 -0.18365447792E+04 -0.15642248984E+03 -0.34121694131E+03  0.18745174879E+04  0.46999998093E+01 0. -1.
       -5    1    3    3    0  502  0.18365447792E+04  0.15642248984E+03  0.10167691990E+04  0.21050430911E+04  0.46999998093E+01 0.  1.
</event>
<event>
 5   0  0.4750125E-08  0.3882902E+04  0.7818609E-02  0.8028595E-01
        1   -1    0    0  501    0  0.00000000000E+00  0.00000000000E+00  0.28975542916E+04  0.28975542916E+04  0.50400001928E-02 0. -1.
       -1   -1    0    0    0  501  0.00000000000E+00  0.00000000000E+00 -0.13008319757E+04  0.13008319757E+04  0.50400001928E-02 0.  1.
    10030    2    1    2    0    0  0.00000000000E+00  0.00000000000E+00  0.15967223159E+04  0.41983862673E+04  0.38829016335E+04 0.  0.
        1    1    3    3  502    0 -0.33076358745E+03  0.38666838657E+02  0.28664421279E+04  0.28857217724E+04  0.50400001928E-02 0. -1.
       -1    1    3    3    0  502  0.33076358745E+03 -0.38666838657E+02 -0.12697198120E+04  0.13126644949E+04  0.50400001928E-02 0.  1.
</event>
<event>
 5   0  0.4750125E-08  0.3905797E+04  0.7818609E-02  0.8023825E-01
       -1   -1    0    0    0  501  0.00000000000E+00  0.00000000000E+00  0.14217422475E+04  0.14217422475E+04  0.50400001928E-02 0.  1.
        1   -1    0    0  501    0  0.00000000000E+00  0.00000000000E+00 -0.26824928702E+04  0.26824928702E+04  0.50400001928E-02 0. -1.
    10030    2    1    2    0    0  0.00000000000E+00  0.00000000000E+00 -0.12607506227E+04  0.41042351177E+04  0.39057974561E+04 0.  0.
        3    1    3    3  502    0 -0.13314684583E+04 -0.65672455040E+03  0.70283118025E+03  0.16425793949E+04  0.10100000352E+00 0.  1.
       -3    1    3    3    0  502  0.13314684583E+04  0.65672455040E+03 -0.19635818029E+04  0.24616557228E+04  0.10100000352E+00 0. -1.
</event>
<event>
 5   0  0.4750125E-08  0.3913430E+04  0.7818609E-02  0.8022242E-01
        1   -1    0    0  501    0  0.00000000000E+00  0.00000000000E+00  0.18146910704E+04  0.18146910704E+04  0.50400001928E-02 0. -1.
       -1   -1    0    0    0  501  0.00000000000E+00  0.00000000000E+00 -0.21098545042E+04  0.21098545042E+04  0.50400001928E-02 0.  1.
    10030    2    1    2    0    0  0.00000000000E+00  0.00000000000E+00 -0.29516343379E+03  0.39245455746E+04  0.39134302746E+04 0.  0.
        3    1    3    3  502    0 -0.17677070159E+04  0.18324469894E+03 -0.96866691115E+03  0.20240262619E+04  0.10100000352E+00 0.  1.
       -3    1    3    3    0  502  0.17677070159E+04 -0.18324469894E+03  0.67350347736E+03  0.19005193127E+04  0.10100000352E+00 0. -1.
</event>
<event>
 5   0  0.1538018E-07  0.3885914E+04  0.7818609E-02  0.8027965E-01
       -2   -1    0    0    0  501  0.00000000000E+00  0.00000000000E+00  0.14121839070E+04  0.14121839070E+04  0.25500000920E-02 0.  1.
        2   -1    0    0  501    0  0.00000000000E+00  0.00000000000E+00 -0.26732226977E+04  0.26732226977E+04  0.25500000920E-02 0. -1.
    10030    2    1    2    0    0  0.00000000000E+00  0.00000000000E+00 -0.12610387907E+04  0.40854066047E+04  0.38859140873E+04 0.  0.
        1    1    3    3  502    0 -0.11889817692E+04  0.15310645414E+04 -0.76858443254E+03  0.20853197135E+04  0.50400001928E-02 0.  1.
       -1    1    3    3    0  502  0.11889817692E+04 -0.15310645414E+04 -0.49245435814E+03  0.20000868912E+04  0.50400001928E-02 0. -1.
</event>
<event>
 5   0  0.4750125E-08  0.3893369E+04  0.7818609E-02  0.8026410E-01
        1   -1    0    0  501    0  0.00000000000E+00  0.00000000000E+00  0.12059831978E+04  0.12059831978E+04  0.50400001928E-02 0. -1.
       -1   -1    0    0    0  501  0.00000000000E+00  0.00000000000E+00 -0.31423162890E+04  0.31423162890E+04  0.50400001928E-02 0.  1.
    10030    2    1    2    0    0  0.00000000000E+00  0.00000000000E+00 -0.19363330912E+04  0.43482994868E+04  0.38933690536E+04 0.  0.
        4    1    3    3  502    0  0.94368759742E+03  0.16948119588E+04 -0.78585961508E+03  0.20929669860E+04  0.12699999809E+01 0. -1.
       -4    1    3    3    0  502 -0.94368759742E+03 -0.16948119588E+04 -0.11504734761E+04  0.22553325008E+04  0.12699999809E+01 0.  1.
</event>
<event>
 5   0  0.4750125E-08  0.3914664E+04  0.7818609E-02  0.8021986E-01
        1   -1    0    0  501    0  0.00000000000E+00  0.00000000000E+00  0.23438476819E+04  0.23438476819E+04  0.50400001928E-02 0.  1.
       -1   -1    0    0    0  501  0.00000000000E+00  0.00000000000E+00 -0.16345554044E+04  0.16345554044E+04  0.50400001928E-02 0. -1.
    10030    2    1    2    0    0  0.00000000000E+00  0.00000000000E+00  0.70929227756E+03  0.39784030863E+04  0.39146641723E+04 0.  0.
        1    1    3    3  502    0  0.67294244905E+03  0.18059487200E+04  0.72521748201E+01  0.19272661760E+04  0.50400001928E-02 0. -1.
       -1    1    3    3    0  502 -0.67294244905E+03 -0.18059487200E+04  0.70204010274E+03  0.20511369103E+04  0.50400001928E-02 0.  1.
</event>
<event>
 5   0  0.1546846E-07  0.3842652E+04  0.7818609E-02  0.8037063E-01
        2   -1    0    0  501    0  0.00000000000E+00  0.00000000000E+00  0.17993467986E+04  0.17993467986E+04  0.25500000920E-02 0. -1.
       -2   -1    0    0    0  501  0.00000000000E+00  0.00000000000E+00 -0.20515739380E+04  0.20515739380E+04  0.25500000920E-02 0.  1.
    10030    2    1    2    0    0  0.00000000000E+00  0.00000000000E+00 -0.25222713942E+03  0.38509207366E+04  0.38426516873E+04 0.  0.
        2    1    3    3  502    0 -0.51546715371E+03  0.56639137434E+03  0.16397757590E+04  0.18097983632E+04  0.25500000920E-02 0. -1.
       -2    1    3    3    0  502  0.51546715371E+03 -0.56639137434E+03 -0.18920028985E+04  0.20411223734E+04  0.25500000920E-02 0.  1.
</event>
<event>
 5   0  0.4750125E-08  0.3888261E+04  0.7818609E-02  0.8027475E-01
       -1   -1    0    0    0  501  0.00000000000E+00  0.00000000000E+00  0.23961152832E+04  0.23961152832E+04  0.50400001928E-02 0. -1.
        1   -1    0    0  501    0  0.00000000000E+00  0.00000000000E+00 -0.15774044513E+04  0.15774044513E+04  0.50400001928E-02 0.  1.
    10030    2    1    2    0    0  0.00000000000E+00  0.00000000000E+00  0.81871083187E+03  0.39735197345E+04  0.38882607492E+04 0.  0.
        3    1    3    3  502    0  0.42867456806E+03 -0.15018308527E+04  0.15924917454E+04  0.22305353090E+04  0.10100000352E+00 0. -1.
       -3    1    3    3    0  502 -0.42867456806E+03  0.15018308527E+04 -0.77378091349E+03  0.17429844255E+04  0.10100000352E+00 0.  1.
</event>
<event>
 5   0  0.1503228E-07  0.3891791E+04  0.7818609E-02  0.8026739E-01
        2   -1    0    0  501    0  0.00000000000E+00  0.00000000000E+00  0.32963698587E+04  0.32963698587E+04  0.25500000920E-02 0. -1.
       -2   -1    0    0    0  501  0.00000000000E+00  0.00000000000E+00 -0.11486904329E+04  0.11486904329E+04  0.25500000920E-02 0.  1.
    10030    2    1    2    0    0  0.00000000000E+00  0.00000000000E+00  0.21476794258E+04  0.44450602917E+04  0.38917906008E+04 0.  0.
        3    1    3    3  502    0 -0.12297820017E+04  0.10943933089E+02  0.27962071477E+04  0.30547107825E+04  0.10100000352E+00 0. -1.
       -3    1    3    3    0  502  0.12297820017E+04 -0.10943933089E+02 -0.64852772191E+03  0.13903495092E+04  0.10100000352E+00 0.  1.
</event>
<event>
 5   0  0.4750125E-08  0.3411294E+04  0.7818609E-02  0.8135140E-01
       -1   -1    0    0    0  501  0.00000000000E+00  0.00000000000E+00  0.11980585085E+04  0.11980585085E+04  0.50400001928E-02 0.  1.
        1   -1    0    0  501    0  0.00000000000E+00  0.00000000000E+00 -0.24282885701E+04  0.24282885701E+04  0.50400001928E-02 0. -1.
    10030    2    1    2    0    0  0.00000000000E+00  0.00000000000E+00 -0.12302300616E+04  0.36263470785E+04  0.34112940550E+04 0.  0.
        1    1    3    3  502    0  0.90176067389E+03 -0.42840654296E+03 -0.20852392514E+04  0.23119098630E+04  0.50400001928E-02 0. -1.
       -1    1    3    3    0  502 -0.90176067389E+03  0.42840654296E+03  0.85500918977E+03  0.13144372156E+04  0.50400001928E-02 0.  1.
</event>
<event>
 5   0  0.1546846E-07  0.3899904E+04  0.7818609E-02  0.8025049E-01
        2   -1    0    0  501    0  0.00000000000E+00  0.00000000000E+00  0.28128517012E+04  0.28128517012E+04  0.25500000920E-02 0. -1.
       -2   -1    0    0    0  501  0.00000000000E+00  0.00000000000E+00 -0.13517643879E+04  0.13517643879E+04  0.25500000920E-02 0.  1.
    10030    2    1    2    0    0  0.00000000000E+00  0.00000000000E+00  0.14610873133E+04  0.41646160891E+04  0.38999039774E+04 0.  0.
        2    1    3    3  502    0 -0.68079798711E+03  0.12172888425E+04 -0.72468444205E+03  0.15717651115E+04  0.25500000920E-02 0.  1.
       -2    1    3    3    0  502  0.68079798711E+03 -0.12172888425E+04  0.21857717554E+04  0.25928509776E+04  0.25500000920E-02 0. -1.
</event>
<event>
 5   0  0.4762788E-08  0.3930089E+04  0.7818609E-02  0.8018800E-01
       -1   -1    0    0    0  501  0.00000000000E+00  0.00000000000E+00  0.22533970024E+04  0.22533970024E+04  0.50400001928E-02 0. -1.
        1   -1    0    0  501    0  0.00000000000E+00  0.00000000000E+00 -0.17135901835E+04  0.17135901835E+04  0.50400001928E-02 0.  1.
    10030    2    1    2    0    0  0.00000000000E+00  0.00000000000E+00  0.53980681893E+03  0.39669871860E+04  0.39300885399E+04 0.  0.
        2    1    3    3  502    0 -0.14360579133E+04 -0.41104096253E+03 -0.10188698223E+04  0.18081240881E+04  0.25500000920E-02 0.  1.
       -2    1    3    3    0  502  0.14360579133E+04  0.41104096253E+03  0.15586766413E+04  0.21588630978E+04  0.25500000920E-02 0. -1.
</event>
<event>
 5   0  0.1503228E-07  0.3977642E+04  0.7818609E-02  0.8009072E-01
       -2   -1    0    0    0  501  0.00000000000E+00  0.00000000000E+00  0.23010097523E+04  0.23010097523E+04  0.25500000920E-02 0.  1.
        2   -1    0    0  501    0  0.00000000000E+00  0.00000000000E+00 -0.17189885984E+04  0.17189885984E+04  0.25500000920E-02 0. -1.
    10030    2    1    2    0    0  0.00000000000E+00  0.00000000000E+00  0.58202115392E+03  0.40199983507E+04  0.39776422810E+04 0.  0.
        3    1    3    3  502    0 -0.33637281447E+02 -0.91338307876E+03  0.20761745063E+04  0.22684577814E+04  0.10100000352E+00 0.  1.
       -3    1    3    3    0  502  0.33637281447E+02  0.91338307876E+03 -0.14941533524E+04  0.17515405693E+04  0.10100000352E+00 0. -1.
</event>
<event>
 5   0  0.1501585E-07  0.3867133E+04  0.7818609E-02  0.8031900E-01
       -2   -1    0    0    0  501  0.00000000000E+00  0.00000000000E+00  0.13720453300E+04  0.13720453300E+04  0.25500000920E-02 0.  1.
        2   -1    0    0  501    0  0.00000000000E+00  0.00000000000E+00 -0.27248947148E+04  0.27248947148E+04  0.25500000920E-02 0. -1.
    10030    2    1    2    0    0  0.00000000000E+00  0.00000000000E+00 -0.13528493847E+04  0.40969400448E+04  0.38671328233E+04 0.  0.
        5    1    3    3  502    0  0.80914344700E+03  0.79515222505E+03 -0.23352556366E+04  0.25962321077E+04  0.46999998093E+01 0. -1.
       -5    1    3    3    0  502 -0.80914344700E+03 -0.79515222505E+03  0.98240625184E+03  0.15007079371E+04  0.46999998093E+01 0.  1.
</event>
<event>
 5   0  0.4762788E-08  0.3899868E+04  0.7818609E-02  0.8025057E-01
        1   -1    0    0  501    0  0.00000000000E+00  0.00000000000E+00  0.23372632498E+04  0.23372632498E+04  0.50400001928E-02 0. -1.
       -1   -1    0    0    0  501  0.00000000000E+00  0.00000000000E+00 -0.16267929901E+04  0.16267929901E+04  0.50400001928E-02 0.  1.
    10030    2    1    2    0    0  0.00000000000E+00  0.00000000000E+00  0.71047025974E+03  0.39640562399E+04  0.38998684443E+04 0.  0.
        2    1    3    3  502    0  0.18412238108E+04 -0.41743703146E+03  0.85099695492E+03  0.20708825689E+04  0.25500000920E-02 0.  1.
       -2    1    3    3    0  502 -0.18412238108E+04  0.41743703146E+03 -0.14052669519E+03  0.18931736711E+04  0.25500000920E-02 0. -1.
</event>
<event>
 5   0  0.1503228E-07  0.3908104E+04  0.7818609E-02  0.8023346E-01
        2   -1    0    0  501    0  0.00000000000E+00  0.00000000000E+00  0.21232975421E+04  0.21232975421E+04  0.25500000920E-02 0. -1.
       -2   -1    0    0    0  501  0.00000000000E+00  0.00000000000E+00 -0.17982966660E+04  0.17982966660E+04  0.25500000920E-02 0.  1.
    10030    2    1    2    0    0  0.00000000000E+00  0.00000000000E+00  0.32500087613E+03  0.39215942082E+04  0.39081038323E+04 0.  0.
        3    1    3    3  502    0 -0.12467848745E+04  0.73744102962E+03  0.14785256266E+04  0.20698622742E+04  0.10100000352E+00 0. -1.
       -3    1    3    3    0  502  0.12467848745E+04 -0.73744102962E+03 -0.11535247504E+04  0.18517319340E+04  0.10100000352E+00 0.  1.
</event>
<event>
 5   0  0.1538018E-07  0.3900908E+04  0.7818609E-02  0.8024840E-01
       -2   -1    0    0    0  501  0.00000000000E+00  0.00000000000E+00  0.27094366029E+04  0.27094366029E+04  0.25500000920E-02 0.  1.
        2   -1    0    0  501    0  0.00000000000E+00  0.00000000000E+00 -0.14040818586E+04  0.14040818586E+04  0.25500000920E-02 0. -1.
    10030    2    1    2    0    0  0.00000000000E+00  0.00000000000E+00  0.13053547444E+04  0.41135184615E+04  0.39009079872E+04 0.  0.
        1    1    3    3  502    0 -0.12193360988E+03 -0.18598424187E+04  0.12588001918E+04  0.22491019431E+04  0.50400001928E-02 0.  1.
       -1    1    3    3    0  502  0.12193360988E+03  0.18598424187E+04  0.46554552512E+02  0.18644165184E+04  0.50400001928E-02 0. -1.
</event>
<event>
 5   0  0.4750125E-08  0.3987372E+04  0.7818609E-02  0.8007099E-01
       -1   -1    0    0    0  501  0.00000000000E+00  0.00000000000E+00  0.15856971692E+04  0.15856971692E+04  0.50400001928E-02 0.  1.
        1   -1    0    0  501    0  0.00000000000E+00  0.00000000000E+00 -0.25066471907E+04  0.25066471907E+04  0.50400001928E-02 0. -1.
    10030    2    1    2    0    0  0.00000000000E+00  0.00000000000E+00 -0.92095002150E+03  0.40923443600E+04  0.39873717432E+04 0.  0.
        5    1    3    3  502    0  0.70690432016E+03 -0.82784382461E+03  0.12537424707E+04  0.16604009722E+04  0.46999998093E+01 0.  1.
       -5    1    3    3    0  502 -0.70690432016E+03  0.82784382461E+03 -0.21746924922E+04  0.24319433878E+04  0.46999998093E+01 0. -1.
</event>
<event>
 5   0  0.1503228E-07  0.3902555E+04  0.7818609E-02  0.8024498E-01
       -2   -1    0    0    0  501  0.00000000000E+00  0.00000000000E+00  0.22123070846E+04  0.22123070846E+04  0.25500000920E-02 0.  1.
        2   -1    0    0  501    0  0.00000000000E+00  0.00000000000E+00 -0.17210471489E+04  0.17210471489E+04  0.25500000920E-02 0. -1.
    10030    2    1    2    0    0  0.00000000000E+00  0.00000000000E+00  0.49125993567E+03  0.39333542335E+04  0.39025554707E+04 0.  0.
        3    1    3    3  502    0 -0.16027028580E+04  0.10786995882E+04 -0.30825694650E+02  0.19321489296E+04  0.10100000352E+00 0. -1.
       -3    1    3    3    0  502  0.16027028580E+04 -0.10786995882E+04  0.52208563032E+03  0.20012053039E+04  0.10100000352E+00 0.  1.
</event>
<event>
 5   0  0.4750125E-08  0.3930822E+04  0.7818609E-02  0.8018649E-01
        1   -1    0    0  501    0  0.00000000000E+00  0.00000000000E+00  0.20932761630E+04  0.20932761630E+04  0.50400001928E-02 0.  1.
       -1   -1    0    0    0  501  0.00000000000E+00  0.00000000000E+00 -0.18453559939E+04  0.18453559940E+04  0.50400001928E-02 0. -1.
    10030    2    1    2    0    0  0.00000000000E+00  0.00000000000E+00  0.24792016901E+03  0.39386321569E+04  0.39308216517E+04 0.  0.
        4    1    3    3  502    0 -0.22570892712E+03 -0.13819787524E+04  0.15058408475E+04  0.20562996044E+04  0.12699999809E+01 0.  1.
       -4    1    3    3    0  502  0.22570892712E+03  0.13819787524E+04 -0.12579206785E+04  0.18823325525E+04  0.12699999809E+01 0. -1.
</event>
<event>
 5   0  0.4750125E-08  0.3909161E+04  0.7818609E-02  0.8023127E-01
        1   -1    0    0  501    0  0.00000000000E+00  0.00000000000E+00  0.12732065620E+04  0.12732065620E+04  0.50400001928E-02 0. -1.
       -1   -1    0    0    0  501  0.00000000000E+00  0.00000000000E+00 -0.30006014418E+04  0.30006014418E+04  0.50400001928E-02 0.  1.
    10030    2    1    2    0    0  0.00000000000E+00  0.00000000000E+00 -0.17273948798E+04  0.42738080039E+04  0.39091612634E+04 0.  0.
        1    1    3    3  502    0 -0.10241839256E+03 -0.36972377892E+03  0.12316387972E+04  0.12900074909E+04  0.50400001928E-02 0. -1.
       -1    1    3    3    0  502  0.10241839256E+03  0.36972377892E+03 -0.29590336770E+04  0.29838005130E+04  0.50400001928E-02 0.  1.
</event>
<event>
 5   0  0.4750125E-08  0.3952411E+04  0.7818609E-02  0.8014216E-01
        1   -1    0    0  501    0  0.00000000000E+00  0.00000000000E+00  0.18760622114E+04  0.18760622114E+04  0.50400001928E-02 0.  1.
       -1   -1    0    0    0  501  0.00000000000E+00  0.00000000000E+00 -0.20816948687E+04  0.20816948687E+04  0.50400001928E-02 0. -1.
    10030    2    1    2    0    0  0.00000000000E+00  0.00000000000E+00 -0.20563265735E+03  0.39577570801E+04  0.39524114557E+04 0.  0.
        5    1    3    3  502    0  0.13914912183E+04 -0.40518243829E+03  0.12424836530E+04  0.19089809681E+04  0.46999998093E+01 0.  1.
       -5    1    3    3    0  502 -0.13914912183E+04  0.40518243829E+03 -0.14481163103E+04  0.20487761120E+04  0.46999998093E+01 0. -1.
</event>
<event>
 5   0  0.1520986E-07  0.3914980E+04  0.7818609E-02  0.8021921E-01
        2   -1    0    0  501    0  0.00000000000E+00  0.00000000000E+00  0.19641921153E+04  0.19641921153E+04  0.25500000920E-02 0. -1.
       -2   -1    0    0    0  501  0.00000000000E+00  0.00000000000E+00 -0.19508110831E+04  0.19508110831E+04  0.25500000920E-02 0.  1.
    10030    2    1    2    0    0  0.00000000000E+00  0.00000000000E+00  0.13381032232E+02  0.39150031984E+04  0.39149803309E+04 0.  0.
        4    1    3    3  502    0  0.13971187262E+04 -0.10704145886E+04  0.86345570181E+03  0.19604299244E+04  0.12699999809E+01 0. -1.
       -4    1    3    3    0  502 -0.13971187262E+04  0.10704145886E+04 -0.85007466958E+03  0.19545732740E+04  0.12699999809E+01 0.  1.
</event>
<event>
 5   0  0.1520986E-07  0.3922200E+04  0.7818609E-02  0.8020428E-01
       -2   -1    0    0    0  501  0.00000000000E+00  0.00000000000E+00  0.13916151670E+04  0.13916151670E+04  0.25500000920E-02 0. -1.
        2   -1    0    0  501    0  0.00000000000E+00  0.00000000000E+00 -0.27636328431E+04  0.27636328431E+04  0.25500000920E-02 0.  1.
    10030    2    1    2    0    0  0.00000000000E+00  0.00000000000E+00 -0.13720176761E+04  0.41552480100E+04  0.39222000869E+04 0.  0.
        4    1    3    3  502    0 -0.67592324626E+02  0.86879245908E+03 -0.25472530085E+04  0.26921865763E+04  0.12699999809E+01 0.  1.
       -4    1    3    3    0  502  0.67592324626E+02 -0.86879245908E+03  0.11752353324E+04  0.14630614337E+04  0.12699999809E+01 0. -1.
</event>
<event>
 5   0  0.4762788E-08  0.3896457E+04  0.7818609E-02  0.8025766E-01
       -1   -1    0    0    0  501  0.00000000000E+00  0.00000000000E+00  0.19013913702E+04  0.19013913702E+04  0.50400001928E-02 0. -1.
        1   -1    0    0  501    0  0.00000000000E+00  0.00000000000E+00 -0.19962197144E+04  0.19962197144E+04  0.50400001928E-02 0.  1.
    10030    2    1    2    0    0  0.00000000000E+00  0.00000000000E+00 -0.94828344244E+02  0.38976110846E+04  0.38964573335E+04 0.  0.
        2    1    3    3  502    0  0.13796982034E+04 -0.24644597215E+02 -0.14231106227E+04  0.19822760486E+04  0.25500000920E-02 0.  1.
       -2    1    3    3    0  502 -0.13796982034E+04  0.24644597215E+02  0.13282822785E+04  0.19153350359E+04  0.25500000920E-02 0. -1.
</event>
<event>
 5   0  0.4750125E-08  0.3883957E+04  0.7818609E-02  0.8028374E-01
       -1   -1    0    0    0  501  0.00000000000E+00  0.00000000000E+00  0.16618755278E+04  0.16618755278E+04  0.50400001928E-02 0.  1.
        1   -1    0    0  501    0  0.00000000000E+00  0.00000000000E+00 -0.22692917291E+04  0.22692917291E+04  0.50400001928E-02 0. -1.
    10030    2    1    2    0    0  0.00000000000E+00  0.00000000000E+00 -0.60741620131E+03  0.39311672568E+04  0.38839569462E+04 0.  0.
        5    1    3    3  502    0  0.69469014361E+03  0.65362731867E+02 -0.21380259086E+04  0.22490094615E+04  0.46999998093E+01 0. -1.
       -5    1    3    3    0  502 -0.69469014361E+03 -0.65362731867E+02  0.15306097073E+04  0.16821577953E+04  0.46999998093E+01 0.  1.
</event>
<event>
 5   0  0.4750125E-08  0.3891073E+04  0.7818609E-02  0.8026888E-01
       -1   -1    0    0    0  501  0.00000000000E+00  0.00000000000E+00  0.14211639508E+04  0.14211639508E+04  0.50400001928E-02 0.  1.
        1   -1    0    0  501    0  0.00000000000E+00  0.00000000000E+00 -0.26633889940E+04  0.26633889940E+04  0.50400001928E-02 0. -1.
    10030    2    1    2    0    0  0.00000000000E+00  0.00000000000E+00 -0.12422250432E+04  0.40845529448E+04  0.38910730783E+04 0.  0.
        5    1    3    3  502    0  0.16758562646E+03  0.10694186522E+04  0.10758562871E+04  0.15261815214E+04  0.46999998093E+01 0.  1.
       -5    1    3    3    0  502 -0.16758562646E+03 -0.10694186522E+04 -0.23180813303E+04  0.25583714234E+04  0.46999998093E+01 0. -1.
</event>
<event>
 5   0  0.1546846E-07  0.3918900E+04  0.7818609E-02  0.8021110E-01
        2   -1    0    0  501    0  0.00000000000E+00  0.00000000000E+00  0.15434899150E+04  0.15434899150E+04  0.25500000920E-02 0.  1.
       -2   -1    0    0    0  501  0.00000000000E+00  0.00000000000E+00 -0.24875082171E+04  0.24875082171E+04  0.25500000920E-02 0. -1.
    10030    2    1    2    0    0  0.00000000000E+00  0.00000000000E+00 -0.94401830206E+03  0.40309981321E+04  0.39188997673E+04 0.  0.
        2    1    3    3  502    0  0.65307955826E+02 -0.16100326041E+04  0.67476901687E+03  0.17469354142E+04  0.25500000920E-02 0.  1.
       -2    1    3    3    0  502 -0.65307955826E+02  0.16100326041E+04 -0.16187873189E+04  0.22840627179E+04  0.25500000920E-02 0. -1.
</event>
<event>
 5   0  0.1503228E-07  0.3923075E+04  0.7818609E-02  0.8020247E-01
       -2   -1    0    0    0  501  0.00000000000E+00  0.00000000000E+00  0.16017785808E+04  0.16017785808E+04  0.25500000920E-02 0.  1.
        2   -1    0    0  501    0  0.00000000000E+00  0.00000000000E+00 -0.24020985424E+04  0.24020985424E+04  0.25500000920E-02 0. -1.
    10030    2    1    2    0    0  0.00000000000E+00  0.00000000000E+00 -0.80031996153E+03  0.40038771232E+04  0.39230753213E+04 0.  0.
        3    1    3    3  502    0 -0.15367418996E+04  0.10060620436E+04  0.30241788277E+03  0.18615029110E+04  0.10100000352E+00 0.  1.
       -3    1    3    3    0  502  0.15367418996E+04 -0.10060620436E+04 -0.11027378443E+04  0.21423742122E+04  0.10100000352E+00 0. -1.
</event>
<event>
 5   0  0.1538018E-07  0.4087309E+04  0.7818609E-02  0.7987161E-01
       -2   -1    0    0    0  501  0.00000000000E+00  0.00000000000E+00  0.16074944955E+04  0.16074944955E+04  0.25500000920E-02 0. -1.
        2   -1    0    0  501    0  0.00000000000E+00  0.00000000000E+00 -0.25981576441E+04  0.25981576441E+04  0.25500000920E-02 0.  1.
    10030    2    1    2    0    0  0.00000000000E+00  0.00000000000E+00 -0.99066314857E+03  0.42056521396E+04  0.40873091937E+04 0.  0.
        1    1    3    3  502    0 -0.14205633928E+04  0.11540425922E+04  0.44022985362E+03  0.18824497288E+04  0.50400001928E-02 0.  1.
       -1    1    3    3    0  502  0.14205633928E+04 -0.11540425922E+04 -0.14308930022E+04  0.23232024107E+04  0.50400001928E-02 0. -1.
</event>
<event>
 5   0  0.1546846E-07  0.3904142E+04  0.7818609E-02  0.8024168E-01
        2   -1    0    0  501    0  0.00000000000E+00  0.00000000000E+00  0.28106748235E+04  0.28106748235E+04  0.25500000920E-02 0.  1.
       -2   -1    0    0    0  501  0.00000000000E+00  0.00000000000E+00 -0.13557530980E+04  0.13557530980E+04  0.25500000920E-02 0. -1.
    10030    2    1    2    0    0  0.00000000000E+00  0.00000000000E+00  0.14549217255E+04  0.41664279215E+04  0.39041419541E+04 0.  0.
        2    1    3    3  502    0 -0.37356407275E+02 -0.13246744166E+04  0.22570797502E+04  0.26173587469E+04  0.25500000920E-02 0.  1.
       -2    1    3    3    0  502  0.37356407275E+02  0.13246744166E+04 -0.80215802473E+03  0.15490691746E+04  0.25500000920E-02 0. -1.
</event>
<event>
 5   0  0.1503228E-07  0.3911801E+04  0.7818609E-02  0.8022579E-01
        2   -1    0    0  501    0  0.00000000000E+00  0.00000000000E+00  0.23147057983E+04  0.23147057983E+04  0.25500000920E-02 0.  1.
       -2   -1    0    0    0  501  0.00000000000E+00  0.00000000000E+00 -0.16527138539E+04  0.16527138539E+04  0.25500000920E-02 0. -1.
    10030    2    1    2    0    0  0.00000000000E+00  0.00000000000E+00  0.66199194436E+03  0.39674196522E+04  0.39118007826E+04 0.  0.
        3    1    3    3  502    0  0.26457915807E+03 -0.71234952664E+03  0.21588700081E+04  0.22887034979E+04  0.10100000352E+00 0.  1.
       -3    1    3    3    0  502 -0.26457915807E+03  0.71234952664E+03 -0.14968780638E+04  0.16787161544E+04  0.10100000352E+00 0. -1.
</event>
<event>
 5   0  0.4750125E-08  0.3834752E+04  0.7818609E-02  0.8038738E-01
       -1   -1    0    0    0  501  0.00000000000E+00  0.00000000000E+00  0.14129637251E+04  0.14129637251E+04  0.50400001928E-02 0.  1.
        1   -1    0    0  501    0  0.00000000000E+00  0.00000000000E+00 -0.26018572345E+04  0.26018572345E+04  0.50400001928E-02 0. -1.
    10030    2    1    2    0    0  0.00000000000E+00  0.00000000000E+00 -0.11888935094E+04  0.40148209596E+04  0.38347515645E+04 0.  0.
        5    1    3    3  502    0  0.12266712139E+04  0.14012231770E+04 -0.11677815462E+03  0.18659603120E+04  0.46999998093E+01 0.  1.
       -5    1    3    3    0  502 -0.12266712139E+04 -0.14012231770E+04 -0.10721153548E+04  0.21488606476E+04  0.46999998093E+01 0. -1.
</event>
<event>
 5   0  0.1501585E-07  0.3864566E+04  0.7818609E-02  0.8032439E-01
        2   -1    0    0  501    0  0.00000000000E+00  0.00000000000E+00  0.13002551021E+04  0.13002551021E+04  0.25500000920E-02 0.  1.
       -2   -1    0    0    0  501  0.00000000000E+00  0.00000000000E+00 -0.28715265794E+04  0.28715265794E+04  0.25500000920E-02 0. -1.
    10030    2    1    2    0    0  0.00000000000E+00  0.00000000000E+00 -0.15712714773E+04  0.41717816815E+04  0.38645657379E+04 0.  0.
        5    1    3    3  502    0 -0.50547124263E+03  0.15404909627E+04 -0.19204322985E+04  0.25133037792E+04  0.46999998093E+01 0. -1.
       -5    1    3    3    0  502  0.50547124263E+03 -0.15404909627E+04  0.34916082117E+03  0.16584779023E+04  0.46999998093E+01 0.  1.
</event>
<event>
 5   0  0.4750125E-08  0.3981058E+04  0.7818609E-02  0.8008379E-01
       -1   -1    0    0    0  501  0.00000000000E+00  0.00000000000E+00  0.23868464913E+04  0.23868464913E+04  0.50400001928E-02 0.  1.
        1   -1    0    0  501    0  0.00000000000E+00  0.00000000000E+00 -0.16600166844E+04  0.16600166844E+04  0.50400001928E-02 0. -1.
    10030    2    1    2    0    0  0.00000000000E+00  0.00000000000E+00  0.72682980689E+03  0.40468631757E+04  0.39810576477E+04 0.  0.
        5    1    3    3  502    0  0.14541569414E+04  0.13455831162E+04  0.55899208121E+03  0.20585578860E+04  0.46999998093E+01 0.  1.
       -5    1    3    3    0  502 -0.14541569414E+04 -0.13455831162E+04  0.16783772568E+03  0.19883052897E+04  0.46999998093E+01 0. -1.
</event>
<event>
 5   0  0.4750125E-08  0.3981356E+04  0.7818609E-02  0.8008318E-01
       -1   -1    0    0    0  501  0.00000000000E+00  0.00000000000E+00  0.27892284618E+04  0.27892284619E+04  0.50400001928E-02 0. -1.
        1   -1    0    0  501    0  0.00000000000E+00  0.00000000000E+00 -0.14207509784E+04  0.14207509784E+04  0.50400001928E-02 0.  1.
    10030    2    1    2    0    0  0.00000000000E+00  0.00000000000E+00  0.13684774834E+04  0.42099794403E+04  0.39813560836E+04 0.  0.
        3    1    3    3  502    0 -0.19161686190E+03  0.10986960416E+04 -0.10593718054E+04  0.15382193101E+04  0.10100000352E+00 0.  1.
       -3    1    3    3    0  502  0.19161686190E+03 -0.10986960416E+04  0.24278492889E+04  0.26717601302E+04  0.10100000352E+00 0. -1.
</event>
<event>
 5   0  0.1503228E-07  0.3889039E+04  0.7818609E-02  0.8027313E-01
       -2   -1    0    0    0  501  0.00000000000E+00  0.00000000000E+00  0.19781198380E+04  0.19781198380E+04  0.25500000920E-02 0. -1.
        2   -1    0    0  501    0  0.00000000000E+00  0.00000000000E+00 -0.19114894702E+04  0.19114894702E+04  0.25500000920E-02 0.  1.
    10030    2    1    2    0    0  0.00000000000E+00  0.00000000000E+00  0.66630367842E+02  0.38896093082E+04  0.38890385656E+04 0.  0.
        3    1    3    3  502    0  0.55759032221E+03 -0.17110214112E+04 -0.70344344815E+03  0.19321837211E+04  0.10100000352E+00 0.  1.
       -3    1    3    3    0  502 -0.55759032221E+03  0.17110214112E+04  0.77007381599E+03  0.19574255872E+04  0.10100000352E+00 0. -1.
</event>
<event>
 5   0  0.4750125E-08  0.3897158E+04  0.7818609E-02  0.8025621E-01
        1   -1    0    0  501    0  0.00000000000E+00  0.00000000000E+00  0.13370347930E+04  0.13370347931E+04  0.50400001928E-02 0. -1.
       -1   -1    0    0    0  501  0.00000000000E+00  0.00000000000E+00 -0.28398357708E+04  0.28398357708E+04  0.50400001928E-02 0.  1.
    10030    2    1    2    0    0  0.00000000000E+00  0.00000000000E+00 -0.15028009778E+04  0.41768705639E+04  0.38971575448E+04 0.  0.
        1    1    3    3  502    0  0.81166533838E+03 -0.16267480913E+03  0.11392079914E+04  0.14082111215E+04  0.50400001928E-02 0. -1.
       -1    1    3    3    0  502 -0.81166533838E+03  0.16267480913E+03 -0.26420089691E+04  0.27686594424E+04  0.50400001928E-02 0.  1.
</event>
<event>
 5   0  0.4750125E-08  0.3890928E+04  0.7818609E-02  0.8026919E-01
       -1   -1    0    0    0  501  0.00000000000E+00  0.00000000000E+00  0.14793536471E+04  0.14793536471E+04  0.50400001928E-02 0.  1.
        1   -1    0    0  501    0  0.00000000000E+00  0.00000000000E+00 -0.25584346385E+04  0.25584346385E+04  0.50400001928E-02 0. -1.
    10030    2    1    2    0    0  0.00000000000E+00  0.00000000000E+00 -0.10790809914E+04  0.40377882857E+04  0.38909277112E+04 0.  0.
        5    1    3    3  502    0 -0.18014171661E+04 -0.38263937999E+03  0.11125911945E+03  0.18449708353E+04  0.46999998093E+01 0. -1.
       -5    1    3    3    0  502  0.18014171661E+04  0.38263937999E+03 -0.11903401108E+04  0.21928174504E+04  0.46999998093E+01 0.  1.
</event>
<event>
 5   0  0.4750125E-08  0.3891293E+04  0.7818609E-02  0.8026843E-01
        1   -1    0    0  501    0  0.00000000000E+00  0.00000000000E+00  0.26456111598E+04  0.26456111598E+04  0.50400001928E-02 0.  1.
       -1   -1    0    0    0  501  0.00000000000E+00  0.00000000000E+00 -0.14308754269E+04  0.14308754269E+04  0.50400001928E-02 0. -1.
    10030    2    1    2    0    0  0.00000000000E+00  0.00000000000E+00  0.12147357329E+04  0.40764865867E+04  0.38912928430E+04 0.  0.
        4    1    3    3  502    0 -0.66544590869E+03 -0.10905197174E+04  0.21446841127E+04  0.24963419372E+04  0.12699999809E+01 0.  1.
       -4    1    3    3    0  502  0.66544590869E+03  0.10905197174E+04 -0.92994837972E+03  0.15801446495E+04  0.12699999809E+01 0. -1.
</event>
<event>
 5   0  0.4750125E-08  0.4015529E+04  0.7818609E-02  0.8001421E-01
        1   -1    0    0  501    0  0.00000000000E+00  0.00000000000E+00  0.23529792376E+04  0.23529792376E+04  0.50400001928E-02 0.  1.
       -1   -1    0    0    0  501  0.00000000000E+00  0.00000000000E+00 -0.17131978120E+04  0.17131978120E+04  0.50400001928E-02 0. -1.
    10030    2    1    2    0    0  0.00000000000E+00  0.00000000000E+00  0.63978142564E+03  0.40661770496E+04  0.40155292959E+04 0.  0.
        5    1    3    3  502    0 -0.17069122497E+04  0.35340988484E+03  0.13287748663E+04  0.21918286225E+04  0.46999998093E+01 0.  1.
       -5    1    3    3    0  502  0.17069122497E+04 -0.35340988484E+03 -0.68899344065E+03  0.18743484271E+04  0.46999998093E+01 0. -1.
</event>
<event>
 5   0  0.1520986E-07  0.3911169E+04  0.7818609E-02  0.8022710E-01
        2   -1    0    0  501    0  0.00000000000E+00  0.00000000000E+00  0.18817577112E+04  0.18817577112E+04  0.25500000920E-02 0. -1.
       -2   -1    0    0    0  501  0.00000000000E+00  0.00000000000E+00 -0.20323076177E+04  0.20323076177E+04  0.25500000920E-02 0.  1.
    10030    2    1    2    0    0  0.00000000000E+00  0.00000000000E+00 -0.15054990644E+03  0.39140653289E+04  0.39111688950E+04 0.  0.
        4    1    3    3  502    0 -0.54828749974E+03 -0.15315249973E+04 -0.11614915478E+04  0.19988127046E+04  0.12699999809E+01 0.  1.
       -4    1    3    3    0  502  0.54828749974E+03  0.15315249973E+04  0.10109416414E+04  0.19152526243E+04  0.12699999809E+01 0. -1.
</event>
<event>
 5   0  0.1538018E-07  0.3918145E+04  0.7818609E-02  0.8021266E-01
        2   -1    0    0  501    0  0.00000000000E+00  0.00000000000E+00  0.25246914424E+04  0.25246914424E+04  0.25500000920E-02 0.  1.
       -2   -1    0    0    0  501  0.00000000000E+00  0.00000000000E+00 -0.15201720952E+04  0.15201720952E+04  0.25500000920E-02 0. -1.
    10030    2    1    2    0    0  0.00000000000E+00  0.00000000000E+00  0.10045193472E+04  0.40448635376E+04  0.39181452142E+04 0.  0.
        1    1    3    3  502    0 -0.11800937177E+04  0.14523727158E+04 -0.96104669060E+02  0.18738313146E+04  0.50400001928E-02 0.  1.
       -1    1    3    3    0  502  0.11800937177E+04 -0.14523727158E+04  0.11006240162E+04  0.21710322230E+04  0.50400001928E-02 0. -1.
</event>
<event>
 5   0  0.4750125E-08  0.3887075E+04  0.7818609E-02  0.8027723E-01
       -1   -1    0    0    0  501  0.00000000000E+00  0.00000000000E+00  0.23070397177E+04  0.23070397177E+04  0.50400001928E-02 0. -1.
        1   -1    0    0  501    0  0.00000000000E+00  0.00000000000E+00 -0.16373096256E+04  0.16373096256E+04  0.50400001928E-02 0.  1.
    10030    2    1    2    0    0  0.00000000000E+00  0.00000000000E+00  0.66973009208E+03  0.39443493433E+04  0.38870751660E+04 0.  0.
        4    1    3    3  502    0  0.12313187556E+04 -0.44169776916E+02  0.18600889609E+04  0.22311497938E+04  0.12699999809E+01 0. -1.
       -4    1    3    3    0  502 -0.12313187556E+04  0.44169776916E+02 -0.11903588688E+04  0.17131995495E+04  0.12699999809E+01 0.  1.
</event>
<event>
 5   0  0.1546846E-07  0.3864554E+04  0.7818609E-02  0.8032442E-01
       -2   -1    0    0    0  501  0.00000000000E+00  0.00000000000E+00  0.17042172123E+04  0.17042172123E+04  0.25500000920E-02 0. -1.
        2   -1    0    0  501    0  0.00000000000E+00  0.00000000000E+00 -0.21908564788E+04  0.21908564788E+04  0.25500000920E-02 0.  1.
    10030    2    1    2    0    0  0.00000000000E+00  0.00000000000E+00 -0.48663926651E+03  0.38950736911E+04  0.38645544741E+04 0.  0.
        2    1    3    3  502    0 -0.52681751446E+03  0.15588223391E+03 -0.21104772723E+04  0.21808141327E+04  0.25500000920E-02 0.  1.
       -2    1    3    3    0  502  0.52681751446E+03 -0.15588223391E+03  0.16238380058E+04  0.17142595584E+04  0.25500000920E-02 0. -1.
</event>
<event>
 5   0  0.4750125E-08  0.3877783E+04  0.7818609E-02  0.8029666E-01
        1   -1    0    0  501    0  0.00000000000E+00  0.00000000000E+00  0.24842743718E+04  0.24842743718E+04  0.50400001928E-02 0.  1.
       -1   -1    0    0    0  501  0.00000000000E+00  0.00000000000E+00 -0.15132390329E+04  0.15132390329E+04  0.50400001928E-02 0. -1.
    10030    2    1    2    0    0  0.00000000000E+00  0.00000000000E+00  0.97103533894E+03  0.39975134047E+04  0.38777833605E+04 0.  0.
        5    1    3    3  502    0 -0.54441230862E+02  0.18527231315E+04 -0.10102445318E+03  0.18562798495E+04  0.46999998093E+01 0.  1.
       -5    1    3    3    0  502  0.54441230862E+02 -0.18527231315E+04  0.10720597921E+04  0.21412335551E+04  0.46999998093E+01 0. -1.
</event>
<event>
 5   0  0.1546846E-07  0.3767939E+04  0.7818609E-02  0.8053070E-01
        2   -1    0    0  501    0  0.00000000000E+00  0.00000000000E+00  0.26632498210E+04  0.26632498210E+04  0.25500000920E-02 0.  1.
       -2   -1    0    0    0  501  0.00000000000E+00  0.00000000000E+00 -0.13327104013E+04  0.13327104013E+04  0.25500000920E-02 0. -1.
    10030    2    1    2    0    0  0.00000000000E+00  0.00000000000E+00  0.13305394196E+04  0.39959602223E+04  0.37679388200E+04 0.  0.
        2    1    3    3  502    0  0.13307385188E+04 -0.10358920655E+04  0.15559791929E+04  0.22945606607E+04  0.25500000920E-02 0.  1.
       -2    1    3    3    0  502 -0.13307385188E+04  0.10358920655E+04 -0.22543977323E+03  0.17013995616E+04  0.25500000920E-02 0. -1.
</event>
<event>
 5   0  0.4750125E-08  0.3751193E+04  0.7818609E-02  0.8056711E-01
        1   -1    0    0  501    0  0.00000000000E+00  0.00000000000E+00  0.30217585430E+04  0.30217585430E+04  0.50400001928E-02 0.  1.
       -1   -1    0    0    0  501  0.00000000000E+00  0.00000000000E+00 -0.11641768574E+04  0.11641768574E+04  0.50400001928E-02 0. -1.
    10030    2    1    2    0    0  0.00000000000E+00  0.00000000000E+00  0.18575816856E+04  0.41859354005E+04  0.37511925381E+04 0.  0.
        4    1    3    3  502    0 -0.14268806607E+04  0.10123731950E+03  0.22824874845E+04  0.26936941446E+04  0.12699999809E+01 0.  1.
       -4    1    3    3    0  502  0.14268806607E+04 -0.10123731950E+03 -0.42490579887E+03  0.14922412559E+04  0.12699999809E+01 0. -1.
</event>
<event>
 5   0  0.4750125E-08  0.3896916E+04  0.7818609E-02  0.8025671E-01
        1   -1    0    0  501    0  0.00000000000E+00  0.00000000000E+00  0.21262939371E+04  0.21262939371E+04  0.50400001928E-02 0.  1.
       -1   -1    0    0    0  501  0.00000000000E+00  0.00000000000E+00 -0.17854955874E+04  0.17854955874E+04  0.50400001928E-02 0. -1.
    10030    2    1    2    0    0  0.00000000000E+00  0.00000000000E+00  0.34079834975E+03  0.39117895245E+04  0.38969159304E+04 0.  0.
        4    1    3    3  502    0 -0.37389500640E+03 -0.20024652107E+03  0.20793912359E+04  0.21222077349E+04  0.12699999809E+01 0.  1.
       -4    1    3    3    0  502  0.37389500640E+03  0.20024652107E+03 -0.17385928862E+04  0.17895817896E+04  0.12699999809E+01 0. -1.
</event>
<event>
 5   0  0.4750125E-08  0.3870045E+04  0.7818609E-02  0.8031288E-01
        1   -1    0    0  501    0  0.00000000000E+00  0.00000000000E+00  0.16846783288E+04  0.16846783288E+04  0.50400001928E-02 0.  1.
       -1   -1    0    0    0  501  0.00000000000E+00  0.00000000000E+00 -0.22225679430E+04  0.22225679430E+04  0.50400001928E-02 0. -1.
    10030    2    1    2    0    0  0.00000000000E+00  0.00000000000E+00 -0.53788961419E+03  0.39072462718E+04  0.38700449857E+04 0.  0.
        4    1    3    3  502    0 -0.44333271161E+03 -0.15592018667E+04  0.79793252967E+03  0.18067518616E+04  0.12699999809E+01 0.  1.
       -4    1    3    3    0  502  0.44333271161E+03  0.15592018667E+04 -0.13358221439E+04  0.21004944102E+04  0.12699999809E+01 0. -1.
</event>
<event>
 5   0  0.1546846E-07  0.3820489E+04  0.7818609E-02  0.8041772E-01
        2   -1    0    0  501    0  0.00000000000E+00  0.00000000000E+00  0.19515526818E+04  0.19515526818E+04  0.25500000920E-02 0.  1.
       -2   -1    0    0    0  501  0.00000000000E+00  0.00000000000E+00 -0.18698106409E+04  0.18698106409E+04  0.25500000920E-02 0. -1.
    10030    2    1    2    0    0  0.00000000000E+00  0.00000000000E+00  0.81742040941E+02  0.38213633227E+04  0.38204889586E+04 0.  0.
        2    1    3    3  502    0  0.98215335016E+03 -0.37725496628E+03 -0.15538863795E+04  0.18765685154E+04  0.25500000920E-02 0. -1.
       -2    1    3    3    0  502 -0.98215335016E+03  0.37725496628E+03  0.16356284204E+04  0.19447948073E+04  0.25500000920E-02 0.  1.
</event>
<event>
 5   0  0.1501585E-07  0.3840360E+04  0.7818609E-02  0.8037549E-01
       -2   -1    0    0    0  501  0.00000000000E+00  0.00000000000E+00  0.29674139641E+04  0.29674139641E+04  0.25500000920E-02 0.  1.
        2   -1    0    0  501    0  0.00000000000E+00  0.00000000000E+00 -0.12425265713E+04  0.12425265713E+04  0.25500000920E-02 0. -1.
    10030    2    1    2    0    0  0.00000000000E+00  0.00000000000E+00  0.17248873928E+04  0.42099405354E+04  0.38403597219E+04 0.  0.
        5    1    3    3  502    0 -0.46422585756E+03  0.18694383778E+03 -0.11697705604E+04  0.12723360009E+04  0.46999998093E+01 0. -1.
       -5    1    3    3    0  502  0.46422585756E+03 -0.18694383778E+03  0.28946579531E+04  0.29376045344E+04  0.46999998093E+01 0.  1.
</event>
<event>
 5   0  0.1501585E-07  0.3463799E+04  0.7818609E-02  0.8122423E-01
        2   -1    0    0  501    0  0.00000000000E+00  0.00000000000E+00  0.21915412403E+04  0.21915412403E+04  0.25500000920E-02 0. -1.
       -2   -1    0    0    0  501  0.00000000000E+00  0.00000000000E+00 -0.13686608332E+04  0.13686608332E+04  0.25500000920E-02 0.  1.
    10030    2    1    2    0    0  0.00000000000E+00  0.00000000000E+00  0.82288040705E+03  0.35602020735E+04  0.34637994515E+04 0.  0.
        5    1    3    3  502    0 -0.42629052796E+03  0.31952090111E+03  0.21052233072E+04  0.21715903121E+04  0.46999998093E+01 0. -1.
       -5    1    3    3    0  502  0.42629052796E+03 -0.31952090111E+03 -0.12823429001E+04  0.13886117614E+04  0.46999998093E+01 0.  1.
</event>
<event>
 5   0  0.1520986E-07  0.3704985E+04  0.7818609E-02  0.8066858E-01
        2   -1    0    0  501    0  0.00000000000E+00  0.00000000000E+00  0.19974082474E+04  0.19974082474E+04  0.25500000920E-02 0. -1.
       -2   -1    0    0    0  501  0.00000000000E+00  0.00000000000E+00 -0.17180908165E+04  0.17180908165E+04  0.25500000920E-02 0.  1.
    10030    2    1    2    0    0  0.00000000000E+00  0.00000000000E+00  0.27931743089E+03  0.37154990639E+04  0.37049851642E+04 0.  0.
        4    1    3    3  502    0  0.79293911809E+03 -0.16147098086E+04  0.58327921580E+03  0.18910992748E+04  0.12699999809E+01 0. -1.
       -4    1    3    3    0  502 -0.79293911809E+03  0.16147098086E+04 -0.30396178492E+03  0.18243997891E+04  0.12699999809E+01 0.  1.
</event>
<event>
 5   0  0.4750125E-08  0.3903768E+04  0.7818609E-02  0.8024246E-01
       -1   -1    0    0    0  501  0.00000000000E+00  0.00000000000E+00  0.18620728703E+04  0.18620728703E+04  0.50400001928E-02 0.  1.
        1   -1    0    0  501    0  0.00000000000E+00  0.00000000000E+00 -0.20460270872E+04  0.20460270872E+04  0.50400001928E-02 0. -1.
    10030    2    1    2    0    0  0.00000000000E+00  0.00000000000E+00 -0.18395421689E+03  0.39080999574E+04  0.39037681954E+04 0.  0.
        1    1    3    3  502    0  0.16364461002E+04  0.76431485366E+03 -0.83287838873E+03  0.19889241929E+04  0.50400001928E-02 0. -1.
       -1    1    3    3    0  502 -0.16364461002E+04 -0.76431485366E+03  0.64892417184E+03  0.19191757646E+04  0.50400001928E-02 0.  1.
</event>
<event>
 5   0  0.4762788E-08  0.3899195E+04  0.7818609E-02  0.8025197E-01
       -1   -1    0    0    0  501  0.00000000000E+00  0.00000000000E+00  0.19608137766E+04  0.19608137766E+04  0.50400001928E-02 0. -1.
        1   -1    0    0  501    0  0.00000000000E+00  0.00000000000E+00 -0.19384452786E+04  0.19384452786E+04  0.50400001928E-02 0.  1.
    10030    2    1    2    0    0  0.00000000000E+00  0.00000000000E+00  0.22368497947E+02  0.38992590552E+04  0.38991948951E+04 0.  0.
        2    1    3    3  502    0 -0.17532133461E+02 -0.97137855299E+03 -0.16791235819E+04  0.19399329040E+04  0.25500000920E-02 0.  1.
       -2    1    3    3    0  502  0.17532133461E+02  0.97137855299E+03  0.17014920798E+04  0.19593261512E+04  0.25500000920E-02 0. -1.
</event>
<event>
 5   0  0.1546846E-07  0.3888293E+04  0.7818609E-02  0.8027468E-01
       -2   -1    0    0    0  501  0.00000000000E+00  0.00000000000E+00  0.14400236866E+04  0.14400236866E+04  0.25500000920E-02 0.  1.
        2   -1    0    0  501    0  0.00000000000E+00  0.00000000000E+00 -0.26247526649E+04  0.26247526649E+04  0.25500000920E-02 0. -1.
    10030    2    1    2    0    0  0.00000000000E+00  0.00000000000E+00 -0.11847289783E+04  0.40647763515E+04  0.38882932034E+04 0.  0.
        2    1    3    3  502    0 -0.11016447681E+04 -0.13073430930E+04 -0.15600908368E+04  0.23144439023E+04  0.25500000920E-02 0. -1.
       -2    1    3    3    0  502  0.11016447681E+04  0.13073430930E+04  0.37536185850E+03  0.17503324492E+04  0.25500000920E-02 0.  1.
</event>
<event>
 5   0  0.4762788E-08  0.3886633E+04  0.7818609E-02  0.8027815E-01
       -1   -1    0    0    0  501  0.00000000000E+00  0.00000000000E+00  0.17673552155E+04  0.17673552155E+04  0.50400001928E-02 0. -1.
        1   -1    0    0  501    0  0.00000000000E+00  0.00000000000E+00 -0.21367969328E+04  0.21367969328E+04  0.50400001928E-02 0.  1.
    10030    2    1    2    0    0  0.00000000000E+00  0.00000000000E+00 -0.36944171733E+03  0.39041521483E+04  0.38866330949E+04 0.  0.
        2    1    3    3  502    0  0.80247213020E+03 -0.18891003505E+03 -0.19524345285E+04  0.21193511057E+04  0.25500000920E-02 0.  1.
       -2    1    3    3    0  502 -0.80247213020E+03  0.18891003505E+03  0.15829928112E+04  0.17848010425E+04  0.25500000920E-02 0. -1.
</event>
<event>
 5   0  0.1503228E-07  0.3886638E+04  0.7818609E-02  0.8027814E-01
        2   -1    0    0  501    0  0.00000000000E+00  0.00000000000E+00  0.22906145813E+04  0.22906145813E+04  0.25500000920E-02 0.  1.
       -2   -1    0    0    0  501  0.00000000000E+00  0.00000000000E+00 -0.16486796226E+04  0.16486796226E+04  0.25500000920E-02 0. -1.
    10030    2    1    2    0    0  0.00000000000E+00  0.00000000000E+00  0.64193495860E+03  0.39392942039E+04  0.38866384362E+04 0.  0.
        3    1    3    3  502    0 -0.12245211462E+04  0.76902459057E+03 -0.99494354248E+03  0.17552103923E+04  0.10100000352E+00 0. -1.
       -3    1    3    3    0  502  0.12245211462E+04 -0.76902459057E+03  0.16368785011E+04  0.21840838116E+04  0.10100000352E+00 0.  1.
</event>
<event>
 5   0  0.1501585E-07  0.3908071E+04  0.7818609E-02  0.8023353E-01
        2   -1    0    0  501    0  0.00000000000E+00  0.00000000000E+00  0.14332800136E+04  0.14332800136E+04  0.25500000920E-02 0.  1.
       -2   -1    0    0    0  501  0.00000000000E+00  0.00000000000E+00 -0.26639980336E+04  0.26639980336E+04  0.25500000920E-02 0. -1.
    10030    2    1    2    0    0  0.00000000000E+00  0.00000000000E+00 -0.12307180200E+04  0.40972780471E+04  0.39080712059E+04 0.  0.
        5    1    3    3  502    0 -0.33681961704E+03 -0.19933013780E+03 -0.26224779248E+04  0.26515264499E+04  0.46999998093E+01 0. -1.
       -5    1    3    3    0  502  0.33681961704E+03  0.19933013780E+03  0.13917599048E+04  0.14457515972E+04  0.46999998093E+01 0.  1.
</event>
<event>
 5   0  0.4750125E-08  0.3886452E+04  0.7818609E-02  0.8027853E-01
       -1   -1    0    0    0  501  0.00000000000E+00  0.00000000000E+00  0.20454265677E+04  0.20454265677E+04  0.50400001928E-02 0.  1.
        1   -1    0    0  501    0  0.00000000000E+00  0.00000000000E+00 -0.18461316398E+04  0.18461316398E+04  0.50400001928E-02 0. -1.
    10030    2    1    2    0    0  0.00000000000E+00  0.00000000000E+00  0.19929492796E+03  0.38915582075E+04  0.38864516997E+04 0.  0.
        5    1    3    3  502    0  0.86532620785E+03  0.37948756706E+03 -0.16006131706E+04  0.18587051599E+04  0.46999998093E+01 0. -1.
       -5    1    3    3    0  502 -0.86532620785E+03 -0.37948756706E+03  0.17999080986E+04  0.20328530475E+04  0.46999998093E+01 0.  1.
</event>
<event>
 5   0  0.4750125E-08  0.3900550E+04  0.7818609E-02  0.8024915E-01
       -1   -1    0    0    0  501  0.00000000000E+00  0.00000000000E+00  0.23124480674E+04  0.23124480674E+04  0.50400001928E-02 0. -1.
        1   -1    0    0  501    0  0.00000000000E+00  0.00000000000E+00 -0.16448251351E+04  0.16448251351E+04  0.50400001928E-02 0.  1.
    10030    2    1    2    0    0  0.00000000000E+00  0.00000000000E+00  0.66762293233E+03  0.39572732025E+04  0.39005500663E+04 0.  0.
        3    1    3    3  502    0 -0.23661196426E+03  0.15430115660E+04 -0.85225005458E+03  0.17785387485E+04  0.10100000352E+00 0.  1.
       -3    1    3    3    0  502  0.23661196426E+03 -0.15430115660E+04  0.15198729869E+04  0.21787344540E+04  0.10100000352E+00 0. -1.
</event>
<event>
 5   0  0.1503228E-07  0.3904732E+04  0.7818609E-02  0.8024046E-01
       -2   -1    0    0    0  501  0.00000000000E+00  0.00000000000E+00  0.12117019083E+04  0.12117019083E+04  0.25500000920E-02 0. -1.
        2   -1    0    0  501    0  0.00000000000E+00  0.00000000000E+00 -0.31457674610E+04  0.31457674610E+04  0.25500000920E-02 0.  1.
    10030    2    1    2    0    0  0.00000000000E+00  0.00000000000E+00 -0.19340655527E+04  0.43574693694E+04  0.39047317120E+04 0.  0.
        3    1    3    3  502    0  0.14211525129E+04 -0.12099342299E+04 -0.32780212898E+03  0.18950117550E+04  0.10100000352E+00 0. -1.
       -3    1    3    3    0  502 -0.14211525129E+04  0.12099342299E+04 -0.16062634237E+04  0.24624576143E+04  0.10100000352E+00 0.  1.
</event>
<event>
 5   0  0.1538018E-07  0.3872629E+04  0.7818609E-02  0.8030746E-01
       -2   -1    0    0    0  501  0.00000000000E+00  0.00000000000E+00  0.20620204261E+04  0.20620204261E+04  0.25500000920E-02 0.  1.
        2   -1    0    0  501    0  0.00000000000E+00  0.00000000000E+00 -0.18182716623E+04  0.18182716623E+04  0.25500000920E-02 0. -1.
    10030    2    1    2    0    0  0.00000000000E+00  0.00000000000E+00  0.24374876382E+03  0.38802920884E+04  0.38726287237E+04 0.  0.
        1    1    3    3  502    0 -0.17372160584E+04  0.35638212221E+03  0.90083510272E+03  0.19890781113E+04  0.50400001928E-02 0.  1.
       -1    1    3    3    0  502  0.17372160584E+04 -0.35638212221E+03 -0.65708633889E+03  0.18912139771E+04  0.50400001928E-02 0. -1.
</event>
<event>
 5   0  0.1538018E-07  0.3888985E+04  0.7818609E-02  0.8027324E-01
       -2   -1    0    0    0  501  0.00000000000E+00  0.00000000000E+00  0.25704340749E+04  0.25704340749E+04  0.25500000920E-02 0.  1.
        2   -1    0    0  501    0  0.00000000000E+00  0.00000000000E+00 -0.14709776843E+04  0.14709776843E+04  0.25500000920E-02 0. -1.
    10030    2    1    2    0    0  0.00000000000E+00  0.00000000000E+00  0.10994563906E+04  0.40414117592E+04  0.38889850415E+04 0.  0.
        1    1    3    3  502    0 -0.83414559237E+02  0.19427020186E+04  0.55121292623E+03  0.20211097971E+04  0.50400001928E-02 0.  1.
       -1    1    3    3    0  502  0.83414559237E+02 -0.19427020186E+04  0.54824346436E+03  0.20203019621E+04  0.50400001928E-02 0. -1.
</event>
<event>
 5   0  0.1546846E-07  0.3935191E+04  0.7818609E-02  0.8017750E-01
        2   -1    0    0  501    0  0.00000000000E+00  0.00000000000E+00  0.13078560842E+04  0.13078560842E+04  0.25500000920E-02 0. -1.
       -2   -1    0    0    0  501  0.00000000000E+00  0.00000000000E+00 -0.29601354880E+04  0.29601354880E+04  0.25500000920E-02 0.  1.
    10030    2    1    2    0    0  0.00000000000E+00  0.00000000000E+00 -0.16522794038E+04  0.42679915722E+04  0.39351905712E+04 0.  0.
        2    1    3    3  502    0 -0.10020680555E+03  0.12426503933E+04  0.82483516841E+03  0.14948493097E+04  0.25500000920E-02 0. -1.
       -2    1    3    3    0  502  0.10020680555E+03 -0.12426503933E+04 -0.24771145722E+04  0.27731422624E+04  0.25500000920E-02 0.  1.
</event>
<event>
 5   0  0.4750125E-08  0.3853575E+04  0.7818609E-02  0.8034755E-01
        1   -1    0    0  501    0  0.00000000000E+00  0.00000000000E+00  0.20122014971E+04  0.20122014971E+04  0.50400001928E-02 0. -1.
       -1   -1    0    0    0  501  0.00000000000E+00  0.00000000000E+00 -0.18449994074E+04  0.18449994074E+04  0.50400001928E-02 0.  1.
    10030    2    1    2    0    0  0.00000000000E+00  0.00000000000E+00  0.16720208973E+03  0.38572009045E+04  0.38535752592E+04 0.  0.
        1    1    3    3  502    0  0.11274537764E+04 -0.15615531092E+04  0.29601803355E+02  0.19262596911E+04  0.50400001928E-02 0. -1.
       -1    1    3    3    0  502 -0.11274537764E+04  0.15615531092E+04  0.13760028637E+03  0.19309412134E+04  0.50400001928E-02 0.  1.
</event>
<event>
 5   0  0.1538018E-07  0.3886107E+04  0.7818609E-02  0.8027925E-01
       -2   -1    0    0    0  501  0.00000000000E+00  0.00000000000E+00  0.20271848974E+04  0.20271848974E+04  0.25500000920E-02 0.  1.
        2   -1    0    0  501    0  0.00000000000E+00  0.00000000000E+00 -0.18624135401E+04  0.18624135401E+04  0.25500000920E-02 0. -1.
    10030    2    1    2    0    0  0.00000000000E+00  0.00000000000E+00  0.16477135728E+03  0.38895984375E+04  0.38861068442E+04 0.  0.
        1    1    3    3  502    0  0.54196855569E+03  0.15389950464E+04 -0.97365515733E+03  0.19000631657E+04  0.50400001928E-02 0. -1.
       -1    1    3    3    0  502 -0.54196855569E+03 -0.15389950464E+04  0.11384265146E+04  0.19895352717E+04  0.50400001928E-02 0.  1.
</event>
<event>
 5   0  0.1520986E-07  0.3944692E+04  0.7818609E-02  0.8015798E-01
        2   -1    0    0  501    0  0.00000000000E+00  0.00000000000E+00  0.25392649804E+04  0.25392649804E+04  0.25500000920E-02 0. -1.
       -2   -1    0    0    0  501  0.00000000000E+00  0.00000000000E+00 -0.15319977309E+04  0.15319977309E+04  0.25500000920E-02 0.  1.
    10030    2    1    2    0    0  0.00000000000E+00  0.00000000000E+00  0.10072672495E+04  0.40712627113E+04  0.39446917183E+04 0.  0.
        4    1    3    3  502    0  0.77574819538E+03 -0.18381917575E+02  0.23751063848E+04  0.24986506578E+04  0.12699999809E+01 0. -1.
       -4    1    3    3    0  502 -0.77574819538E+03  0.18381917575E+02 -0.13678391354E+04  0.15726120535E+04  0.12699999809E+01 0.  1.
</event>
<event>
 5   0  0.1503228E-07  0.3775700E+04  0.7818609E-02  0.8051390E-01
       -2   -1    0    0    0  501  0.00000000000E+00  0.00000000000E+00  0.15481197508E+04  0.15481197508E+04  0.25500000920E-02 0.  1.
        2   -1    0    0  501    0  0.00000000000E+00  0.00000000000E+00 -0.23021325528E+04  0.23021325528E+04  0.25500000920E-02 0. -1.
    10030    2    1    2    0    0  0.00000000000E+00  0.00000000000E+00 -0.75401280207E+03  0.38502523036E+04  0.37756996035E+04 0.  0.
        3    1    3    3  502    0  0.11681310969E+04  0.23897720688E+03 -0.18695794607E+04  0.22174236706E+04  0.10100000352E+00 0. -1.
       -3    1    3    3    0  502 -0.11681310969E+04 -0.23897720688E+03  0.11155666586E+04  0.16328286330E+04  0.10100000352E+00 0.  1.
</event>
<event>
 5   0  0.4750125E-08  0.3879628E+04  0.7818609E-02  0.8029280E-01
        1   -1    0    0  501    0  0.00000000000E+00  0.00000000000E+00  0.21485187011E+04  0.21485187011E+04  0.50400001928E-02 0.  1.
       -1   -1    0    0    0  501  0.00000000000E+00  0.00000000000E+00 -0.17513827548E+04  0.17513827548E+04  0.50400001928E-02 0. -1.
    10030    2    1    2    0    0  0.00000000000E+00  0.00000000000E+00  0.39713594630E+03  0.38999014559E+04  0.38796281273E+04 0.  0.
        5    1    3    3  502    0  0.13773464916E+04 -0.40243040938E+03  0.15106946400E+04  0.20835676081E+04  0.46999998093E+01 0.  1.
       -5    1    3    3    0  502 -0.13773464916E+04  0.40243040938E+03 -0.11135586937E+04  0.18163338478E+04  0.46999998093E+01 0. -1.
</event>
<event>
 5   0  0.4762788E-08  0.4014238E+04  0.7818609E-02  0.8001680E-01
       -1   -1    0    0    0  501  0.00000000000E+00  0.00000000000E+00  0.15206447526E+04  0.15206447526E+04  0.50400001928E-02 0. -1.
        1   -1    0    0  501    0  0.00000000000E+00  0.00000000000E+00 -0.26492229120E+04  0.26492229120E+04  0.50400001928E-02 0.  1.
    10030    2    1    2    0    0  0.00000000000E+00  0.00000000000E+00 -0.11285781594E+04  0.41698676646E+04  0.40142381193E+04 0.  0.
        2    1    3    3  502    0 -0.11222395086E+04  0.13703162606E+04 -0.15449989259E+04  0.23503637697E+04  0.25500000920E-02 0.  1.
       -2    1    3    3    0  502  0.11222395086E+04 -0.13703162606E+04  0.41642076649E+03  0.18195038949E+04  0.25500000920E-02 0. -1.
</event>
<event>
 5   0  0.1538018E-07  0.3451684E+04  0.7818609E-02  0.8125337E-01
       -2   -1    0    0    0  501  0.00000000000E+00  0.00000000000E+00  0.11154441875E+04  0.11154441875E+04  0.25500000920E-02 0. -1.
        2   -1    0    0  501    0  0.00000000000E+00  0.00000000000E+00 -0.26702646392E+04  0.26702646392E+04  0.25500000920E-02 0.  1.
    10030    2    1    2    0    0  0.00000000000E+00  0.00000000000E+00 -0.15548204517E+04  0.37857088267E+04  0.34516843256E+04 0.  0.
        1    1    3    3  502    0  0.78870632018E+03 -0.72070822399E+03  0.70913114456E+03  0.12823201565E+04  0.50400001928E-02 0. -1.
       -1    1    3    3    0  502 -0.78870632018E+03  0.72070822399E+03 -0.22639515963E+04  0.25033886702E+04  0.50400001928E-02 0.  1.
</event>
<event>
 5   0  0.1520986E-07  0.3911221E+04  0.7818609E-02  0.8022700E-01
        2   -1    0    0  501    0  0.00000000000E+00  0.00000000000E+00  0.25471671648E+04  0.25471671648E+04  0.25500000920E-02 0.  1.
       -2   -1    0    0    0  501  0.00000000000E+00  0.00000000000E+00 -0.15014373530E+04  0.15014373530E+04  0.25500000920E-02 0. -1.
    10030    2    1    2    0    0  0.00000000000E+00  0.00000000000E+00  0.10457298118E+04  0.40486045178E+04  0.39112207432E+04 0.  0.
        4    1    3    3  502    0  0.67687281826E+03  0.69909188531E+03 -0.12330461280E+04  0.15707611667E+04  0.12699999809E+01 0. -1.
       -4    1    3    3    0  502 -0.67687281826E+03 -0.69909188531E+03  0.22787759397E+04  0.24778433511E+04  0.12699999809E+01 0.  1.
</event>
<event>
 5   0  0.1503228E-07  0.3860932E+04  0.7818609E-02  0.8033204E-01
       -2   -1    0    0    0  501  0.00000000000E+00  0.00000000000E+00  0.17546832062E+04  0.17546832062E+04  0.25500000920E-02 0.  1.
        2   -1    0    0  501    0  0.00000000000E+00  0.00000000000E+00 -0.21238580277E+04  0.21238580277E+04  0.25500000920E-02 0. -1.
    10030    2    1    2    0    0  0.00000000000E+00  0.00000000000E+00 -0.36917482153E+03  0.38785412339E+04  0.38609315008E+04 0.  0.
        3    1    3    3  502    0  0.14263218837E+04 -0.67307965537E+03  0.93371400683E+03  0.18328262861E+04  0.10100000352E+00 0.  1.
       -3    1    3    3    0  502 -0.14263218837E+04  0.67307965537E+03 -0.13028888284E+04  0.20457149478E+04  0.10100000352E+00 0. -1.
</event>
<event>
 5   0  0.4750125E-08  0.3928407E+04  0.7818609E-02  0.8019147E-01
       -1   -1    0    0    0  501  0.00000000000E+00  0.00000000000E+00  0.15338301479E+04  0.15338301479E+04  0.50400001928E-02 0. -1.
        1   -1    0    0  501    0  0.00000000000E+00  0.00000000000E+00 -0.25153346978E+04  0.25153346978E+04  0.50400001928E-02 0.  1.
    10030    2    1    2    0    0  0.00000000000E+00  0.00000000000E+00 -0.98150454989E+03  0.40491648456E+04  0.39284074083E+04 0.  0.
        3    1    3    3  502    0 -0.19954440472E+03 -0.29752907555E+03  0.14998709603E+04  0.15420617458E+04  0.10100000352E+00 0. -1.
       -3    1    3    3    0  502  0.19954440472E+03  0.29752907555E+03 -0.24813755102E+04  0.25071030998E+04  0.10100000352E+00 0.  1.
</event>
<event>
 5   0  0.1546846E-07  0.3858829E+04  0.7818609E-02  0.8033647E-01
       -2   -1    0    0    0  501  0.00000000000E+00  0.00000000000E+00  0.16187250876E+04  0.16187250876E+04  0.25500000920E-02 0. -1.
        2   -1    0    0  501    0  0.00000000000E+00  0.00000000000E+00 -0.22997355860E+04  0.22997355860E+04  0.25500000920E-02 0.  1.
    10030    2    1    2    0    0  0.00000000000E+00  0.00000000000E+00 -0.68101049835E+03  0.39184606736E+04  0.38588286761E+04 0.  0.
        2    1    3    3  502    0 -0.12985191494E+03  0.18325486097E+04  0.25813338813E+03  0.18551896865E+04  0.25500000920E-02 0. -1.
       -2    1    3    3    0  502  0.12985191494E+03 -0.18325486097E+04 -0.93914388648E+03  0.20632709871E+04  0.25500000920E-02 0.  1.
</event>
<event>
 5   0  0.4750125E-08  0.3798150E+04  0.7818609E-02  0.8046552E-01
        1   -1    0    0  501    0  0.00000000000E+00  0.00000000000E+00  0.24137854827E+04  0.24137854827E+04  0.50400001928E-02 0. -1.
       -1   -1    0    0    0  501  0.00000000000E+00  0.00000000000E+00 -0.14941199577E+04  0.14941199577E+04  0.50400001928E-02 0.  1.
    10030    2    1    2    0    0  0.00000000000E+00  0.00000000000E+00  0.91966552499E+03  0.39079054405E+04  0.37981495829E+04 0.  0.
        1    1    3    3  502    0 -0.99217023870E+02  0.14332450786E+04 -0.81801015937E+03  0.16532320146E+04  0.50400001928E-02 0.  1.
       -1    1    3    3    0  502  0.99217023870E+02 -0.14332450786E+04  0.17376756844E+04  0.22546734259E+04  0.50400001928E-02 0. -1.
</event>
<event>
 5   0  0.4762788E-08  0.3491511E+04  0.7818609E-02  0.8115805E-01
        1   -1    0    0  501    0  0.00000000000E+00  0.00000000000E+00  0.20834236034E+04  0.20834236034E+04  0.50400001928E-02 0. -1.
       -1   -1    0    0    0  501  0.00000000000E+00  0.00000000000E+00 -0.14628141006E+04  0.14628141006E+04  0.50400001928E-02 0.  1.
    10030    2    1    2    0    0  0.00000000000E+00  0.00000000000E+00  0.62060950287E+03  0.35462377040E+04  0.34915105181E+04 0.  0.
        2    1    3    3  502    0 -0.42883930129E+03 -0.48991616395E+03  0.19554904368E+04  0.20610346533E+04  0.25500000920E-02 0. -1.
       -2    1    3    3    0  502  0.42883930129E+03  0.48991616395E+03 -0.13348809339E+04  0.14852030507E+04  0.25500000920E-02 0.  1.
</event>
<event>
 5   0  0.1501585E-07  0.3881666E+04  0.7818609E-02  0.8028853E-01
        2   -1    0    0  501    0  0.00000000000E+00  0.00000000000E+00  0.17158967038E+04  0.17158967038E+04  0.25500000920E-02 0.  1.
       -2   -1    0    0    0  501  0.00000000000E+00  0.00000000000E+00 -0.21952560283E+04  0.21952560283E+04  0.25500000920E-02 0. -1.
    10030    2    1    2    0    0  0.00000000000E+00  0.00000000000E+00 -0.47935932450E+03  0.39111527321E+04  0.38816659223E+04 0.  0.
        5    1    3    3  502    0 -0.73926818412E+03 -0.69669470501E+03 -0.19059984972E+04  0.21598040007E+04  0.46999998093E+01 0. -1.
       -5    1    3    3    0  502  0.73926818412E+03  0.69669470501E+03  0.14266391727E+04  0.17513487314E+04  0.46999998093E+01 0.  1.
</event>
<event>
 5   0  0.4750125E-08  0.3932451E+04  0.7818609E-02  0.8018314E-01
       -1   -1    0    0    0  501  0.00000000000E+00  0.00000000000E+00  0.18973137269E+04  0.18973137269E+04  0.50400001928E-02 0. -1.
        1   -1    0    0  501    0  0.00000000000E+00  0.00000000000E+00 -0.20376406712E+04  0.20376406712E+04  0.50400001928E-02 0.  1.
    10030    2    1    2    0    0  0.00000000000E+00  0.00000000000E+00 -0.14032694433E+03  0.39349543981E+04  0.39324514572E+04 0.  0.
        1    1    3    3  502    0  0.26897041368E+03 -0.22953797984E+02  0.18786827956E+04  0.18979781365E+04  0.50400001928E-02 0. -1.
       -1    1    3    3    0  502 -0.26897041368E+03  0.22953797984E+02 -0.20190097399E+04  0.20369762616E+04  0.50400001928E-02 0.  1.
</event>
<event>
 5   0  0.1520986E-07  0.3872861E+04  0.7818609E-02  0.8030697E-01
       -2   -1    0    0    0  501  0.00000000000E+00  0.00000000000E+00  0.23385076180E+04  0.23385076180E+04  0.25500000920E-02 0. -1.
        2   -1    0    0  501    0  0.00000000000E+00  0.00000000000E+00 -0.16034851062E+04  0.16034851062E+04  0.25500000920E-02 0.  1.
    10030    2    1    2    0    0  0.00000000000E+00  0.00000000000E+00  0.73502251185E+03  0.39419927242E+04  0.38728605119E+04 0.  0.
        4    1    3    3  502    0  0.24977271482E+03 -0.66500387750E+03 -0.14660733182E+04  0.16291068576E+04  0.12699999809E+01 0.  1.
       -4    1    3    3    0  502 -0.24977271482E+03  0.66500387750E+03  0.22010958300E+04  0.23128858666E+04  0.12699999809E+01 0. -1.
</event>
<event>
 5   0  0.1503228E-07  0.3880172E+04  0.7818609E-02  0.8029166E-01
       -2   -1    0    0    0  501  0.00000000000E+00  0.00000000000E+00  0.15026267344E+04  0.15026267344E+04  0.25500000920E-02 0.  1.
        2   -1    0    0  501    0  0.00000000000E+00  0.00000000000E+00 -0.25049032195E+04  0.25049032195E+04  0.25500000920E-02 0. -1.
    10030    2    1    2    0    0  0.00000000000E+00  0.00000000000E+00 -0.10022764851E+04  0.40075299540E+04  0.38801724420E+04 0.  0.
        3    1    3    3  502    0 -0.53350998543E+03 -0.18651171400E+03  0.14157190927E+04  0.15243621891E+04  0.10100000352E+00 0.  1.
       -3    1    3    3    0  502  0.53350998543E+03  0.18651171400E+03 -0.24179955778E+04  0.24831677649E+04  0.10100000352E+00 0. -1.
</event>
<event>
 5   0  0.1503228E-07  0.3757134E+04  0.7818609E-02  0.8055417E-01
       -2   -1    0    0    0  501  0.00000000000E+00  0.00000000000E+00  0.24348473406E+04  0.24348473406E+04  0.25500000920E-02 0. -1.
        2   -1    0    0  501    0  0.00000000000E+00  0.00000000000E+00 -0.14493778159E+04  0.14493778159E+04  0.25500000920E-02 0.  1.
    10030    2    1    2    0    0  0.00000000000E+00  0.00000000000E+00  0.98546952464E+03  0.38842251565E+04  0.37571338654E+04 0.  0.
        3    1    3    3  502    0  0.18469832008E+04 -0.27755217409E+03  0.70112600299E+03  0.19949836680E+04  0.10100000352E+00 0. -1.
       -3    1    3    3    0  502 -0.18469832008E+04  0.27755217409E+03  0.28434352165E+03  0.18892414885E+04  0.10100000352E+00 0.  1.
</event>
<event>
 5   0  0.4750125E-08  0.3937101E+04  0.7818609E-02  0.8017357E-01
       -1   -1    0    0    0  501  0.00000000000E+00  0.00000000000E+00  0.21509107876E+04  0.21509107876E+04  0.50400001928E-02 0.  1.
        1   -1    0    0  501    0  0.00000000000E+00  0.00000000000E+00 -0.18016509430E+04  0.18016509430E+04  0.50400001928E-02 0. -1.
    10030    2    1    2    0    0  0.00000000000E+00  0.00000000000E+00  0.34925984457E+03  0.39525617306E+04  0.39371006839E+04 0.  0.
        5    1    3    3  502    0 -0.12593831386E+04 -0.12271636942E+04  0.10630864623E+04  0.20547874679E+04  0.46999998093E+01 0. -1.
       -5    1    3    3    0  502  0.12593831386E+04  0.12271636942E+04 -0.71382661770E+03  0.18977742627E+04  0.46999998093E+01 0.  1.
</event>
<event>
 5   0  0.1546846E-07  0.3901692E+04  0.7818609E-02  0.8024677E-01
       -2   -1    0    0    0  501  0.00000000000E+00  0.00000000000E+00  0.20702195466E+04  0.20702195466E+04  0.25500000920E-02 0.  1.
        2   -1    0    0  501    0  0.00000000000E+00  0.00000000000E+00 -0.18383559012E+04  0.18383559012E+04  0.25500000920E-02 0. -1.
    10030    2    1    2    0    0  0.00000000000E+00  0.00000000000E+00  0.23186364542E+03  0.39085754478E+04  0.39016921049E+04 0.  0.
        2    1    3    3  502    0 -0.12378156603E+04  0.13721142273E+04  0.74226701765E+03  0.19914430414E+04  0.25500000920E-02 0.  1.
       -2    1    3    3    0  502  0.12378156603E+04 -0.13721142273E+04 -0.51040337223E+03  0.19171324065E+04  0.25500000920E-02 0. -1.
</event>
<event>
 5   0  0.1520986E-07  0.3894441E+04  0.7818609E-02  0.8026186E-01
       -2   -1    0    0    0  501  0.00000000000E+00  0.00000000000E+00  0.18328114698E+04  0.18328114698E+04  0.25500000920E-02 0. -1.
        2   -1    0    0  501    0  0.00000000000E+00  0.00000000000E+00 -0.20687707700E+04  0.20687707700E+04  0.25500000920E-02 0.  1.
    10030    2    1    2    0    0  0.00000000000E+00  0.00000000000E+00 -0.23595930019E+03  0.39015822399E+04  0.38944405482E+04 0.  0.
        4    1    3    3  502    0 -0.17527232318E+04  0.79694254775E+03  0.17325781931E+03  0.19331777043E+04  0.12699999809E+01 0. -1.
       -4    1    3    3    0  502  0.17527232318E+04 -0.79694254775E+03 -0.40921711950E+03  0.19684045355E+04  0.12699999809E+01 0.  1.
</event>
<event>
 5   0  0.1520986E-07  0.3891542E+04  0.7818609E-02  0.8026791E-01
        2   -1    0    0  501    0  0.00000000000E+00  0.00000000000E+00  0.17664760790E+04  0.17664760790E+04  0.25500000920E-02 0. -1.
       -2   -1    0    0    0  501  0.00000000000E+00  0.00000000000E+00 -0.21432643346E+04  0.21432643346E+04  0.25500000920E-02 0.  1.
    10030    2    1    2    0    0  0.00000000000E+00  0.00000000000E+00 -0.37678825555E+03  0.39097404136E+04  0.38915422023E+04 0.  0.
        4    1    3    3  502    0  0.98643160324E+02  0.62069374518E+03  0.16616928506E+04  0.17765742149E+04  0.12699999809E+01 0. -1.
       -4    1    3    3    0  502 -0.98643160324E+02 -0.62069374518E+03 -0.20384811061E+04  0.21331661987E+04  0.12699999809E+01 0.  1.
</event>
<event>
 5   0  0.4750125E-08  0.3894879E+04  0.7818609E-02  0.8026095E-01
       -1   -1    0    0    0  501  0.00000000000E+00  0.00000000000E+00  0.16391000866E+04  0.16391000866E+04  0.50400001928E-02 0. -1.
        1   -1    0    0  501    0  0.00000000000E+00  0.00000000000E+00 -0.23137823087E+04  0.23137823087E+04  0.50400001928E-02 0.  1.
    10030    2    1    2    0    0  0.00000000000E+00  0.00000000000E+00 -0.67468222216E+03  0.39528823953E+04  0.38948790906E+04 0.  0.
        4    1    3    3  502    0  0.10254862255E+04  0.57840511850E+03  0.12369999825E+04  0.17077309652E+04  0.12699999809E+01 0. -1.
       -4    1    3    3    0  502 -0.10254862255E+04 -0.57840511850E+03 -0.19116822046E+04  0.22451514301E+04  0.12699999809E+01 0.  1.
</event>
<event>
 5   0  0.4750125E-08  0.3892226E+04  0.7818609E-02  0.8026648E-01
        1   -1    0    0  501    0  0.00000000000E+00  0.00000000000E+00  0.24795304952E+04  0.24795304952E+04  0.50400001928E-02 0. -1.
       -1   -1    0    0    0  501  0.00000000000E+00  0.00000000000E+00 -0.15274491077E+04  0.15274491078E+04  0.50400001928E-02 0.  1.
    10030    2    1    2    0    0  0.00000000000E+00  0.00000000000E+00  0.95208138746E+03  0.40069796030E+04  0.38922264284E+04 0.  0.
        5    1    3    3  502    0 -0.74220512413E+03 -0.87779707414E+03  0.20926688800E+04  0.23876099516E+04  0.46999998093E+01 0. -1.
       -5    1    3    3    0  502  0.74220512413E+03  0.87779707414E+03 -0.11405874925E+04  0.16193696514E+04  0.46999998093E+01 0.  1.
</event>
<event>
 5   0  0.4750125E-08  0.3904116E+04  0.7818609E-02  0.8024174E-01
        1   -1    0    0  501    0  0.00000000000E+00  0.00000000000E+00  0.15866305796E+04  0.15866305796E+04  0.50400001928E-02 0.  1.
       -1   -1    0    0    0  501  0.00000000000E+00  0.00000000000E+00 -0.24016498339E+04  0.24016498339E+04  0.50400001928E-02 0. -1.
    10030    2    1    2    0    0  0.00000000000E+00  0.00000000000E+00 -0.81501925437E+03  0.39882804135E+04  0.39041163241E+04 0.  0.
        1    1    3    3  502    0  0.10125584972E+04 -0.35831950647E+03 -0.20726373710E+04  0.23344149697E+04  0.50400001928E-02 0. -1.
       -1    1    3    3    0  502 -0.10125584972E+04  0.35831950647E+03  0.12576181166E+04  0.16538654438E+04  0.50400001928E-02 0.  1.
</event>
<event>
 5   0  0.4750125E-08  0.3861499E+04  0.7818609E-02  0.8033085E-01
       -1   -1    0    0    0  501  0.00000000000E+00  0.00000000000E+00  0.13009154862E+04  0.13009154862E+04  0.50400001928E-02 0. -1.
        1   -1    0    0  501    0  0.00000000000E+00  0.00000000000E+00 -0.28655162543E+04  0.28655162543E+04  0.50400001928E-02 0.  1.
    10030    2    1    2    0    0  0.00000000000E+00  0.00000000000E+00 -0.15646007681E+04  0.41664317405E+04  0.38614994347E+04 0.  0.
        4    1    3    3  502    0  0.16616708462E+04 -0.63599940510E+03 -0.15912723675E+04  0.23870053634E+04  0.12699999809E+01 0.  1.
       -4    1    3    3    0  502 -0.16616708462E+04  0.63599940510E+03  0.26671599417E+02  0.17794263771E+04  0.12699999809E+01 0. -1.
</event>
<event>
 5   0  0.4750125E-08  0.3918232E+04  0.7818609E-02  0.8021248E-01
       -1   -1    0    0    0  501  0.00000000000E+00  0.00000000000E+00  0.20688823612E+04  0.20688823612E+04  0.50400001928E-02 0.  1.
        1   -1    0    0  501    0  0.00000000000E+00  0.00000000000E+00 -0.18551736587E+04  0.18551736587E+04  0.50400001928E-02 0. -1.
    10030    2    1    2    0    0  0.00000000000E+00  0.00000000000E+00  0.21370870253E+03  0.39240560199E+04  0.39182322848E+04 0.  0.
        1    1    3    3  502    0  0.12505271392E+04 -0.13784284708E+04  0.71952573805E+03  0.19953948137E+04  0.50400001928E-02 0.  1.
       -1    1    3    3    0  502 -0.12505271392E+04  0.13784284708E+04 -0.50581703552E+03  0.19286612062E+04  0.50400001928E-02 0. -1.
</event>
<event>
 5   0  0.1546846E-07  0.3895615E+04  0.7818609E-02  0.8025942E-01
        2   -1    0    0  501    0  0.00000000000E+00  0.00000000000E+00  0.13937728620E+04  0.13937728620E+04  0.25500000920E-02 0.  1.
       -2   -1    0    0    0  501  0.00000000000E+00  0.00000000000E+00 -0.27220742793E+04  0.27220742793E+04  0.25500000920E-02 0. -1.
    10030    2    1    2    0    0  0.00000000000E+00  0.00000000000E+00 -0.13283014173E+04  0.41158471413E+04  0.38956145902E+04 0.  0.
        2    1    3    3  502    0 -0.11996251402E+04  0.53438050946E+03 -0.21839770223E+04  0.25484149269E+04  0.25500000920E-02 0. -1.
       -2    1    3    3    0  502  0.11996251402E+04 -0.53438050946E+03  0.85567560497E+03  0.15674322144E+04  0.25500000920E-02 0.  1.
</event>
<event>
 5   0  0.4750125E-08  0.3905777E+04  0.7818609E-02  0.8023829E-01
       -1   -1    0    0    0  501  0.00000000000E+00  0.00000000000E+00  0.14214654155E+04  0.14214654155E+04  0.50400001928E-02 0. -1.
        1   -1    0    0  501    0  0.00000000000E+00  0.00000000000E+00 -0.26829878122E+04  0.26829878122E+04  0.50400001928E-02 0.  1.
    10030    2    1    2    0    0  0.00000000000E+00  0.00000000000E+00 -0.12615223967E+04  0.41044532276E+04  0.39057774566E+04 0.  0.
        4    1    3    3  502    0  0.18588998092E+04  0.44407402256E+03 -0.10525014770E+04  0.21818504096E+04  0.12699999809E+01 0.  1.
       -4    1    3    3    0  502 -0.18588998092E+04 -0.44407402256E+03 -0.20902091969E+03  0.19226028180E+04  0.12699999809E+01 0. -1.
</event>
<event>
 5   0  0.1520986E-07  0.3893822E+04  0.7818609E-02  0.8026315E-01
       -2   -1    0    0    0  501  0.00000000000E+00  0.00000000000E+00  0.25092893587E+04  0.25092893587E+04  0.25500000920E-02 0.  1.
        2   -1    0    0  501    0  0.00000000000E+00  0.00000000000E+00 -0.15105720129E+04  0.15105720129E+04  0.25500000920E-02 0. -1.
    10030    2    1    2    0    0  0.00000000000E+00  0.00000000000E+00  0.99871734574E+03  0.40198613716E+04  0.38938219155E+04 0.  0.
        4    1    3    3  502    0  0.15095609909E+04  0.42283996840E+03  0.16912387935E+04  0.23060481984E+04  0.12699999809E+01 0.  1.
       -4    1    3    3    0  502 -0.15095609909E+04 -0.42283996840E+03 -0.69252144774E+03  0.17138131731E+04  0.12699999809E+01 0. -1.
</event>
<event>
 5   0  0.4750125E-08  0.3898828E+04  0.7818609E-02  0.8025273E-01
        1   -1    0    0  501    0  0.00000000000E+00  0.00000000000E+00  0.22680277069E+04  0.22680277070E+04  0.50400001928E-02 0. -1.
       -1   -1    0    0    0  501  0.00000000000E+00  0.00000000000E+00 -0.16755590565E+04  0.16755590566E+04  0.50400001928E-02 0.  1.
    10030    2    1    2    0    0  0.00000000000E+00  0.00000000000E+00  0.59246865040E+03  0.39435867635E+04  0.38988277032E+04 0.  0.
        1    1    3    3  502    0  0.27422609353E+03 -0.17120217893E+04  0.11975282871E+04  0.21072001699E+04  0.50400001928E-02 0. -1.
       -1    1    3    3    0  502 -0.27422609353E+03  0.17120217893E+04 -0.60505963672E+03  0.18363865937E+04  0.50400001928E-02 0.  1.
</event>
<event>
 5   0  0.4750125E-08  0.3883878E+04  0.7818609E-02  0.8028391E-01
       -1   -1    0    0    0  501  0.00000000000E+00  0.00000000000E+00  0.17179931716E+04  0.17179931716E+04  0.50400001928E-02 0.  1.
        1   -1    0    0  501    0  0.00000000000E+00  0.00000000000E+00 -0.21950773825E+04  0.21950773825E+04  0.50400001928E-02 0. -1.
    10030    2    1    2    0    0  0.00000000000E+00  0.00000000000E+00 -0.47708421092E+03  0.39130705540E+04  0.38838784503E+04 0.  0.
        5    1    3    3  502    0  0.57370473903E+03  0.15606381223E+04 -0.12492658853E+04  0.20797634045E+04  0.46999998093E+01 0. -1.
       -5    1    3    3    0  502 -0.57370473903E+03 -0.15606381223E+04  0.77218167434E+03  0.18333071496E+04  0.46999998093E+01 0.  1.
</event>
<event>
 5   0  0.1546846E-07  0.3735286E+04  0.7818609E-02  0.8060187E-01
        2   -1    0    0  501    0  0.00000000000E+00  0.00000000000E+00  0.11911252990E+04  0.11911252990E+04  0.25500000920E-02 0. -1.
       -2   -1    0    0    0  501  0.00000000000E+00  0.00000000000E+00 -0.29283995367E+04  0.29283995367E+04  0.25500000920E-02 0.  1.
    10030    2    1    2    0    0  0.00000000000E+00  0.00000000000E+00 -0.17372742378E+04  0.41195248357E+04  0.37352862133E+04 0.  0.
        2    1    3    3  502    0  0.37088534381E+03  0.10735460725E+03  0.11466275406E+04  0.12098907665E+04  0.25500000920E-02 0. -1.
       -2    1    3    3    0  502 -0.37088534381E+03 -0.10735460725E+03 -0.28839017783E+04  0.29096340693E+04  0.25500000920E-02 0.  1.
</event>
<event>
 5   0  0.1503228E-07  0.3911921E+04  0.7818609E-02  0.8022555E-01
        2   -1    0    0  501    0  0.00000000000E+00  0.00000000000E+00  0.17052190662E+04  0.17052190662E+04  0.25500000920E-02 0. -1.
       -2   -1    0    0    0  501  0.00000000000E+00  0.00000000000E+00 -0.22435712680E+04  0.22435712680E+04  0.25500000920E-02 0.  1.
    10030    2    1    2    0    0  0.00000000000E+00  0.00000000000E+00 -0.53835220176E+03  0.39487903342E+04  0.39119205015E+04 0.  0.
        3    1    3    3  502    0 -0.26824239436E+03  0.16439525432E+04  0.76579052497E+03  0.18332945984E+04  0.10100000352E+00 0. -1.
       -3    1    3    3    0  502  0.26824239436E+03 -0.16439525432E+04 -0.13041427267E+04  0.21154957358E+04  0.10100000352E+00 0.  1.
</event>
<event>
 5   0  0.1501585E-07  0.3928221E+04  0.7818609E-02  0.8019185E-01
        2   -1    0    0  501    0  0.00000000000E+00  0.00000000000E+00  0.26535979653E+04  0.26535979653E+04  0.25500000920E-02 0.  1.
       -2   -1    0    0    0  501  0.00000000000E+00  0.00000000000E+00 -0.14537735813E+04  0.14537735813E+04  0.25500000920E-02 0. -1.
    10030    2    1    2    0    0  0.00000000000E+00  0.00000000000E+00  0.11998243840E+04  0.41073715467E+04  0.39282212858E+04 0.  0.
        5    1    3    3  502    0  0.53185382833E+03 -0.18082755046E+01 -0.13770399379E+04  0.14761886211E+04  0.46999998093E+01 0. -1.
       -5    1    3    3    0  502 -0.53185382833E+03  0.18082755046E+01  0.25768643219E+04  0.26311829256E+04  0.46999998093E+01 0.  1.
</event>
<event>
 5   0  0.4750125E-08  0.3860989E+04  0.7818609E-02  0.8033192E-01
       -1   -1    0    0    0  501  0.00000000000E+00  0.00000000000E+00  0.18032329292E+04  0.18032329292E+04  0.50400001928E-02 0. -1.
        1   -1    0    0  501    0  0.00000000000E+00  0.00000000000E+00 -0.20667372333E+04  0.20667372333E+04  0.50400001928E-02 0.  1.
    10030    2    1    2    0    0  0.00000000000E+00  0.00000000000E+00 -0.26350430415E+03  0.38699701625E+04  0.38609888035E+04 0.  0.
        4    1    3    3  502    0  0.98141439098E+03  0.95949294964E+03  0.12289794157E+04  0.18423335595E+04  0.12699999809E+01 0. -1.
       -4    1    3    3    0  502 -0.98141439098E+03 -0.95949294964E+03 -0.14924837198E+04  0.20276366031E+04  0.12699999809E+01 0.  1.
</event>
<event>
 5   0  0.4750125E-08  0.3820846E+04  0.7818609E-02  0.8041696E-01
       -1   -1    0    0    0  501  0.00000000000E+00  0.00000000000E+00  0.17227121947E+04  0.17227121947E+04  0.50400001928E-02 0. -1.
        1   -1    0    0  501    0  0.00000000000E+00  0.00000000000E+00 -0.21185868368E+04  0.21185868368E+04  0.50400001928E-02 0.  1.
    10030    2    1    2    0    0  0.00000000000E+00  0.00000000000E+00 -0.39587464209E+03  0.38412990315E+04  0.38208456548E+04 0.  0.
        1    1    3    3  502    0 -0.10528069040E+04  0.11855473515E+04  0.87350237918E+03  0.18102296280E+04  0.50400001928E-02 0. -1.
       -1    1    3    3    0  502  0.10528069040E+04 -0.11855473515E+04 -0.12693770213E+04  0.20310694035E+04  0.50400001928E-02 0.  1.
</event>
<event>
 5   0  0.4750125E-08  0.3910430E+04  0.7818609E-02  0.8022863E-01
       -1   -1    0    0    0  501  0.00000000000E+00  0.00000000000E+00  0.22099048159E+04  0.22099048159E+04  0.50400001928E-02 0.  1.
        1   -1    0    0  501    0  0.00000000000E+00  0.00000000000E+00 -0.17298782789E+04  0.17298782789E+04  0.50400001928E-02 0. -1.
    10030    2    1    2    0    0  0.00000000000E+00  0.00000000000E+00  0.48002653695E+03  0.39397830948E+04  0.39104303290E+04 0.  0.
        5    1    3    3  502    0  0.13819377639E+04 -0.12626821907E+04 -0.32878265203E+03  0.19005889667E+04  0.46999998093E+01 0. -1.
       -5    1    3    3    0  502 -0.13819377639E+04  0.12626821907E+04  0.80880918898E+03  0.20391941281E+04  0.46999998093E+01 0.  1.
</event>
<event>
 5   0  0.1503228E-07  0.3924339E+04  0.7818609E-02  0.8019986E-01
        2   -1    0    0  501    0  0.00000000000E+00  0.00000000000E+00  0.20364592308E+04  0.20364592309E+04  0.25500000920E-02 0.  1.
       -2   -1    0    0    0  501  0.00000000000E+00  0.00000000000E+00 -0.18905902792E+04  0.18905902792E+04  0.25500000920E-02 0. -1.
    10030    2    1    2    0    0  0.00000000000E+00  0.00000000000E+00  0.14586895162E+03  0.39270495101E+04  0.39243394481E+04 0.  0.
        3    1    3    3  502    0 -0.89445685083E+03  0.16646361578E+04  0.60154487626E+03  0.19831598130E+04  0.10100000352E+00 0. -1.
       -3    1    3    3    0  502  0.89445685083E+03 -0.16646361578E+04 -0.45567592464E+03  0.19438896970E+04  0.10100000352E+00 0.  1.
</event>
<event>
 5   0  0.1546846E-07  0.3914618E+04  0.7818609E-02  0.8021996E-01
       -2   -1    0    0    0  501  0.00000000000E+00  0.00000000000E+00  0.12888344277E+04  0.12888344277E+04  0.25500000920E-02 0. -1.
        2   -1    0    0  501    0  0.00000000000E+00  0.00000000000E+00 -0.29724984935E+04  0.29724984935E+04  0.25500000920E-02 0.  1.
    10030    2    1    2    0    0  0.00000000000E+00  0.00000000000E+00 -0.16836640658E+04  0.42613329212E+04  0.39146179352E+04 0.  0.
        2    1    3    3  502    0  0.14336288943E+04  0.95357174755E+03 -0.18551184594E+04  0.25310186453E+04  0.25500000920E-02 0.  1.
       -2    1    3    3    0  502 -0.14336288943E+04 -0.95357174755E+03  0.17145439359E+03  0.17303142759E+04  0.25500000920E-02 0. -1.
</event>
<event>
 5   0  0.4762788E-08  0.3894757E+04  0.7818609E-02  0.8026120E-01
        1   -1    0    0  501    0  0.00000000000E+00  0.00000000000E+00  0.13179474525E+04  0.13179474525E+04  0.50400001928E-02 0. -1.
       -1   -1    0    0    0  501  0.00000000000E+00  0.00000000000E+00 -0.28774165024E+04  0.28774165024E+04  0.50400001928E-02 0.  1.
    10030    2    1    2    0    0  0.00000000000E+00  0.00000000000E+00 -0.15594690499E+04  0.41953639550E+04  0.38947573733E+04 0.  0.
        2    1    3    3  502    0  0.14851307883E+04  0.48768743505E+03  0.47129639905E+03  0.16326581971E+04  0.25500000920E-02 0. -1.
       -2    1    3    3    0  502 -0.14851307883E+04 -0.48768743505E+03 -0.20307654490E+04  0.25627057579E+04  0.25500000920E-02 0.  1.
</event>
<event>
 5   0  0.4762788E-08  0.3920430E+04  0.7818609E-02  0.8020794E-01
        1   -1    0    0  501    0  0.00000000000E+00  0.00000000000E+00  0.18617610614E+04  0.18617610614E+04  0.50400001928E-02 0.  1.
       -1   -1    0    0    0  501  0.00000000000E+00  0.00000000000E+00 -0.20638754755E+04  0.20638754755E+04  0.50400001928E-02 0. -1.
    10030    2    1    2    0    0  0.00000000000E+00  0.00000000000E+00 -0.20211441405E+03  0.39256365369E+04  0.39204300763E+04 0.  0.
        2    1    3    3  502    0 -0.52302446607E+03 -0.11883745871E+04 -0.15715626522E+04  0.20385283714E+04  0.25500000920E-02 0. -1.
       -2    1    3    3    0  502  0.52302446607E+03  0.11883745871E+04  0.13694482381E+04  0.18871081655E+04  0.25500000920E-02 0.  1.
</event>
<event>
 5   0  0.1538018E-07  0.3908485E+04  0.7818609E-02  0.8023267E-01
       -2   -1    0    0    0  501  0.00000000000E+00  0.00000000000E+00  0.18767880131E+04  0.18767880131E+04  0.25500000920E-02 0. -1.
        2   -1    0    0  501    0  0.00000000000E+00  0.00000000000E+00 -0.20348936387E+04  0.20348936387E+04  0.25500000920E-02 0.  1.
    10030    2    1    2    0    0  0.00000000000E+00  0.00000000000E+00 -0.15810562561E+03  0.39116816518E+04  0.39084851229E+04 0.  0.
        1    1    3    3  502    0  0.49527156895E+03 -0.13046189571E+04 -0.14482870040E+04  0.20111836804E+04  0.50400001928E-02 0.  1.
       -1    1    3    3    0  502 -0.49527156895E+03  0.13046189571E+04  0.12901813784E+04  0.19004979714E+04  0.50400001928E-02 0. -1.
</event>
<event>
 5   0  0.4750125E-08  0.3882281E+04  0.7818609E-02  0.8028724E-01
        1   -1    0    0  501    0  0.00000000000E+00  0.00000000000E+00  0.29364222671E+04  0.29364222671E+04  0.50400001928E-02 0. -1.
       -1   -1    0    0    0  501  0.00000000000E+00  0.00000000000E+00 -0.12832034871E+04  0.12832034871E+04  0.50400001928E-02 0.  1.
    10030    2    1    2    0    0  0.00000000000E+00  0.00000000000E+00  0.16532187800E+04  0.42196257542E+04  0.38822814389E+04 0.  0.
        3    1    3    3  502    0 -0.93700007841E+03 -0.16978182224E+04  0.92055759205E+03  0.21466211016E+04  0.10100000352E+00 0. -1.
       -3    1    3    3    0  502  0.93700007841E+03  0.16978182224E+04  0.73266118791E+03  0.20730046526E+04  0.10100000352E+00 0.  1.
</event>
<event>
 5   0  0.1538018E-07  0.3884154E+04  0.7818609E-02  0.8028333E-01
       -2   -1    0    0    0  501  0.00000000000E+00  0.00000000000E+00  0.17063397215E+04  0.17063397215E+04  0.25500000920E-02 0.  1.
        2   -1    0    0  501    0  0.00000000000E+00  0.00000000000E+00 -0.22103819274E+04  0.22103819274E+04  0.25500000920E-02 0. -1.
    10030    2    1    2    0    0  0.00000000000E+00  0.00000000000E+00 -0.50404220596E+03  0.39167216489E+04  0.38841536954E+04 0.  0.
        1    1    3    3  502    0  0.13530916716E+04 -0.13721672937E+04 -0.49479344898E+03  0.19896031541E+04  0.50400001928E-02 0.  1.
       -1    1    3    3    0  502 -0.13530916716E+04  0.13721672937E+04 -0.92487569841E+01  0.19271184948E+04  0.50400001928E-02 0. -1.
</event>
<event>
 5   0  0.4762788E-08  0.3904570E+04  0.7818609E-02  0.8024079E-01
       -1   -1    0    0    0  501  0.00000000000E+00  0.00000000000E+00  0.28525802644E+04  0.28525802644E+04  0.50400001928E-02 0. -1.
        1   -1    0    0  501    0  0.00000000000E+00  0.00000000000E+00 -0.13361294383E+04  0.13361294383E+04  0.50400001928E-02 0.  1.
    10030    2    1    2    0    0  0.00000000000E+00  0.00000000000E+00  0.15164508261E+04  0.41887097026E+04  0.39045698694E+04 0.  0.
        2    1    3    3  502    0  0.17933222427E+04  0.67413066537E+03  0.35545787107E+03  0.19485397400E+04  0.25500000920E-02 0.  1.
       -2    1    3    3    0  502 -0.17933222427E+04 -0.67413066537E+03  0.11609929550E+04  0.22401699627E+04  0.25500000920E-02 0. -1.
</event>
<event>
 5   0  0.4750125E-08  0.3888653E+04  0.7818609E-02  0.8027393E-01
       -1   -1    0    0    0  501  0.00000000000E+00  0.00000000000E+00  0.21020359884E+04  0.21020359884E+04  0.50400001928E-02 0.  1.
        1   -1    0    0  501    0  0.00000000000E+00  0.00000000000E+00 -0.17984492771E+04  0.17984492771E+04  0.50400001928E-02 0. -1.
    10030    2    1    2    0    0  0.00000000000E+00  0.00000000000E+00  0.30358671131E+03  0.39004852655E+04  0.38886527764E+04 0.  0.
        4    1    3    3  502    0  0.84306110880E+03  0.95098257957E+03 -0.13241743934E+04  0.18353635435E+04  0.12699999809E+01 0. -1.
       -4    1    3    3    0  502 -0.84306110880E+03 -0.95098257957E+03  0.16277611047E+04  0.20651217220E+04  0.12699999809E+01 0.  1.
</event>
<event>
 5   0  0.1520986E-07  0.3902882E+04  0.7818609E-02  0.8024430E-01
       -2   -1    0    0    0  501  0.00000000000E+00  0.00000000000E+00  0.20799480160E+04  0.20799480160E+04  0.25500000920E-02 0.  1.
        2   -1    0    0  501    0  0.00000000000E+00  0.00000000000E+00 -0.18308734665E+04  0.18308734665E+04  0.25500000920E-02 0. -1.
    10030    2    1    2    0    0  0.00000000000E+00  0.00000000000E+00  0.24907454943E+03  0.39108214825E+04  0.39028818246E+04 0.  0.
        4    1    3    3  502    0 -0.10552964760E+04 -0.33669990421E+03  0.17343865635E+04  0.20579397081E+04  0.12699999809E+01 0.  1.
       -4    1    3    3    0  502  0.10552964760E+04  0.33669990421E+03 -0.14853120141E+04  0.18528817744E+04  0.12699999809E+01 0. -1.
</event>
<event>
 5   0  0.1546846E-07  0.3900225E+04  0.7818609E-02  0.8024982E-01
       -2   -1    0    0    0  501  0.00000000000E+00  0.00000000000E+00  0.16492255926E+04  0.16492255926E+04  0.25500000920E-02 0.  1.
        2   -1    0    0  501    0  0.00000000000E+00  0.00000000000E+00 -0.23058941118E+04  0.23058941118E+04  0.25500000920E-02 0. -1.
    10030    2    1    2    0    0  0.00000000000E+00  0.00000000000E+00 -0.65666851929E+03  0.39551197044E+04  0.39002254207E+04 0.  0.
        2    1    3    3  502    0  0.10708101214E+04  0.14442663843E+04 -0.10942123321E+04  0.21047185876E+04  0.25500000920E-02 0. -1.
       -2    1    3    3    0  502 -0.10708101214E+04 -0.14442663843E+04  0.43754381285E+03  0.18504011168E+04  0.25500000920E-02 0.  1.
</event>
<event>
 5   0  0.4750125E-08  0.3747092E+04  0.7818609E-02  0.8057605E-01
       -1   -1    0    0    0  501  0.00000000000E+00  0.00000000000E+00  0.19428655242E+04  0.19428655242E+04  0.50400001928E-02 0.  1.
        1   -1    0    0  501    0  0.00000000000E+00  0.00000000000E+00 -0.18066996549E+04  0.18066996549E+04  0.50400001928E-02 0. -1.
    10030    2    1    2    0    0  0.00000000000E+00  0.00000000000E+00  0.13616586933E+03  0.37495651791E+04  0.37470919242E+04 0.  0.
        5    1    3    3  502    0 -0.13890480236E+04 -0.12504237137E+04  0.19908346278E+03  0.18795398880E+04  0.46999998093E+01 0.  1.
       -5    1    3    3    0  502  0.13890480236E+04  0.12504237137E+04 -0.62917593449E+02  0.18700252910E+04  0.46999998093E+01 0. -1.
</event>
<event>
 5   0  0.1501585E-07  0.3854331E+04  0.7818609E-02  0.8034595E-01
       -2   -1    0    0    0  501  0.00000000000E+00  0.00000000000E+00  0.13677947012E+04  0.13677947012E+04  0.25500000920E-02 0. -1.
        2   -1    0    0  501    0  0.00000000000E+00  0.00000000000E+00 -0.27152954393E+04  0.27152954394E+04  0.25500000920E-02 0.  1.
    10030    2    1    2    0    0  0.00000000000E+00  0.00000000000E+00 -0.13475007382E+04  0.40830901405E+04  0.38543309220E+04 0.  0.
        5    1    3    3  502    0 -0.18172064630E+04 -0.31099399519E+03 -0.12682984665E+04  0.22377577358E+04  0.46999998093E+01 0.  1.
       -5    1    3    3    0  502  0.18172064630E+04  0.31099399519E+03 -0.79202271692E+02  0.18453324047E+04  0.46999998093E+01 0. -1.
</event>
<event>
 5   0  0.1546846E-07  0.4097903E+04  0.7818609E-02  0.7985082E-01
        2   -1    0    0  501    0  0.00000000000E+00  0.00000000000E+00  0.22515529647E+04  0.22515529647E+04  0.25500000920E-02 0. -1.
       -2   -1    0    0    0  501  0.00000000000E+00  0.00000000000E+00 -0.18645806996E+04  0.18645806996E+04  0.25500000920E-02 0.  1.
    10030    2    1    2    0    0  0.00000000000E+00  0.00000000000E+00  0.38697226508E+03  0.41161336644E+04  0.40979029770E+04 0.  0.
        2    1    3    3  502    0  0.10552206235E+03 -0.12797122008E+04 -0.14103024865E+04  0.19072889991E+04  0.25500000920E-02 0.  1.
       -2    1    3    3    0  502 -0.10552206235E+03  0.12797122008E+04  0.17972747516E+04  0.22088446653E+04  0.25500000920E-02 0. -1.
</event>
<event>
 5   0  0.4762788E-08  0.3891322E+04  0.7818609E-02  0.8026837E-01
        1   -1    0    0  501    0  0.00000000000E+00  0.00000000000E+00  0.29839299089E+04  0.29839299089E+04  0.50400001928E-02 0. -1.
       -1   -1    0    0    0  501  0.00000000000E+00  0.00000000000E+00 -0.12686612075E+04  0.12686612075E+04  0.50400001928E-02 0.  1.
    10030    2    1    2    0    0  0.00000000000E+00  0.00000000000E+00  0.17152687013E+04  0.42525911164E+04  0.38913216888E+04 0.  0.
        2    1    3    3  502    0 -0.74289305649E+03 -0.10270515924E+04 -0.75550638274E+03  0.14756405258E+04  0.25500000920E-02 0.  1.
       -2    1    3    3    0  502  0.74289305649E+03  0.10270515924E+04  0.24707750841E+04  0.27769505907E+04  0.25500000920E-02 0. -1.
</event>
<event>
 5   0  0.4750125E-08  0.3905640E+04  0.7818609E-02  0.8023857E-01
       -1   -1    0    0    0  501  0.00000000000E+00  0.00000000000E+00  0.27536970377E+04  0.27536970377E+04  0.50400001928E-02 0. -1.
        1   -1    0    0  501    0  0.00000000000E+00  0.00000000000E+00 -0.13848673692E+04  0.13848673692E+04  0.50400001928E-02 0.  1.
    10030    2    1    2    0    0  0.00000000000E+00  0.00000000000E+00  0.13688296686E+04  0.41385644069E+04  0.39056396005E+04 0.  0.
        3    1    3    3  502    0 -0.12585188733E+04  0.18788003588E+03 -0.88525808736E+03  0.15501130777E+04  0.10100000352E+00 0.  1.
       -3    1    3    3    0  502  0.12585188733E+04 -0.18788003588E+03  0.22540877559E+04  0.25884513292E+04  0.10100000352E+00 0. -1.
</event>
<event>
 5   0  0.1538018E-07  0.3947573E+04  0.7818609E-02  0.8015207E-01
       -2   -1    0    0    0  501  0.00000000000E+00  0.00000000000E+00  0.23416007172E+04  0.23416007173E+04  0.25500000920E-02 0. -1.
        2   -1    0    0  501    0  0.00000000000E+00  0.00000000000E+00 -0.16637477210E+04  0.16637477210E+04  0.25500000920E-02 0.  1.
    10030    2    1    2    0    0  0.00000000000E+00  0.00000000000E+00  0.67785299626E+03  0.40053484382E+04  0.39475728527E+04 0.  0.
        1    1    3    3  502    0  0.41130914981E+03  0.18892337332E+04 -0.63685177665E+02  0.19345374428E+04  0.50400001928E-02 0.  1.
       -1    1    3    3    0  502 -0.41130914981E+03 -0.18892337332E+04  0.74153817393E+03  0.20708109955E+04  0.50400001928E-02 0. -1.
</event>
<event>
 5   0  0.4750125E-08  0.3914548E+04  0.7818609E-02  0.8022010E-01
       -1   -1    0    0    0  501  0.00000000000E+00  0.00000000000E+00  0.15789235628E+04  0.15789235628E+04  0.50400001928E-02 0. -1.
        1   -1    0    0  501    0  0.00000000000E+00  0.00000000000E+00 -0.24262864496E+04  0.24262864496E+04  0.50400001928E-02 0.  1.
    10030    2    1    2    0    0  0.00000000000E+00  0.00000000000E+00 -0.84736288684E+03  0.40052100124E+04  0.39145476598E+04 0.  0.
        3    1    3    3  502    0 -0.16102882576E+04 -0.10979783341E+04 -0.60766872332E+03  0.20415303040E+04  0.10100000352E+00 0.  1.
       -3    1    3    3    0  502  0.16102882576E+04  0.10979783341E+04 -0.23969416352E+03  0.19636797083E+04  0.10100000352E+00 0. -1.
</event>
<event>
 5   0  0.1546846E-07  0.3893065E+04  0.7818609E-02  0.8026473E-01
        2   -1    0    0  501    0  0.00000000000E+00  0.00000000000E+00  0.21266036728E+04  0.21266036728E+04  0.25500000920E-02 0.  1.
       -2   -1    0    0    0  501  0.00000000000E+00  0.00000000000E+00 -0.17817089883E+04  0.17817089883E+04  0.25500000920E-02 0. -1.
    10030    2    1    2    0    0  0.00000000000E+00  0.00000000000E+00  0.34489468457E+03  0.39083126611E+04  0.38930650538E+04 0.  0.
        2    1    3    3  502    0  0.24786368451E+03 -0.67185199214E+03 -0.16446604011E+04  0.17938030384E+04  0.25500000920E-02 0. -1.
       -2    1    3    3    0  502 -0.24786368451E+03  0.67185199214E+03  0.19895550857E+04  0.21145096227E+04  0.25500000920E-02 0.  1.
</event>
<event>
 5   0  0.1503228E-07  0.3648126E+04  0.7818609E-02  0.8079556E-01
       -2   -1    0    0    0  501  0.00000000000E+00  0.00000000000E+00  0.12893467732E+04  0.12893467732E+04  0.25500000920E-02 0.  1.
        2   -1    0    0  501    0  0.00000000000E+00  0.00000000000E+00 -0.25805362704E+04  0.25805362704E+04  0.25500000920E-02 0. -1.
    10030    2    1    2    0    0  0.00000000000E+00  0.00000000000E+00 -0.12911894972E+04  0.38698830436E+04  0.36481261565E+04 0.  0.
        3    1    3    3  502    0  0.20683322569E+03 -0.16695791408E+04  0.10218948512E+03  0.16854427287E+04  0.10100000352E+00 0.  1.
       -3    1    3    3    0  502 -0.20683322569E+03  0.16695791408E+04 -0.13933789823E+04  0.21844403149E+04  0.10100000352E+00 0. -1.
</event>
<event>
 5   0  0.1538018E-07  0.3888803E+04  0.7818609E-02  0.8027362E-01
       -2   -1    0    0    0  501  0.00000000000E+00  0.00000000000E+00  0.14291150035E+04  0.14291150035E+04  0.25500000920E-02 0. -1.
        2   -1    0    0  501    0  0.00000000000E+00  0.00000000000E+00 -0.26454814350E+04  0.26454814351E+04  0.25500000920E-02 0.  1.
    10030    2    1    2    0    0  0.00000000000E+00  0.00000000000E+00 -0.12163664315E+04  0.40745964386E+04  0.38888030088E+04 0.  0.
        1    1    3    3  502    0  0.36710494995E+03 -0.24340567246E+02  0.13923123839E+04  0.14401014832E+04  0.50400001928E-02 0. -1.
       -1    1    3    3    0  502 -0.36710494995E+03  0.24340567246E+02 -0.26086788155E+04  0.26344949554E+04  0.50400001928E-02 0.  1.
</event>
<event>
 5   0  0.1501585E-07  0.3906263E+04  0.7818609E-02  0.8023728E-01
        2   -1    0    0  501    0  0.00000000000E+00  0.00000000000E+00  0.29963978048E+04  0.29963978048E+04  0.25500000920E-02 0. -1.
       -2   -1    0    0    0  501  0.00000000000E+00  0.00000000000E+00 -0.12731030132E+04  0.12731030132E+04  0.25500000920E-02 0.  1.
    10030    2    1    2    0    0  0.00000000000E+00  0.00000000000E+00  0.17232947916E+04  0.42695008180E+04  0.39062632138E+04 0.  0.
        5    1    3    3  502    0 -0.10510428559E+04 -0.52323845602E+03  0.25676310553E+04  0.28233350657E+04  0.46999998093E+01 0. -1.
       -5    1    3    3    0  502  0.10510428559E+04  0.52323845602E+03 -0.84433626371E+03  0.14461657523E+04  0.46999998093E+01 0.  1.
</event>
<event>
 5   0  0.4750125E-08  0.3885686E+04  0.7818609E-02  0.8028013E-01
        1   -1    0    0  501    0  0.00000000000E+00  0.00000000000E+00  0.16773749603E+04  0.16773749603E+04  0.50400001928E-02 0.  1.
       -1   -1    0    0    0  501  0.00000000000E+00  0.00000000000E+00 -0.22503249197E+04  0.22503249197E+04  0.50400001928E-02 0. -1.
    10030    2    1    2    0    0  0.00000000000E+00  0.00000000000E+00 -0.57294995946E+03  0.39276998800E+04  0.38856858714E+04 0.  0.
        4    1    3    3  502    0 -0.12123481014E+04  0.23254128440E+03  0.12300044454E+04  0.17426347628E+04  0.12699999809E+01 0.  1.
       -4    1    3    3    0  502  0.12123481014E+04 -0.23254128440E+03 -0.18029544048E+04  0.21850651173E+04  0.12699999809E+01 0. -1.
</event>
<event>
 5   0  0.4750125E-08  0.3887745E+04  0.7818609E-02  0.8027583E-01
       -1   -1    0    0    0  501  0.00000000000E+00  0.00000000000E+00  0.20978900300E+04  0.20978900300E+04  0.50400001928E-02 0. -1.
        1   -1    0    0  501    0  0.00000000000E+00  0.00000000000E+00 -0.18011623197E+04  0.18011623197E+04  0.50400001928E-02 0.  1.
    10030    2    1    2    0    0  0.00000000000E+00  0.00000000000E+00  0.29672771029E+03  0.38990523498E+04  0.38877450910E+04 0.  0.
        5    1    3    3  502    0 -0.15284363176E+04  0.27282135043E+03  0.13214106463E+04  0.20387979920E+04  0.46999998093E+01 0. -1.
       -5    1    3    3    0  502  0.15284363176E+04 -0.27282135043E+03 -0.10246829360E+04  0.18602543577E+04  0.46999998093E+01 0.  1.
</event>
<event>
 5   0  0.1520986E-07  0.3789542E+04  0.7818609E-02  0.8048403E-01
       -2   -1    0    0    0  501  0.00000000000E+00  0.00000000000E+00  0.13519954532E+04  0.13519954532E+04  0.25500000920E-02 0.  1.
        2   -1    0    0  501    0  0.00000000000E+00  0.00000000000E+00 -0.26554505554E+04  0.26554505554E+04  0.25500000920E-02 0. -1.
    10030    2    1    2    0    0  0.00000000000E+00  0.00000000000E+00 -0.13034551022E+04  0.40074460086E+04  0.37895419655E+04 0.  0.
        4    1    3    3  502    0  0.10066234208E+04 -0.15945773050E+04 -0.45619564928E+03  0.19401246290E+04  0.12699999809E+01 0. -1.
       -4    1    3    3    0  502 -0.10066234208E+04  0.15945773050E+04 -0.84725945293E+03  0.20673213796E+04  0.12699999809E+01 0.  1.
</event>
<event>
 5   0  0.4750125E-08  0.3926483E+04  0.7818609E-02  0.8019544E-01
        1   -1    0    0  501    0  0.00000000000E+00  0.00000000000E+00  0.23428983942E+04  0.23428983942E+04  0.50400001928E-02 0.  1.
       -1   -1    0    0    0  501  0.00000000000E+00  0.00000000000E+00 -0.16451065053E+04  0.16451065053E+04  0.50400001928E-02 0. -1.
    10030    2    1    2    0    0  0.00000000000E+00  0.00000000000E+00  0.69779188884E+03  0.39880048995E+04  0.39264831030E+04 0.  0.
        4    1    3    3  502    0 -0.13991623465E+04  0.11729809039E+04  0.10818513596E+04  0.21222496201E+04  0.12699999809E+01 0.  1.
       -4    1    3    3    0  502  0.13991623465E+04 -0.11729809039E+04 -0.38405947078E+03  0.18657552794E+04  0.12699999809E+01 0. -1.
</event>
<event>
 5   0  0.4750125E-08  0.3881521E+04  0.7818609E-02  0.8028883E-01
       -1   -1    0    0    0  501  0.00000000000E+00  0.00000000000E+00  0.28391433185E+04  0.28391433185E+04  0.50400001928E-02 0.  1.
        1   -1    0    0  501    0  0.00000000000E+00  0.00000000000E+00 -0.13266508469E+04  0.13266508469E+04  0.50400001928E-02 0. -1.
    10030    2    1    2    0    0  0.00000000000E+00  0.00000000000E+00  0.15124924716E+04  0.41657941654E+04  0.38815212935E+04 0.  0.
        3    1    3    3  502    0  0.17892932617E+04 -0.36725258811E+03  0.52389762833E+02  0.18273449420E+04  0.10100000352E+00 0. -1.
       -3    1    3    3    0  502 -0.17892932617E+04  0.36725258811E+03  0.14601027088E+04  0.23384492233E+04  0.10100000352E+00 0.  1.
</event>
<event>
 5   0  0.1538018E-07  0.3912912E+04  0.7818609E-02  0.8022349E-01
       -2   -1    0    0    0  501  0.00000000000E+00  0.00000000000E+00  0.16347857225E+04  0.16347857225E+04  0.25500000920E-02 0.  1.
        2   -1    0    0  501    0  0.00000000000E+00  0.00000000000E+00 -0.23414197629E+04  0.23414197629E+04  0.25500000920E-02 0. -1.
    10030    2    1    2    0    0  0.00000000000E+00  0.00000000000E+00 -0.70663404040E+03  0.39762054854E+04  0.39129117540E+04 0.  0.
        1    1    3    3  502    0 -0.10573712822E+04 -0.97232492926E+03 -0.17030605891E+04  0.22279733316E+04  0.50400001928E-02 0. -1.
       -1    1    3    3    0  502  0.10573712822E+04  0.97232492926E+03  0.99642654866E+03  0.17482321537E+04  0.50400001928E-02 0.  1.
</event>
<event>
 5   0  0.4750125E-08  0.3901433E+04  0.7818609E-02  0.8024731E-01
        1   -1    0    0  501    0  0.00000000000E+00  0.00000000000E+00  0.12831828344E+04  0.12831828344E+04  0.50400001928E-02 0.  1.
       -1   -1    0    0    0  501  0.00000000000E+00  0.00000000000E+00 -0.29655127282E+04  0.29655127282E+04  0.50400001928E-02 0. -1.
    10030    2    1    2    0    0  0.00000000000E+00  0.00000000000E+00 -0.16823298939E+04  0.42486955626E+04  0.39014330844E+04 0.  0.
        5    1    3    3  502    0 -0.17693849801E+04 -0.76171945689E+03 -0.50668989323E+03  0.19919077480E+04  0.46999998093E+01 0.  1.
       -5    1    3    3    0  502  0.17693849801E+04  0.76171945689E+03 -0.11756400006E+04  0.22567878146E+04  0.46999998093E+01 0. -1.
</event>
<event>
 5   0  0.1520986E-07  0.3846552E+04  0.7818609E-02  0.8036238E-01
        2   -1    0    0  501    0  0.00000000000E+00  0.00000000000E+00  0.18483779029E+04  0.18483779029E+04  0.25500000920E-02 0.  1.
       -2   -1    0    0    0  501  0.00000000000E+00  0.00000000000E+00 -0.20012085260E+04  0.20012085260E+04  0.25500000920E-02 0. -1.
    10030    2    1    2    0    0  0.00000000000E+00  0.00000000000E+00 -0.15283062305E+03  0.38495864289E+04  0.38465515042E+04 0.  0.
        4    1    3    3  502    0 -0.35101996775E+03  0.10027669419E+04 -0.16808743692E+04  0.19884910901E+04  0.12699999809E+01 0. -1.
       -4    1    3    3    0  502  0.35101996775E+03 -0.10027669419E+04  0.15280437461E+04  0.18610953389E+04  0.12699999809E+01 0.  1.
</event>
<event>
 5   0  0.1538018E-07  0.3900038E+04  0.7818609E-02  0.8025021E-01
       -2   -1    0    0    0  501  0.00000000000E+00  0.00000000000E+00  0.18117819391E+04  0.18117819391E+04  0.25500000920E-02 0.  1.
        2   -1    0    0  501    0  0.00000000000E+00  0.00000000000E+00 -0.20988032163E+04  0.20988032163E+04  0.25500000920E-02 0. -1.
    10030    2    1    2    0    0  0.00000000000E+00  0.00000000000E+00 -0.28702127724E+03  0.39105851554E+04  0.39000378260E+04 0.  0.
        1    1    3    3  502    0  0.16521685158E+04  0.19608098523E+03  0.87632661339E+03  0.18804406108E+04  0.50400001928E-02 0.  1.
       -1    1    3    3    0  502 -0.16521685158E+04 -0.19608098523E+03 -0.11633478906E+04  0.20301445446E+04  0.50400001928E-02 0. -1.
</event>
<event>
 5   0  0.1503228E-07  0.3901166E+04  0.7818609E-02  0.8024787E-01
        2   -1    0    0  501    0  0.00000000000E+00  0.00000000000E+00  0.23422081483E+04  0.23422081483E+04  0.25500000920E-02 0. -1.
       -2   -1    0    0    0  501  0.00000000000E+00  0.00000000000E+00 -0.16244387160E+04  0.16244387160E+04  0.25500000920E-02 0.  1.
    10030    2    1    2    0    0  0.00000000000E+00  0.00000000000E+00  0.71776943227E+03  0.39666468642E+04  0.39011657729E+04 0.  0.
        3    1    3    3  502    0 -0.95083097727E+03  0.10269849037E+04  0.17403644450E+04  0.22333038197E+04  0.10100000352E+00 0. -1.
       -3    1    3    3    0  502  0.95083097727E+03 -0.10269849037E+04 -0.10225950127E+04  0.17333430445E+04  0.10100000352E+00 0.  1.
</event>
<event>
 5   0  0.1546846E-07  0.3904282E+04  0.7818609E-02  0.8024139E-01
       -2   -1    0    0    0  501  0.00000000000E+00  0.00000000000E+00  0.23688415299E+04  0.23688415299E+04  0.25500000920E-02 0.  1.
        2   -1    0    0  501    0  0.00000000000E+00  0.00000000000E+00 -0.16087417309E+04  0.16087417309E+04  0.25500000920E-02 0. -1.
    10030    2    1    2    0    0  0.00000000000E+00  0.00000000000E+00  0.76009979908E+03  0.39775832608E+04  0.39042818664E+04 0.  0.
        2    1    3    3  502    0 -0.26792611476E+03 -0.29715957611E+02  0.23497885845E+04  0.23652005905E+04  0.25500000920E-02 0.  1.
       -2    1    3    3    0  502  0.26792611476E+03  0.29715957611E+02 -0.15896887854E+04  0.16123826704E+04  0.25500000920E-02 0. -1.
</event>
<event>
 5   0  0.1538018E-07  0.3899474E+04  0.7818609E-02  0.8025139E-01
       -2   -1    0    0    0  501  0.00000000000E+00  0.00000000000E+00  0.29288236005E+04  0.29288236005E+04  0.25500000920E-02 0.  1.
        2   -1    0    0  501    0  0.00000000000E+00  0.00000000000E+00 -0.12979529017E+04  0.12979529017E+04  0.25500000920E-02 0. -1.
    10030    2    1    2    0    0  0.00000000000E+00  0.00000000000E+00  0.16308706988E+04  0.42267765022E+04  0.38994743702E+04 0.  0.
        1    1    3    3  502    0 -0.33942690267E+03 -0.11627296767E+04 -0.84065412662E+03  0.14743982786E+04  0.50400001928E-02 0. -1.
       -1    1    3    3    0  502  0.33942690267E+03  0.11627296767E+04  0.24715248255E+04  0.27523782237E+04  0.50400001928E-02 0.  1.
</event>
<event>
 5   0  0.1501585E-07  0.3903563E+04  0.7818609E-02  0.8024289E-01
       -2   -1    0    0    0  501  0.00000000000E+00  0.00000000000E+00  0.28151051792E+04  0.28151051792E+04  0.25500000920E-02 0. -1.
        2   -1    0    0  501    0  0.00000000000E+00  0.00000000000E+00 -0.13532180840E+04  0.13532180840E+04  0.25500000920E-02 0.  1.
    10030    2    1    2    0    0  0.00000000000E+00  0.00000000000E+00  0.14618870952E+04  0.41683232631E+04  0.39035631091E+04 0.  0.
        5    1    3    3  502    0  0.80668129023E+03  0.79437526650E+03  0.24286387423E+04  0.26795661959E+04  0.46999998093E+01 0. -1.
       -5    1    3    3    0  502 -0.80668129023E+03 -0.79437526650E+03 -0.96675164706E+03  0.14887570672E+04  0.46999998093E+01 0.  1.
</event>
<event>
 5   0  0.1546846E-07  0.3916064E+04  0.7818609E-02  0.8021696E-01
       -2   -1    0    0    0  501  0.00000000000E+00  0.00000000000E+00  0.24464134128E+04  0.24464134128E+04  0.25500000920E-02 0. -1.
        2   -1    0    0  501    0  0.00000000000E+00  0.00000000000E+00 -0.15671472717E+04  0.15671472717E+04  0.25500000920E-02 0.  1.
    10030    2    1    2    0    0  0.00000000000E+00  0.00000000000E+00  0.87926614111E+03  0.40135606845E+04  0.39160644046E+04 0.  0.
        2    1    3    3  502    0  0.12402582956E+04  0.95579256617E+03  0.16445339417E+04  0.22707425999E+04  0.25500000920E-02 0. -1.
       -2    1    3    3    0  502 -0.12402582956E+04 -0.95579256617E+03 -0.76526780060E+03  0.17428180846E+04  0.25500000920E-02 0.  1.
</event>
<event>
 5   0  0.4750125E-08  0.3907367E+04  0.7818609E-02  0.8023499E-01
       -1   -1    0    0    0  501  0.00000000000E+00  0.00000000000E+00  0.20397988285E+04  0.20397988285E+04  0.50400001928E-02 0. -1.
        1   -1    0    0  501    0  0.00000000000E+00  0.00000000000E+00 -0.18712037439E+04  0.18712037439E+04  0.50400001928E-02 0.  1.
    10030    2    1    2    0    0  0.00000000000E+00  0.00000000000E+00  0.16859508460E+03  0.39110025725E+04  0.39073669932E+04 0.  0.
        3    1    3    3  502    0 -0.18138738903E+04 -0.42721205136E+03  0.67155510012E+03  0.19808167228E+04  0.10100000352E+00 0. -1.
       -3    1    3    3    0  502  0.18138738903E+04  0.42721205136E+03 -0.50296001552E+03  0.19301858497E+04  0.10100000352E+00 0.  1.
</event>
<event>
 5   0  0.4750125E-08  0.3890209E+04  0.7818609E-02  0.8027069E-01
       -1   -1    0    0    0  501  0.00000000000E+00  0.00000000000E+00  0.15188909838E+04  0.15188909838E+04  0.50400001928E-02 0. -1.
        1   -1    0    0  501    0  0.00000000000E+00  0.00000000000E+00 -0.24909169432E+04  0.24909169432E+04  0.50400001928E-02 0.  1.
    10030    2    1    2    0    0  0.00000000000E+00  0.00000000000E+00 -0.97202595944E+03  0.40098079270E+04  0.38902088820E+04 0.  0.
        1    1    3    3  502    0  0.13166792739E+04  0.87633804759E+03  0.68096842001E+03  0.17220135519E+04  0.50400001928E-02 0. -1.
       -1    1    3    3    0  502 -0.13166792739E+04 -0.87633804759E+03 -0.16529943794E+04  0.22877943750E+04  0.50400001928E-02 0.  1.
</event>
<event>
 5   0  0.1546846E-07  0.3921188E+04  0.7818609E-02  0.8020637E-01
       -2   -1    0    0    0  501  0.00000000000E+00  0.00000000000E+00  0.18988428796E+04  0.18988428796E+04  0.25500000920E-02 0. -1.
        2   -1    0    0  501    0  0.00000000000E+00  0.00000000000E+00 -0.20243533230E+04  0.20243533230E+04  0.25500000920E-02 0.  1.
    10030    2    1    2    0    0  0.00000000000E+00  0.00000000000E+00 -0.12551044335E+03  0.39231962026E+04  0.39211880308E+04 0.  0.
        2    1    3    3  502    0  0.11477806548E+04  0.45489681295E+03 -0.15865576521E+04  0.20103474141E+04  0.25500000920E-02 0.  1.
       -2    1    3    3    0  502 -0.11477806548E+04 -0.45489681295E+03  0.14610472087E+04  0.19128487886E+04  0.25500000920E-02 0. -1.
</event>
<event>
 5   0  0.1501585E-07  0.3890677E+04  0.7818609E-02  0.8026971E-01
       -2   -1    0    0    0  501  0.00000000000E+00  0.00000000000E+00  0.19625310176E+04  0.19625310176E+04  0.25500000920E-02 0.  1.
        2   -1    0    0  501    0  0.00000000000E+00  0.00000000000E+00 -0.19282965922E+04  0.19282965922E+04  0.25500000920E-02 0. -1.
    10030    2    1    2    0    0  0.00000000000E+00  0.00000000000E+00  0.34234425398E+02  0.38908276099E+04  0.38906769969E+04 0.  0.
        5    1    3    3  502    0 -0.16241124906E+04  0.76908555831E+03  0.76218686210E+03  0.19519694877E+04  0.46999998093E+01 0.  1.
       -5    1    3    3    0  502  0.16241124906E+04 -0.76908555831E+03 -0.72795243670E+03  0.19388581222E+04  0.46999998093E+01 0. -1.
</event>
<event>
 5   0  0.1501585E-07  0.3918549E+04  0.7818609E-02  0.8021182E-01
       -2   -1    0    0    0  501  0.00000000000E+00  0.00000000000E+00  0.25761029033E+04  0.25761029033E+04  0.25500000920E-02 0.  1.
        2   -1    0    0  501    0  0.00000000000E+00  0.00000000000E+00 -0.14901407882E+04  0.14901407882E+04  0.25500000920E-02 0. -1.
    10030    2    1    2    0    0  0.00000000000E+00  0.00000000000E+00  0.10859621151E+04  0.40662436915E+04  0.39185487164E+04 0.  0.
        5    1    3    3  502    0 -0.10370398569E+04  0.10112832073E+04 -0.82605917416E+03  0.16674954990E+04  0.46999998093E+01 0. -1.
       -5    1    3    3    0  502  0.10370398569E+04 -0.10112832073E+04  0.19120212893E+04  0.23987481924E+04  0.46999998093E+01 0.  1.
</event>
<event>
 5   0  0.4750125E-08  0.3678899E+04  0.7818609E-02  0.8072654E-01
        1   -1    0    0  501    0  0.00000000000E+00  0.00000000000E+00  0.18363927051E+04  0.18363927052E+04  0.50400001928E-02 0. -1.
       -1   -1    0    0    0  501  0.00000000000E+00  0.00000000000E+00 -0.18425115096E+04  0.18425115096E+04  0.50400001928E-02 0.  1.
    10030    2    1    2    0    0  0.00000000000E+00  0.00000000000E+00 -0.61188044629E+01  0.36789042148E+04  0.36788991263E+04 0.  0.
        4    1    3    3  502    0 -0.60297531426E+02  0.12692186011E+04 -0.13331068925E+04  0.18416642608E+04  0.12699999809E+01 0.  1.
       -4    1    3    3    0  502  0.60297531426E+02 -0.12692186011E+04  0.13269880881E+04  0.18372399540E+04  0.12699999809E+01 0. -1.
</event>
<event>
 5   0  0.4750125E-08  0.3519678E+04  0.7818609E-02  0.8109142E-01
        3   -1    0    0  501    0  0.00000000000E+00  0.00000000000E+00  0.15608584612E+04  0.15608584645E+04  0.10100000352E+00 0. -1.
       -3   -1    0    0    0  501  0.00000000000E+00  0.00000000000E+00 -0.19841862144E+04  0.19841862169E+04  0.10100000352E+00 0.  1.
    10030    2    1    2    0    0  0.00000000000E+00  0.00000000000E+00 -0.42332775317E+03  0.35450446814E+04  0.35196783101E+04 0.  0.
        5    1    3    3  502    0 -0.64374199893E+03 -0.16367212320E+04 -0.27335568941E+03  0.17798892031E+04  0.46999998093E+01 0. -1.
       -5    1    3    3    0  502  0.64374199893E+03  0.16367212320E+04 -0.14997206376E+03  0.17651554783E+04  0.46999998093E+01 0.  1.
</event>
<event>
 5   0  0.1538018E-07  0.3793961E+04  0.7818609E-02  0.8047452E-01
       -2   -1    0    0    0  501  0.00000000000E+00  0.00000000000E+00  0.15209873464E+04  0.15209873464E+04  0.25500000920E-02 0. -1.
        2   -1    0    0  501    0  0.00000000000E+00  0.00000000000E+00 -0.23659202601E+04  0.23659202601E+04  0.25500000920E-02 0.  1.
    10030    2    1    2    0    0  0.00000000000E+00  0.00000000000E+00 -0.84493291371E+03  0.38869076065E+04  0.37939608739E+04 0.  0.
        1    1    3    3  502    0  0.16273240759E+04 -0.91564240101E+03 -0.79679997756E+02  0.18689391528E+04  0.50400001928E-02 0.  1.
       -1    1    3    3    0  502 -0.16273240759E+04  0.91564240101E+03 -0.76525291596E+03  0.20179684537E+04  0.50400001928E-02 0. -1.
</event>
<event>
 5   0  0.1520986E-07  0.3913570E+04  0.7818609E-02  0.8022213E-01
        2   -1    0    0  501    0  0.00000000000E+00  0.00000000000E+00  0.15785434830E+04  0.15785434830E+04  0.25500000920E-02 0.  1.
       -2   -1    0    0    0  501  0.00000000000E+00  0.00000000000E+00 -0.24256586000E+04  0.24256586000E+04  0.25500000920E-02 0. -1.
    10030    2    1    2    0    0  0.00000000000E+00  0.00000000000E+00 -0.84711511698E+03  0.40042020830E+04  0.39135700199E+04 0.  0.
        4    1    3    3  502    0  0.11079598963E+03  0.11643343191E+04  0.11815480399E+04  0.16625304633E+04  0.12699999809E+01 0.  1.
       -4    1    3    3    0  502 -0.11079598963E+03 -0.11643343191E+04 -0.20286631569E+04  0.23416716198E+04  0.12699999809E+01 0. -1.
</event>
<event>
 5   0  0.1546846E-07  0.4042104E+04  0.7818609E-02  0.7996106E-01
       -2   -1    0    0    0  501  0.00000000000E+00  0.00000000000E+00  0.26109584496E+04  0.26109584496E+04  0.25500000920E-02 0. -1.
        2   -1    0    0  501    0  0.00000000000E+00  0.00000000000E+00 -0.15644260336E+04  0.15644260336E+04  0.25500000920E-02 0.  1.
    10030    2    1    2    0    0  0.00000000000E+00  0.00000000000E+00  0.10465324160E+04  0.41753844832E+04  0.40421040912E+04 0.  0.
        2    1    3    3  502    0  0.14322057436E+04  0.13992364199E+04  0.80724084460E+03  0.21588686000E+04  0.25500000920E-02 0. -1.
       -2    1    3    3    0  502 -0.14322057436E+04 -0.13992364199E+04  0.23929157140E+03  0.20165158832E+04  0.25500000920E-02 0.  1.
</event>
<event>
 5   0  0.1546846E-07  0.3762960E+04  0.7818609E-02  0.8054151E-01
       -2   -1    0    0    0  501  0.00000000000E+00  0.00000000000E+00  0.13938072218E+04  0.13938072218E+04  0.25500000920E-02 0. -1.
        2   -1    0    0  501    0  0.00000000000E+00  0.00000000000E+00 -0.25397824407E+04  0.25397824407E+04  0.25500000920E-02 0.  1.
    10030    2    1    2    0    0  0.00000000000E+00  0.00000000000E+00 -0.11459752188E+04  0.39335896625E+04  0.37629600623E+04 0.  0.
        2    1    3    3  502    0 -0.82691551183E+03 -0.30939091380E+03  0.11638123056E+04  0.14608117894E+04  0.25500000920E-02 0. -1.
       -2    1    3    3    0  502  0.82691551183E+03  0.30939091380E+03 -0.23097875245E+04  0.24727778731E+04  0.25500000920E-02 0.  1.
</event>
<event>
 5   0  0.4762788E-08  0.3745519E+04  0.7818609E-02  0.8057948E-01
       -1   -1    0    0    0  501  0.00000000000E+00  0.00000000000E+00  0.15900598316E+04  0.15900598316E+04  0.50400001928E-02 0. -1.
        1   -1    0    0  501    0  0.00000000000E+00  0.00000000000E+00 -0.22057209478E+04  0.22057209478E+04  0.50400001928E-02 0.  1.
    10030    2    1    2    0    0  0.00000000000E+00  0.00000000000E+00 -0.61566111619E+03  0.37957807794E+04  0.37455190715E+04 0.  0.
        2    1    3    3  502    0 -0.44426805085E+03  0.16258184976E+04  0.51956172725E+03  0.17636905274E+04  0.25500000920E-02 0. -1.
       -2    1    3    3    0  502  0.44426805085E+03 -0.16258184976E+04 -0.11352228434E+04  0.20320902520E+04  0.25500000920E-02 0.  1.
</event>
<event>
 5   0  0.4750125E-08  0.3920882E+04  0.7818609E-02  0.8020700E-01
       -1   -1    0    0    0  501  0.00000000000E+00  0.00000000000E+00  0.21506920190E+04  0.21506920190E+04  0.50400001928E-02 0.  1.
        1   -1    0    0  501    0  0.00000000000E+00  0.00000000000E+00 -0.17870196409E+04  0.17870196410E+04  0.50400001928E-02 0. -1.
    10030    2    1    2    0    0  0.00000000000E+00  0.00000000000E+00  0.36367237807E+03  0.39377116600E+04  0.39208819822E+04 0.  0.
        3    1    3    3  502    0  0.69426805165E+03  0.12040060534E+04  0.15704097577E+04  0.20970993113E+04  0.10100000352E+00 0.  1.
       -3    1    3    3    0  502 -0.69426805165E+03 -0.12040060534E+04 -0.12067373797E+04  0.18406123486E+04  0.10100000352E+00 0. -1.
</event>
<event>
 5   0  0.1501585E-07  0.3905798E+04  0.7818609E-02  0.8023824E-01
       -2   -1    0    0    0  501  0.00000000000E+00  0.00000000000E+00  0.20953587343E+04  0.20953587343E+04  0.25500000920E-02 0. -1.
        2   -1    0    0  501    0  0.00000000000E+00  0.00000000000E+00 -0.18201248007E+04  0.18201248007E+04  0.25500000920E-02 0.  1.
    10030    2    1    2    0    0  0.00000000000E+00  0.00000000000E+00  0.27523393365E+03  0.39154835350E+04  0.39057979460E+04 0.  0.
        5    1    3    3  502    0 -0.10063365992E+04  0.54236098099E+03 -0.14496360902E+04  0.18461678332E+04  0.46999998093E+01 0.  1.
       -5    1    3    3    0  502  0.10063365992E+04 -0.54236098099E+03  0.17248700238E+04  0.20693157018E+04  0.46999998093E+01 0. -1.
</event>
<event>
 5   0  0.1538018E-07  0.3888290E+04  0.7818609E-02  0.8027469E-01
        2   -1    0    0  501    0  0.00000000000E+00  0.00000000000E+00  0.26147375380E+04  0.26147375380E+04  0.25500000920E-02 0. -1.
       -2   -1    0    0    0  501  0.00000000000E+00  0.00000000000E+00 -0.14455366183E+04  0.14455366183E+04  0.25500000920E-02 0.  1.
    10030    2    1    2    0    0  0.00000000000E+00  0.00000000000E+00  0.11692009197E+04  0.40602741563E+04  0.38882895254E+04 0.  0.
        1    1    3    3  502    0  0.17807595543E+04  0.53207595859E+02 -0.22813313830E+03  0.17961014357E+04  0.50400001928E-02 0.  1.
       -1    1    3    3    0  502 -0.17807595543E+04 -0.53207595859E+02  0.13973340580E+04  0.22641727205E+04  0.50400001928E-02 0. -1.
</event>
<event>
 5   0  0.4750125E-08  0.3874190E+04  0.7818609E-02  0.8030419E-01
       -1   -1    0    0    0  501  0.00000000000E+00  0.00000000000E+00  0.13733462941E+04  0.13733462941E+04  0.50400001928E-02 0.  1.
        1   -1    0    0  501    0  0.00000000000E+00  0.00000000000E+00 -0.27322582788E+04  0.27322582788E+04  0.50400001928E-02 0. -1.
    10030    2    1    2    0    0  0.00000000000E+00  0.00000000000E+00 -0.13589119848E+04  0.41056045729E+04  0.38741898672E+04 0.  0.
        4    1    3    3  502    0 -0.40091674677E+03  0.67893086554E+03  0.11955978385E+04  0.14321791656E+04  0.12699999809E+01 0.  1.
       -4    1    3    3    0  502  0.40091674677E+03 -0.67893086554E+03 -0.25545098233E+04  0.26734254073E+04  0.12699999809E+01 0. -1.
</event>
<event>
 5   0  0.4750125E-08  0.3911202E+04  0.7818609E-02  0.8022704E-01
        1   -1    0    0  501    0  0.00000000000E+00  0.00000000000E+00  0.22671368036E+04  0.22671368036E+04  0.50400001928E-02 0.  1.
       -1   -1    0    0    0  501  0.00000000000E+00  0.00000000000E+00 -0.16868741000E+04  0.16868741001E+04  0.50400001928E-02 0. -1.
    10030    2    1    2    0    0  0.00000000000E+00  0.00000000000E+00  0.58026270352E+03  0.39540109036E+04  0.39112015316E+04 0.  0.
        3    1    3    3  502    0  0.13224782234E+04  0.44407721759E+03  0.16756137987E+04  0.21803290667E+04  0.10100000352E+00 0.  1.
       -3    1    3    3    0  502 -0.13224782234E+04 -0.44407721759E+03 -0.10953510952E+04  0.17736818369E+04  0.10100000352E+00 0. -1.
</event>
<event>
 5   0  0.1501585E-07  0.3903876E+04  0.7818609E-02  0.8024224E-01
       -2   -1    0    0    0  501  0.00000000000E+00  0.00000000000E+00  0.15113804640E+04  0.15113804640E+04  0.25500000920E-02 0. -1.
        2   -1    0    0  501    0  0.00000000000E+00  0.00000000000E+00 -0.25209146717E+04  0.25209146717E+04  0.25500000920E-02 0.  1.
    10030    2    1    2    0    0  0.00000000000E+00  0.00000000000E+00 -0.10095342078E+04  0.40322951357E+04  0.39038756057E+04 0.  0.
        5    1    3    3  502    0 -0.44886152314E+03  0.55354232443E+03  0.13721926409E+04  0.15462278311E+04  0.46999998093E+01 0. -1.
       -5    1    3    3    0  502  0.44886152314E+03 -0.55354232443E+03 -0.23817268486E+04  0.24860673047E+04  0.46999998093E+01 0.  1.
</event>
<event>
 5   0  0.1501585E-07  0.3913920E+04  0.7818609E-02  0.8022140E-01
       -2   -1    0    0    0  501  0.00000000000E+00  0.00000000000E+00  0.21104647815E+04  0.21104647815E+04  0.25500000920E-02 0. -1.
        2   -1    0    0  501    0  0.00000000000E+00  0.00000000000E+00 -0.18146206015E+04  0.18146206015E+04  0.25500000920E-02 0.  1.
    10030    2    1    2    0    0  0.00000000000E+00  0.00000000000E+00  0.29584418000E+03  0.39250853831E+04  0.39139202196E+04 0.  0.
        5    1    3    3  502    0  0.50030860915E+03  0.62536406817E+03 -0.16427476459E+04  0.18275751258E+04  0.46999998093E+01 0.  1.
       -5    1    3    3    0  502 -0.50030860915E+03 -0.62536406817E+03  0.19385918259E+04  0.20975102573E+04  0.46999998093E+01 0. -1.
</event>
<event>
 5   0  0.1546846E-07  0.3782362E+04  0.7818609E-02  0.8049951E-01
       -2   -1    0    0    0  501  0.00000000000E+00  0.00000000000E+00  0.15499073105E+04  0.15499073105E+04  0.25500000920E-02 0. -1.
        2   -1    0    0  501    0  0.00000000000E+00  0.00000000000E+00 -0.23075999385E+04  0.23075999385E+04  0.25500000920E-02 0.  1.
    10030    2    1    2    0    0  0.00000000000E+00  0.00000000000E+00 -0.75769262795E+03  0.38575072490E+04  0.37823622325E+04 0.  0.
        2    1    3    3  502    0  0.18672322419E+04 -0.22229206268E+03 -0.58433376152E+03  0.19691155251E+04  0.25500000920E-02 0.  1.
       -2    1    3    3    0  502 -0.18672322419E+04  0.22229206268E+03 -0.17335886643E+03  0.18883917239E+04  0.25500000920E-02 0. -1.
</event>
<event>
 5   0  0.1520986E-07  0.3732084E+04  0.7818609E-02  0.8060888E-01
        2   -1    0    0  501    0  0.00000000000E+00  0.00000000000E+00  0.23109937133E+04  0.23109937133E+04  0.25500000920E-02 0.  1.
       -2   -1    0    0    0  501  0.00000000000E+00  0.00000000000E+00 -0.15067603223E+04  0.15067603223E+04  0.25500000920E-02 0. -1.
    10030    2    1    2    0    0  0.00000000000E+00  0.00000000000E+00  0.80423339094E+03  0.38177540356E+04  0.37320844751E+04 0.  0.
        4    1    3    3  502    0  0.11452016333E+04 -0.65928260824E+03  0.17499239749E+04  0.21928009187E+04  0.12699999809E+01 0.  1.
       -4    1    3    3    0  502 -0.11452016333E+04  0.65928260824E+03 -0.94569058392E+03  0.16249531168E+04  0.12699999809E+01 0. -1.
</event>
<event>
 5   0  0.4750125E-08  0.3908193E+04  0.7818609E-02  0.8023327E-01
        1   -1    0    0  501    0  0.00000000000E+00  0.00000000000E+00  0.21534233480E+04  0.21534233480E+04  0.50400001928E-02 0. -1.
       -1   -1    0    0    0  501  0.00000000000E+00  0.00000000000E+00 -0.17732201429E+04  0.17732201429E+04  0.50400001928E-02 0.  1.
    10030    2    1    2    0    0  0.00000000000E+00  0.00000000000E+00  0.38020320518E+03  0.39266434909E+04  0.39081932689E+04 0.  0.
        1    1    3    3  502    0 -0.59398185835E+02 -0.19206671879E+04 -0.16654327939E+03  0.19287890644E+04  0.50400001928E-02 0.  1.
       -1    1    3    3    0  502  0.59398185835E+02  0.19206671879E+04  0.54674648457E+03  0.19978544265E+04  0.50400001928E-02 0. -1.
</event>
<event>
 5   0  0.4750125E-08  0.3919286E+04  0.7818609E-02  0.8021030E-01
        1   -1    0    0  501    0  0.00000000000E+00  0.00000000000E+00  0.21396811098E+04  0.21396811098E+04  0.50400001928E-02 0. -1.
       -1   -1    0    0    0  501  0.00000000000E+00  0.00000000000E+00 -0.17947536143E+04  0.17947536143E+04  0.50400001928E-02 0.  1.
    10030    2    1    2    0    0  0.00000000000E+00  0.00000000000E+00  0.34492749548E+03  0.39344347240E+04  0.39192858560E+04 0.  0.
        1    1    3    3  502    0  0.66153754250E+03 -0.58332522925E+03  0.19291705493E+04  0.21212258842E+04  0.50400001928E-02 0. -1.
       -1    1    3    3    0  502 -0.66153754250E+03  0.58332522925E+03 -0.15842430539E+04  0.18132088399E+04  0.50400001928E-02 0.  1.
</event>
<event>
 5   0  0.4750125E-08  0.4001754E+04  0.7818609E-02  0.8004193E-01
       -1   -1    0    0    0  501  0.00000000000E+00  0.00000000000E+00  0.16411649062E+04  0.16411649062E+04  0.50400001928E-02 0.  1.
        1   -1    0    0  501    0  0.00000000000E+00  0.00000000000E+00 -0.24394311987E+04  0.24394311987E+04  0.50400001928E-02 0. -1.
    10030    2    1    2    0    0  0.00000000000E+00  0.00000000000E+00 -0.79826629252E+03  0.40805961049E+04  0.40017540526E+04 0.  0.
        5    1    3    3  502    0 -0.11972623089E+04  0.14035011310E+04  0.39087874875E+03  0.18857520375E+04  0.46999998093E+01 0.  1.
       -5    1    3    3    0  502  0.11972623089E+04 -0.14035011310E+04 -0.11891450413E+04  0.21948440674E+04  0.46999998093E+01 0. -1.
</event>
<event>
 5   0  0.1538018E-07  0.3947859E+04  0.7818609E-02  0.8015148E-01
        2   -1    0    0  501    0  0.00000000000E+00  0.00000000000E+00  0.28162198312E+04  0.28162198312E+04  0.25500000920E-02 0. -1.
       -2   -1    0    0    0  501  0.00000000000E+00  0.00000000000E+00 -0.13835558884E+04  0.13835558884E+04  0.25500000920E-02 0.  1.
    10030    2    1    2    0    0  0.00000000000E+00  0.00000000000E+00  0.14326639428E+04  0.41997757197E+04  0.39478589289E+04 0.  0.
        1    1    3    3  502    0 -0.68697082989E+03  0.17176826119E+04 -0.16104062448E+02  0.18500329232E+04  0.50400001928E-02 0.  1.
       -1    1    3    3    0  502  0.68697082989E+03 -0.17176826119E+04  0.14487680053E+04  0.23497427964E+04  0.50400001928E-02 0. -1.
</event>
<event>
 5   0  0.1520986E-07  0.3928864E+04  0.7818609E-02  0.8019053E-01
       -2   -1    0    0    0  501  0.00000000000E+00  0.00000000000E+00  0.27569272838E+04  0.27569272838E+04  0.25500000920E-02 0. -1.
        2   -1    0    0  501    0  0.00000000000E+00  0.00000000000E+00 -0.13997443758E+04  0.13997443758E+04  0.25500000920E-02 0.  1.
    10030    2    1    2    0    0  0.00000000000E+00  0.00000000000E+00  0.13571829080E+04  0.41566716595E+04  0.39288641920E+04 0.  0.
        4    1    3    3  502    0  0.58012353298E+03  0.45325182367E+03 -0.12482775035E+04  0.14491993886E+04  0.12699999809E+01 0.  1.
       -4    1    3    3    0  502 -0.58012353298E+03 -0.45325182367E+03  0.26054604115E+04  0.27074722710E+04  0.12699999809E+01 0. -1.
</event>
<event>
 5   0  0.4750125E-08  0.3902220E+04  0.7818609E-02  0.8024568E-01
       -1   -1    0    0    0  501  0.00000000000E+00  0.00000000000E+00  0.15635939684E+04  0.15635939684E+04  0.50400001928E-02 0.  1.
        1   -1    0    0  501    0  0.00000000000E+00  0.00000000000E+00 -0.24346664689E+04  0.24346664689E+04  0.50400001928E-02 0. -1.
    10030    2    1    2    0    0  0.00000000000E+00  0.00000000000E+00 -0.87107250044E+03  0.39982604373E+04  0.39022197815E+04 0.  0.
        4    1    3    3  502    0  0.18453709442E+04 -0.57178216626E+03 -0.15587273266E+03  0.19382019216E+04  0.12699999809E+01 0.  1.
       -4    1    3    3    0  502 -0.18453709442E+04  0.57178216626E+03 -0.71519976778E+03  0.20600585157E+04  0.12699999809E+01 0. -1.
</event>
<event>
 5   0  0.4750125E-08  0.3905664E+04  0.7818609E-02  0.8023852E-01
        3   -1    0    0  501    0  0.00000000000E+00  0.00000000000E+00  0.30803459431E+04  0.30803459447E+04  0.10100000352E+00 0.  1.
       -3   -1    0    0    0  501  0.00000000000E+00  0.00000000000E+00 -0.12380275767E+04  0.12380275809E+04  0.10100000352E+00 0. -1.
    10030    2    1    2    0    0  0.00000000000E+00  0.00000000000E+00  0.18423183664E+04  0.43183735256E+04  0.39056642129E+04 0.  0.
        1    1    3    3  502    0 -0.78460357323E+02 -0.17841458214E+03 -0.12272465552E+04  0.12426270149E+04  0.50400001928E-02 0. -1.
       -1    1    3    3    0  502  0.78460357323E+02  0.17841458214E+03  0.30695649215E+04  0.30757465108E+04  0.50400001928E-02 0.  1.
</event>
<event>
 5   0  0.1538018E-07  0.3896521E+04  0.7818609E-02  0.8025753E-01
       -2   -1    0    0    0  501  0.00000000000E+00  0.00000000000E+00  0.27576088372E+04  0.27576088372E+04  0.25500000920E-02 0. -1.
        2   -1    0    0  501    0  0.00000000000E+00  0.00000000000E+00 -0.13764530833E+04  0.13764530833E+04  0.25500000920E-02 0.  1.
    10030    2    1    2    0    0  0.00000000000E+00  0.00000000000E+00  0.13811557538E+04  0.41340619205E+04  0.38965211082E+04 0.  0.
        1    1    3    3  502    0 -0.11761555598E+04 -0.12684234376E+04  0.16415926905E+04  0.23847571112E+04  0.50400001928E-02 0. -1.
       -1    1    3    3    0  502  0.11761555598E+04  0.12684234376E+04 -0.26043693663E+03  0.17493048093E+04  0.50400001928E-02 0.  1.
</event>
<event>
 5   0  0.4750125E-08  0.3889789E+04  0.7818609E-02  0.8027156E-01
        1   -1    0    0  501    0  0.00000000000E+00  0.00000000000E+00  0.22281060387E+04  0.22281060387E+04  0.50400001928E-02 0.  1.
       -1   -1    0    0    0  501  0.00000000000E+00  0.00000000000E+00 -0.16976811673E+04  0.16976811673E+04  0.50400001928E-02 0. -1.
    10030    2    1    2    0    0  0.00000000000E+00  0.00000000000E+00  0.53042487143E+03  0.39257872060E+04  0.38897885088E+04 0.  0.
        5    1    3    3  502    0  0.12425607978E+04 -0.11527550630E+04  0.12278689313E+04  0.20929610063E+04  0.46999998093E+01 0.  1.
       -5    1    3    3    0  502 -0.12425607978E+04  0.11527550630E+04 -0.69744405990E+03  0.18328261997E+04  0.46999998093E+01 0. -1.
</event>
<event>
 5   0  0.1546846E-07  0.3895350E+04  0.7818609E-02  0.8025997E-01
       -2   -1    0    0    0  501  0.00000000000E+00  0.00000000000E+00  0.18299033402E+04  0.18299033402E+04  0.25500000920E-02 0.  1.
        2   -1    0    0  501    0  0.00000000000E+00  0.00000000000E+00 -0.20730267667E+04  0.20730267667E+04  0.25500000920E-02 0. -1.
    10030    2    1    2    0    0  0.00000000000E+00  0.00000000000E+00 -0.24312342646E+03  0.39029301070E+04  0.38953503590E+04 0.  0.
        2    1    3    3  502    0 -0.43589555887E+03 -0.91372066615E+03  0.15455714622E+04  0.18476150949E+04  0.25500000920E-02 0.  1.
       -2    1    3    3    0  502  0.43589555887E+03  0.91372066615E+03 -0.17886948887E+04  0.20553150121E+04  0.25500000920E-02 0. -1.
</event>
<event>
 5   0  0.1546846E-07  0.3919047E+04  0.7818609E-02  0.8021079E-01
       -2   -1    0    0    0  501  0.00000000000E+00  0.00000000000E+00  0.26301085838E+04  0.26301085838E+04  0.25500000920E-02 0. -1.
        2   -1    0    0  501    0  0.00000000000E+00  0.00000000000E+00 -0.14599139188E+04  0.14599139188E+04  0.25500000920E-02 0.  1.
    10030    2    1    2    0    0  0.00000000000E+00  0.00000000000E+00  0.11701946650E+04  0.40900225026E+04  0.39190468889E+04 0.  0.
        2    1    3    3  502    0  0.60131611745E+03 -0.10807034002E+04 -0.10011575134E+04  0.15911685262E+04  0.25500000920E-02 0.  1.
       -2    1    3    3    0  502 -0.60131611745E+03  0.10807034002E+04  0.21713521784E+04  0.24988539763E+04  0.25500000920E-02 0. -1.
</event>
<event>
 5   0  0.1520986E-07  0.3732776E+04  0.7818609E-02  0.8060737E-01
        2   -1    0    0  501    0  0.00000000000E+00  0.00000000000E+00  0.21908920252E+04  0.21908920252E+04  0.25500000920E-02 0.  1.
       -2   -1    0    0    0  501  0.00000000000E+00  0.00000000000E+00 -0.15899477159E+04  0.15899477159E+04  0.25500000920E-02 0. -1.
    10030    2    1    2    0    0  0.00000000000E+00  0.00000000000E+00  0.60094430936E+03  0.37808397411E+04  0.37327757882E+04 0.  0.
        4    1    3    3  502    0  0.82322171224E+03  0.78821913212E+03 -0.11965365120E+04  0.16524783282E+04  0.12699999809E+01 0. -1.
       -4    1    3    3    0  502 -0.82322171224E+03 -0.78821913212E+03  0.17974808214E+04  0.21283614129E+04  0.12699999809E+01 0.  1.
</event>
<event>
 5   0  0.1501585E-07  0.3896156E+04  0.7818609E-02  0.8025829E-01
       -2   -1    0    0    0  501  0.00000000000E+00  0.00000000000E+00  0.27677781554E+04  0.27677781554E+04  0.25500000920E-02 0. -1.
        2   -1    0    0  501    0  0.00000000000E+00  0.00000000000E+00 -0.13711388780E+04  0.13711388780E+04  0.25500000920E-02 0.  1.
    10030    2    1    2    0    0  0.00000000000E+00  0.00000000000E+00  0.13966392774E+04  0.41389170334E+04  0.38961561748E+04 0.  0.
        5    1    3    3  502    0  0.88129211569E+03  0.79895196281E+01 -0.11472384457E+04  0.14466920083E+04  0.46999998093E+01 0.  1.
       -5    1    3    3    0  502 -0.88129211569E+03 -0.79895196281E+01  0.25438777231E+04  0.26922250251E+04  0.46999998093E+01 0. -1.
</event>
<event>
 5   0  0.1538018E-07  0.3835004E+04  0.7818609E-02  0.8038685E-01
        2   -1    0    0  501    0  0.00000000000E+00  0.00000000000E+00  0.23913745608E+04  0.23913745608E+04  0.25500000920E-02 0. -1.
       -2   -1    0    0    0  501  0.00000000000E+00  0.00000000000E+00 -0.15375312235E+04  0.15375312235E+04  0.25500000920E-02 0.  1.
    10030    2    1    2    0    0  0.00000000000E+00  0.00000000000E+00  0.85384333733E+03  0.39289057843E+04  0.38350035485E+04 0.  0.
        1    1    3    3  502    0  0.14997817084E+04 -0.23055280809E+03  0.16279374570E+04  0.22254617799E+04  0.50400001928E-02 0. -1.
       -1    1    3    3    0  502 -0.14997817084E+04  0.23055280809E+03 -0.77409411964E+03  0.17034440044E+04  0.50400001928E-02 0.  1.
</event>
<event>
 5   0  0.1501585E-07  0.3893253E+04  0.7818609E-02  0.8026434E-01
       -2   -1    0    0    0  501  0.00000000000E+00  0.00000000000E+00  0.14341246588E+04  0.14341246588E+04  0.25500000920E-02 0. -1.
        2   -1    0    0  501    0  0.00000000000E+00  0.00000000000E+00 -0.26422777167E+04  0.26422777167E+04  0.25500000920E-02 0.  1.
    10030    2    1    2    0    0  0.00000000000E+00  0.00000000000E+00 -0.12081530579E+04  0.40764023755E+04  0.38932534616E+04 0.  0.
        5    1    3    3  502    0 -0.18291705072E+04  0.42152135965E+03 -0.64277011985E+02  0.18782168739E+04  0.46999998093E+01 0. -1.
       -5    1    3    3    0  502  0.18291705072E+04 -0.42152135965E+03 -0.11438760459E+04  0.21981855016E+04  0.46999998093E+01 0.  1.
</event>
<event>
 5   0  0.4750125E-08  0.3860354E+04  0.7818609E-02  0.8033326E-01
       -1   -1    0    0    0  501  0.00000000000E+00  0.00000000000E+00  0.29610774780E+04  0.29610774780E+04  0.50400001928E-02 0. -1.
        1   -1    0    0  501    0  0.00000000000E+00  0.00000000000E+00 -0.12581852981E+04  0.12581852981E+04  0.50400001928E-02 0.  1.
    10030    2    1    2    0    0  0.00000000000E+00  0.00000000000E+00  0.17028921799E+04  0.42192627761E+04  0.38603544652E+04 0.  0.
        4    1    3    3  502    0  0.50185720111E+03 -0.13216636471E+04  0.22877501595E+04  0.26893229355E+04  0.12699999809E+01 0. -1.
       -4    1    3    3    0  502 -0.50185720111E+03  0.13216636471E+04 -0.58485797961E+03  0.15299398405E+04  0.12699999809E+01 0.  1.
</event>
<event>
 5   0  0.4750125E-08  0.3842471E+04  0.7818609E-02  0.8037102E-01
       -1   -1    0    0    0  501  0.00000000000E+00  0.00000000000E+00  0.14778606239E+04  0.14778606239E+04  0.50400001928E-02 0.  1.
        1   -1    0    0  501    0  0.00000000000E+00  0.00000000000E+00 -0.24976283298E+04  0.24976283298E+04  0.50400001928E-02 0. -1.
    10030    2    1    2    0    0  0.00000000000E+00  0.00000000000E+00 -0.10197677059E+04  0.39754889536E+04  0.38424713722E+04 0.  0.
        5    1    3    3  502    0  0.17021671069E+04  0.18394435843E+03 -0.14117928703E+04  0.22190965697E+04  0.46999998093E+01 0. -1.
       -5    1    3    3    0  502 -0.17021671069E+04 -0.18394435843E+03  0.39202516444E+03  0.17563923839E+04  0.46999998093E+01 0.  1.
</event>
<event>
 5   0  0.1520986E-07  0.3905988E+04  0.7818609E-02  0.8023785E-01
       -2   -1    0    0    0  501  0.00000000000E+00  0.00000000000E+00  0.21015993052E+04  0.21015993052E+04  0.25500000920E-02 0. -1.
        2   -1    0    0  501    0  0.00000000000E+00  0.00000000000E+00 -0.18148970106E+04  0.18148970106E+04  0.25500000920E-02 0.  1.
    10030    2    1    2    0    0  0.00000000000E+00  0.00000000000E+00  0.28670229459E+03  0.39164963157E+04  0.39059883750E+04 0.  0.
        4    1    3    3  502    0 -0.76066314081E+03 -0.12345244153E+04  0.14551235598E+04  0.20542748435E+04  0.12699999809E+01 0. -1.
       -4    1    3    3    0  502  0.76066314081E+03  0.12345244153E+04 -0.11684212652E+04  0.18622214722E+04  0.12699999809E+01 0.  1.
</event>
<event>
 5   0  0.1546846E-07  0.3901472E+04  0.7818609E-02  0.8024723E-01
       -2   -1    0    0    0  501  0.00000000000E+00  0.00000000000E+00  0.22474347497E+04  0.22474347497E+04  0.25500000920E-02 0. -1.
        2   -1    0    0  501    0  0.00000000000E+00  0.00000000000E+00 -0.16932064775E+04  0.16932064775E+04  0.25500000920E-02 0.  1.
    10030    2    1    2    0    0  0.00000000000E+00  0.00000000000E+00  0.55422827216E+03  0.39406412272E+04  0.39014720689E+04 0.  0.
        2    1    3    3  502    0 -0.84944257344E+03  0.17319868814E+04 -0.15692547316E+02  0.19291390564E+04  0.25500000920E-02 0. -1.
       -2    1    3    3    0  502  0.84944257344E+03 -0.17319868814E+04  0.56992081947E+03  0.20115021708E+04  0.25500000920E-02 0.  1.
</event>
<event>
 5   0  0.4750125E-08  0.3914807E+04  0.7818609E-02  0.8021957E-01
        1   -1    0    0  501    0  0.00000000000E+00  0.00000000000E+00  0.22634685736E+04  0.22634685736E+04  0.50400001928E-02 0.  1.
       -1   -1    0    0    0  501  0.00000000000E+00  0.00000000000E+00 -0.16927248064E+04  0.16927248064E+04  0.50400001928E-02 0. -1.
    10030    2    1    2    0    0  0.00000000000E+00  0.00000000000E+00  0.57074376718E+03  0.39561933800E+04  0.39148074809E+04 0.  0.
        5    1    3    3  502    0 -0.46394024995E+02  0.15374416775E+04  0.15087597306E+04  0.21545898291E+04  0.46999998093E+01 0.  1.
       -5    1    3    3    0  502  0.46394024995E+02 -0.15374416775E+04 -0.93801596338E+03  0.18016035509E+04  0.46999998093E+01 0. -1.
</event>
<event>
 5   0  0.4750125E-08  0.3893694E+04  0.7818609E-02  0.8026342E-01
        1   -1    0    0  501    0  0.00000000000E+00  0.00000000000E+00  0.23233590099E+04  0.23233590099E+04  0.50400001928E-02 0.  1.
       -1   -1    0    0    0  501  0.00000000000E+00  0.00000000000E+00 -0.16313502445E+04  0.16313502445E+04  0.50400001928E-02 0. -1.
    10030    2    1    2    0    0  0.00000000000E+00  0.00000000000E+00  0.69200876538E+03  0.39547092544E+04  0.38936935107E+04 0.  0.
        4    1    3    3  502    0  0.95265627632E+03 -0.15809984902E+03  0.20629564098E+04  0.22777928582E+04  0.12699999809E+01 0.  1.
       -4    1    3    3    0  502 -0.95265627632E+03  0.15809984902E+03 -0.13709476444E+04  0.16769163962E+04  0.12699999809E+01 0. -1.
</event>
<event>
 5   0  0.1501585E-07  0.3923418E+04  0.7818609E-02  0.8020176E-01
       -2   -1    0    0    0  501  0.00000000000E+00  0.00000000000E+00  0.17926859409E+04  0.17926859409E+04  0.25500000920E-02 0. -1.
        2   -1    0    0  501    0  0.00000000000E+00  0.00000000000E+00 -0.21466678407E+04  0.21466678407E+04  0.25500000920E-02 0.  1.
    10030    2    1    2    0    0  0.00000000000E+00  0.00000000000E+00 -0.35398189979E+03  0.39393537817E+04  0.39234175194E+04 0.  0.
        5    1    3    3  502    0  0.76258420840E+03 -0.86181297340E+02  0.16357000465E+04  0.18067923574E+04  0.46999998093E+01 0. -1.
       -5    1    3    3    0  502 -0.76258420840E+03  0.86181297340E+02 -0.19896819463E+04  0.21325614242E+04  0.46999998093E+01 0.  1.
</event>
<event>
 5   0  0.4762788E-08  0.3817527E+04  0.7818609E-02  0.8042404E-01
       -1   -1    0    0    0  501  0.00000000000E+00  0.00000000000E+00  0.29768285924E+04  0.29768285924E+04  0.50400001928E-02 0. -1.
        1   -1    0    0  501    0  0.00000000000E+00  0.00000000000E+00 -0.12239127847E+04  0.12239127847E+04  0.50400001928E-02 0.  1.
    10030    2    1    2    0    0  0.00000000000E+00  0.00000000000E+00  0.17529158077E+04  0.42007413771E+04  0.38175272479E+04 0.  0.
        2    1    3    3  502    0  0.17136574024E+04 -0.27878226667E+03  0.37236785213E+01  0.17361898256E+04  0.25500000920E-02 0.  1.
       -2    1    3    3    0  502 -0.17136574024E+04  0.27878226667E+03  0.17491921292E+04  0.24645515514E+04  0.25500000920E-02 0. -1.
</event>
<event>
 5   0  0.4750125E-08  0.3980831E+04  0.7818609E-02  0.8008425E-01
       -1   -1    0    0    0  501  0.00000000000E+00  0.00000000000E+00  0.28097472359E+04  0.28097472359E+04  0.50400001928E-02 0. -1.
        1   -1    0    0  501    0  0.00000000000E+00  0.00000000000E+00 -0.14100038942E+04  0.14100038942E+04  0.50400001928E-02 0.  1.
    10030    2    1    2    0    0  0.00000000000E+00  0.00000000000E+00  0.13997433417E+04  0.42197511301E+04  0.39808313424E+04 0.  0.
        3    1    3    3  502    0 -0.16524752357E+04  0.89351441411E+03  0.13971603121E+04  0.23411747822E+04  0.10100000352E+00 0. -1.
       -3    1    3    3    0  502  0.16524752357E+04 -0.89351441411E+03  0.25830296259E+01  0.18785763479E+04  0.10100000352E+00 0.  1.
</event>
<event>
 5   0  0.4750125E-08  0.3931259E+04  0.7818609E-02  0.8018559E-01
       -1   -1    0    0    0  501  0.00000000000E+00  0.00000000000E+00  0.22395467705E+04  0.22395467705E+04  0.50400001928E-02 0. -1.
        1   -1    0    0  501    0  0.00000000000E+00  0.00000000000E+00 -0.17252151815E+04  0.17252151815E+04  0.50400001928E-02 0.  1.
    10030    2    1    2    0    0  0.00000000000E+00  0.00000000000E+00  0.51433158900E+03  0.39647619519E+04  0.39312593850E+04 0.  0.
        1    1    3    3  502    0 -0.96180407813E+03  0.16619375991E+04 -0.16664924585E+03  0.19274012658E+04  0.50400001928E-02 0. -1.
       -1    1    3    3    0  502  0.96180407813E+03 -0.16619375991E+04  0.68098083486E+03  0.20373606862E+04  0.50400001928E-02 0.  1.
</event>
<event>
 5   0  0.1538018E-07  0.3876952E+04  0.7818609E-02  0.8029840E-01
        2   -1    0    0  501    0  0.00000000000E+00  0.00000000000E+00  0.25191655190E+04  0.25191655190E+04  0.25500000920E-02 0. -1.
       -2   -1    0    0    0  501  0.00000000000E+00  0.00000000000E+00 -0.14916407345E+04  0.14916407345E+04  0.25500000920E-02 0.  1.
    10030    2    1    2    0    0  0.00000000000E+00  0.00000000000E+00  0.10275247845E+04  0.40108062536E+04  0.38769523625E+04 0.  0.
        1    1    3    3  502    0  0.85907943137E+03  0.16519609833E+04  0.10715408687E+04  0.21482998843E+04  0.50400001928E-02 0. -1.
       -1    1    3    3    0  502 -0.85907943137E+03 -0.16519609833E+04 -0.44016084164E+02  0.18625063692E+04  0.50400001928E-02 0.  1.
</event>
<event>
 5   0  0.1503228E-07  0.3877593E+04  0.7818609E-02  0.8029706E-01
        2   -1    0    0  501    0  0.00000000000E+00  0.00000000000E+00  0.27753639810E+04  0.27753639810E+04  0.25500000920E-02 0. -1.
       -2   -1    0    0    0  501  0.00000000000E+00  0.00000000000E+00 -0.13543923288E+04  0.13543923289E+04  0.25500000920E-02 0.  1.
    10030    2    1    2    0    0  0.00000000000E+00  0.00000000000E+00  0.14209716522E+04  0.41297563099E+04  0.38775929057E+04 0.  0.
        3    1    3    3  502    0  0.15946840010E+04  0.10620878554E+04  0.10262167502E+04  0.21735152413E+04  0.10100000352E+00 0. -1.
       -3    1    3    3    0  502 -0.15946840010E+04 -0.10620878554E+04  0.39475490194E+03  0.19562410686E+04  0.10100000352E+00 0.  1.
</event>
<event>
 5   0  0.1501585E-07  0.3937499E+04  0.7818609E-02  0.8017275E-01
        2   -1    0    0  501    0  0.00000000000E+00  0.00000000000E+00  0.19012832096E+04  0.19012832096E+04  0.25500000920E-02 0.  1.
       -2   -1    0    0    0  501  0.00000000000E+00  0.00000000000E+00 -0.20386100670E+04  0.20386100670E+04  0.25500000920E-02 0. -1.
    10030    2    1    2    0    0  0.00000000000E+00  0.00000000000E+00 -0.13732685744E+03  0.39398932766E+04  0.39374992527E+04 0.  0.
        5    1    3    3  502    0  0.99053369135E+03  0.54671254389E+03  0.15434963058E+04  0.19137540426E+04  0.46999998093E+01 0.  1.
       -5    1    3    3    0  502 -0.99053369135E+03 -0.54671254389E+03 -0.16808231633E+04  0.20261392340E+04  0.46999998093E+01 0. -1.
</event>
<event>
 5   0  0.1520986E-07  0.3853109E+04  0.7818609E-02  0.8034853E-01
       -2   -1    0    0    0  501  0.00000000000E+00  0.00000000000E+00  0.20416309689E+04  0.20416309689E+04  0.25500000920E-02 0. -1.
        2   -1    0    0  501    0  0.00000000000E+00  0.00000000000E+00 -0.18179640990E+04  0.18179640990E+04  0.25500000920E-02 0.  1.
    10030    2    1    2    0    0  0.00000000000E+00  0.00000000000E+00  0.22366686992E+03  0.38595950679E+04  0.38531087734E+04 0.  0.
        4    1    3    3  502    0 -0.45245713785E+03 -0.60980177314E+02 -0.17629941598E+04  0.18211496545E+04  0.12699999809E+01 0.  1.
       -4    1    3    3    0  502  0.45245713785E+03  0.60980177314E+02  0.19866610297E+04  0.20384454134E+04  0.12699999809E+01 0. -1.
</event>
<event>
 5   0  0.1538018E-07  0.3797884E+04  0.7818609E-02  0.8046609E-01
        2   -1    0    0  501    0  0.00000000000E+00  0.00000000000E+00  0.22664233010E+04  0.22664233010E+04  0.25500000920E-02 0.  1.
       -2   -1    0    0    0  501  0.00000000000E+00  0.00000000000E+00 -0.15910449818E+04  0.15910449818E+04  0.25500000920E-02 0. -1.
    10030    2    1    2    0    0  0.00000000000E+00  0.00000000000E+00  0.67537831920E+03  0.38574682827E+04  0.37978843687E+04 0.  0.
        1    1    3    3  502    0 -0.10516785739E+04  0.13513024457E+04 -0.49612588597E+03  0.17827470424E+04  0.50400001928E-02 0. -1.
       -1    1    3    3    0  502  0.10516785739E+04 -0.13513024457E+04  0.11715042052E+04  0.20747212404E+04  0.50400001928E-02 0.  1.
</event>
<event>
 5   0  0.4762788E-08  0.3888131E+04  0.7818609E-02  0.8027502E-01
       -1   -1    0    0    0  501  0.00000000000E+00  0.00000000000E+00  0.15633728827E+04  0.15633728827E+04  0.50400001928E-02 0.  1.
        1   -1    0    0  501    0  0.00000000000E+00  0.00000000000E+00 -0.24174595348E+04  0.24174595348E+04  0.50400001928E-02 0. -1.
    10030    2    1    2    0    0  0.00000000000E+00  0.00000000000E+00 -0.85408665211E+03  0.39808324175E+04  0.38881310069E+04 0.  0.
        2    1    3    3  502    0  0.71645489780E+03  0.34672133505E+03  0.13889038472E+04  0.16008051729E+04  0.25500000920E-02 0.  1.
       -2    1    3    3    0  502 -0.71645489780E+03 -0.34672133505E+03 -0.22429904994E+04  0.23800272446E+04  0.25500000920E-02 0. -1.
</event>
<event>
 5   0  0.4750125E-08  0.3714214E+04  0.7818609E-02  0.8064819E-01
       -1   -1    0    0    0  501  0.00000000000E+00  0.00000000000E+00  0.16676020531E+04  0.16676020531E+04  0.50400001928E-02 0.  1.
        1   -1    0    0  501    0  0.00000000000E+00  0.00000000000E+00 -0.20681470342E+04  0.20681470343E+04  0.50400001928E-02 0. -1.
    10030    2    1    2    0    0  0.00000000000E+00  0.00000000000E+00 -0.40054498116E+03  0.37357490874E+04  0.37142139090E+04 0.  0.
        3    1    3    3  502    0 -0.15661061444E+04 -0.40356430213E+03 -0.11184144128E+04  0.19663172202E+04  0.10100000352E+00 0. -1.
       -3    1    3    3    0  502  0.15661061444E+04  0.40356430213E+03  0.71786943165E+03  0.17694318672E+04  0.10100000352E+00 0.  1.
</event>
<event>
 5   0  0.1503228E-07  0.3885822E+04  0.7818609E-02  0.8027984E-01
        2   -1    0    0  501    0  0.00000000000E+00  0.00000000000E+00  0.15998653712E+04  0.15998653712E+04  0.25500000920E-02 0.  1.
       -2   -1    0    0    0  501  0.00000000000E+00  0.00000000000E+00 -0.23595135301E+04  0.23595135301E+04  0.25500000920E-02 0. -1.
    10030    2    1    2    0    0  0.00000000000E+00  0.00000000000E+00 -0.75964815889E+03  0.39593789013E+04  0.38858224301E+04 0.  0.
        3    1    3    3  502    0 -0.64204678050E+03 -0.53764247374E+03 -0.21661851033E+04  0.23224214540E+04  0.10100000352E+00 0. -1.
       -3    1    3    3    0  502  0.64204678050E+03  0.53764247374E+03  0.14065369444E+04  0.16369574473E+04  0.10100000352E+00 0.  1.
</event>
<event>
 5   0  0.1503228E-07  0.3905757E+04  0.7818609E-02  0.8023833E-01
       -2   -1    0    0    0  501  0.00000000000E+00  0.00000000000E+00  0.14795547694E+04  0.14795547694E+04  0.25500000920E-02 0.  1.
        2   -1    0    0  501    0  0.00000000000E+00  0.00000000000E+00 -0.25776236546E+04  0.25776236546E+04  0.25500000920E-02 0. -1.
    10030    2    1    2    0    0  0.00000000000E+00  0.00000000000E+00 -0.10980688852E+04  0.40571784240E+04  0.39057574793E+04 0.  0.
        3    1    3    3  502    0  0.18806865000E+04 -0.26430499751E+03 -0.10215274937E+04  0.21564687045E+04  0.10100000352E+00 0. -1.
       -3    1    3    3    0  502 -0.18806865000E+04  0.26430499751E+03 -0.76541391512E+02  0.19007097195E+04  0.10100000352E+00 0.  1.
</event>
<event>
 5   0  0.4750125E-08  0.3890653E+04  0.7818609E-02  0.8026976E-01
       -1   -1    0    0    0  501  0.00000000000E+00  0.00000000000E+00  0.20968750638E+04  0.20968750638E+04  0.50400001928E-02 0. -1.
        1   -1    0    0  501    0  0.00000000000E+00  0.00000000000E+00 -0.18047312580E+04  0.18047312580E+04  0.50400001928E-02 0.  1.
    10030    2    1    2    0    0  0.00000000000E+00  0.00000000000E+00  0.29214380580E+03  0.39016063218E+04  0.38906534011E+04 0.  0.
        4    1    3    3  502    0  0.83736599966E+03 -0.15811924894E+04 -0.61958445639E+03  0.18934724760E+04  0.12699999809E+01 0.  1.
       -4    1    3    3    0  502 -0.83736599966E+03  0.15811924894E+04  0.91172826219E+03  0.20081338458E+04  0.12699999809E+01 0. -1.
</event>
<event>
 5   0  0.4750125E-08  0.3768182E+04  0.7818609E-02  0.8053018E-01
       -1   -1    0    0    0  501  0.00000000000E+00  0.00000000000E+00  0.18175376840E+04  0.18175376840E+04  0.50400001928E-02 0.  1.
        1   -1    0    0  501    0  0.00000000000E+00  0.00000000000E+00 -0.19530808758E+04  0.19530808758E+04  0.50400001928E-02 0. -1.
    10030    2    1    2    0    0  0.00000000000E+00  0.00000000000E+00 -0.13554319184E+03  0.37706185598E+04  0.37681815729E+04 0.  0.
        1    1    3    3  502    0  0.14293074948E+04 -0.59744647631E+03 -0.11408157498E+04  0.19238822162E+04  0.50400001928E-02 0. -1.
       -1    1    3    3    0  502 -0.14293074948E+04  0.59744647631E+03  0.10052725579E+04  0.18467363436E+04  0.50400001928E-02 0.  1.
</event>
<event>
 5   0  0.1501585E-07  0.3906061E+04  0.7818609E-02  0.8023770E-01
        2   -1    0    0  501    0  0.00000000000E+00  0.00000000000E+00  0.15225954180E+04  0.15225954180E+04  0.25500000920E-02 0.  1.
       -2   -1    0    0    0  501  0.00000000000E+00  0.00000000000E+00 -0.25051484642E+04  0.25051484642E+04  0.25500000920E-02 0. -1.
    10030    2    1    2    0    0  0.00000000000E+00  0.00000000000E+00 -0.98255304621E+03  0.40277438823E+04  0.39060607129E+04 0.  0.
        5    1    3    3  502    0  0.17993315518E+04  0.74312378331E+03 -0.65260654417E+03  0.20532277960E+04  0.46999998093E+01 0.  1.
       -5    1    3    3    0  502 -0.17993315518E+04 -0.74312378331E+03 -0.32994650204E+03  0.19745160863E+04  0.46999998093E+01 0. -1.
</event>
<event>
 5   0  0.4750125E-08  0.3909346E+04  0.7818609E-02  0.8023088E-01
       -1   -1    0    0    0  501  0.00000000000E+00  0.00000000000E+00  0.14612082941E+04  0.14612082941E+04  0.50400001928E-02 0.  1.
        1   -1    0    0  501    0  0.00000000000E+00  0.00000000000E+00 -0.26147860813E+04  0.26147860813E+04  0.50400001928E-02 0. -1.
    10030    2    1    2    0    0  0.00000000000E+00  0.00000000000E+00 -0.11535777872E+04  0.40759943754E+04  0.39093462928E+04 0.  0.
        1    1    3    3  502    0  0.16950851592E+04  0.95785825892E+03 -0.75719961953E+03  0.20890565825E+04  0.50400001928E-02 0.  1.
       -1    1    3    3    0  502 -0.16950851592E+04 -0.95785825892E+03 -0.39637816771E+03  0.19869377929E+04  0.50400001928E-02 0. -1.
</event>
<event>
 5   0  0.4750125E-08  0.3890711E+04  0.7818609E-02  0.8026964E-01
       -1   -1    0    0    0  501  0.00000000000E+00  0.00000000000E+00  0.21922914800E+04  0.21922914800E+04  0.50400001928E-02 0. -1.
        1   -1    0    0  501    0  0.00000000000E+00  0.00000000000E+00 -0.17262338498E+04  0.17262338498E+04  0.50400001928E-02 0.  1.
    10030    2    1    2    0    0  0.00000000000E+00  0.00000000000E+00  0.46605763019E+03  0.39185253297E+04  0.38907108663E+04 0.  0.
        1    1    3    3  502    0  0.42902045714E+03 -0.79696814400E+03 -0.15012544609E+04  0.17529922224E+04  0.50400001928E-02 0.  1.
       -1    1    3    3    0  502 -0.42902045714E+03  0.79696814400E+03  0.19673120911E+04  0.21655331074E+04  0.50400001928E-02 0. -1.
</event>
<event>
 5   0  0.1520986E-07  0.3911813E+04  0.7818609E-02  0.8022577E-01
       -2   -1    0    0    0  501  0.00000000000E+00  0.00000000000E+00  0.11520096940E+04  0.11520096940E+04  0.25500000920E-02 0. -1.
        2   -1    0    0  501    0  0.00000000000E+00  0.00000000000E+00 -0.33207791419E+04  0.33207791419E+04  0.25500000920E-02 0.  1.
    10030    2    1    2    0    0  0.00000000000E+00  0.00000000000E+00 -0.21687694479E+04  0.44727888358E+04  0.39118127578E+04 0.  0.
        4    1    3    3  502    0 -0.82396273913E+03  0.16797970892E+04 -0.43260810124E+03  0.19203604449E+04  0.12699999809E+01 0. -1.
       -4    1    3    3    0  502  0.82396273913E+03 -0.16797970892E+04 -0.17361613467E+04  0.25524283909E+04  0.12699999809E+01 0.  1.
</event>
<event>
 5   0  0.4750125E-08  0.3943716E+04  0.7818609E-02  0.8015998E-01
       -1   -1    0    0    0  501  0.00000000000E+00  0.00000000000E+00  0.15890048134E+04  0.15890048134E+04  0.50400001928E-02 0.  1.
        1   -1    0    0  501    0  0.00000000000E+00  0.00000000000E+00 -0.24469556321E+04  0.24469556321E+04  0.50400001928E-02 0. -1.
    10030    2    1    2    0    0  0.00000000000E+00  0.00000000000E+00 -0.85795081873E+03  0.40359604456E+04  0.39437161550E+04 0.  0.
        3    1    3    3  502    0  0.12596303709E+04  0.13251239411E+04  0.32695059063E+03  0.18572880308E+04  0.10100000352E+00 0.  1.
       -3    1    3    3    0  502 -0.12596303709E+04 -0.13251239411E+04 -0.11849014094E+04  0.21786724147E+04  0.10100000352E+00 0. -1.
</event>
<event>
 5   0  0.4750125E-08  0.3917591E+04  0.7818609E-02  0.8021381E-01
        1   -1    0    0  501    0  0.00000000000E+00  0.00000000000E+00  0.22093470239E+04  0.22093470239E+04  0.50400001928E-02 0. -1.
       -1   -1    0    0    0  501  0.00000000000E+00  0.00000000000E+00 -0.17366577262E+04  0.17366577262E+04  0.50400001928E-02 0.  1.
    10030    2    1    2    0    0  0.00000000000E+00  0.00000000000E+00  0.47268929768E+03  0.39460047501E+04  0.39175908816E+04 0.  0.
        3    1    3    3  502    0  0.58916200382E+03  0.65170807013E+03 -0.15270799757E+04  0.17617629062E+04  0.10100000352E+00 0.  1.
       -3    1    3    3    0  502 -0.58916200382E+03 -0.65170807013E+03  0.19997692734E+04  0.21842418438E+04  0.10100000352E+00 0. -1.
</event>
<event>
 5   0  0.4750125E-08  0.3903637E+04  0.7818609E-02  0.8024273E-01
       -1   -1    0    0    0  501  0.00000000000E+00  0.00000000000E+00  0.14024695723E+04  0.14024695723E+04  0.50400001928E-02 0.  1.
        1   -1    0    0  501    0  0.00000000000E+00  0.00000000000E+00 -0.27163482624E+04  0.27163482624E+04  0.50400001928E-02 0. -1.
    10030    2    1    2    0    0  0.00000000000E+00  0.00000000000E+00 -0.13138786901E+04  0.41188178347E+04  0.39036371684E+04 0.  0.
        3    1    3    3  502    0 -0.72682153081E+03 -0.17199959556E+04 -0.12565428486E+04  0.22506789121E+04  0.10100000352E+00 0. -1.
       -3    1    3    3    0  502  0.72682153081E+03  0.17199959556E+04 -0.57335841530E+02  0.18681389225E+04  0.10100000352E+00 0.  1.
</event>
<event>
 5   0  0.4750125E-08  0.3942672E+04  0.7818609E-02  0.8016212E-01
        1   -1    0    0  501    0  0.00000000000E+00  0.00000000000E+00  0.17752967526E+04  0.17752967526E+04  0.50400001928E-02 0. -1.
       -1   -1    0    0    0  501  0.00000000000E+00  0.00000000000E+00 -0.21890236664E+04  0.21890236664E+04  0.50400001928E-02 0.  1.
    10030    2    1    2    0    0  0.00000000000E+00  0.00000000000E+00 -0.41372691380E+03  0.39643204190E+04  0.39426724978E+04 0.  0.
        5    1    3    3  502    0  0.20633235660E+03  0.12743440392E+04 -0.17048821674E+04  0.21384973852E+04  0.46999998093E+01 0.  1.
       -5    1    3    3    0  502 -0.20633235660E+03 -0.12743440392E+04  0.12911552536E+04  0.18258230338E+04  0.46999998093E+01 0. -1.
</event>
<event>
 5   0  0.4750125E-08  0.3926436E+04  0.7818609E-02  0.8019553E-01
       -1   -1    0    0    0  501  0.00000000000E+00  0.00000000000E+00  0.27967901908E+04  0.27967901908E+04  0.50400001928E-02 0.  1.
        1   -1    0    0  501    0  0.00000000000E+00  0.00000000000E+00 -0.13780886976E+04  0.13780886976E+04  0.50400001928E-02 0. -1.
    10030    2    1    2    0    0  0.00000000000E+00  0.00000000000E+00  0.14187014932E+04  0.41748788884E+04  0.39264360183E+04 0.  0.
        5    1    3    3  502    0 -0.56502347962E+02 -0.15022842586E+04 -0.63313680863E+03  0.16312372045E+04  0.46999998093E+01 0.  1.
       -5    1    3    3    0  502  0.56502347962E+02  0.15022842586E+04  0.20518383018E+04  0.25436416838E+04  0.46999998093E+01 0. -1.
</event>
<event>
 5   0  0.4762788E-08  0.3916562E+04  0.7818609E-02  0.8021594E-01
       -1   -1    0    0    0  501  0.00000000000E+00  0.00000000000E+00  0.18555843188E+04  0.18555843188E+04  0.50400001928E-02 0.  1.
        1   -1    0    0  501    0  0.00000000000E+00  0.00000000000E+00 -0.20666609389E+04  0.20666609389E+04  0.50400001928E-02 0. -1.
    10030    2    1    2    0    0  0.00000000000E+00  0.00000000000E+00 -0.21107662009E+03  0.39222452577E+04  0.39165615688E+04 0.  0.
        2    1    3    3  502    0  0.10502974494E+04  0.89765399486E+03 -0.14953405011E+04  0.20359151851E+04  0.25500000920E-02 0. -1.
       -2    1    3    3    0  502 -0.10502974494E+04 -0.89765399486E+03  0.12842638810E+04  0.18863300726E+04  0.25500000920E-02 0.  1.
</event>
<event>
 5   0  0.4762788E-08  0.3947448E+04  0.7818609E-02  0.8015233E-01
        1   -1    0    0  501    0  0.00000000000E+00  0.00000000000E+00  0.29924738745E+04  0.29924738745E+04  0.50400001928E-02 0.  1.
       -1   -1    0    0    0  501  0.00000000000E+00  0.00000000000E+00 -0.13017946580E+04  0.13017946580E+04  0.50400001928E-02 0. -1.
    10030    2    1    2    0    0  0.00000000000E+00  0.00000000000E+00  0.16906792165E+04  0.42942685326E+04  0.39474480385E+04 0.  0.
        2    1    3    3  502    0  0.17534294438E+04  0.46540189978E+03  0.16911268785E+04  0.24801257754E+04  0.25500000920E-02 0.  1.
       -2    1    3    3    0  502 -0.17534294438E+04 -0.46540189978E+03 -0.44766195412E+00  0.18141427571E+04  0.25500000920E-02 0. -1.
</event>
<event>
 5   0  0.4762788E-08  0.3888695E+04  0.7818609E-02  0.8027385E-01
        1   -1    0    0  501    0  0.00000000000E+00  0.00000000000E+00  0.13634307691E+04  0.13634307691E+04  0.50400001928E-02 0. -1.
       -1   -1    0    0    0  501  0.00000000000E+00  0.00000000000E+00 -0.27727753074E+04  0.27727753074E+04  0.50400001928E-02 0.  1.
    10030    2    1    2    0    0  0.00000000000E+00  0.00000000000E+00 -0.14093445383E+04  0.41362060765E+04  0.38886949842E+04 0.  0.
        2    1    3    3  502    0  0.14076334153E+04 -0.69408175923E+03  0.51611951703E+03  0.16521382134E+04  0.25500000920E-02 0.  1.
       -2    1    3    3    0  502 -0.14076334153E+04  0.69408175923E+03 -0.19254640553E+04  0.24840678631E+04  0.25500000920E-02 0. -1.
</event>
<event>
 5   0  0.1501585E-07  0.3991982E+04  0.7818609E-02  0.8006166E-01
        2   -1    0    0  501    0  0.00000000000E+00  0.00000000000E+00  0.27972008471E+04  0.27972008471E+04  0.25500000920E-02 0. -1.
       -2   -1    0    0    0  501  0.00000000000E+00  0.00000000000E+00 -0.14242736208E+04  0.14242736208E+04  0.25500000920E-02 0.  1.
    10030    2    1    2    0    0  0.00000000000E+00  0.00000000000E+00  0.13729272263E+04  0.42214744679E+04  0.39919816525E+04 0.  0.
        5    1    3    3  502    0  0.29047890991E+03 -0.71342904289E+03  0.26336781354E+04  0.27440192432E+04  0.46999998093E+01 0. -1.
       -5    1    3    3    0  502 -0.29047890991E+03  0.71342904289E+03 -0.12607509090E+04  0.14774552247E+04  0.46999998093E+01 0.  1.
</event>
<event>
 5   0  0.4750125E-08  0.3929892E+04  0.7818609E-02  0.8018841E-01
        1   -1    0    0  501    0  0.00000000000E+00  0.00000000000E+00  0.25356038299E+04  0.25356038299E+04  0.50400001928E-02 0. -1.
       -1   -1    0    0    0  501  0.00000000000E+00  0.00000000000E+00 -0.15227194536E+04  0.15227194537E+04  0.50400001928E-02 0.  1.
    10030    2    1    2    0    0  0.00000000000E+00  0.00000000000E+00  0.10128843762E+04  0.40583232836E+04  0.39298922522E+04 0.  0.
        3    1    3    3  502    0  0.96136081776E+03  0.11425915377E+04 -0.81251494657E+03  0.16999737035E+04  0.10100000352E+00 0.  1.
       -3    1    3    3    0  502 -0.96136081776E+03 -0.11425915377E+04  0.18253993228E+04  0.23583495801E+04  0.10100000352E+00 0. -1.
</event>
<event>
 5   0  0.1503228E-07  0.3901935E+04  0.7818609E-02  0.8024627E-01
       -2   -1    0    0    0  501  0.00000000000E+00  0.00000000000E+00  0.13848479969E+04  0.13848479969E+04  0.25500000920E-02 0. -1.
        2   -1    0    0  501    0  0.00000000000E+00  0.00000000000E+00 -0.27485137048E+04  0.27485137048E+04  0.25500000920E-02 0.  1.
    10030    2    1    2    0    0  0.00000000000E+00  0.00000000000E+00 -0.13636657079E+04  0.41333617017E+04  0.39019347502E+04 0.  0.
        3    1    3    3  502    0 -0.19685852834E+03 -0.18428366092E+04 -0.36197343031E+02  0.18536748113E+04  0.10100000352E+00 0. -1.
       -3    1    3    3    0  502  0.19685852834E+03  0.18428366092E+04 -0.13274683648E+04  0.22796868904E+04  0.10100000352E+00 0.  1.
</event>
<event>
 5   0  0.4750125E-08  0.3881450E+04  0.7818609E-02  0.8028898E-01
        1   -1    0    0  501    0  0.00000000000E+00  0.00000000000E+00  0.15886344675E+04  0.15886344675E+04  0.50400001928E-02 0.  1.
       -1   -1    0    0    0  501  0.00000000000E+00  0.00000000000E+00 -0.23708495070E+04  0.23708495070E+04  0.50400001928E-02 0. -1.
    10030    2    1    2    0    0  0.00000000000E+00  0.00000000000E+00 -0.78221503952E+03  0.39594839745E+04  0.38814498549E+04 0.  0.
        4    1    3    3  502    0  0.45850898570E+03 -0.10112927015E+04 -0.20147946171E+04  0.23005091567E+04  0.12699999809E+01 0. -1.
       -4    1    3    3    0  502 -0.45850898570E+03  0.10112927015E+04  0.12325795776E+04  0.16589748178E+04  0.12699999809E+01 0.  1.
</event>
<event>
 5   0  0.1520986E-07  0.3887973E+04  0.7818609E-02  0.8027535E-01
        2   -1    0    0  501    0  0.00000000000E+00  0.00000000000E+00  0.24774437004E+04  0.24774437004E+04  0.25500000920E-02 0.  1.
       -2   -1    0    0    0  501  0.00000000000E+00  0.00000000000E+00 -0.15253962615E+04  0.15253962615E+04  0.25500000920E-02 0. -1.
    10030    2    1    2    0    0  0.00000000000E+00  0.00000000000E+00  0.95204743896E+03  0.40028399619E+04  0.38879729210E+04 0.  0.
        4    1    3    3  502    0  0.66899095425E+03  0.18252005652E+04  0.48967229493E+03  0.20046661990E+04  0.12699999809E+01 0.  1.
       -4    1    3    3    0  502 -0.66899095425E+03 -0.18252005652E+04  0.46237514403E+03  0.19981737629E+04  0.12699999809E+01 0. -1.
</event>
<event>
 5   0  0.1538018E-07  0.3899067E+04  0.7818609E-02  0.8025223E-01
       -2   -1    0    0    0  501  0.00000000000E+00  0.00000000000E+00  0.24399338715E+04  0.24399338715E+04  0.25500000920E-02 0.  1.
        2   -1    0    0  501    0  0.00000000000E+00  0.00000000000E+00 -0.15576979128E+04  0.15576979128E+04  0.25500000920E-02 0. -1.
    10030    2    1    2    0    0  0.00000000000E+00  0.00000000000E+00  0.88223595866E+03  0.39976317843E+04  0.38990665032E+04 0.  0.
        1    1    3    3  502    0  0.66265242449E+03 -0.99527268056E+03 -0.11376135626E+04  0.16504061810E+04  0.50400001928E-02 0. -1.
       -1    1    3    3    0  502 -0.66265242449E+03  0.99527268056E+03  0.20198495213E+04  0.23472256034E+04  0.50400001928E-02 0.  1.
</event>
<event>
 5   0  0.4750125E-08  0.3911726E+04  0.7818609E-02  0.8022595E-01
       -1   -1    0    0    0  501  0.00000000000E+00  0.00000000000E+00  0.17409665072E+04  0.17409665072E+04  0.50400001928E-02 0.  1.
        1   -1    0    0  501    0  0.00000000000E+00  0.00000000000E+00 -0.21972849190E+04  0.21972849190E+04  0.50400001928E-02 0. -1.
    10030    2    1    2    0    0  0.00000000000E+00  0.00000000000E+00 -0.45631841183E+03  0.39382514262E+04  0.39117256810E+04 0.  0.
        3    1    3    3  502    0 -0.12568608809E+04  0.14456139681E+04 -0.62567893973E+03  0.20151856402E+04  0.10100000352E+00 0. -1.
       -3    1    3    3    0  502  0.12568608809E+04 -0.14456139681E+04  0.16936052790E+03  0.19230657860E+04  0.10100000352E+00 0.  1.
</event>
<event>
 5   0  0.1503228E-07  0.3895235E+04  0.7818609E-02  0.8026021E-01
        2   -1    0    0  501    0  0.00000000000E+00  0.00000000000E+00  0.17389853887E+04  0.17389853887E+04  0.25500000920E-02 0. -1.
       -2   -1    0    0    0  501  0.00000000000E+00  0.00000000000E+00 -0.21812796772E+04  0.21812796772E+04  0.25500000920E-02 0.  1.
    10030    2    1    2    0    0  0.00000000000E+00  0.00000000000E+00 -0.44229428849E+03  0.39202650659E+04  0.38952347747E+04 0.  0.
        3    1    3    3  502    0 -0.17874279947E+04 -0.75348026669E+03 -0.45145935993E+02  0.19402756284E+04  0.10100000352E+00 0. -1.
       -3    1    3    3    0  502  0.17874279947E+04  0.75348026669E+03 -0.39714835250E+03  0.19799894375E+04  0.10100000352E+00 0.  1.
</event>
<event>
 5   0  0.4750125E-08  0.3757722E+04  0.7818609E-02  0.8055289E-01
       -1   -1    0    0    0  501  0.00000000000E+00  0.00000000000E+00  0.17808072421E+04  0.17808072422E+04  0.50400001928E-02 0.  1.
        1   -1    0    0  501    0  0.00000000000E+00  0.00000000000E+00 -0.19823135662E+04  0.19823135662E+04  0.50400001928E-02 0. -1.
    10030    2    1    2    0    0  0.00000000000E+00  0.00000000000E+00 -0.20150632407E+03  0.37631208084E+04  0.37577218391E+04 0.  0.
        1    1    3    3  502    0 -0.15889750543E+04  0.96128870378E+03 -0.38611987376E+03  0.18968411246E+04  0.50400001928E-02 0. -1.
       -1    1    3    3    0  502  0.15889750543E+04 -0.96128870378E+03  0.18461354970E+03  0.18662796837E+04  0.50400001928E-02 0.  1.
</event>
<event>
 5   0  0.1546846E-07  0.3892250E+04  0.7818609E-02  0.8026643E-01
       -2   -1    0    0    0  501  0.00000000000E+00  0.00000000000E+00  0.15381009807E+04  0.15381009807E+04  0.25500000920E-02 0.  1.
        2   -1    0    0  501    0  0.00000000000E+00  0.00000000000E+00 -0.24623884450E+04  0.24623884450E+04  0.25500000920E-02 0. -1.
    10030    2    1    2    0    0  0.00000000000E+00  0.00000000000E+00 -0.92428746438E+03  0.40004894257E+04  0.38922497772E+04 0.  0.
        2    1    3    3  502    0  0.18173538144E+04 -0.37760804777E+03  0.13896144072E+03  0.18613632119E+04  0.25500000920E-02 0. -1.
       -2    1    3    3    0  502 -0.18173538144E+04  0.37760804777E+03 -0.10632489051E+04  0.21391262138E+04  0.25500000920E-02 0.  1.
</event>
<event>
 5   0  0.4750125E-08  0.3912486E+04  0.7818609E-02  0.8022437E-01
        1   -1    0    0  501    0  0.00000000000E+00  0.00000000000E+00  0.19169824796E+04  0.19169824796E+04  0.50400001928E-02 0.  1.
       -1   -1    0    0    0  501  0.00000000000E+00  0.00000000000E+00 -0.19963075247E+04  0.19963075247E+04  0.50400001928E-02 0. -1.
    10030    2    1    2    0    0  0.00000000000E+00  0.00000000000E+00 -0.79325045029E+02  0.39132900043E+04  0.39124859354E+04 0.  0.
        4    1    3    3  502    0 -0.93180329686E+03  0.14315147042E+04 -0.99347960516E+03  0.19759795219E+04  0.12699999809E+01 0. -1.
       -4    1    3    3    0  502  0.93180329686E+03 -0.14315147042E+04  0.91415456013E+03  0.19373104824E+04  0.12699999809E+01 0.  1.
</event>
<event>
 5   0  0.4750125E-08  0.3844384E+04  0.7818609E-02  0.8036697E-01
        1   -1    0    0  501    0  0.00000000000E+00  0.00000000000E+00  0.24071922463E+04  0.24071922463E+04  0.50400001928E-02 0.  1.
       -1   -1    0    0    0  501  0.00000000000E+00  0.00000000000E+00 -0.15349097584E+04  0.15349097584E+04  0.50400001928E-02 0. -1.
    10030    2    1    2    0    0  0.00000000000E+00  0.00000000000E+00  0.87228248789E+03  0.39421020048E+04  0.38443844081E+04 0.  0.
        1    1    3    3  502    0  0.11355683399E+03 -0.18537217697E+04 -0.72080831877E+02  0.18585949533E+04  0.50400001928E-02 0. -1.
       -1    1    3    3    0  502 -0.11355683399E+03  0.18537217697E+04  0.94436331977E+03  0.20835070515E+04  0.50400001928E-02 0.  1.
</event>
<event>
 5   0  0.4762788E-08  0.3961999E+04  0.7818609E-02  0.8012257E-01
       -1   -1    0    0    0  501  0.00000000000E+00  0.00000000000E+00  0.32365312341E+04  0.32365312341E+04  0.50400001928E-02 0.  1.
        1   -1    0    0  501    0  0.00000000000E+00  0.00000000000E+00 -0.12125201277E+04  0.12125201278E+04  0.50400001928E-02 0. -1.
    10030    2    1    2    0    0  0.00000000000E+00  0.00000000000E+00  0.20240111064E+04  0.44490513619E+04  0.39619991244E+04 0.  0.
        2    1    3    3  502    0  0.39345207054E+03 -0.67680803870E+03  0.30554577402E+04  0.31541552998E+04  0.25500000920E-02 0.  1.
       -2    1    3    3    0  502 -0.39345207054E+03  0.67680803870E+03 -0.10314466338E+04  0.12948960621E+04  0.25500000920E-02 0. -1.
</event>
<event>
 5   0  0.1546846E-07  0.3894091E+04  0.7818609E-02  0.8026259E-01
        2   -1    0    0  501    0  0.00000000000E+00  0.00000000000E+00  0.27592206620E+04  0.27592206620E+04  0.25500000920E-02 0. -1.
       -2   -1    0    0    0  501  0.00000000000E+00  0.00000000000E+00 -0.13739333908E+04  0.13739333908E+04  0.25500000920E-02 0.  1.
    10030    2    1    2    0    0  0.00000000000E+00  0.00000000000E+00  0.13852872712E+04  0.41331540528E+04  0.38940905999E+04 0.  0.
        2    1    3    3  502    0  0.18085984675E+04  0.37321123080E+03  0.13475060620E+04  0.22860637845E+04  0.25500000920E-02 0.  1.
       -2    1    3    3    0  502 -0.18085984675E+04 -0.37321123080E+03  0.37781209118E+02  0.18470902683E+04  0.25500000920E-02 0. -1.
</event>
<event>
 5   0  0.1538018E-07  0.3912087E+04  0.7818609E-02  0.8022520E-01
       -2   -1    0    0    0  501  0.00000000000E+00  0.00000000000E+00  0.19945478331E+04  0.19945478331E+04  0.25500000920E-02 0.  1.
        2   -1    0    0  501    0  0.00000000000E+00  0.00000000000E+00 -0.19182821096E+04  0.19182821096E+04  0.25500000920E-02 0. -1.
    10030    2    1    2    0    0  0.00000000000E+00  0.00000000000E+00  0.76265723495E+02  0.39128299427E+04  0.39120866171E+04 0.  0.
        1    1    3    3  502    0 -0.19283510200E+04  0.38049059844E+02 -0.28768974110E+03  0.19500643001E+04  0.50400001928E-02 0. -1.
       -1    1    3    3    0  502  0.19283510200E+04 -0.38049059844E+02  0.36395546460E+03  0.19627656426E+04  0.50400001928E-02 0.  1.
</event>
<event>
 5   0  0.4750125E-08  0.3914077E+04  0.7818609E-02  0.8022108E-01
       -4   -1    0    0    0  501  0.00000000000E+00  0.00000000000E+00  0.21581863162E+04  0.21581866898E+04  0.12699999809E+01 0. -1.
        4   -1    0    0  501    0  0.00000000000E+00  0.00000000000E+00 -0.17746376629E+04  0.17746381173E+04  0.12699999809E+01 0.  1.
    10030    2    1    2    0    0  0.00000000000E+00  0.00000000000E+00  0.38354865328E+03  0.39328248072E+04  0.39140773363E+04 0.  0.
        1    1    3    3  502    0 -0.10572260107E+04 -0.62090144555E+02  0.18453842505E+04  0.21276806752E+04  0.50400001928E-02 0. -1.
       -1    1    3    3    0  502  0.10572260107E+04  0.62090144555E+02 -0.14618355972E+04  0.18051441319E+04  0.50400001928E-02 0.  1.
</event>
<event>
 5   0  0.1538018E-07  0.3896257E+04  0.7818609E-02  0.8025808E-01
       -2   -1    0    0    0  501  0.00000000000E+00  0.00000000000E+00  0.16523966431E+04  0.16523966431E+04  0.25500000920E-02 0.  1.
        2   -1    0    0  501    0  0.00000000000E+00  0.00000000000E+00 -0.22967879145E+04  0.22967879145E+04  0.25500000920E-02 0. -1.
    10030    2    1    2    0    0  0.00000000000E+00  0.00000000000E+00 -0.64439127141E+03  0.39491845576E+04  0.38962569935E+04 0.  0.
        1    1    3    3  502    0  0.38428419735E+03 -0.71095720525E+03  0.14744721196E+04  0.16814287149E+04  0.50400001928E-02 0.  1.
       -1    1    3    3    0  502 -0.38428419735E+03  0.71095720525E+03 -0.21188633910E+04  0.22677558426E+04  0.50400001928E-02 0. -1.
</event>
<event>
 5   0  0.4750125E-08  0.3903989E+04  0.7818609E-02  0.8024200E-01
        1   -1    0    0  501    0  0.00000000000E+00  0.00000000000E+00  0.15359314006E+04  0.15359314006E+04  0.50400001928E-02 0.  1.
       -1   -1    0    0    0  501  0.00000000000E+00  0.00000000000E+00 -0.24807639557E+04  0.24807639557E+04  0.50400001928E-02 0. -1.
    10030    2    1    2    0    0  0.00000000000E+00  0.00000000000E+00 -0.94483255513E+03  0.40166953563E+04  0.39039893734E+04 0.  0.
        1    1    3    3  502    0 -0.47603840325E+03 -0.48088842621E+03  0.14114032115E+04  0.15652237109E+04  0.50400001928E-02 0.  1.
       -1    1    3    3    0  502  0.47603840325E+03  0.48088842621E+03 -0.23562357666E+04  0.24514716453E+04  0.50400001928E-02 0. -1.
</event>
<event>
 5   0  0.1501585E-07  0.3887168E+04  0.7818609E-02  0.8027703E-01
        2   -1    0    0  501    0  0.00000000000E+00  0.00000000000E+00  0.27928011964E+04  0.27928011964E+04  0.25500000920E-02 0.  1.
       -2   -1    0    0    0  501  0.00000000000E+00  0.00000000000E+00 -0.13525911212E+04  0.13525911212E+04  0.25500000920E-02 0. -1.
    10030    2    1    2    0    0  0.00000000000E+00  0.00000000000E+00  0.14402100752E+04  0.41453923176E+04  0.38871676586E+04 0.  0.
        5    1    3    3  502    0  0.10251151644E+04 -0.15059488558E+04 -0.22019276316E+01  0.18217491581E+04  0.46999998093E+01 0.  1.
       -5    1    3    3    0  502 -0.10251151644E+04  0.15059488558E+04  0.14424120029E+04  0.23236431595E+04  0.46999998093E+01 0. -1.
</event>
<event>
 5   0  0.1520986E-07  0.3898870E+04  0.7818609E-02  0.8025264E-01
       -2   -1    0    0    0  501  0.00000000000E+00  0.00000000000E+00  0.15586897771E+04  0.15586897771E+04  0.25500000920E-02 0.  1.
        2   -1    0    0  501    0  0.00000000000E+00  0.00000000000E+00 -0.24381357034E+04  0.24381357034E+04  0.25500000920E-02 0. -1.
    10030    2    1    2    0    0  0.00000000000E+00  0.00000000000E+00 -0.87944592626E+03  0.39968254805E+04  0.38988701933E+04 0.  0.
        4    1    3    3  502    0 -0.11306883430E+04 -0.71919016505E+03 -0.18911352976E+04  0.23177758626E+04  0.12699999809E+01 0. -1.
       -4    1    3    3    0  502  0.11306883430E+04  0.71919016505E+03  0.10116893713E+04  0.16790496179E+04  0.12699999809E+01 0.  1.
</event>
<event>
 5   0  0.1520986E-07  0.3710844E+04  0.7818609E-02  0.8065563E-01
        2   -1    0    0  501    0  0.00000000000E+00  0.00000000000E+00  0.21265618616E+04  0.21265618616E+04  0.25500000920E-02 0. -1.
       -2   -1    0    0    0  501  0.00000000000E+00  0.00000000000E+00 -0.16188524754E+04  0.16188524754E+04  0.25500000920E-02 0.  1.
    10030    2    1    2    0    0  0.00000000000E+00  0.00000000000E+00  0.50770938619E+03  0.37454143370E+04  0.37108435342E+04 0.  0.
        4    1    3    3  502    0  0.34127716324E+03  0.10374043900E+03 -0.15839202230E+04  0.16235877145E+04  0.12699999809E+01 0.  1.
       -4    1    3    3    0  502 -0.34127716324E+03 -0.10374043900E+03  0.20916296092E+04  0.21218266225E+04  0.12699999809E+01 0. -1.
</event>
<event>
 5   0  0.4762788E-08  0.3808568E+04  0.7818609E-02  0.8044319E-01
       -1   -1    0    0    0  501  0.00000000000E+00  0.00000000000E+00  0.15123458468E+04  0.15123458468E+04  0.50400001928E-02 0. -1.
        1   -1    0    0  501    0  0.00000000000E+00  0.00000000000E+00 -0.23977963724E+04  0.23977963725E+04  0.50400001928E-02 0.  1.
    10030    2    1    2    0    0  0.00000000000E+00  0.00000000000E+00 -0.88545052562E+03  0.39101422193E+04  0.38085679122E+04 0.  0.
        2    1    3    3  502    0 -0.13389866091E+04  0.12051150585E+04  0.19108021556E+03  0.18115460503E+04  0.25500000920E-02 0. -1.
       -2    1    3    3    0  502  0.13389866091E+04 -0.12051150585E+04 -0.10765307412E+04  0.20985961690E+04  0.25500000920E-02 0.  1.
</event>
<event>
 5   0  0.4750125E-08  0.3841063E+04  0.7818609E-02  0.8037400E-01
        1   -1    0    0  501    0  0.00000000000E+00  0.00000000000E+00  0.19239713232E+04  0.19239713232E+04  0.50400001928E-02 0. -1.
       -1   -1    0    0    0  501  0.00000000000E+00  0.00000000000E+00 -0.19170979962E+04  0.19170979963E+04  0.50400001928E-02 0.  1.
    10030    2    1    2    0    0  0.00000000000E+00  0.00000000000E+00  0.68733269820E+01  0.38410693195E+04  0.38410631698E+04 0.  0.
        3    1    3    3  502    0  0.13733263536E+04 -0.12597730119E+04  0.46753679598E+03  0.19213651347E+04  0.10100000352E+00 0. -1.
       -3    1    3    3    0  502 -0.13733263536E+04  0.12597730119E+04 -0.46066346900E+03  0.19197041848E+04  0.10100000352E+00 0.  1.
</event>
<event>
 5   0  0.4750125E-08  0.3902849E+04  0.7818609E-02  0.8024437E-01
        1   -1    0    0  501    0  0.00000000000E+00  0.00000000000E+00  0.18599249443E+04  0.18599249443E+04  0.50400001928E-02 0.  1.
       -1   -1    0    0    0  501  0.00000000000E+00  0.00000000000E+00 -0.20474253158E+04  0.20474253158E+04  0.50400001928E-02 0. -1.
    10030    2    1    2    0    0  0.00000000000E+00  0.00000000000E+00 -0.18750037149E+03  0.39073502601E+04  0.39028489166E+04 0.  0.
        5    1    3    3  502    0 -0.13980353004E+04  0.85199108352E+03 -0.11568806814E+04  0.20046911255E+04  0.46999998093E+01 0. -1.
       -5    1    3    3    0  502  0.13980353004E+04 -0.85199108352E+03  0.96938030988E+03  0.19026591347E+04  0.46999998093E+01 0.  1.
</event>
<event>
 5   0  0.1520986E-07  0.3946776E+04  0.7818609E-02  0.8015370E-01
        2   -1    0    0  501    0  0.00000000000E+00  0.00000000000E+00  0.22330345680E+04  0.22330345680E+04  0.25500000920E-02 0. -1.
       -2   -1    0    0    0  501  0.00000000000E+00  0.00000000000E+00 -0.17439318677E+04  0.17439318677E+04  0.25500000920E-02 0.  1.
    10030    2    1    2    0    0  0.00000000000E+00  0.00000000000E+00  0.48910270031E+03  0.39769664358E+04  0.39467759729E+04 0.  0.
        4    1    3    3  502    0  0.75676679900E+02  0.46620191521E+03  0.21752421361E+04  0.22259270314E+04  0.12699999809E+01 0. -1.
       -4    1    3    3    0  502 -0.75676679900E+02 -0.46620191521E+03 -0.16861394358E+04  0.17510394043E+04  0.12699999809E+01 0.  1.
</event>
<event>
 5   0  0.1501585E-07  0.3886626E+04  0.7818609E-02  0.8027816E-01
        2   -1    0    0  501    0  0.00000000000E+00  0.00000000000E+00  0.24120036856E+04  0.24120036856E+04  0.25500000920E-02 0. -1.
       -2   -1    0    0    0  501  0.00000000000E+00  0.00000000000E+00 -0.15656967001E+04  0.15656967001E+04  0.25500000920E-02 0.  1.
    10030    2    1    2    0    0  0.00000000000E+00  0.00000000000E+00  0.84630698556E+03  0.39777003857E+04  0.38866264092E+04 0.  0.
        5    1    3    3  502    0  0.13003613637E+04  0.24621368077E+03 -0.10331747302E+04  0.16789976075E+04  0.46999998093E+01 0.  1.
       -5    1    3    3    0  502 -0.13003613637E+04 -0.24621368077E+03  0.18794817158E+04  0.22987027782E+04  0.46999998093E+01 0. -1.
</event>
<event>
 5   0  0.1538018E-07  0.3849217E+04  0.7818609E-02  0.8035675E-01
        2   -1    0    0  501    0  0.00000000000E+00  0.00000000000E+00  0.17662955109E+04  0.17662955109E+04  0.25500000920E-02 0. -1.
       -2   -1    0    0    0  501  0.00000000000E+00  0.00000000000E+00 -0.20971110770E+04  0.20971110770E+04  0.25500000920E-02 0.  1.
    10030    2    1    2    0    0  0.00000000000E+00  0.00000000000E+00 -0.33081556605E+03  0.38634065879E+04  0.38492170015E+04 0.  0.
        1    1    3    3  502    0 -0.16855365629E+04  0.71396591254E+03 -0.76202064433E+03  0.19827900271E+04  0.50400001928E-02 0.  1.
       -1    1    3    3    0  502  0.16855365629E+04 -0.71396591254E+03  0.43120507828E+03  0.18806165608E+04  0.50400001928E-02 0. -1.
</event>
<event>
 5   0  0.1538018E-07  0.3906661E+04  0.7818609E-02  0.8023645E-01
        2   -1    0    0  501    0  0.00000000000E+00  0.00000000000E+00  0.20424708390E+04  0.20424708390E+04  0.25500000920E-02 0. -1.
       -2   -1    0    0    0  501  0.00000000000E+00  0.00000000000E+00 -0.18680803861E+04  0.18680803861E+04  0.25500000920E-02 0.  1.
    10030    2    1    2    0    0  0.00000000000E+00  0.00000000000E+00  0.17439045289E+03  0.39105512251E+04  0.39066608317E+04 0.  0.
        1    1    3    3  502    0 -0.74958205102E+03  0.16724334152E+04  0.76358473714E+03  0.19854391026E+04  0.50400001928E-02 0. -1.
       -1    1    3    3    0  502  0.74958205102E+03 -0.16724334152E+04 -0.58919428426E+03  0.19251121225E+04  0.50400001928E-02 0.  1.
</event>
<event>
 5   0  0.1520986E-07  0.3878972E+04  0.7818609E-02  0.8029417E-01
        2   -1    0    0  501    0  0.00000000000E+00  0.00000000000E+00  0.16706889167E+04  0.16706889167E+04  0.25500000920E-02 0. -1.
       -2   -1    0    0    0  501  0.00000000000E+00  0.00000000000E+00 -0.22515299836E+04  0.22515299836E+04  0.25500000920E-02 0.  1.
    10030    2    1    2    0    0  0.00000000000E+00  0.00000000000E+00 -0.58084106689E+03  0.39222189003E+04  0.38789721264E+04 0.  0.
        4    1    3    3  502    0 -0.13053232340E+04  0.12411413815E+04 -0.10176777619E+04  0.20688089119E+04  0.12699999809E+01 0.  1.
       -4    1    3    3    0  502  0.13053232340E+04 -0.12411413815E+04  0.43683669496E+03  0.18534099884E+04  0.12699999809E+01 0. -1.
</event>
<event>
 5   0  0.4750125E-08  0.3915728E+04  0.7818609E-02  0.8021766E-01
        1   -1    0    0  501    0  0.00000000000E+00  0.00000000000E+00  0.22139748617E+04  0.22139748617E+04  0.50400001928E-02 0. -1.
       -1   -1    0    0    0  501  0.00000000000E+00  0.00000000000E+00 -0.17313799900E+04  0.17313799900E+04  0.50400001928E-02 0.  1.
    10030    2    1    2    0    0  0.00000000000E+00  0.00000000000E+00  0.48259487176E+03  0.39453548517E+04  0.39157281693E+04 0.  0.
        4    1    3    3  502    0 -0.15621882671E+04  0.11304015851E+04 -0.10037033728E+03  0.19308847047E+04  0.12699999809E+01 0. -1.
       -4    1    3    3    0  502  0.15621882671E+04 -0.11304015851E+04  0.58296520904E+03  0.20144701470E+04  0.12699999809E+01 0.  1.
</event>
<event>
 5   0  0.1520986E-07  0.3867565E+04  0.7818609E-02  0.8031809E-01
        2   -1    0    0  501    0  0.00000000000E+00  0.00000000000E+00  0.19197645745E+04  0.19197645745E+04  0.25500000920E-02 0. -1.
       -2   -1    0    0    0  501  0.00000000000E+00  0.00000000000E+00 -0.19479025937E+04  0.19479025937E+04  0.25500000920E-02 0.  1.
    10030    2    1    2    0    0  0.00000000000E+00  0.00000000000E+00 -0.28138019150E+02  0.38676671682E+04  0.38675648121E+04 0.  0.
        4    1    3    3  502    0  0.18244296853E+04 -0.61623051338E+03 -0.19079114147E+03  0.19351192714E+04  0.12699999809E+01 0.  1.
       -4    1    3    3    0  502 -0.18244296853E+04  0.61623051338E+03  0.16265312232E+03  0.19325478967E+04  0.12699999809E+01 0. -1.
</event>
<event>
 5   0  0.4750125E-08  0.3898402E+04  0.7818609E-02  0.8025362E-01
       -1   -1    0    0    0  501  0.00000000000E+00  0.00000000000E+00  0.25051136805E+04  0.25051136805E+04  0.50400001928E-02 0.  1.
        1   -1    0    0  501    0  0.00000000000E+00  0.00000000000E+00 -0.15166513376E+04  0.15166513376E+04  0.50400001928E-02 0. -1.
    10030    2    1    2    0    0  0.00000000000E+00  0.00000000000E+00  0.98846234297E+03  0.40217650181E+04  0.38984017312E+04 0.  0.
        3    1    3    3  502    0 -0.38987896262E+03  0.39535395042E+03 -0.14333363795E+04  0.15371283416E+04  0.10100000352E+00 0. -1.
       -3    1    3    3    0  502  0.38987896262E+03 -0.39535395042E+03  0.24217987225E+04  0.24846366765E+04  0.10100000352E+00 0.  1.
</event>
<event>
 5   0  0.4750125E-08  0.3946146E+04  0.7818609E-02  0.8015500E-01
        1   -1    0    0  501    0  0.00000000000E+00  0.00000000000E+00  0.17145763344E+04  0.17145763345E+04  0.50400001928E-02 0.  1.
       -1   -1    0    0    0  501  0.00000000000E+00  0.00000000000E+00 -0.22705418711E+04  0.22705418711E+04  0.50400001928E-02 0. -1.
    10030    2    1    2    0    0  0.00000000000E+00  0.00000000000E+00 -0.55596553663E+03  0.39851182055E+04  0.39461461496E+04 0.  0.
        4    1    3    3  502    0 -0.14222003282E+04  0.11828746993E+04 -0.97117963177E+03  0.20892672922E+04  0.12699999809E+01 0. -1.
       -4    1    3    3    0  502  0.14222003282E+04 -0.11828746993E+04  0.41521409514E+03  0.18958509134E+04  0.12699999809E+01 0.  1.
</event>
<event>
 5   0  0.4762788E-08  0.3912583E+04  0.7818609E-02  0.8022417E-01
        1   -1    0    0  501    0  0.00000000000E+00  0.00000000000E+00  0.24538827593E+04  0.24538827593E+04  0.50400001928E-02 0.  1.
       -1   -1    0    0    0  501  0.00000000000E+00  0.00000000000E+00 -0.15596006104E+04  0.15596006104E+04  0.50400001928E-02 0. -1.
    10030    2    1    2    0    0  0.00000000000E+00  0.00000000000E+00  0.89428214897E+03  0.40134833697E+04  0.39125833150E+04 0.  0.
        2    1    3    3  502    0  0.14915858093E+04 -0.81677896714E+03  0.14390955944E+04  0.22277684434E+04  0.25500000920E-02 0.  1.
       -2    1    3    3    0  502 -0.14915858093E+04  0.81677896714E+03 -0.54481344547E+03  0.17857149263E+04  0.25500000920E-02 0. -1.
</event>
<event>
 5   0  0.1538018E-07  0.3883379E+04  0.7818609E-02  0.8028495E-01
       -2   -1    0    0    0  501  0.00000000000E+00  0.00000000000E+00  0.14080251264E+04  0.14080251264E+04  0.25500000920E-02 0. -1.
        2   -1    0    0  501    0  0.00000000000E+00  0.00000000000E+00 -0.26776206461E+04  0.26776206461E+04  0.25500000920E-02 0.  1.
    10030    2    1    2    0    0  0.00000000000E+00  0.00000000000E+00 -0.12695955196E+04  0.40856457725E+04  0.38833785026E+04 0.  0.
        1    1    3    3  502    0 -0.26413152654E+03  0.12612211817E+04 -0.21629360533E+04  0.25176847903E+04  0.50400001928E-02 0.  1.
       -1    1    3    3    0  502  0.26413152654E+03 -0.12612211817E+04  0.89334053370E+03  0.15679609822E+04  0.50400001928E-02 0. -1.
</event>
<event>
 5   0  0.4750125E-08  0.3885527E+04  0.7818609E-02  0.8028046E-01
        1   -1    0    0  501    0  0.00000000000E+00  0.00000000000E+00  0.14693195892E+04  0.14693195892E+04  0.50400001928E-02 0. -1.
       -1   -1    0    0    0  501  0.00000000000E+00  0.00000000000E+00 -0.25687610620E+04  0.25687610620E+04  0.50400001928E-02 0.  1.
    10030    2    1    2    0    0  0.00000000000E+00  0.00000000000E+00 -0.10994414728E+04  0.40380806512E+04  0.38855274794E+04 0.  0.
        3    1    3    3  502    0  0.13762757696E+04  0.13439464762E+04 -0.26700365173E+03  0.19420654173E+04  0.10100000352E+00 0.  1.
       -3    1    3    3    0  502 -0.13762757696E+04 -0.13439464762E+04 -0.83243782105E+03  0.20960152339E+04  0.10100000352E+00 0. -1.
</event>
<event>
 5   0  0.1538018E-07  0.3852968E+04  0.7818609E-02  0.8034883E-01
        2   -1    0    0  501    0  0.00000000000E+00  0.00000000000E+00  0.23363123279E+04  0.23363123279E+04  0.25500000920E-02 0.  1.
       -2   -1    0    0    0  501  0.00000000000E+00  0.00000000000E+00 -0.15885465334E+04  0.15885465334E+04  0.25500000920E-02 0. -1.
    10030    2    1    2    0    0  0.00000000000E+00  0.00000000000E+00  0.74776579449E+03  0.39248588612E+04  0.38529681282E+04 0.  0.
        1    1    3    3  502    0 -0.14492269114E+04  0.21762180900E+03 -0.89993848166E+03  0.17197404349E+04  0.50400001928E-02 0. -1.
       -1    1    3    3    0  502  0.14492269114E+04 -0.21762180900E+03  0.16477042762E+04  0.22051184263E+04  0.50400001928E-02 0.  1.
</event>
<event>
 5   0  0.1546846E-07  0.3901572E+04  0.7818609E-02  0.8024702E-01
        2   -1    0    0  501    0  0.00000000000E+00  0.00000000000E+00  0.13631874366E+04  0.13631874366E+04  0.25500000920E-02 0.  1.
       -2   -1    0    0    0  501  0.00000000000E+00  0.00000000000E+00 -0.27916672696E+04  0.27916672696E+04  0.25500000920E-02 0. -1.
    10030    2    1    2    0    0  0.00000000000E+00  0.00000000000E+00 -0.14284798330E+04  0.41548547062E+04  0.39015718622E+04 0.  0.
        2    1    3    3  502    0  0.21043415714E+03  0.77695156564E+03 -0.26065696560E+04  0.27280288931E+04  0.25500000920E-02 0. -1.
       -2    1    3    3    0  502 -0.21043415714E+03 -0.77695156564E+03  0.11780898230E+04  0.14268258131E+04  0.25500000920E-02 0.  1.
</event>
<event>
 5   0  0.1520986E-07  0.3851502E+04  0.7818609E-02  0.8035192E-01
        2   -1    0    0  501    0  0.00000000000E+00  0.00000000000E+00  0.20746424452E+04  0.20746424452E+04  0.25500000920E-02 0.  1.
       -2   -1    0    0    0  501  0.00000000000E+00  0.00000000000E+00 -0.17875450071E+04  0.17875450071E+04  0.25500000920E-02 0. -1.
    10030    2    1    2    0    0  0.00000000000E+00  0.00000000000E+00  0.28709743806E+03  0.38621874523E+04  0.38515019120E+04 0.  0.
        4    1    3    3  502    0  0.44456126127E+03  0.15527436528E+04 -0.90810661344E+03  0.18529184549E+04  0.12699999809E+01 0. -1.
       -4    1    3    3    0  502 -0.44456126127E+03 -0.15527436528E+04  0.11952040515E+04  0.20092689974E+04  0.12699999809E+01 0.  1.
</event>
<event>
 5   0  0.4750125E-08  0.3859103E+04  0.7818609E-02  0.8033589E-01
        1   -1    0    0  501    0  0.00000000000E+00  0.00000000000E+00  0.20715610920E+04  0.20715610920E+04  0.50400001928E-02 0. -1.
       -1   -1    0    0    0  501  0.00000000000E+00  0.00000000000E+00 -0.17972769655E+04  0.17972769655E+04  0.50400001928E-02 0.  1.
    10030    2    1    2    0    0  0.00000000000E+00  0.00000000000E+00  0.27428412647E+03  0.38688380576E+04  0.38591030219E+04 0.  0.
        4    1    3    3  502    0 -0.11243903963E+04 -0.92295154533E+03  0.14080442590E+04  0.20245205770E+04  0.12699999809E+01 0.  1.
       -4    1    3    3    0  502  0.11243903963E+04  0.92295154533E+03 -0.11337601325E+04  0.18443174806E+04  0.12699999809E+01 0. -1.
</event>
<event>
 5   0  0.4750125E-08  0.3763730E+04  0.7818609E-02  0.8053983E-01
        1   -1    0    0  501    0  0.00000000000E+00  0.00000000000E+00  0.15060511235E+04  0.15060511235E+04  0.50400001928E-02 0.  1.
       -1   -1    0    0    0  501  0.00000000000E+00  0.00000000000E+00 -0.23514583057E+04  0.23514583057E+04  0.50400001928E-02 0. -1.
    10030    2    1    2    0    0  0.00000000000E+00  0.00000000000E+00 -0.84540718224E+03  0.38575094292E+04  0.37637302895E+04 0.  0.
        1    1    3    3  502    0  0.41052385486E+03  0.17544529305E+04  0.13376238580E+03  0.18068002924E+04  0.50400001928E-02 0.  1.
       -1    1    3    3    0  502 -0.41052385486E+03 -0.17544529305E+04 -0.97916956803E+03  0.20507091368E+04  0.50400001928E-02 0. -1.
</event>
<event>
 5   0  0.1520986E-07  0.3894394E+04  0.7818609E-02  0.8026196E-01
       -2   -1    0    0    0  501  0.00000000000E+00  0.00000000000E+00  0.29777547123E+04  0.29777547123E+04  0.25500000920E-02 0. -1.
        2   -1    0    0  501    0  0.00000000000E+00  0.00000000000E+00 -0.12733004430E+04  0.12733004430E+04  0.25500000920E-02 0.  1.
    10030    2    1    2    0    0  0.00000000000E+00  0.00000000000E+00  0.17044542694E+04  0.42510551553E+04  0.38943941220E+04 0.  0.
        4    1    3    3  502    0 -0.14126961419E+04 -0.12424970206E+04  0.14002688062E+04  0.23452640743E+04  0.12699999809E+01 0.  1.
       -4    1    3    3    0  502  0.14126961419E+04  0.12424970206E+04  0.30418546312E+03  0.19057910810E+04  0.12699999809E+01 0. -1.
</event>
<event>
 5   0  0.1501585E-07  0.3916834E+04  0.7818609E-02  0.8021537E-01
       -2   -1    0    0    0  501  0.00000000000E+00  0.00000000000E+00  0.25102106113E+04  0.25102106113E+04  0.25500000920E-02 0.  1.
        2   -1    0    0  501    0  0.00000000000E+00  0.00000000000E+00 -0.15279188139E+04  0.15279188139E+04  0.25500000920E-02 0. -1.
    10030    2    1    2    0    0  0.00000000000E+00  0.00000000000E+00  0.98229179738E+03  0.40381294252E+04  0.39168344463E+04 0.  0.
        5    1    3    3  502    0  0.10205345434E+04 -0.65185788875E+03 -0.10956624456E+04  0.16330669754E+04  0.46999998093E+01 0. -1.
       -5    1    3    3    0  502 -0.10205345434E+04  0.65185788875E+03  0.20779542430E+04  0.24050624498E+04  0.46999998093E+01 0.  1.
</event>
<event>
 5   0  0.4762788E-08  0.3889157E+04  0.7818609E-02  0.8027288E-01
        1   -1    0    0  501    0  0.00000000000E+00  0.00000000000E+00  0.16219900096E+04  0.16219900096E+04  0.50400001928E-02 0.  1.
       -1   -1    0    0    0  501  0.00000000000E+00  0.00000000000E+00 -0.23313252584E+04  0.23313252584E+04  0.50400001928E-02 0. -1.
    10030    2    1    2    0    0  0.00000000000E+00  0.00000000000E+00 -0.70933524877E+03  0.39533152680E+04  0.38891573783E+04 0.  0.
        2    1    3    3  502    0 -0.60971024903E+03  0.98352066051E+03  0.12339077271E+04  0.16916228174E+04  0.25500000920E-02 0.  1.
       -2    1    3    3    0  502  0.60971024903E+03 -0.98352066051E+03 -0.19432429759E+04  0.22616924505E+04  0.25500000920E-02 0. -1.
</event>
<event>
 5   0  0.4750125E-08  0.3906061E+04  0.7818609E-02  0.8023770E-01
        1   -1    0    0  501    0  0.00000000000E+00  0.00000000000E+00  0.18549514139E+04  0.18549514139E+04  0.50400001928E-02 0.  1.
       -1   -1    0    0    0  501  0.00000000000E+00  0.00000000000E+00 -0.20562958556E+04  0.20562958556E+04  0.50400001928E-02 0. -1.
    10030    2    1    2    0    0  0.00000000000E+00  0.00000000000E+00 -0.20134444167E+03  0.39112472695E+04  0.39060613947E+04 0.  0.
        3    1    3    3  502    0  0.13839062011E+04 -0.70812723975E+02 -0.14787690470E+04  0.20265657453E+04  0.10100000352E+00 0. -1.
       -3    1    3    3    0  502 -0.13839062011E+04  0.70812723975E+02  0.12774246053E+04  0.18846815242E+04  0.10100000352E+00 0.  1.
</event>
<event>
 5   0  0.1546846E-07  0.3954888E+04  0.7818609E-02  0.8013709E-01
        2   -1    0    0  501    0  0.00000000000E+00  0.00000000000E+00  0.16353497918E+04  0.16353497918E+04  0.25500000920E-02 0. -1.
       -2   -1    0    0    0  501  0.00000000000E+00  0.00000000000E+00 -0.23910999298E+04  0.23910999298E+04  0.25500000920E-02 0.  1.
    10030    2    1    2    0    0  0.00000000000E+00  0.00000000000E+00 -0.75575013798E+03  0.40264497216E+04  0.39548879996E+04 0.  0.
        2    1    3    3  502    0 -0.15350607871E+04  0.10970641576E+04 -0.98046609080E+03  0.21263290293E+04  0.25500000920E-02 0.  1.
       -2    1    3    3    0  502  0.15350607871E+04 -0.10970641576E+04  0.22471595283E+03  0.19001206923E+04  0.25500000920E-02 0. -1.
</event>
<event>
 5   0  0.1520986E-07  0.3914427E+04  0.7818609E-02  0.8022035E-01
       -2   -1    0    0    0  501  0.00000000000E+00  0.00000000000E+00  0.24454367249E+04  0.24454367249E+04  0.25500000920E-02 0. -1.
        2   -1    0    0  501    0  0.00000000000E+00  0.00000000000E+00 -0.15664627313E+04  0.15664627313E+04  0.25500000920E-02 0.  1.
    10030    2    1    2    0    0  0.00000000000E+00  0.00000000000E+00  0.87897399361E+03  0.40118994563E+04  0.39144274123E+04 0.  0.
        4    1    3    3  502    0  0.11047421031E+04 -0.21054784152E+03  0.20812161938E+04  0.23656390186E+04  0.12699999809E+01 0. -1.
       -4    1    3    3    0  502 -0.11047421031E+04  0.21054784152E+03 -0.12022422002E+04  0.16462604377E+04  0.12699999809E+01 0.  1.
</event>
<event>
 5   0  0.4750125E-08  0.3911045E+04  0.7818609E-02  0.8022736E-01
        1   -1    0    0  501    0  0.00000000000E+00  0.00000000000E+00  0.15716900102E+04  0.15716900102E+04  0.50400001928E-02 0.  1.
       -1   -1    0    0    0  501  0.00000000000E+00  0.00000000000E+00 -0.24330934892E+04  0.24330934892E+04  0.50400001928E-02 0. -1.
    10030    2    1    2    0    0  0.00000000000E+00  0.00000000000E+00 -0.86140347899E+03  0.40047834993E+04  0.39110452469E+04 0.  0.
        1    1    3    3  502    0  0.12722917214E+03  0.11070864819E+04  0.12147478737E+04  0.16484659952E+04  0.50400001928E-02 0.  1.
       -1    1    3    3    0  502 -0.12722917214E+03 -0.11070864819E+04 -0.20761513527E+04  0.23563175041E+04  0.50400001928E-02 0. -1.
</event>
<event>
 5   0  0.4750125E-08  0.3910530E+04  0.7818609E-02  0.8022843E-01
        1   -1    0    0  501    0  0.00000000000E+00  0.00000000000E+00  0.23444763412E+04  0.23444763412E+04  0.50400001928E-02 0. -1.
       -1   -1    0    0    0  501  0.00000000000E+00  0.00000000000E+00 -0.16306670994E+04  0.16306670994E+04  0.50400001928E-02 0.  1.
    10030    2    1    2    0    0  0.00000000000E+00  0.00000000000E+00  0.71380924184E+03  0.39751434406E+04  0.39105295983E+04 0.  0.
        1    1    3    3  502    0  0.17368914239E+04 -0.20381081712E+03 -0.53203287410E+03  0.18279468391E+04  0.50400001928E-02 0.  1.
       -1    1    3    3    0  502 -0.17368914239E+04  0.20381081712E+03  0.12458421159E+04  0.21471966015E+04  0.50400001928E-02 0. -1.
</event>
<event>
 5   0  0.1503228E-07  0.3879497E+04  0.7818609E-02  0.8029307E-01
        2   -1    0    0  501    0  0.00000000000E+00  0.00000000000E+00  0.17278448178E+04  0.17278448178E+04  0.25500000920E-02 0. -1.
       -2   -1    0    0    0  501  0.00000000000E+00  0.00000000000E+00 -0.21776402326E+04  0.21776402326E+04  0.25500000920E-02 0.  1.
    10030    2    1    2    0    0  0.00000000000E+00  0.00000000000E+00 -0.44979541485E+03  0.39054850504E+04  0.38794970761E+04 0.  0.
        3    1    3    3  502    0 -0.63212400871E+03  0.13784563426E+04  0.99270926841E+03  0.18125105110E+04  0.10100000352E+00 0. -1.
       -3    1    3    3    0  502  0.63212400871E+03 -0.13784563426E+04 -0.14425046833E+04  0.20929745393E+04  0.10100000352E+00 0.  1.
</event>
<event>
 5   0  0.4750125E-08  0.3912375E+04  0.7818609E-02  0.8022460E-01
       -1   -1    0    0    0  501  0.00000000000E+00  0.00000000000E+00  0.14555231734E+04  0.14555231735E+04  0.50400001928E-02 0.  1.
        1   -1    0    0  501    0  0.00000000000E+00  0.00000000000E+00 -0.26290676701E+04  0.26290676701E+04  0.50400001928E-02 0. -1.
    10030    2    1    2    0    0  0.00000000000E+00  0.00000000000E+00 -0.11735444967E+04  0.40845908436E+04  0.39123746848E+04 0.  0.
        1    1    3    3  502    0 -0.13175529405E+04  0.91996290359E+03  0.57785413392E+03  0.17076864159E+04  0.50400001928E-02 0.  1.
       -1    1    3    3    0  502  0.13175529405E+04 -0.91996290359E+03 -0.17513986306E+04  0.23769044277E+04  0.50400001928E-02 0. -1.
</event>
<event>
 5   0  0.4750125E-08  0.3552712E+04  0.7818609E-02  0.8101410E-01
        1   -1    0    0  501    0  0.00000000000E+00  0.00000000000E+00  0.23417439475E+04  0.23417439475E+04  0.50400001928E-02 0. -1.
       -1   -1    0    0    0  501  0.00000000000E+00  0.00000000000E+00 -0.13474746707E+04  0.13474746707E+04  0.50400001928E-02 0.  1.
    10030    2    1    2    0    0  0.00000000000E+00  0.00000000000E+00  0.99426927680E+03  0.36892186182E+04  0.35527120089E+04 0.  0.
        3    1    3    3  502    0  0.39880188491E+03  0.11612768719E+04 -0.83586822270E+03  0.14853560558E+04  0.10100000352E+00 0.  1.
       -3    1    3    3    0  502 -0.39880188491E+03 -0.11612768719E+04  0.18301374995E+04  0.22038625624E+04  0.10100000352E+00 0. -1.
</event>
<event>
 5   0  0.4750125E-08  0.3817125E+04  0.7818609E-02  0.8042490E-01
       -1   -1    0    0    0  501  0.00000000000E+00  0.00000000000E+00  0.14573164156E+04  0.14573164156E+04  0.50400001928E-02 0. -1.
        1   -1    0    0  501    0  0.00000000000E+00  0.00000000000E+00 -0.24995328278E+04  0.24995328278E+04  0.50400001928E-02 0.  1.
    10030    2    1    2    0    0  0.00000000000E+00  0.00000000000E+00 -0.10422164122E+04  0.39568492435E+04  0.38171246883E+04 0.  0.
        1    1    3    3  502    0 -0.89629885707E+02  0.16706516398E+04  0.43093279019E+03  0.17276612769E+04  0.50400001928E-02 0. -1.
       -1    1    3    3    0  502  0.89629885707E+02 -0.16706516398E+04 -0.14731492024E+04  0.22291879666E+04  0.50400001928E-02 0.  1.
</event>
<event>
 5   0  0.4750125E-08  0.3812312E+04  0.7818609E-02  0.8043518E-01
       -1   -1    0    0    0  501  0.00000000000E+00  0.00000000000E+00  0.23123070965E+04  0.23123070966E+04  0.50400001928E-02 0. -1.
        1   -1    0    0  501    0  0.00000000000E+00  0.00000000000E+00 -0.15713447497E+04  0.15713447497E+04  0.50400001928E-02 0.  1.
    10030    2    1    2    0    0  0.00000000000E+00  0.00000000000E+00  0.74096234688E+03  0.38836518462E+04  0.38123124824E+04 0.  0.
        3    1    3    3  502    0  0.18083180467E+04  0.12239076489E+02 -0.24351429081E+03  0.18246816635E+04  0.10100000352E+00 0.  1.
       -3    1    3    3    0  502 -0.18083180467E+04 -0.12239076489E+02  0.98447663769E+03  0.20589701827E+04  0.10100000352E+00 0. -1.
</event>
<event>
 5   0  0.1501585E-07  0.3821614E+04  0.7818609E-02  0.8041532E-01
        2   -1    0    0  501    0  0.00000000000E+00  0.00000000000E+00  0.24651647091E+04  0.24651647091E+04  0.25500000920E-02 0.  1.
       -2   -1    0    0    0  501  0.00000000000E+00  0.00000000000E+00 -0.14811117045E+04  0.14811117045E+04  0.25500000920E-02 0. -1.
    10030    2    1    2    0    0  0.00000000000E+00  0.00000000000E+00  0.98405300462E+03  0.39462764137E+04  0.38216144778E+04 0.  0.
        5    1    3    3  502    0  0.88814630908E+03 -0.69465552613E+03  0.20850124973E+04  0.23703690367E+04  0.46999998093E+01 0.  1.
       -5    1    3    3    0  502 -0.88814630908E+03  0.69465552613E+03 -0.11009594927E+04  0.15759073770E+04  0.46999998093E+01 0. -1.
</event>
<event>
 5   0  0.4750125E-08  0.3936571E+04  0.7818609E-02  0.8017466E-01
        1   -1    0    0  501    0  0.00000000000E+00  0.00000000000E+00  0.26291370625E+04  0.26291370625E+04  0.50400001928E-02 0.  1.
       -1   -1    0    0    0  501  0.00000000000E+00  0.00000000000E+00 -0.14735433698E+04  0.14735433698E+04  0.50400001928E-02 0. -1.
    10030    2    1    2    0    0  0.00000000000E+00  0.00000000000E+00  0.11555936927E+04  0.41026804323E+04  0.39365708360E+04 0.  0.
        4    1    3    3  502    0 -0.84615787102E+03  0.66050496433E+03 -0.11416366259E+04  0.15670308705E+04  0.12699999809E+01 0. -1.
       -4    1    3    3    0  502  0.84615787102E+03 -0.66050496433E+03  0.22972303186E+04  0.25356495618E+04  0.12699999809E+01 0.  1.
</event>
<event>
 5   0  0.4750125E-08  0.3903031E+04  0.7818609E-02  0.8024399E-01
       -1   -1    0    0    0  501  0.00000000000E+00  0.00000000000E+00  0.23437751470E+04  0.23437751470E+04  0.50400001928E-02 0. -1.
        1   -1    0    0  501    0  0.00000000000E+00  0.00000000000E+00 -0.16249052829E+04  0.16249052829E+04  0.50400001928E-02 0.  1.
    10030    2    1    2    0    0  0.00000000000E+00  0.00000000000E+00  0.71886986414E+03  0.39686804299E+04  0.39030309342E+04 0.  0.
        1    1    3    3  502    0 -0.19004284283E+04 -0.40370132420E+03  0.54640171737E+03  0.20182065819E+04  0.50400001928E-02 0.  1.
       -1    1    3    3    0  502  0.19004284283E+04  0.40370132420E+03  0.17246814677E+03  0.19504738481E+04  0.50400001928E-02 0. -1.
</event>
<event>
 5   0  0.4750125E-08  0.3893253E+04  0.7818609E-02  0.8026434E-01
        1   -1    0    0  501    0  0.00000000000E+00  0.00000000000E+00  0.13321082771E+04  0.13321082771E+04  0.50400001928E-02 0. -1.
       -1   -1    0    0    0  501  0.00000000000E+00  0.00000000000E+00 -0.28446300346E+04  0.28446300346E+04  0.50400001928E-02 0.  1.
    10030    2    1    2    0    0  0.00000000000E+00  0.00000000000E+00 -0.15125217575E+04  0.41767383118E+04  0.38932532487E+04 0.  0.
        3    1    3    3  502    0 -0.16257202629E+03 -0.40063755655E+03  0.12799440662E+04  0.13509984968E+04  0.10100000352E+00 0. -1.
       -3    1    3    3    0  502  0.16257202629E+03  0.40063755655E+03 -0.27924658237E+04  0.28257398150E+04  0.10100000352E+00 0.  1.
</event>
<event>
 5   0  0.1501585E-07  0.3890460E+04  0.7818609E-02  0.8027016E-01
       -2   -1    0    0    0  501  0.00000000000E+00  0.00000000000E+00  0.12664493006E+04  0.12664493007E+04  0.25500000920E-02 0.  1.
        2   -1    0    0  501    0  0.00000000000E+00  0.00000000000E+00 -0.29878170924E+04  0.29878170924E+04  0.25500000920E-02 0. -1.
    10030    2    1    2    0    0  0.00000000000E+00  0.00000000000E+00 -0.17213677917E+04  0.42542663930E+04  0.38904595446E+04 0.  0.
        5    1    3    3  502    0 -0.17241147755E+04  0.21178130003E+03 -0.18180375645E+04  0.25144991060E+04  0.46999998093E+01 0. -1.
       -5    1    3    3    0  502  0.17241147755E+04 -0.21178130003E+03  0.96669772720E+02  0.17397672871E+04  0.46999998093E+01 0.  1.
</event>
<event>
 5   0  0.1520986E-07  0.3490940E+04  0.7818609E-02  0.8115940E-01
        2   -1    0    0  501    0  0.00000000000E+00  0.00000000000E+00  0.18348460053E+04  0.18348460053E+04  0.25500000920E-02 0.  1.
       -2   -1    0    0    0  501  0.00000000000E+00  0.00000000000E+00 -0.16604474203E+04  0.16604474203E+04  0.25500000920E-02 0. -1.
    10030    2    1    2    0    0  0.00000000000E+00  0.00000000000E+00  0.17439858497E+03  0.34952934256E+04  0.34909398827E+04 0.  0.
        4    1    3    3  502    0 -0.10574892276E+04  0.20348482008E+03  0.14625841774E+04  0.18162719035E+04  0.12699999809E+01 0.  1.
       -4    1    3    3    0  502  0.10574892276E+04 -0.20348482008E+03 -0.12881855924E+04  0.16790215222E+04  0.12699999809E+01 0. -1.
</event>
<event>
 5   0  0.4750125E-08  0.3892808E+04  0.7818609E-02  0.8026527E-01
       -3   -1    0    0    0  501  0.00000000000E+00  0.00000000000E+00  0.24830264162E+04  0.24830264183E+04  0.10100000352E+00 0. -1.
        3   -1    0    0  501    0  0.00000000000E+00  0.00000000000E+00 -0.15257547634E+04  0.15257547667E+04  0.10100000352E+00 0.  1.
    10030    2    1    2    0    0  0.00000000000E+00  0.00000000000E+00  0.95727165285E+03  0.40087811850E+04  0.38928084427E+04 0.  0.
        1    1    3    3  502    0 -0.14295816888E+04  0.10343316690E+04  0.13246605513E+04  0.22064159587E+04  0.50400001928E-02 0. -1.
       -1    1    3    3    0  502  0.14295816888E+04 -0.10343316690E+04 -0.36738889844E+03  0.18023652264E+04  0.50400001928E-02 0.  1.
</event>
<event>
 5   0  0.1520986E-07  0.3932456E+04  0.7818609E-02  0.8018313E-01
       -2   -1    0    0    0  501  0.00000000000E+00  0.00000000000E+00  0.27547213863E+04  0.27547213863E+04  0.25500000920E-02 0. -1.
        2   -1    0    0  501    0  0.00000000000E+00  0.00000000000E+00 -0.14034275525E+04  0.14034275525E+04  0.25500000920E-02 0.  1.
    10030    2    1    2    0    0  0.00000000000E+00  0.00000000000E+00  0.13512938338E+04  0.41581489388E+04  0.39324556669E+04 0.  0.
        4    1    3    3  502    0 -0.71506179407E+03 -0.17730032990E+04  0.11615831340E+04  0.22369915194E+04  0.12699999809E+01 0.  1.
       -4    1    3    3    0  502  0.71506179407E+03  0.17730032990E+04  0.18971069981E+03  0.19211574194E+04  0.12699999809E+01 0. -1.
</event>
<event>
 5   0  0.4750125E-08  0.3878669E+04  0.7818609E-02  0.8029480E-01
       -1   -1    0    0    0  501  0.00000000000E+00  0.00000000000E+00  0.16019868218E+04  0.16019868218E+04  0.50400001928E-02 0. -1.
        1   -1    0    0  501    0  0.00000000000E+00  0.00000000000E+00 -0.23477211759E+04  0.23477211759E+04  0.50400001928E-02 0.  1.
    10030    2    1    2    0    0  0.00000000000E+00  0.00000000000E+00 -0.74573435403E+03  0.39497079977E+04  0.38786690424E+04 0.  0.
        5    1    3    3  502    0  0.11316450052E+04 -0.13688881372E+04 -0.11659257034E+04  0.21245893687E+04  0.46999998093E+01 0.  1.
       -5    1    3    3    0  502 -0.11316450052E+04  0.13688881372E+04  0.42019134937E+03  0.18251186290E+04  0.46999998093E+01 0. -1.
</event>
<event>
 5   0  0.1546846E-07  0.3917910E+04  0.7818609E-02  0.8021314E-01
        2   -1    0    0  501    0  0.00000000000E+00  0.00000000000E+00  0.22287968707E+04  0.22287968707E+04  0.25500000920E-02 0. -1.
       -2   -1    0    0    0  501  0.00000000000E+00  0.00000000000E+00 -0.17217833597E+04  0.17217833597E+04  0.25500000920E-02 0.  1.
    10030    2    1    2    0    0  0.00000000000E+00  0.00000000000E+00  0.50701351094E+03  0.39505802304E+04  0.39179103431E+04 0.  0.
        2    1    3    3  502    0 -0.17856898192E+04 -0.59978108541E+03 -0.28863808387E+03  0.19057117894E+04  0.25500000920E-02 0.  1.
       -2    1    3    3    0  502  0.17856898192E+04  0.59978108541E+03  0.79565159481E+03  0.20448684410E+04  0.25500000920E-02 0. -1.
</event>
<event>
 5   0  0.1538018E-07  0.3452897E+04  0.7818609E-02  0.8125044E-01
        2   -1    0    0  501    0  0.00000000000E+00  0.00000000000E+00  0.17999089312E+04  0.17999089312E+04  0.25500000920E-02 0. -1.
       -2   -1    0    0    0  501  0.00000000000E+00  0.00000000000E+00 -0.16559865809E+04  0.16559865809E+04  0.25500000920E-02 0.  1.
    10030    2    1    2    0    0  0.00000000000E+00  0.00000000000E+00  0.14392235027E+03  0.34558955122E+04  0.34528973556E+04 0.  0.
        1    1    3    3  502    0 -0.69544577458E+03  0.73625885756E+03 -0.13274313615E+04  0.16696694134E+04  0.50400001928E-02 0.  1.
       -1    1    3    3    0  502  0.69544577458E+03 -0.73625885756E+03  0.14713537117E+04  0.17862260987E+04  0.50400001928E-02 0. -1.
</event>
<event>
 5   0  0.4750125E-08  0.3601298E+04  0.7818609E-02  0.8090194E-01
       -1   -1    0    0    0  501  0.00000000000E+00  0.00000000000E+00  0.15175497018E+04  0.15175497018E+04  0.50400001928E-02 0. -1.
        1   -1    0    0  501    0  0.00000000000E+00  0.00000000000E+00 -0.21365607465E+04  0.21365607465E+04  0.50400001928E-02 0.  1.
    10030    2    1    2    0    0  0.00000000000E+00  0.00000000000E+00 -0.61901104467E+03  0.36541104483E+04  0.36012981680E+04 0.  0.
        4    1    3    3  502    0  0.13595788852E+04 -0.68559603361E+03  0.66575512302E+03  0.16618448071E+04  0.12699999809E+01 0. -1.
       -4    1    3    3    0  502 -0.13595788852E+04  0.68559603361E+03 -0.12847661677E+04  0.19922656411E+04  0.12699999809E+01 0.  1.
</event>
<event>
 5   0  0.1538018E-07  0.4303352E+04  0.7818609E-02  0.7945999E-01
       -2   -1    0    0    0  501  0.00000000000E+00  0.00000000000E+00  0.19838070720E+04  0.19838070720E+04  0.25500000920E-02 0.  1.
        2   -1    0    0  501    0  0.00000000000E+00  0.00000000000E+00 -0.23337495661E+04  0.23337495662E+04  0.25500000920E-02 0. -1.
    10030    2    1    2    0    0  0.00000000000E+00  0.00000000000E+00 -0.34994249413E+03  0.43175566382E+04  0.43033516676E+04 0.  0.
        1    1    3    3  502    0  0.60912848616E+03 -0.11892975149E+04 -0.18670264956E+04  0.22959211717E+04  0.50400001928E-02 0. -1.
       -1    1    3    3    0  502 -0.60912848616E+03  0.11892975149E+04  0.15170840014E+04  0.20216354664E+04  0.50400001928E-02 0.  1.
</event>
<event>
 5   0  0.4762788E-08  0.3926491E+04  0.7818609E-02  0.8019542E-01
       -1   -1    0    0    0  501  0.00000000000E+00  0.00000000000E+00  0.14625982032E+04  0.14625982033E+04  0.50400001928E-02 0. -1.
        1   -1    0    0  501    0  0.00000000000E+00  0.00000000000E+00 -0.26352647187E+04  0.26352647187E+04  0.50400001928E-02 0.  1.
    10030    2    1    2    0    0  0.00000000000E+00  0.00000000000E+00 -0.11726665154E+04  0.40978629219E+04  0.39264912798E+04 0.  0.
        2    1    3    3  502    0 -0.66872405810E+03  0.16539488870E+04  0.26894297836E+03  0.18041810087E+04  0.25500000920E-02 0. -1.
       -2    1    3    3    0  502  0.66872405810E+03 -0.16539488870E+04 -0.14416094938E+04  0.22936819132E+04  0.25500000920E-02 0.  1.
</event>
<event>
 5   0  0.1520986E-07  0.3872886E+04  0.7818609E-02  0.8030692E-01
        2   -1    0    0  501    0  0.00000000000E+00  0.00000000000E+00  0.28317886847E+04  0.28317886847E+04  0.25500000920E-02 0.  1.
       -2   -1    0    0    0  501  0.00000000000E+00  0.00000000000E+00 -0.13241851033E+04  0.13241851033E+04  0.25500000920E-02 0. -1.
    10030    2    1    2    0    0  0.00000000000E+00  0.00000000000E+00  0.15076035814E+04  0.41559737880E+04  0.38728864647E+04 0.  0.
        4    1    3    3  502    0 -0.16411790712E+04 -0.45616319646E+03 -0.23452781431E+03  0.17194646010E+04  0.12699999809E+01 0. -1.
       -4    1    3    3    0  502  0.16411790712E+04  0.45616319646E+03  0.17421313957E+04  0.24365091870E+04  0.12699999809E+01 0.  1.
</event>
<event>
 5   0  0.1503228E-07  0.3908487E+04  0.7818609E-02  0.8023266E-01
       -2   -1    0    0    0  501  0.00000000000E+00  0.00000000000E+00  0.15937035527E+04  0.15937035527E+04  0.25500000920E-02 0. -1.
        2   -1    0    0  501    0  0.00000000000E+00  0.00000000000E+00 -0.23963471622E+04  0.23963471622E+04  0.25500000920E-02 0.  1.
    10030    2    1    2    0    0  0.00000000000E+00  0.00000000000E+00 -0.80264360951E+03  0.39900507150E+04  0.39084866565E+04 0.  0.
        3    1    3    3  502    0 -0.17358041680E+04 -0.88814456366E+03 -0.26724131293E+03  0.19680535575E+04  0.10100000352E+00 0. -1.
       -3    1    3    3    0  502  0.17358041680E+04  0.88814456366E+03 -0.53540229659E+03  0.20219971575E+04  0.10100000352E+00 0.  1.
</event>
<event>
 5   0  0.4762788E-08  0.3874530E+04  0.7818609E-02  0.8030347E-01
       -1   -1    0    0    0  501  0.00000000000E+00  0.00000000000E+00  0.23941805909E+04  0.23941805909E+04  0.50400001928E-02 0. -1.
        1   -1    0    0  501    0  0.00000000000E+00  0.00000000000E+00 -0.15675490691E+04  0.15675490691E+04  0.50400001928E-02 0.  1.
    10030    2    1    2    0    0  0.00000000000E+00  0.00000000000E+00  0.82663152182E+03  0.39617296600E+04  0.38745299362E+04 0.  0.
        2    1    3    3  502    0 -0.13884026959E+04 -0.13194045796E+04  0.11607580459E+03  0.19188444656E+04  0.25500000920E-02 0.  1.
       -2    1    3    3    0  502  0.13884026959E+04  0.13194045796E+04  0.71055571723E+03  0.20428851945E+04  0.25500000920E-02 0. -1.
</event>
<event>
 5   0  0.4750125E-08  0.3672961E+04  0.7818609E-02  0.8073981E-01
       -1   -1    0    0    0  501  0.00000000000E+00  0.00000000000E+00  0.31040428426E+04  0.31040428426E+04  0.50400001928E-02 0.  1.
        1   -1    0    0  501    0  0.00000000000E+00  0.00000000000E+00 -0.10865378864E+04  0.10865378864E+04  0.50400001928E-02 0. -1.
    10030    2    1    2    0    0  0.00000000000E+00  0.00000000000E+00  0.20175049562E+04  0.41905807290E+04  0.36729607401E+04 0.  0.
        4    1    3    3  502    0 -0.86956302804E+03  0.68067430409E+03  0.26829250736E+04  0.29013007309E+04  0.12699999809E+01 0.  1.
       -4    1    3    3    0  502  0.86956302804E+03 -0.68067430409E+03 -0.66542011738E+03  0.12892799981E+04  0.12699999809E+01 0. -1.
</event>
<event>
 5   0  0.4750125E-08  0.3854039E+04  0.7818609E-02  0.8034657E-01
       -1   -1    0    0    0  501  0.00000000000E+00  0.00000000000E+00  0.18108177327E+04  0.18108177327E+04  0.50400001928E-02 0.  1.
        1   -1    0    0  501    0  0.00000000000E+00  0.00000000000E+00 -0.20506785674E+04  0.20506785674E+04  0.50400001928E-02 0. -1.
    10030    2    1    2    0    0  0.00000000000E+00  0.00000000000E+00 -0.23986083474E+03  0.38614963001E+04  0.38540394985E+04 0.  0.
        5    1    3    3  502    0  0.31490947296E+03 -0.14059772887E+04  0.11621714878E+04  0.18511090648E+04  0.46999998093E+01 0.  1.
       -5    1    3    3    0  502 -0.31490947296E+03  0.14059772887E+04 -0.14020323225E+04  0.20103872353E+04  0.46999998093E+01 0. -1.
</event>
<event>
 5   0  0.4750125E-08  0.3946981E+04  0.7818609E-02  0.8015328E-01
        1   -1    0    0  501    0  0.00000000000E+00  0.00000000000E+00  0.25899979443E+04  0.25899979443E+04  0.50400001928E-02 0.  1.
       -1   -1    0    0    0  501  0.00000000000E+00  0.00000000000E+00 -0.15037329538E+04  0.15037329538E+04  0.50400001928E-02 0. -1.
    10030    2    1    2    0    0  0.00000000000E+00  0.00000000000E+00  0.10862649905E+04  0.40937308981E+04  0.39469812562E+04 0.  0.
        3    1    3    3  502    0 -0.14795161349E+04  0.91289497098E+02 -0.80813600895E+03  0.16883084981E+04  0.10100000352E+00 0. -1.
       -3    1    3    3    0  502  0.14795161349E+04 -0.91289497098E+02  0.18944009994E+04  0.24054224000E+04  0.10100000352E+00 0.  1.
</event>
<event>
 5   0  0.1503228E-07  0.3898192E+04  0.7818609E-02  0.8025405E-01
       -2   -1    0    0    0  501  0.00000000000E+00  0.00000000000E+00  0.14084535355E+04  0.14084535355E+04  0.25500000920E-02 0.  1.
        2   -1    0    0  501    0  0.00000000000E+00  0.00000000000E+00 -0.26972671201E+04  0.26972671201E+04  0.25500000920E-02 0. -1.
    10030    2    1    2    0    0  0.00000000000E+00  0.00000000000E+00 -0.12888135846E+04  0.41057206556E+04  0.38981920997E+04 0.  0.
        3    1    3    3  502    0  0.97547444425E+03  0.57317412360E+03 -0.23160027659E+04  0.25775856512E+04  0.10100000352E+00 0. -1.
       -3    1    3    3    0  502 -0.97547444425E+03 -0.57317412360E+03  0.10271891813E+04  0.15281350044E+04  0.10100000352E+00 0.  1.
</event>
<event>
 5   0  0.1501585E-07  0.3904534E+04  0.7818609E-02  0.8024087E-01
        2   -1    0    0  501    0  0.00000000000E+00  0.00000000000E+00  0.25236746388E+04  0.25236746388E+04  0.25500000920E-02 0.  1.
       -2   -1    0    0    0  501  0.00000000000E+00  0.00000000000E+00 -0.15102369556E+04  0.15102369556E+04  0.25500000920E-02 0. -1.
    10030    2    1    2    0    0  0.00000000000E+00  0.00000000000E+00  0.10134376831E+04  0.40339115944E+04  0.39045341353E+04 0.  0.
        5    1    3    3  502    0 -0.13819990886E+04  0.13747513447E+04  0.61732643493E+03  0.20447436901E+04  0.46999998093E+01 0.  1.
       -5    1    3    3    0  502  0.13819990886E+04 -0.13747513447E+04  0.39611124819E+03  0.19891679044E+04  0.46999998093E+01 0. -1.
</event>
<event>
 5   0  0.1546846E-07  0.3861977E+04  0.7818609E-02  0.8032984E-01
        2   -1    0    0  501    0  0.00000000000E+00  0.00000000000E+00  0.25653154465E+04  0.25653154465E+04  0.25500000920E-02 0. -1.
       -2   -1    0    0    0  501  0.00000000000E+00  0.00000000000E+00 -0.14535121125E+04  0.14535121125E+04  0.25500000920E-02 0.  1.
    10030    2    1    2    0    0  0.00000000000E+00  0.00000000000E+00  0.11118033339E+04  0.40188275590E+04  0.38619772521E+04 0.  0.
        2    1    3    3  502    0 -0.16663401418E+04 -0.47205797276E+03 -0.33270522609E+03  0.17635818567E+04  0.25500000920E-02 0.  1.
       -2    1    3    3    0  502  0.16663401418E+04  0.47205797276E+03  0.14445085600E+04  0.22552457023E+04  0.25500000920E-02 0. -1.
</event>
<event>
 5   0  0.4750125E-08  0.3880089E+04  0.7818609E-02  0.8029183E-01
        1   -1    0    0  501    0  0.00000000000E+00  0.00000000000E+00  0.22156355201E+04  0.22156355201E+04  0.50400001928E-02 0. -1.
       -1   -1    0    0    0  501  0.00000000000E+00  0.00000000000E+00 -0.16987325573E+04  0.16987325573E+04  0.50400001928E-02 0.  1.
    10030    2    1    2    0    0  0.00000000000E+00  0.00000000000E+00  0.51690296282E+03  0.39143680773E+04  0.38800887583E+04 0.  0.
        3    1    3    3  502    0 -0.49981616169E+03  0.22083563030E+03 -0.16194957170E+04  0.17091959978E+04  0.10100000352E+00 0.  1.
       -3    1    3    3    0  502  0.49981616169E+03 -0.22083563030E+03  0.21363986798E+04  0.22051720796E+04  0.10100000352E+00 0. -1.
</event>
<event>
 5   0  0.1546846E-07  0.3748896E+04  0.7818609E-02  0.8057212E-01
        2   -1    0    0  501    0  0.00000000000E+00  0.00000000000E+00  0.22887161686E+04  0.22887161686E+04  0.25500000920E-02 0. -1.
       -2   -1    0    0    0  501  0.00000000000E+00  0.00000000000E+00 -0.15351639779E+04  0.15351639779E+04  0.25500000920E-02 0.  1.
    10030    2    1    2    0    0  0.00000000000E+00  0.00000000000E+00  0.75355219067E+03  0.38238801465E+04  0.37488956335E+04 0.  0.
        2    1    3    3  502    0 -0.12476382012E+04 -0.33344902760E+03  0.17625397221E+04  0.21850253104E+04  0.25500000920E-02 0. -1.
       -2    1    3    3    0  502  0.12476382012E+04  0.33344902760E+03 -0.10089875314E+04  0.16388548361E+04  0.25500000920E-02 0.  1.
</event>
<event>
 5   0  0.4750125E-08  0.3855433E+04  0.7818609E-02  0.8034363E-01
       -1   -1    0    0    0  501  0.00000000000E+00  0.00000000000E+00  0.19370316037E+04  0.19370316037E+04  0.50400001928E-02 0.  1.
        1   -1    0    0  501    0  0.00000000000E+00  0.00000000000E+00 -0.19184460239E+04  0.19184460239E+04  0.50400001928E-02 0. -1.
    10030    2    1    2    0    0  0.00000000000E+00  0.00000000000E+00  0.18585579759E+02  0.38554776276E+04  0.38554328308E+04 0.  0.
        1    1    3    3  502    0 -0.47992344942E+03 -0.14053668574E+04  0.12384157143E+04  0.19336638805E+04  0.50400001928E-02 0.  1.
       -1    1    3    3    0  502  0.47992344942E+03  0.14053668574E+04 -0.12198301345E+04  0.19218137471E+04  0.50400001928E-02 0. -1.
</event>
<event>
 5   0  0.4750125E-08  0.3888287E+04  0.7818609E-02  0.8027470E-01
       -3   -1    0    0    0  501  0.00000000000E+00  0.00000000000E+00  0.20151653077E+04  0.20151653102E+04  0.10100000352E+00 0. -1.
        3   -1    0    0  501    0  0.00000000000E+00  0.00000000000E+00 -0.18756245187E+04  0.18756245215E+04  0.10100000352E+00 0.  1.
    10030    2    1    2    0    0  0.00000000000E+00  0.00000000000E+00  0.13954078892E+03  0.38907898316E+04  0.38882867541E+04 0.  0.
        3    1    3    3  502    0  0.12443604108E+04 -0.10959992459E+04 -0.94579491075E+03  0.19089722896E+04  0.10100000352E+00 0.  1.
       -3    1    3    3    0  502 -0.12443604108E+04  0.10959992459E+04  0.10853356997E+04  0.19818175421E+04  0.10100000352E+00 0. -1.
</event>
<event>
 5   0  0.1520986E-07  0.3797751E+04  0.7818609E-02  0.8046638E-01
       -2   -1    0    0    0  501  0.00000000000E+00  0.00000000000E+00  0.16990635755E+04  0.16990635755E+04  0.25500000920E-02 0. -1.
        2   -1    0    0  501    0  0.00000000000E+00  0.00000000000E+00 -0.21221853503E+04  0.21221853503E+04  0.25500000920E-02 0.  1.
    10030    2    1    2    0    0  0.00000000000E+00  0.00000000000E+00 -0.42312177480E+03  0.38212489258E+04  0.37977508234E+04 0.  0.
        4    1    3    3  502    0  0.95574667716E+03 -0.12506799962E+04  0.85711907869E+03  0.17922909618E+04  0.12699999809E+01 0.  1.
       -4    1    3    3    0  502 -0.95574667716E+03  0.12506799962E+04 -0.12802408535E+04  0.20289579640E+04  0.12699999809E+01 0. -1.
</event>
<event>
 5   0  0.4750125E-08  0.3903923E+04  0.7818609E-02  0.8024214E-01
        1   -1    0    0  501    0  0.00000000000E+00  0.00000000000E+00  0.30326164970E+04  0.30326164970E+04  0.50400001928E-02 0.  1.
       -1   -1    0    0    0  501  0.00000000000E+00  0.00000000000E+00 -0.12563917131E+04  0.12563917131E+04  0.50400001928E-02 0. -1.
    10030    2    1    2    0    0  0.00000000000E+00  0.00000000000E+00  0.17762247839E+04  0.42890082101E+04  0.39039232758E+04 0.  0.
        3    1    3    3  502    0 -0.12495134402E+04 -0.90635060358E+03  0.22006999809E+04  0.26880914549E+04  0.10100000352E+00 0.  1.
       -3    1    3    3    0  502  0.12495134402E+04  0.90635060358E+03 -0.42447519700E+03  0.16009167552E+04  0.10100000352E+00 0. -1.
</event>
<event>
 5   0  0.4750125E-08  0.3921042E+04  0.7818609E-02  0.8020667E-01
        1   -1    0    0  501    0  0.00000000000E+00  0.00000000000E+00  0.23182691549E+04  0.23182691549E+04  0.50400001928E-02 0.  1.
       -1   -1    0    0    0  501  0.00000000000E+00  0.00000000000E+00 -0.16579794777E+04  0.16579794777E+04  0.50400001928E-02 0. -1.
    10030    2    1    2    0    0  0.00000000000E+00  0.00000000000E+00  0.66028967720E+03  0.39762486326E+04  0.39210420465E+04 0.  0.
        1    1    3    3  502    0 -0.76332988798E+03  0.19285057828E+03 -0.14906233295E+04  0.16857703800E+04  0.50400001928E-02 0. -1.
       -1    1    3    3    0  502  0.76332988798E+03 -0.19285057828E+03  0.21509130067E+04  0.22904782527E+04  0.50400001928E-02 0.  1.
</event>
<event>
 5   0  0.4762788E-08  0.3939594E+04  0.7818609E-02  0.8016844E-01
       -1   -1    0    0    0  501  0.00000000000E+00  0.00000000000E+00  0.19815104042E+04  0.19815104042E+04  0.50400001928E-02 0.  1.
        1   -1    0    0  501    0  0.00000000000E+00  0.00000000000E+00 -0.19581526746E+04  0.19581526746E+04  0.50400001928E-02 0. -1.
    10030    2    1    2    0    0  0.00000000000E+00  0.00000000000E+00  0.23357729652E+02  0.39396630788E+04  0.39395938358E+04 0.  0.
        2    1    3    3  502    0 -0.19020664531E+03 -0.11598487556E+04 -0.15690678034E+04  0.19604595062E+04  0.25500000920E-02 0. -1.
       -2    1    3    3    0  502  0.19020664531E+03  0.11598487556E+04  0.15924255330E+04  0.19792035726E+04  0.25500000920E-02 0.  1.
</event>
<event>
 5   0  0.4750125E-08  0.3925614E+04  0.7818609E-02  0.8019723E-01
        1   -1    0    0  501    0  0.00000000000E+00  0.00000000000E+00  0.21078955223E+04  0.21078955223E+04  0.50400001928E-02 0.  1.
       -1   -1    0    0    0  501  0.00000000000E+00  0.00000000000E+00 -0.18277049666E+04  0.18277049666E+04  0.50400001928E-02 0. -1.
    10030    2    1    2    0    0  0.00000000000E+00  0.00000000000E+00  0.28019055570E+03  0.39356004889E+04  0.39256138960E+04 0.  0.
        4    1    3    3  502    0  0.98732601326E+02 -0.18984083372E+04 -0.34992946236E+03  0.19329134960E+04  0.12699999809E+01 0. -1.
       -4    1    3    3    0  502 -0.98732601326E+02  0.18984083372E+04  0.63012001806E+03  0.20026869929E+04  0.12699999809E+01 0.  1.
</event>
<event>
 5   0  0.1538018E-07  0.3902662E+04  0.7818609E-02  0.8024476E-01
        2   -1    0    0  501    0  0.00000000000E+00  0.00000000000E+00  0.26988276872E+04  0.26988276872E+04  0.25500000920E-02 0. -1.
       -2   -1    0    0    0  501  0.00000000000E+00  0.00000000000E+00 -0.14108690962E+04  0.14108690962E+04  0.25500000920E-02 0.  1.
    10030    2    1    2    0    0  0.00000000000E+00  0.00000000000E+00  0.12879585910E+04  0.41096967834E+04  0.39026619530E+04 0.  0.
        1    1    3    3  502    0 -0.18230308878E+03 -0.50635481705E+03  0.26191318731E+04  0.26738514143E+04  0.50400001928E-02 0. -1.
       -1    1    3    3    0  502  0.18230308878E+03  0.50635481705E+03 -0.13311732821E+04  0.14358453691E+04  0.50400001928E-02 0.  1.
</event>
<event>
 5   0  0.4762788E-08  0.3663950E+04  0.7818609E-02  0.8075998E-01
       -1   -1    0    0    0  501  0.00000000000E+00  0.00000000000E+00  0.25320991681E+04  0.25320991682E+04  0.50400001928E-02 0. -1.
        1   -1    0    0  501    0  0.00000000000E+00  0.00000000000E+00 -0.13254345989E+04  0.13254345990E+04  0.50400001928E-02 0.  1.
    10030    2    1    2    0    0  0.00000000000E+00  0.00000000000E+00  0.12066645692E+04  0.38575337671E+04  0.36639496970E+04 0.  0.
        2    1    3    3  502    0  0.34995668766E+03 -0.51714817594E+03  0.24165999111E+04  0.24959701620E+04  0.25500000920E-02 0. -1.
       -2    1    3    3    0  502 -0.34995668766E+03  0.51714817594E+03 -0.12099353419E+04  0.13615636051E+04  0.25500000920E-02 0.  1.
</event>
<event>
 5   0  0.1503228E-07  0.3888310E+04  0.7818609E-02  0.8027465E-01
       -2   -1    0    0    0  501  0.00000000000E+00  0.00000000000E+00  0.19244152073E+04  0.19244152073E+04  0.25500000920E-02 0. -1.
        2   -1    0    0  501    0  0.00000000000E+00  0.00000000000E+00 -0.19640974714E+04  0.19640974714E+04  0.25500000920E-02 0.  1.
    10030    2    1    2    0    0  0.00000000000E+00  0.00000000000E+00 -0.39682264188E+02  0.38885126787E+04  0.38883101947E+04 0.  0.
        3    1    3    3  502    0  0.24119867355E+03 -0.77602872664E+03  0.17464166452E+04  0.19262316822E+04  0.10100000352E+00 0. -1.
       -3    1    3    3    0  502 -0.24119867355E+03  0.77602872664E+03 -0.17860989094E+04  0.19622809965E+04  0.10100000352E+00 0.  1.
</event>
<event>
 5   0  0.4750125E-08  0.3869208E+04  0.7818609E-02  0.8031464E-01
       -1   -1    0    0    0  501  0.00000000000E+00  0.00000000000E+00  0.22281622352E+04  0.22281622352E+04  0.50400001928E-02 0.  1.
        1   -1    0    0  501    0  0.00000000000E+00  0.00000000000E+00 -0.16797213769E+04  0.16797213769E+04  0.50400001928E-02 0. -1.
    10030    2    1    2    0    0  0.00000000000E+00  0.00000000000E+00  0.54844085826E+03  0.39078836121E+04  0.38692075352E+04 0.  0.
        1    1    3    3  502    0  0.63681082861E+03  0.81510091904E+03 -0.13769835666E+04  0.17222082575E+04  0.50400001928E-02 0. -1.
       -1    1    3    3    0  502 -0.63681082861E+03 -0.81510091904E+03  0.19254244248E+04  0.21856753545E+04  0.50400001928E-02 0.  1.
</event>
<event>
 5   0  0.1538018E-07  0.3881362E+04  0.7818609E-02  0.8028917E-01
       -2   -1    0    0    0  501  0.00000000000E+00  0.00000000000E+00  0.18069625100E+04  0.18069625100E+04  0.25500000920E-02 0. -1.
        2   -1    0    0  501    0  0.00000000000E+00  0.00000000000E+00 -0.20842950153E+04  0.20842950153E+04  0.25500000920E-02 0.  1.
    10030    2    1    2    0    0  0.00000000000E+00  0.00000000000E+00 -0.27733250527E+03  0.38912575253E+04  0.38813621075E+04 0.  0.
        1    1    3    3  502    0  0.65539934586E+03  0.11940891178E+04 -0.15245239432E+04  0.20443997596E+04  0.50400001928E-02 0.  1.
       -1    1    3    3    0  502 -0.65539934586E+03 -0.11940891178E+04  0.12471914379E+04  0.18468577657E+04  0.50400001928E-02 0. -1.
</event>
<event>
 5   0  0.4750125E-08  0.3914377E+04  0.7818609E-02  0.8022046E-01
       -1   -1    0    0    0  501  0.00000000000E+00  0.00000000000E+00  0.31037530771E+04  0.31037530771E+04  0.50400001928E-02 0.  1.
        1   -1    0    0  501    0  0.00000000000E+00  0.00000000000E+00 -0.12341786778E+04  0.12341786778E+04  0.50400001928E-02 0. -1.
    10030    2    1    2    0    0  0.00000000000E+00  0.00000000000E+00  0.18695743993E+04  0.43379317549E+04  0.39143765118E+04 0.  0.
        3    1    3    3  502    0  0.14619588965E+04 -0.10470525860E+04  0.78564921670E+02  0.17999487187E+04  0.10100000352E+00 0. -1.
       -3    1    3    3    0  502 -0.14619588965E+04  0.10470525860E+04  0.17910094776E+04  0.25379830362E+04  0.10100000352E+00 0.  1.
</event>
<event>
 5   0  0.1520986E-07  0.3846033E+04  0.7818609E-02  0.8036348E-01
        2   -1    0    0  501    0  0.00000000000E+00  0.00000000000E+00  0.23285842600E+04  0.23285842600E+04  0.25500000920E-02 0.  1.
       -2   -1    0    0    0  501  0.00000000000E+00  0.00000000000E+00 -0.15880859202E+04  0.15880859202E+04  0.25500000920E-02 0. -1.
    10030    2    1    2    0    0  0.00000000000E+00  0.00000000000E+00  0.74049833976E+03  0.39166701802E+04  0.38460326974E+04 0.  0.
        4    1    3    3  502    0 -0.26912403220E+03  0.87742799114E+03  0.20911625058E+04  0.22836965348E+04  0.12699999809E+01 0.  1.
       -4    1    3    3    0  502  0.26912403220E+03 -0.87742799114E+03 -0.13506641661E+04  0.16329736454E+04  0.12699999809E+01 0. -1.
</event>
<event>
 5   0  0.1520986E-07  0.3830002E+04  0.7818609E-02  0.8039747E-01
       -2   -1    0    0    0  501  0.00000000000E+00  0.00000000000E+00  0.15717195047E+04  0.15717195047E+04  0.25500000920E-02 0.  1.
        2   -1    0    0  501    0  0.00000000000E+00  0.00000000000E+00 -0.23332585136E+04  0.23332585136E+04  0.25500000920E-02 0. -1.
    10030    2    1    2    0    0  0.00000000000E+00  0.00000000000E+00 -0.76153900891E+03  0.39049780183E+04  0.38300015224E+04 0.  0.
        4    1    3    3  502    0  0.15584691944E+04  0.11127887717E+04 -0.37051163839E+03  0.19504885459E+04  0.12699999809E+01 0. -1.
       -4    1    3    3    0  502 -0.15584691944E+04 -0.11127887717E+04 -0.39102737052E+03  0.19544894724E+04  0.12699999809E+01 0.  1.
</event>
<event>
 5   0  0.1501585E-07  0.3905286E+04  0.7818609E-02  0.8023931E-01
        2   -1    0    0  501    0  0.00000000000E+00  0.00000000000E+00  0.25247014221E+04  0.25247014221E+04  0.25500000920E-02 0.  1.
       -2   -1    0    0    0  501  0.00000000000E+00  0.00000000000E+00 -0.15102039272E+04  0.15102039272E+04  0.25500000920E-02 0. -1.
    10030    2    1    2    0    0  0.00000000000E+00  0.00000000000E+00  0.10144974949E+04  0.40349053493E+04  0.39052856503E+04 0.  0.
        5    1    3    3  502    0  0.15019700372E+04 -0.12386016662E+04  0.35143263302E+03  0.19782757810E+04  0.46999998093E+01 0. -1.
       -5    1    3    3    0  502 -0.15019700372E+04  0.12386016662E+04  0.66306486190E+03  0.20566295683E+04  0.46999998093E+01 0.  1.
</event>
<event>
 5   0  0.1546846E-07  0.3895810E+04  0.7818609E-02  0.8025901E-01
        2   -1    0    0  501    0  0.00000000000E+00  0.00000000000E+00  0.23620554283E+04  0.23620554283E+04  0.25500000920E-02 0.  1.
       -2   -1    0    0    0  501  0.00000000000E+00  0.00000000000E+00 -0.16063692329E+04  0.16063692329E+04  0.25500000920E-02 0. -1.
    10030    2    1    2    0    0  0.00000000000E+00  0.00000000000E+00  0.75568619537E+03  0.39684246612E+04  0.38958096291E+04 0.  0.
        2    1    3    3  502    0  0.12404079808E+04  0.14999927166E+04  0.45503860171E+03  0.19989122636E+04  0.25500000920E-02 0. -1.
       -2    1    3    3    0  502 -0.12404079808E+04 -0.14999927166E+04  0.30064759367E+03  0.19695123976E+04  0.25500000920E-02 0.  1.
</event>
<event>
 5   0  0.1503228E-07  0.3883464E+04  0.7818609E-02  0.8028477E-01
        2   -1    0    0  501    0  0.00000000000E+00  0.00000000000E+00  0.16309308353E+04  0.16309308353E+04  0.25500000920E-02 0.  1.
       -2   -1    0    0    0  501  0.00000000000E+00  0.00000000000E+00 -0.23117612501E+04  0.23117612501E+04  0.25500000920E-02 0. -1.
    10030    2    1    2    0    0  0.00000000000E+00  0.00000000000E+00 -0.68083041475E+03  0.39426920854E+04  0.38834637666E+04 0.  0.
        3    1    3    3  502    0 -0.13580408632E+04 -0.92765295542E+03  0.70756215353E+03  0.17903796254E+04  0.10100000352E+00 0.  1.
       -3    1    3    3    0  502  0.13580408632E+04  0.92765295542E+03 -0.13883925683E+04  0.21523124600E+04  0.10100000352E+00 0. -1.
</event>
<event>
 5   0  0.1503228E-07  0.3889561E+04  0.7818609E-02  0.8027204E-01
        2   -1    0    0  501    0  0.00000000000E+00  0.00000000000E+00  0.27792179414E+04  0.27792179414E+04  0.25500000920E-02 0. -1.
       -2   -1    0    0    0  501  0.00000000000E+00  0.00000000000E+00 -0.13608760767E+04  0.13608760767E+04  0.25500000920E-02 0.  1.
    10030    2    1    2    0    0  0.00000000000E+00  0.00000000000E+00  0.14183418647E+04  0.41400940181E+04  0.38895610078E+04 0.  0.
        3    1    3    3  502    0  0.99359667038E+03  0.13565130299E+04 -0.33091189486E+03  0.17137282853E+04  0.10100000352E+00 0.  1.
       -3    1    3    3    0  502 -0.99359667038E+03 -0.13565130299E+04  0.17492537596E+04  0.24263657328E+04  0.10100000352E+00 0. -1.
</event>
<event>
 5   0  0.1546846E-07  0.3939926E+04  0.7818609E-02  0.8016776E-01
        2   -1    0    0  501    0  0.00000000000E+00  0.00000000000E+00  0.14751533782E+04  0.14751533782E+04  0.25500000920E-02 0.  1.
       -2   -1    0    0    0  501  0.00000000000E+00  0.00000000000E+00 -0.26307458629E+04  0.26307458629E+04  0.25500000920E-02 0. -1.
    10030    2    1    2    0    0  0.00000000000E+00  0.00000000000E+00 -0.11555924847E+04  0.41058992410E+04  0.39399257083E+04 0.  0.
        2    1    3    3  502    0 -0.95262004094E+02  0.60632690241E+03 -0.25285622718E+04  0.26019866111E+04  0.25500000920E-02 0. -1.
       -2    1    3    3    0  502  0.95262004094E+02 -0.60632690241E+03  0.13729697871E+04  0.15039126299E+04  0.25500000920E-02 0.  1.
</event>
<event>
 5   0  0.4750125E-08  0.3908299E+04  0.7818609E-02  0.8023305E-01
        4   -1    0    0  501    0  0.00000000000E+00  0.00000000000E+00  0.18079366100E+04  0.18079370561E+04  0.12699999809E+01 0.  1.
       -4   -1    0    0    0  501  0.00000000000E+00  0.00000000000E+00 -0.21121858186E+04  0.21121862004E+04  0.12699999809E+01 0. -1.
    10030    2    1    2    0    0  0.00000000000E+00  0.00000000000E+00 -0.30424920855E+03  0.39201232564E+04  0.39082987046E+04 0.  0.
        5    1    3    3  502    0  0.10620167436E+04 -0.14094413268E+04 -0.99387348925E+03  0.20253915720E+04  0.46999998093E+01 0. -1.
       -5    1    3    3    0  502 -0.10620167436E+04  0.14094413268E+04  0.68962428070E+03  0.18947316844E+04  0.46999998093E+01 0.  1.
</event>
<event>
 5   0  0.1503228E-07  0.3853399E+04  0.7818609E-02  0.8034792E-01
       -2   -1    0    0    0  501  0.00000000000E+00  0.00000000000E+00  0.18125326955E+04  0.18125326955E+04  0.25500000920E-02 0. -1.
        2   -1    0    0  501    0  0.00000000000E+00  0.00000000000E+00 -0.20480576656E+04  0.20480576656E+04  0.25500000920E-02 0.  1.
    10030    2    1    2    0    0  0.00000000000E+00  0.00000000000E+00 -0.23552497016E+03  0.38605903611E+04  0.38533992688E+04 0.  0.
        3    1    3    3  502    0 -0.11039139025E+04 -0.12277102162E+04 -0.11127286808E+04  0.19909955817E+04  0.10100000352E+00 0.  1.
       -3    1    3    3    0  502  0.11039139025E+04  0.12277102162E+04  0.87720371061E+03  0.18695947794E+04  0.10100000352E+00 0. -1.
</event>
<event>
 5   0  0.4750125E-08  0.4065526E+04  0.7818609E-02  0.7991457E-01
        1   -1    0    0  501    0  0.00000000000E+00  0.00000000000E+00  0.20436415392E+04  0.20436415392E+04  0.50400001928E-02 0.  1.
       -1   -1    0    0    0  501  0.00000000000E+00  0.00000000000E+00 -0.20219426900E+04  0.20219426900E+04  0.50400001928E-02 0. -1.
    10030    2    1    2    0    0  0.00000000000E+00  0.00000000000E+00  0.21698849197E+02  0.40655842293E+04  0.40655263233E+04 0.  0.
        1    1    3    3  502    0  0.16492122700E+03  0.18706107022E+04  0.78915522341E+03  0.20369460909E+04  0.50400001928E-02 0.  1.
       -1    1    3    3    0  502 -0.16492122700E+03 -0.18706107022E+04 -0.76745637421E+03  0.20286381384E+04  0.50400001928E-02 0. -1.
</event>
<event>
 5   0  0.1538018E-07  0.3843461E+04  0.7818609E-02  0.8036892E-01
       -2   -1    0    0    0  501  0.00000000000E+00  0.00000000000E+00  0.29017792474E+04  0.29017792474E+04  0.25500000920E-02 0. -1.
        2   -1    0    0  501    0  0.00000000000E+00  0.00000000000E+00 -0.12726842862E+04  0.12726842862E+04  0.25500000920E-02 0.  1.
    10030    2    1    2    0    0  0.00000000000E+00  0.00000000000E+00  0.16290949612E+04  0.41744635336E+04  0.38434613828E+04 0.  0.
        1    1    3    3  502    0  0.32170860267E+03  0.65502525789E+02  0.28710942443E+04  0.28898043473E+04  0.50400001928E-02 0. -1.
       -1    1    3    3    0  502 -0.32170860267E+03 -0.65502525789E+02 -0.12419992831E+04  0.12846591864E+04  0.50400001928E-02 0.  1.
</event>
<event>
 5   0  0.1546846E-07  0.3911709E+04  0.7818609E-02  0.8022598E-01
       -2   -1    0    0    0  501  0.00000000000E+00  0.00000000000E+00  0.20547988094E+04  0.20547988094E+04  0.25500000920E-02 0. -1.
        2   -1    0    0  501    0  0.00000000000E+00  0.00000000000E+00 -0.18616744379E+04  0.18616744379E+04  0.25500000920E-02 0.  1.
    10030    2    1    2    0    0  0.00000000000E+00  0.00000000000E+00  0.19312437152E+03  0.39164732473E+04  0.39117087921E+04 0.  0.
        2    1    3    3  502    0 -0.90904163818E+02  0.18066139307E+04 -0.64815083969E+03  0.19215142395E+04  0.25500000920E-02 0.  1.
       -2    1    3    3    0  502  0.90904163818E+02 -0.18066139307E+04  0.84127521121E+03  0.19949590078E+04  0.25500000920E-02 0. -1.
</event>
<event>
 5   0  0.4762788E-08  0.3834676E+04  0.7818609E-02  0.8038754E-01
       -1   -1    0    0    0  501  0.00000000000E+00  0.00000000000E+00  0.12926488495E+04  0.12926488495E+04  0.50400001928E-02 0.  1.
        1   -1    0    0  501    0  0.00000000000E+00  0.00000000000E+00 -0.28439156039E+04  0.28439156039E+04  0.50400001928E-02 0. -1.
    10030    2    1    2    0    0  0.00000000000E+00  0.00000000000E+00 -0.15512667543E+04  0.41365644534E+04  0.38346755970E+04 0.  0.
        2    1    3    3  502    0  0.99649789931E+03  0.13894446147E+04 -0.17114677556E+04  0.24192325806E+04  0.25500000920E-02 0. -1.
       -2    1    3    3    0  502 -0.99649789931E+03 -0.13894446147E+04  0.16020100130E+03  0.17173318728E+04  0.25500000920E-02 0.  1.
</event>
<event>
 5   0  0.1501585E-07  0.3885409E+04  0.7818609E-02  0.8028071E-01
        2   -1    0    0  501    0  0.00000000000E+00  0.00000000000E+00  0.16252463820E+04  0.16252463820E+04  0.25500000920E-02 0. -1.
       -2   -1    0    0    0  501  0.00000000000E+00  0.00000000000E+00 -0.23221717459E+04  0.23221717459E+04  0.25500000920E-02 0.  1.
    10030    2    1    2    0    0  0.00000000000E+00  0.00000000000E+00 -0.69692536384E+03  0.39474181279E+04  0.38854092337E+04 0.  0.
        5    1    3    3  502    0  0.57694037796E+03 -0.38999639747E+03  0.14940748284E+04  0.16484050087E+04  0.46999998093E+01 0. -1.
       -5    1    3    3    0  502 -0.57694037796E+03  0.38999639747E+03 -0.21910001923E+04  0.22990131192E+04  0.46999998093E+01 0.  1.
</event>
<event>
 5   0  0.4750125E-08  0.3900696E+04  0.7818609E-02  0.8024884E-01
       -1   -1    0    0    0  501  0.00000000000E+00  0.00000000000E+00  0.20329607272E+04  0.20329607272E+04  0.50400001928E-02 0.  1.
        1   -1    0    0  501    0  0.00000000000E+00  0.00000000000E+00 -0.18710927450E+04  0.18710927450E+04  0.50400001928E-02 0. -1.
    10030    2    1    2    0    0  0.00000000000E+00  0.00000000000E+00  0.16186798219E+03  0.39040534722E+04  0.39006963827E+04 0.  0.
        3    1    3    3  502    0  0.70953136729E+03  0.24397378607E+03  0.18827333626E+04  0.20267320726E+04  0.10100000352E+00 0.  1.
       -3    1    3    3    0  502 -0.70953136729E+03 -0.24397378607E+03 -0.17208653804E+04  0.18773213995E+04  0.10100000352E+00 0. -1.
</event>
<event>
 5   0  0.4750125E-08  0.3893775E+04  0.7818609E-02  0.8026325E-01
       -1   -1    0    0    0  501  0.00000000000E+00  0.00000000000E+00  0.13433936466E+04  0.13433936466E+04  0.50400001928E-02 0.  1.
        1   -1    0    0  501    0  0.00000000000E+00  0.00000000000E+00 -0.28214896533E+04  0.28214896533E+04  0.50400001928E-02 0. -1.
    10030    2    1    2    0    0  0.00000000000E+00  0.00000000000E+00 -0.14780960067E+04  0.41648832999E+04  0.38937751729E+04 0.  0.
        5    1    3    3  502    0  0.42035373794E+03 -0.88048712387E+03 -0.25411042060E+04  0.27219822770E+04  0.46999998093E+01 0. -1.
       -5    1    3    3    0  502 -0.42035373794E+03  0.88048712387E+03  0.10630081993E+04  0.14429010230E+04  0.46999998093E+01 0.  1.
</event>
<event>
 5   0  0.4750125E-08  0.3917483E+04  0.7818609E-02  0.8021403E-01
        1   -1    0    0  501    0  0.00000000000E+00  0.00000000000E+00  0.28636899410E+04  0.28636899410E+04  0.50400001928E-02 0.  1.
       -1   -1    0    0    0  501  0.00000000000E+00  0.00000000000E+00 -0.13397638195E+04  0.13397638195E+04  0.50400001928E-02 0. -1.
    10030    2    1    2    0    0  0.00000000000E+00  0.00000000000E+00  0.15239261215E+04  0.42034537605E+04  0.39174829538E+04 0.  0.
        4    1    3    3  502    0 -0.50420849355E+03 -0.73913610465E+03  0.26316052294E+04  0.27795496186E+04  0.12699999809E+01 0.  1.
       -4    1    3    3    0  502  0.50420849355E+03  0.73913610465E+03 -0.11076791079E+04  0.14239041419E+04  0.12699999809E+01 0. -1.
</event>
<event>
 5   0  0.1520986E-07  0.3937389E+04  0.7818609E-02  0.8017298E-01
       -2   -1    0    0    0  501  0.00000000000E+00  0.00000000000E+00  0.17736236349E+04  0.17736236349E+04  0.25500000920E-02 0. -1.
        2   -1    0    0  501    0  0.00000000000E+00  0.00000000000E+00 -0.21852198832E+04  0.21852198832E+04  0.25500000920E-02 0.  1.
    10030    2    1    2    0    0  0.00000000000E+00  0.00000000000E+00 -0.41159624824E+03  0.39588435181E+04  0.39373887958E+04 0.  0.
        4    1    3    3  502    0  0.10707418798E+04  0.76767556544E+03 -0.16766232599E+04  0.21323416977E+04  0.12699999809E+01 0.  1.
       -4    1    3    3    0  502 -0.10707418798E+04 -0.76767556544E+03  0.12650270117E+04  0.18265018204E+04  0.12699999809E+01 0. -1.
</event>
<event>
 5   0  0.1546846E-07  0.3892612E+04  0.7818609E-02  0.8026568E-01
        2   -1    0    0  501    0  0.00000000000E+00  0.00000000000E+00  0.32271346825E+04  0.32271346825E+04  0.25500000920E-02 0.  1.
       -2   -1    0    0    0  501  0.00000000000E+00  0.00000000000E+00 -0.11738295889E+04  0.11738295889E+04  0.25500000920E-02 0. -1.
    10030    2    1    2    0    0  0.00000000000E+00  0.00000000000E+00  0.20533050936E+04  0.44009642715E+04  0.38926115541E+04 0.  0.
        2    1    3    3  502    0 -0.16869270239E+03  0.19113703663E+04  0.65801592580E+03  0.20284917707E+04  0.25500000920E-02 0. -1.
       -2    1    3    3    0  502  0.16869270239E+03 -0.19113703663E+04  0.13952891678E+04  0.23724725008E+04  0.25500000920E-02 0.  1.
</event>
<event>
 5   0  0.1520986E-07  0.3890704E+04  0.7818609E-02  0.8026965E-01
       -2   -1    0    0    0  501  0.00000000000E+00  0.00000000000E+00  0.16336698332E+04  0.16336698332E+04  0.25500000920E-02 0.  1.
        2   -1    0    0  501    0  0.00000000000E+00  0.00000000000E+00 -0.23164992243E+04  0.23164992243E+04  0.25500000920E-02 0. -1.
    10030    2    1    2    0    0  0.00000000000E+00  0.00000000000E+00 -0.68282939106E+03  0.39501690575E+04  0.38907042557E+04 0.  0.
        4    1    3    3  502    0  0.35917524913E+01 -0.95986867695E+03 -0.20593254662E+04  0.22720439622E+04  0.12699999809E+01 0. -1.
       -4    1    3    3    0  502 -0.35917524913E+01  0.95986867695E+03  0.13764960751E+04  0.16781250953E+04  0.12699999809E+01 0.  1.
</event>
<event>
 5   0  0.1538018E-07  0.3870831E+04  0.7818609E-02  0.8031123E-01
        2   -1    0    0  501    0  0.00000000000E+00  0.00000000000E+00  0.18218022933E+04  0.18218022933E+04  0.25500000920E-02 0. -1.
       -2   -1    0    0    0  501  0.00000000000E+00  0.00000000000E+00 -0.20561144794E+04  0.20561144794E+04  0.25500000920E-02 0.  1.
    10030    2    1    2    0    0  0.00000000000E+00  0.00000000000E+00 -0.23431218613E+03  0.38779167727E+04  0.38708314734E+04 0.  0.
        1    1    3    3  502    0  0.32316071742E+03  0.87402584945E+03  0.15822625579E+04  0.18362758064E+04  0.50400001928E-02 0. -1.
       -1    1    3    3    0  502 -0.32316071742E+03 -0.87402584945E+03 -0.18165747441E+04  0.20416409664E+04  0.50400001928E-02 0.  1.
</event>
<event>
 5   0  0.1503228E-07  0.3918451E+04  0.7818609E-02  0.8021203E-01
       -2   -1    0    0    0  501  0.00000000000E+00  0.00000000000E+00  0.17854944171E+04  0.17854944171E+04  0.25500000920E-02 0. -1.
        2   -1    0    0  501    0  0.00000000000E+00  0.00000000000E+00 -0.21498606507E+04  0.21498606507E+04  0.25500000920E-02 0.  1.
    10030    2    1    2    0    0  0.00000000000E+00  0.00000000000E+00 -0.36436623353E+03  0.39353550678E+04  0.39184508109E+04 0.  0.
        3    1    3    3  502    0  0.93049726573E+03 -0.32130846908E+03  0.15190844759E+04  0.18101607522E+04  0.10100000352E+00 0. -1.
       -3    1    3    3    0  502 -0.93049726573E+03  0.32130846908E+03 -0.18834507094E+04  0.21251943155E+04  0.10100000352E+00 0.  1.
</event>
<event>
 5   0  0.4750125E-08  0.3882161E+04  0.7818609E-02  0.8028750E-01
       -1   -1    0    0    0  501  0.00000000000E+00  0.00000000000E+00  0.20595806495E+04  0.20595806495E+04  0.50400001928E-02 0. -1.
        1   -1    0    0  501    0  0.00000000000E+00  0.00000000000E+00 -0.18293988321E+04  0.18293988321E+04  0.50400001928E-02 0.  1.
    10030    2    1    2    0    0  0.00000000000E+00  0.00000000000E+00  0.23018181736E+03  0.38889794816E+04  0.38821614778E+04 0.  0.
        1    1    3    3  502    0 -0.11595539780E+04 -0.10011809997E+04 -0.10790032061E+04  0.18738134221E+04  0.50400001928E-02 0.  1.
       -1    1    3    3    0  502  0.11595539780E+04  0.10011809997E+04  0.13091850234E+04  0.20151660596E+04  0.50400001928E-02 0. -1.
</event>
<event>
 5   0  0.1546846E-07  0.3923499E+04  0.7818609E-02  0.8020160E-01
       -2   -1    0    0    0  501  0.00000000000E+00  0.00000000000E+00  0.21911524473E+04  0.21911524473E+04  0.25500000920E-02 0.  1.
        2   -1    0    0  501    0  0.00000000000E+00  0.00000000000E+00 -0.17563636473E+04  0.17563636473E+04  0.25500000920E-02 0. -1.
    10030    2    1    2    0    0  0.00000000000E+00  0.00000000000E+00  0.43478880005E+03  0.39475160946E+04  0.39234986958E+04 0.  0.
        2    1    3    3  502    0  0.31288536925E+03  0.23386658320E+03 -0.17168382985E+04  0.17607170631E+04  0.25500000920E-02 0. -1.
       -2    1    3    3    0  502 -0.31288536925E+03 -0.23386658320E+03  0.21516270985E+04  0.21867990315E+04  0.25500000920E-02 0.  1.
</event>
<event>
 5   0  0.4750125E-08  0.3914905E+04  0.7818609E-02  0.8021936E-01
       -1   -1    0    0    0  501  0.00000000000E+00  0.00000000000E+00  0.26569675615E+04  0.26569675615E+04  0.50400001928E-02 0. -1.
        1   -1    0    0  501    0  0.00000000000E+00  0.00000000000E+00 -0.14421027179E+04  0.14421027179E+04  0.50400001928E-02 0.  1.
    10030    2    1    2    0    0  0.00000000000E+00  0.00000000000E+00  0.12148648436E+04  0.40990702794E+04  0.39149049244E+04 0.  0.
        4    1    3    3  502    0 -0.67977775869E+03 -0.10552602194E+04  0.21800696505E+04  0.25156266070E+04  0.12699999809E+01 0. -1.
       -4    1    3    3    0  502  0.67977775869E+03  0.10552602194E+04 -0.96520480684E+03  0.15834436725E+04  0.12699999809E+01 0.  1.
</event>
<event>
 5   0  0.1520986E-07  0.4070120E+04  0.7818609E-02  0.7990549E-01
       -2   -1    0    0    0  501  0.00000000000E+00  0.00000000000E+00  0.20684795924E+04  0.20684795924E+04  0.25500000920E-02 0.  1.
        2   -1    0    0  501    0  0.00000000000E+00  0.00000000000E+00 -0.20021802183E+04  0.20021802183E+04  0.25500000920E-02 0. -1.
    10030    2    1    2    0    0  0.00000000000E+00  0.00000000000E+00  0.66299374055E+02  0.40706598107E+04  0.40701198615E+04 0.  0.
        4    1    3    3  502    0 -0.22524869977E+03 -0.72708791779E+03  0.19207456863E+04  0.20660734307E+04  0.12699999809E+01 0.  1.
       -4    1    3    3    0  502  0.22524869977E+03  0.72708791779E+03 -0.18544463122E+04  0.20045863800E+04  0.12699999809E+01 0. -1.
</event>
<event>
 5   0  0.1520986E-07  0.3892444E+04  0.7818609E-02  0.8026603E-01
        2   -1    0    0  501    0  0.00000000000E+00  0.00000000000E+00  0.27722445189E+04  0.27722445189E+04  0.25500000920E-02 0. -1.
       -2   -1    0    0    0  501  0.00000000000E+00  0.00000000000E+00 -0.13663224564E+04  0.13663224564E+04  0.25500000920E-02 0.  1.
    10030    2    1    2    0    0  0.00000000000E+00  0.00000000000E+00  0.14059220625E+04  0.41385669753E+04  0.38924439319E+04 0.  0.
        4    1    3    3  502    0 -0.12604536071E+04  0.84725850142E+02  0.22770659911E+04  0.26040262875E+04  0.12699999809E+01 0. -1.
       -4    1    3    3    0  502  0.12604536071E+04 -0.84725850142E+02 -0.87114392859E+03  0.15345406878E+04  0.12699999809E+01 0.  1.
</event>
<event>
 5   0  0.4750125E-08  0.3889250E+04  0.7818609E-02  0.8027269E-01
        1   -1    0    0  501    0  0.00000000000E+00  0.00000000000E+00  0.13675413560E+04  0.13675413560E+04  0.50400001928E-02 0.  1.
       -1   -1    0    0    0  501  0.00000000000E+00  0.00000000000E+00 -0.27652300867E+04  0.27652300867E+04  0.50400001928E-02 0. -1.
    10030    2    1    2    0    0  0.00000000000E+00  0.00000000000E+00 -0.13976887307E+04  0.41327714427E+04  0.38892500575E+04 0.  0.
        1    1    3    3  502    0 -0.10837359377E+04  0.57197199585E+03  0.90564324806E+03  0.15237536676E+04  0.50400001928E-02 0.  1.
       -1    1    3    3    0  502  0.10837359377E+04 -0.57197199585E+03 -0.23033319787E+04  0.26090177751E+04  0.50400001928E-02 0. -1.
</event>
<event>
 5   0  0.4750125E-08  0.3894486E+04  0.7818609E-02  0.8026177E-01
       -1   -1    0    0    0  501  0.00000000000E+00  0.00000000000E+00  0.18194627755E+04  0.18194627755E+04  0.50400001928E-02 0. -1.
        1   -1    0    0  501    0  0.00000000000E+00  0.00000000000E+00 -0.20839972316E+04  0.20839972316E+04  0.50400001928E-02 0.  1.
    10030    2    1    2    0    0  0.00000000000E+00  0.00000000000E+00 -0.26453445615E+03  0.39034600071E+04  0.38944860442E+04 0.  0.
        5    1    3    3  502    0 -0.11436939435E+03 -0.14768072138E+04  0.11346443403E+04  0.18658723895E+04  0.46999998093E+01 0. -1.
       -5    1    3    3    0  502  0.11436939435E+03  0.14768072138E+04 -0.13991787965E+04  0.20375876176E+04  0.46999998093E+01 0.  1.
</event>
<event>
 5   0  0.1503228E-07  0.3903450E+04  0.7818609E-02  0.8024312E-01
        2   -1    0    0  501    0  0.00000000000E+00  0.00000000000E+00  0.26808826095E+04  0.26808826095E+04  0.25500000920E-02 0.  1.
       -2   -1    0    0    0  501  0.00000000000E+00  0.00000000000E+00 -0.14208866264E+04  0.14208866264E+04  0.25500000920E-02 0. -1.
    10030    2    1    2    0    0  0.00000000000E+00  0.00000000000E+00  0.12599959831E+04  0.41017692360E+04  0.39034498828E+04 0.  0.
        3    1    3    3  502    0  0.10073496927E+04  0.15034946929E+04  0.13978638032E+04  0.22867603542E+04  0.10100000352E+00 0.  1.
       -3    1    3    3    0  502 -0.10073496927E+04 -0.15034946929E+04 -0.13786782010E+03  0.18150088818E+04  0.10100000352E+00 0. -1.
</event>
<event>
 5   0  0.4750125E-08  0.3898720E+04  0.7818609E-02  0.8025296E-01
        3   -1    0    0  501    0  0.00000000000E+00  0.00000000000E+00  0.30714000953E+04  0.30714000969E+04  0.10100000352E+00 0. -1.
       -3   -1    0    0    0  501  0.00000000000E+00  0.00000000000E+00 -0.12372219251E+04  0.12372219292E+04  0.10100000352E+00 0.  1.
    10030    2    1    2    0    0  0.00000000000E+00  0.00000000000E+00  0.18341781702E+04  0.43086220261E+04  0.38987195595E+04 0.  0.
        4    1    3    3  502    0 -0.15710466527E+04 -0.71487873330E+03 -0.84121008493E+02  0.17280963935E+04  0.12699999809E+01 0.  1.
       -4    1    3    3    0  502  0.15710466527E+04  0.71487873330E+03  0.19182991787E+04  0.25805256326E+04  0.12699999809E+01 0. -1.
</event>
<event>
 5   0  0.4750125E-08  0.3892451E+04  0.7818609E-02  0.8026601E-01
       -1   -1    0    0    0  501  0.00000000000E+00  0.00000000000E+00  0.15469565110E+04  0.15469565110E+04  0.50400001928E-02 0. -1.
        1   -1    0    0  501    0  0.00000000000E+00  0.00000000000E+00 -0.24485458709E+04  0.24485458709E+04  0.50400001928E-02 0.  1.
    10030    2    1    2    0    0  0.00000000000E+00  0.00000000000E+00 -0.90158935987E+03  0.39955023819E+04  0.38924511442E+04 0.  0.
        4    1    3    3  502    0  0.46749082397E+03 -0.49479356446E+01  0.14884602112E+04  0.15601562632E+04  0.12699999809E+01 0. -1.
       -4    1    3    3    0  502 -0.46749082397E+03  0.49479356446E+01 -0.23900495711E+04  0.24353461186E+04  0.12699999809E+01 0.  1.
</event>
<event>
 5   0  0.1520986E-07  0.3825264E+04  0.7818609E-02  0.8040755E-01
       -2   -1    0    0    0  501  0.00000000000E+00  0.00000000000E+00  0.13202819771E+04  0.13202819771E+04  0.25500000920E-02 0.  1.
        2   -1    0    0  501    0  0.00000000000E+00  0.00000000000E+00 -0.27707420140E+04  0.27707420140E+04  0.25500000920E-02 0. -1.
    10030    2    1    2    0    0  0.00000000000E+00  0.00000000000E+00 -0.14504600370E+04  0.40910239911E+04  0.38252637787E+04 0.  0.
        4    1    3    3  502    0  0.58474829583E+03  0.13790231141E+04  0.54673676345E+03  0.15945400654E+04  0.12699999809E+01 0.  1.
       -4    1    3    3    0  502 -0.58474829583E+03 -0.13790231141E+04 -0.19971968004E+04  0.24964839257E+04  0.12699999809E+01 0. -1.
</event>
<event>
 5   0  0.1538018E-07  0.3912659E+04  0.7818609E-02  0.8022401E-01
        2   -1    0    0  501    0  0.00000000000E+00  0.00000000000E+00  0.20794114290E+04  0.20794114290E+04  0.25500000920E-02 0. -1.
       -2   -1    0    0    0  501  0.00000000000E+00  0.00000000000E+00 -0.18405330765E+04  0.18405330765E+04  0.25500000920E-02 0.  1.
    10030    2    1    2    0    0  0.00000000000E+00  0.00000000000E+00  0.23887835246E+03  0.39199445055E+04  0.39126592056E+04 0.  0.
        1    1    3    3  502    0  0.67655203226E+03 -0.25740996538E+03  0.19403058876E+04  0.20709344461E+04  0.50400001928E-02 0. -1.
       -1    1    3    3    0  502 -0.67655203226E+03  0.25740996538E+03 -0.17014275351E+04  0.18490100594E+04  0.50400001928E-02 0.  1.
</event>
<event>
 5   0  0.4762788E-08  0.3921190E+04  0.7818609E-02  0.8020636E-01
        1   -1    0    0  501    0  0.00000000000E+00  0.00000000000E+00  0.12743928594E+04  0.12743928594E+04  0.50400001928E-02 0.  1.
       -1   -1    0    0    0  501  0.00000000000E+00  0.00000000000E+00 -0.30162856225E+04  0.30162856225E+04  0.50400001928E-02 0. -1.
    10030    2    1    2    0    0  0.00000000000E+00  0.00000000000E+00 -0.17418927631E+04  0.42906784819E+04  0.39211900537E+04 0.  0.
        2    1    3    3  502    0  0.10006352340E+04  0.11081688614E+04  0.51946639469E+03  0.15808714154E+04  0.25500000920E-02 0.  1.
       -2    1    3    3    0  502 -0.10006352340E+04 -0.11081688614E+04 -0.22613591578E+04  0.27098070665E+04  0.25500000920E-02 0. -1.
</event>
<event>
 5   0  0.1546846E-07  0.3711218E+04  0.7818609E-02  0.8065480E-01
        2   -1    0    0  501    0  0.00000000000E+00  0.00000000000E+00  0.23733726274E+04  0.23733726274E+04  0.25500000920E-02 0.  1.
       -2   -1    0    0    0  501  0.00000000000E+00  0.00000000000E+00 -0.14507978304E+04  0.14507978304E+04  0.25500000920E-02 0. -1.
    10030    2    1    2    0    0  0.00000000000E+00  0.00000000000E+00  0.92257479704E+03  0.38241704578E+04  0.37112175137E+04 0.  0.
        2    1    3    3  502    0  0.36156184705E+00  0.70661787267E+03 -0.13067354996E+04  0.14855526294E+04  0.25500000920E-02 0. -1.
       -2    1    3    3    0  502 -0.36156184705E+00 -0.70661787267E+03  0.22293102966E+04  0.23386178284E+04  0.25500000920E-02 0.  1.
</event>
<event>
 5   0  0.1538018E-07  0.3831526E+04  0.7818609E-02  0.8039423E-01
       -2   -1    0    0    0  501  0.00000000000E+00  0.00000000000E+00  0.14717683744E+04  0.14717683744E+04  0.25500000920E-02 0. -1.
        2   -1    0    0  501    0  0.00000000000E+00  0.00000000000E+00 -0.24936991731E+04  0.24936991731E+04  0.25500000920E-02 0.  1.
    10030    2    1    2    0    0  0.00000000000E+00  0.00000000000E+00 -0.10219307987E+04  0.39654675475E+04  0.38315258466E+04 0.  0.
        1    1    3    3  502    0 -0.40613761965E+03  0.18716175958E+04 -0.46190155082E+03  0.19700896511E+04  0.50400001928E-02 0.  1.
       -1    1    3    3    0  502  0.40613761965E+03 -0.18716175958E+04 -0.56002924784E+03  0.19953778964E+04  0.50400001928E-02 0. -1.
</event>
<event>
 5   0  0.1503228E-07  0.3853456E+04  0.7818609E-02  0.8034780E-01
       -2   -1    0    0    0  501  0.00000000000E+00  0.00000000000E+00  0.15596899845E+04  0.15596899845E+04  0.25500000920E-02 0.  1.
        2   -1    0    0  501    0  0.00000000000E+00  0.00000000000E+00 -0.23801404949E+04  0.23801404949E+04  0.25500000920E-02 0. -1.
    10030    2    1    2    0    0  0.00000000000E+00  0.00000000000E+00 -0.82045051038E+03  0.39398304795E+04  0.38534562625E+04 0.  0.
        3    1    3    3  502    0  0.17344252264E+03  0.17000994825E+04  0.49958641350E+03  0.17804513905E+04  0.10100000352E+00 0.  1.
       -3    1    3    3    0  502 -0.17344252264E+03 -0.17000994825E+04 -0.13200369239E+04  0.21593790890E+04  0.10100000352E+00 0. -1.
</event>
<event>
 5   0  0.1546846E-07  0.3898993E+04  0.7818609E-02  0.8025239E-01
        2   -1    0    0  501    0  0.00000000000E+00  0.00000000000E+00  0.16747349188E+04  0.16747349188E+04  0.25500000920E-02 0. -1.
       -2   -1    0    0    0  501  0.00000000000E+00  0.00000000000E+00 -0.22693359507E+04  0.22693359507E+04  0.25500000920E-02 0.  1.
    10030    2    1    2    0    0  0.00000000000E+00  0.00000000000E+00 -0.59460103190E+03  0.39440708696E+04  0.38989927721E+04 0.  0.
        2    1    3    3  502    0  0.35358050586E+03 -0.14248876887E+03 -0.22312658285E+04  0.22635965676E+04  0.25500000920E-02 0.  1.
       -2    1    3    3    0  502 -0.35358050586E+03  0.14248876887E+03  0.16366647966E+04  0.16804743020E+04  0.25500000920E-02 0. -1.
</event>
<event>
 5   0  0.4750125E-08  0.3898009E+04  0.7818609E-02  0.8025443E-01
        1   -1    0    0  501    0  0.00000000000E+00  0.00000000000E+00  0.18186857900E+04  0.18186857900E+04  0.50400001928E-02 0.  1.
       -1   -1    0    0    0  501  0.00000000000E+00  0.00000000000E+00 -0.20886614537E+04  0.20886614537E+04  0.50400001928E-02 0. -1.
    10030    2    1    2    0    0  0.00000000000E+00  0.00000000000E+00 -0.26997566376E+03  0.39073472437E+04  0.38980091873E+04 0.  0.
        5    1    3    3  502    0  0.76058458972E+03 -0.10998935901E+04  0.12862740937E+04  0.18554724363E+04  0.46999998093E+01 0.  1.
       -5    1    3    3    0  502 -0.76058458972E+03  0.10998935901E+04 -0.15562497575E+04  0.20518748074E+04  0.46999998093E+01 0. -1.
</event>
<event>
 5   0  0.1520986E-07  0.3893558E+04  0.7818609E-02  0.8026370E-01
        2   -1    0    0  501    0  0.00000000000E+00  0.00000000000E+00  0.20316953095E+04  0.20316953095E+04  0.25500000920E-02 0. -1.
       -2   -1    0    0    0  501  0.00000000000E+00  0.00000000000E+00 -0.18654123058E+04  0.18654123058E+04  0.25500000920E-02 0.  1.
    10030    2    1    2    0    0  0.00000000000E+00  0.00000000000E+00  0.16628300372E+03  0.38971076153E+04  0.38935584916E+04 0.  0.
        4    1    3    3  502    0  0.18781914042E+03 -0.31132739967E+03 -0.18311255705E+04  0.18668752629E+04  0.12699999809E+01 0.  1.
       -4    1    3    3    0  502 -0.18781914042E+03  0.31132739967E+03  0.19974085742E+04  0.20302323524E+04  0.12699999809E+01 0. -1.
</event>
<event>
 5   0  0.4750125E-08  0.3872456E+04  0.7818609E-02  0.8030782E-01
        1   -1    0    0  501    0  0.00000000000E+00  0.00000000000E+00  0.18317160217E+04  0.18317160217E+04  0.50400001928E-02 0. -1.
       -1   -1    0    0    0  501  0.00000000000E+00  0.00000000000E+00 -0.20467027796E+04  0.20467027796E+04  0.50400001928E-02 0.  1.
    10030    2    1    2    0    0  0.00000000000E+00  0.00000000000E+00 -0.21498675790E+03  0.38784188012E+04  0.38724556927E+04 0.  0.
        3    1    3    3  502    0  0.14652044814E+04 -0.59613102486E+03 -0.12258066765E+04  0.20011992378E+04  0.10100000352E+00 0.  1.
       -3    1    3    3    0  502 -0.14652044814E+04  0.59613102486E+03  0.10108199186E+04  0.18772195634E+04  0.10100000352E+00 0. -1.
</event>
<event>
 5   0  0.4750125E-08  0.3903157E+04  0.7818609E-02  0.8024373E-01
       -1   -1    0    0    0  501  0.00000000000E+00  0.00000000000E+00  0.17010902094E+04  0.17010902094E+04  0.50400001928E-02 0.  1.
        1   -1    0    0  501    0  0.00000000000E+00  0.00000000000E+00 -0.22389510835E+04  0.22389510835E+04  0.50400001928E-02 0. -1.
    10030    2    1    2    0    0  0.00000000000E+00  0.00000000000E+00 -0.53786087414E+03  0.39400412929E+04  0.39031565521E+04 0.  0.
        3    1    3    3  502    0  0.93221372252E+03 -0.40542115707E+03  0.14127262800E+04  0.17404551966E+04  0.10100000352E+00 0.  1.
       -3    1    3    3    0  502 -0.93221372252E+03  0.40542115707E+03 -0.19505871541E+04  0.21995860963E+04  0.10100000352E+00 0. -1.
</event>
<event>
 5   0  0.1503228E-07  0.3908956E+04  0.7818609E-02  0.8023169E-01
       -2   -1    0    0    0  501  0.00000000000E+00  0.00000000000E+00  0.27582767836E+04  0.27582767836E+04  0.25500000920E-02 0.  1.
        2   -1    0    0  501    0  0.00000000000E+00  0.00000000000E+00 -0.13849170613E+04  0.13849170613E+04  0.25500000920E-02 0. -1.
    10030    2    1    2    0    0  0.00000000000E+00  0.00000000000E+00  0.13733597223E+04  0.41431938449E+04  0.39089561662E+04 0.  0.
        3    1    3    3  502    0 -0.19703755132E+03 -0.10695536085E+04  0.24079430895E+04  0.26421503838E+04  0.10100000352E+00 0.  1.
       -3    1    3    3    0  502  0.19703755132E+03  0.10695536085E+04 -0.10345833672E+04  0.15010434611E+04  0.10100000352E+00 0. -1.
</event>
<event>
 5   0  0.4750125E-08  0.3883498E+04  0.7818609E-02  0.8028470E-01
        1   -1    0    0  501    0  0.00000000000E+00  0.00000000000E+00  0.18377086501E+04  0.18377086501E+04  0.50400001928E-02 0. -1.
       -1   -1    0    0    0  501  0.00000000000E+00  0.00000000000E+00 -0.20516794654E+04  0.20516794654E+04  0.50400001928E-02 0.  1.
    10030    2    1    2    0    0  0.00000000000E+00  0.00000000000E+00 -0.21397081533E+03  0.38893881155E+04  0.38834979597E+04 0.  0.
        3    1    3    3  502    0 -0.10689877401E+04 -0.37793186919E+03  0.14717371926E+04  0.18578422055E+04  0.10100000352E+00 0. -1.
       -3    1    3    3    0  502  0.10689877401E+04  0.37793186919E+03 -0.16857080079E+04  0.20315459100E+04  0.10100000352E+00 0.  1.
</event>
<event>
 5   0  0.4750125E-08  0.3909937E+04  0.7818609E-02  0.8022966E-01
       -1   -1    0    0    0  501  0.00000000000E+00  0.00000000000E+00  0.31128234844E+04  0.31128234845E+04  0.50400001928E-02 0.  1.
        1   -1    0    0  501    0  0.00000000000E+00  0.00000000000E+00 -0.12277927490E+04  0.12277927491E+04  0.50400001928E-02 0. -1.
    10030    2    1    2    0    0  0.00000000000E+00  0.00000000000E+00  0.18850307354E+04  0.43406162335E+04  0.39099371367E+04 0.  0.
        4    1    3    3  502    0 -0.35881446102E+03 -0.55434159167E+03  0.29852689940E+04  0.30574294754E+04  0.12699999809E+01 0.  1.
       -4    1    3    3    0  502  0.35881446102E+03  0.55434159167E+03 -0.11002382586E+04  0.12831867581E+04  0.12699999809E+01 0. -1.
</event>
<event>
 5   0  0.4750125E-08  0.3903490E+04  0.7818609E-02  0.8024304E-01
        3   -1    0    0  501    0  0.00000000000E+00  0.00000000000E+00  0.29828586573E+04  0.29828586590E+04  0.10100000352E+00 0. -1.
       -3   -1    0    0    0  501  0.00000000000E+00  0.00000000000E+00 -0.12770664878E+04  0.12770664918E+04  0.10100000352E+00 0.  1.
    10030    2    1    2    0    0  0.00000000000E+00  0.00000000000E+00  0.17057921695E+04  0.42599251508E+04  0.39034901517E+04 0.  0.
        4    1    3    3  502    0  0.18981652038E+03 -0.10999416682E+04  0.26001560035E+04  0.28296139031E+04  0.12699999809E+01 0. -1.
       -4    1    3    3    0  502 -0.18981652038E+03  0.10999416682E+04 -0.89436383400E+03  0.14303112477E+04  0.12699999809E+01 0.  1.
</event>
<event>
 5   0  0.4750125E-08  0.3917118E+04  0.7818609E-02  0.8021478E-01
        1   -1    0    0  501    0  0.00000000000E+00  0.00000000000E+00  0.21643713618E+04  0.21643713618E+04  0.50400001928E-02 0. -1.
       -1   -1    0    0    0  501  0.00000000000E+00  0.00000000000E+00 -0.17723173478E+04  0.17723173478E+04  0.50400001928E-02 0.  1.
    10030    2    1    2    0    0  0.00000000000E+00  0.00000000000E+00  0.39205401400E+03  0.39366887097E+04  0.39171177729E+04 0.  0.
        4    1    3    3  502    0  0.31851243769E+03  0.18208424616E+04 -0.45453545711E+03  0.19035549737E+04  0.12699999809E+01 0.  1.
       -4    1    3    3    0  502 -0.31851243769E+03 -0.18208424616E+04  0.84658947111E+03  0.20331337360E+04  0.12699999809E+01 0. -1.
</event>
<event>
 5   0  0.1503228E-07  0.3905701E+04  0.7818609E-02  0.8023844E-01
       -2   -1    0    0    0  501  0.00000000000E+00  0.00000000000E+00  0.18778226933E+04  0.18778226933E+04  0.25500000920E-02 0.  1.
        2   -1    0    0  501    0  0.00000000000E+00  0.00000000000E+00 -0.20308764804E+04  0.20308764804E+04  0.25500000920E-02 0. -1.
    10030    2    1    2    0    0  0.00000000000E+00  0.00000000000E+00 -0.15305378716E+03  0.39086991737E+04  0.39057014439E+04 0.  0.
        3    1    3    3  502    0  0.17051883336E+04 -0.76336076714E+03 -0.64550439551E+03  0.19766291632E+04  0.10100000352E+00 0. -1.
       -3    1    3    3    0  502 -0.17051883336E+04  0.76336076714E+03  0.49245060836E+03  0.19320700106E+04  0.10100000352E+00 0.  1.
</event>
<event>
 5   0  0.4750125E-08  0.3892283E+04  0.7818609E-02  0.8026636E-01
        1   -1    0    0  501    0  0.00000000000E+00  0.00000000000E+00  0.28317936255E+04  0.28317936255E+04  0.50400001928E-02 0. -1.
       -1   -1    0    0    0  501  0.00000000000E+00  0.00000000000E+00 -0.13374800868E+04  0.13374800869E+04  0.50400001928E-02 0.  1.
    10030    2    1    2    0    0  0.00000000000E+00  0.00000000000E+00  0.14943135386E+04  0.41692737123E+04  0.38922834348E+04 0.  0.
        1    1    3    3  502    0  0.12294176722E+04  0.56950332180E+02 -0.86769400909E+03  0.15058565823E+04  0.50400001928E-02 0.  1.
       -1    1    3    3    0  502 -0.12294176722E+04 -0.56950332180E+02  0.23620075477E+04  0.26634171300E+04  0.50400001928E-02 0. -1.
</event>
<event>
 5   0  0.1503228E-07  0.3894490E+04  0.7818609E-02  0.8026176E-01
        2   -1    0    0  501    0  0.00000000000E+00  0.00000000000E+00  0.15403010251E+04  0.15403010251E+04  0.25500000920E-02 0. -1.
       -2   -1    0    0    0  501  0.00000000000E+00  0.00000000000E+00 -0.24617031176E+04  0.24617031176E+04  0.25500000920E-02 0.  1.
    10030    2    1    2    0    0  0.00000000000E+00  0.00000000000E+00 -0.92140209244E+03  0.40020041427E+04  0.38944903829E+04 0.  0.
        3    1    3    3  502    0  0.10798778700E+04 -0.15279590066E+04 -0.10150078041E+04  0.21286229804E+04  0.10100000352E+00 0. -1.
       -3    1    3    3    0  502 -0.10798778700E+04  0.15279590066E+04  0.93605711614E+02  0.18733811624E+04  0.10100000352E+00 0.  1.
</event>
<event>
 5   0  0.1520986E-07  0.3919462E+04  0.7818609E-02  0.8020994E-01
        2   -1    0    0  501    0  0.00000000000E+00  0.00000000000E+00  0.16056651669E+04  0.16056651669E+04  0.25500000920E-02 0. -1.
       -2   -1    0    0    0  501  0.00000000000E+00  0.00000000000E+00 -0.23918720031E+04  0.23918720031E+04  0.25500000920E-02 0.  1.
    10030    2    1    2    0    0  0.00000000000E+00  0.00000000000E+00 -0.78620683615E+03  0.39975371700E+04  0.39194619830E+04 0.  0.
        4    1    3    3  502    0  0.18667887062E+04 -0.20622150720E+03 -0.96381813885E+03  0.21110126483E+04  0.12699999809E+01 0.  1.
       -4    1    3    3    0  502 -0.18667887062E+04  0.20622150720E+03  0.17761130270E+03  0.18865245218E+04  0.12699999809E+01 0. -1.
</event>
<event>
 5   0  0.4750125E-08  0.3895930E+04  0.7818609E-02  0.8025876E-01
       -1   -1    0    0    0  501  0.00000000000E+00  0.00000000000E+00  0.24964266901E+04  0.24964266901E+04  0.50400001928E-02 0.  1.
        1   -1    0    0  501    0  0.00000000000E+00  0.00000000000E+00 -0.15199996905E+04  0.15199996905E+04  0.50400001928E-02 0. -1.
    10030    2    1    2    0    0  0.00000000000E+00  0.00000000000E+00  0.97642699955E+03  0.40164263806E+04  0.38959300796E+04 0.  0.
        1    1    3    3  502    0  0.19050335640E+04  0.36775720157E+03  0.66727949602E+03  0.20517456385E+04  0.50400001928E-02 0.  1.
       -1    1    3    3    0  502 -0.19050335640E+04 -0.36775720157E+03  0.30914750353E+03  0.19646807421E+04  0.50400001928E-02 0. -1.
</event>
<event>
 5   0  0.4750125E-08  0.3875996E+04  0.7818609E-02  0.8030040E-01
        1   -1    0    0  501    0  0.00000000000E+00  0.00000000000E+00  0.14501934481E+04  0.14501934481E+04  0.50400001928E-02 0.  1.
       -1   -1    0    0    0  501  0.00000000000E+00  0.00000000000E+00 -0.25898865882E+04  0.25898865883E+04  0.50400001928E-02 0. -1.
    10030    2    1    2    0    0  0.00000000000E+00  0.00000000000E+00 -0.11396931402E+04  0.40400800363E+04  0.38759961618E+04 0.  0.
        3    1    3    3  502    0 -0.13503819393E+04 -0.79560055929E+03  0.61828767724E+03  0.16848712989E+04  0.10100000352E+00 0.  1.
       -3    1    3    3    0  502  0.13503819393E+04  0.79560055929E+03 -0.17579808174E+04  0.23552087374E+04  0.10100000352E+00 0. -1.
</event>
<event>
 5   0  0.1546846E-07  0.3894779E+04  0.7818609E-02  0.8026116E-01
        2   -1    0    0  501    0  0.00000000000E+00  0.00000000000E+00  0.26309510361E+04  0.26309510361E+04  0.25500000920E-02 0. -1.
       -2   -1    0    0    0  501  0.00000000000E+00  0.00000000000E+00 -0.14414280422E+04  0.14414280422E+04  0.25500000920E-02 0.  1.
    10030    2    1    2    0    0  0.00000000000E+00  0.00000000000E+00  0.11895229939E+04  0.40723790782E+04  0.38947793781E+04 0.  0.
        2    1    3    3  502    0 -0.41795047778E+03  0.20336586342E+03  0.25721020655E+04  0.26137615254E+04  0.25500000920E-02 0. -1.
       -2    1    3    3    0  502  0.41795047778E+03 -0.20336586342E+03 -0.13825790716E+04  0.14586175528E+04  0.25500000920E-02 0.  1.
</event>
<event>
 5   0  0.1503228E-07  0.3903916E+04  0.7818609E-02  0.8024215E-01
       -2   -1    0    0    0  501  0.00000000000E+00  0.00000000000E+00  0.18743249374E+04  0.18743249374E+04  0.25500000920E-02 0. -1.
        2   -1    0    0  501    0  0.00000000000E+00  0.00000000000E+00 -0.20328070692E+04  0.20328070692E+04  0.25500000920E-02 0.  1.
    10030    2    1    2    0    0  0.00000000000E+00  0.00000000000E+00 -0.15848213182E+03  0.39071320065E+04  0.39039164861E+04 0.  0.
        3    1    3    3  502    0 -0.24527426255E+03 -0.16461413990E+04  0.94150094951E+03  0.19121623931E+04  0.10100000352E+00 0. -1.
       -3    1    3    3    0  502  0.24527426255E+03  0.16461413990E+04 -0.10999830813E+04  0.19949696135E+04  0.10100000352E+00 0.  1.
</event>
<event>
 5   0  0.4750125E-08  0.3914242E+04  0.7818609E-02  0.8022074E-01
        1   -1    0    0  501    0  0.00000000000E+00  0.00000000000E+00  0.19849922133E+04  0.19849922133E+04  0.50400001928E-02 0.  1.
       -1   -1    0    0    0  501  0.00000000000E+00  0.00000000000E+00 -0.19296414111E+04  0.19296414111E+04  0.50400001928E-02 0. -1.
    10030    2    1    2    0    0  0.00000000000E+00  0.00000000000E+00  0.55350802170E+02  0.39146336244E+04  0.39142422896E+04 0.  0.
        4    1    3    3  502    0 -0.85830582625E+03 -0.42592254080E+03  0.17343695743E+04  0.19814485447E+04  0.12699999809E+01 0.  1.
       -4    1    3    3    0  502  0.85830582625E+03  0.42592254080E+03 -0.16790187721E+04  0.19331850797E+04  0.12699999809E+01 0. -1.
</event>
<event>
 5   0  0.4762788E-08  0.4005252E+04  0.7818609E-02  0.8003488E-01
       -1   -1    0    0    0  501  0.00000000000E+00  0.00000000000E+00  0.29522908873E+04  0.29522908873E+04  0.50400001928E-02 0. -1.
        1   -1    0    0  501    0  0.00000000000E+00  0.00000000000E+00 -0.13584399872E+04  0.13584399872E+04  0.50400001928E-02 0.  1.
    10030    2    1    2    0    0  0.00000000000E+00  0.00000000000E+00  0.15938509001E+04  0.43107308746E+04  0.40052515503E+04 0.  0.
        2    1    3    3  502    0 -0.75121234815E+03  0.14714091451E+04  0.20151301706E+04  0.26057848086E+04  0.25500000920E-02 0. -1.
       -2    1    3    3    0  502  0.75121234815E+03 -0.14714091451E+04 -0.42127927050E+03  0.17049460660E+04  0.25500000920E-02 0.  1.
</event>
<event>
 5   0  0.4750125E-08  0.3910160E+04  0.7818609E-02  0.8022919E-01
       -1   -1    0    0    0  501  0.00000000000E+00  0.00000000000E+00  0.19433235272E+04  0.19433235272E+04  0.50400001928E-02 0.  1.
        1   -1    0    0  501    0  0.00000000000E+00  0.00000000000E+00 -0.19669076789E+04  0.19669076789E+04  0.50400001928E-02 0. -1.
    10030    2    1    2    0    0  0.00000000000E+00  0.00000000000E+00 -0.23584151670E+02  0.39102312061E+04  0.39101600828E+04 0.  0.
        1    1    3    3  502    0 -0.63894198295E+03  0.10146403471E+04  0.15324497531E+04  0.19458016696E+04  0.50400001928E-02 0.  1.
       -1    1    3    3    0  502  0.63894198295E+03 -0.10146403471E+04 -0.15560339047E+04  0.19644295366E+04  0.50400001928E-02 0. -1.
</event>
<event>
 5   0  0.1546846E-07  0.3901690E+04  0.7818609E-02  0.8024678E-01
        2   -1    0    0  501    0  0.00000000000E+00  0.00000000000E+00  0.16977502246E+04  0.16977502246E+04  0.25500000920E-02 0.  1.
       -2   -1    0    0    0  501  0.00000000000E+00  0.00000000000E+00 -0.22416697690E+04  0.22416697690E+04  0.25500000920E-02 0. -1.
    10030    2    1    2    0    0  0.00000000000E+00  0.00000000000E+00 -0.54391954439E+03  0.39394199935E+04  0.39016895590E+04 0.  0.
        2    1    3    3  502    0  0.11674552811E+04  0.13692465802E+04  0.48899096238E+03  0.18646447898E+04  0.25500000920E-02 0.  1.
       -2    1    3    3    0  502 -0.11674552811E+04 -0.13692465802E+04 -0.10329105068E+04  0.20747752037E+04  0.25500000920E-02 0. -1.
</event>
<event>
 5   0  0.4750125E-08  0.3935837E+04  0.7818609E-02  0.8017617E-01
       -1   -1    0    0    0  501  0.00000000000E+00  0.00000000000E+00  0.10592581898E+04  0.10592581898E+04  0.50400001928E-02 0.  1.
        1   -1    0    0  501    0  0.00000000000E+00  0.00000000000E+00 -0.36560515160E+04  0.36560515160E+04  0.50400001928E-02 0. -1.
    10030    2    1    2    0    0  0.00000000000E+00  0.00000000000E+00 -0.25967933262E+04  0.47153097058E+04  0.39358366382E+04 0.  0.
        5    1    3    3  502    0 -0.74292851784E+03 -0.18189852327E+04 -0.14298018451E+04  0.24300217006E+04  0.46999998093E+01 0.  1.
       -5    1    3    3    0  502  0.74292851784E+03  0.18189852327E+04 -0.11669914812E+04  0.22852880052E+04  0.46999998093E+01 0. -1.
</event>
<event>
 5   0  0.4750125E-08  0.3888024E+04  0.7818609E-02  0.8027525E-01
        1   -1    0    0  501    0  0.00000000000E+00  0.00000000000E+00  0.14639412548E+04  0.14639412548E+04  0.50400001928E-02 0.  1.
       -1   -1    0    0    0  501  0.00000000000E+00  0.00000000000E+00 -0.25815125614E+04  0.25815125614E+04  0.50400001928E-02 0. -1.
    10030    2    1    2    0    0  0.00000000000E+00  0.00000000000E+00 -0.11175713066E+04  0.40454538162E+04  0.38880240424E+04 0.  0.
        3    1    3    3  502    0 -0.26147858438E+03 -0.18585885169E+04 -0.31861063670E+02  0.18771620769E+04  0.10100000352E+00 0. -1.
       -3    1    3    3    0  502  0.26147858438E+03  0.18585885169E+04 -0.10857102429E+04  0.21682917394E+04  0.10100000352E+00 0.  1.
</event>
<event>
 5   0  0.1503228E-07  0.3886018E+04  0.7818609E-02  0.8027943E-01
        2   -1    0    0  501    0  0.00000000000E+00  0.00000000000E+00  0.20405602621E+04  0.20405602621E+04  0.25500000920E-02 0. -1.
       -2   -1    0    0    0  501  0.00000000000E+00  0.00000000000E+00 -0.18501215267E+04  0.18501215267E+04  0.25500000920E-02 0.  1.
    10030    2    1    2    0    0  0.00000000000E+00  0.00000000000E+00  0.19043873544E+03  0.38906817888E+04  0.38860182539E+04 0.  0.
        3    1    3    3  502    0  0.85820578762E+03  0.13337577033E+04 -0.10285614596E+04  0.18903347512E+04  0.10100000352E+00 0.  1.
       -3    1    3    3    0  502 -0.85820578762E+03 -0.13337577033E+04  0.12190001951E+04  0.20003470376E+04  0.10100000352E+00 0. -1.
</event>
<event>
 5   0  0.1503228E-07  0.3869922E+04  0.7818609E-02  0.8031314E-01
        2   -1    0    0  501    0  0.00000000000E+00  0.00000000000E+00  0.26485066680E+04  0.26485066680E+04  0.25500000920E-02 0. -1.
       -2   -1    0    0    0  501  0.00000000000E+00  0.00000000000E+00 -0.14136545244E+04  0.14136545244E+04  0.25500000920E-02 0.  1.
    10030    2    1    2    0    0  0.00000000000E+00  0.00000000000E+00  0.12348521436E+04  0.40621611924E+04  0.38699216705E+04 0.  0.
        3    1    3    3  502    0  0.36210334804E+03  0.96918228855E+03 -0.10989263451E+04  0.15093284153E+04  0.10100000352E+00 0.  1.
       -3    1    3    3    0  502 -0.36210334804E+03 -0.96918228855E+03  0.23337784887E+04  0.25528327770E+04  0.10100000352E+00 0. -1.
</event>
<event>
 5   0  0.4750125E-08  0.3925621E+04  0.7818609E-02  0.8019722E-01
       -1   -1    0    0    0  501  0.00000000000E+00  0.00000000000E+00  0.32372159324E+04  0.32372159324E+04  0.50400001928E-02 0.  1.
        1   -1    0    0  501    0  0.00000000000E+00  0.00000000000E+00 -0.11901042597E+04  0.11901042597E+04  0.50400001928E-02 0. -1.
    10030    2    1    2    0    0  0.00000000000E+00  0.00000000000E+00  0.20471116726E+04  0.44273201921E+04  0.39256207004E+04 0.  0.
        1    1    3    3  502    0 -0.25837001524E+03  0.37974281780E+03  0.31757556085E+04  0.32087978056E+04  0.50400001928E-02 0.  1.
       -1    1    3    3    0  502  0.25837001524E+03 -0.37974281780E+03 -0.11286439358E+04  0.12185223865E+04  0.50400001928E-02 0. -1.
</event>
<event>
 5   0  0.1538018E-07  0.3904270E+04  0.7818609E-02  0.8024142E-01
        2   -1    0    0  501    0  0.00000000000E+00  0.00000000000E+00  0.22063783045E+04  0.22063783045E+04  0.25500000920E-02 0. -1.
       -2   -1    0    0    0  501  0.00000000000E+00  0.00000000000E+00 -0.17271886374E+04  0.17271886374E+04  0.25500000920E-02 0.  1.
    10030    2    1    2    0    0  0.00000000000E+00  0.00000000000E+00  0.47918966702E+03  0.39335669419E+04  0.39042702455E+04 0.  0.
        1    1    3    3  502    0 -0.18180546831E+04 -0.16139072548E+03  0.93722243192E+03  0.20517689159E+04  0.50400001928E-02 0. -1.
       -1    1    3    3    0  502  0.18180546831E+04  0.16139072548E+03 -0.45803276491E+03  0.18817980261E+04  0.50400001928E-02 0.  1.
</event>
<event>
 5   0  0.4750125E-08  0.3917168E+04  0.7818609E-02  0.8021468E-01
       -1   -1    0    0    0  501  0.00000000000E+00  0.00000000000E+00  0.21991842237E+04  0.21991842237E+04  0.50400001928E-02 0. -1.
        1   -1    0    0  501    0  0.00000000000E+00  0.00000000000E+00 -0.17443068162E+04  0.17443068162E+04  0.50400001928E-02 0.  1.
    10030    2    1    2    0    0  0.00000000000E+00  0.00000000000E+00  0.45487740741E+03  0.39434910399E+04  0.39171683811E+04 0.  0.
        4    1    3    3  502    0 -0.13242416404E+04 -0.11702274541E+04  0.10775074589E+04  0.20698000274E+04  0.12699999809E+01 0. -1.
       -4    1    3    3    0  502  0.13242416404E+04  0.11702274541E+04 -0.62263005154E+03  0.18736910125E+04  0.12699999809E+01 0.  1.
</event>
<event>
 5   0  0.4750125E-08  0.3890571E+04  0.7818609E-02  0.8026993E-01
       -1   -1    0    0    0  501  0.00000000000E+00  0.00000000000E+00  0.22088976037E+04  0.22088976037E+04  0.50400001928E-02 0. -1.
        1   -1    0    0  501    0  0.00000000000E+00  0.00000000000E+00 -0.17131330744E+04  0.17131330744E+04  0.50400001928E-02 0.  1.
    10030    2    1    2    0    0  0.00000000000E+00  0.00000000000E+00  0.49576452924E+03  0.39220306781E+04  0.38905709313E+04 0.  0.
        1    1    3    3  502    0  0.17885819926E+04  0.38438891291E+03 -0.41879366820E+03  0.18767441267E+04  0.50400001928E-02 0.  1.
       -1    1    3    3    0  502 -0.17885819926E+04 -0.38438891291E+03  0.91455819745E+03  0.20452865514E+04  0.50400001928E-02 0. -1.
</event>
<event>
 5   0  0.4762788E-08  0.3921489E+04  0.7818609E-02  0.8020575E-01
        1   -1    0    0  501    0  0.00000000000E+00  0.00000000000E+00  0.16842581494E+04  0.16842581494E+04  0.50400001928E-02 0.  1.
       -1   -1    0    0    0  501  0.00000000000E+00  0.00000000000E+00 -0.22826186664E+04  0.22826186664E+04  0.50400001928E-02 0. -1.
    10030    2    1    2    0    0  0.00000000000E+00  0.00000000000E+00 -0.59836051695E+03  0.39668768158E+04  0.39214890493E+04 0.  0.
        2    1    3    3  502    0 -0.73767842881E+03 -0.19281085380E+03  0.15281531626E+04  0.17078049004E+04  0.25500000920E-02 0.  1.
       -2    1    3    3    0  502  0.73767842881E+03  0.19281085380E+03 -0.21265136795E+04  0.22590719154E+04  0.25500000920E-02 0. -1.
</event>
<event>
 5   0  0.1538018E-07  0.4034984E+04  0.7818609E-02  0.7997526E-01
        2   -1    0    0  501    0  0.00000000000E+00  0.00000000000E+00  0.17872945290E+04  0.17872945290E+04  0.25500000920E-02 0. -1.
       -2   -1    0    0    0  501  0.00000000000E+00  0.00000000000E+00 -0.22773378024E+04  0.22773378024E+04  0.25500000920E-02 0.  1.
    10030    2    1    2    0    0  0.00000000000E+00  0.00000000000E+00 -0.49004327340E+03  0.40646323314E+04  0.40349837149E+04 0.  0.
        1    1    3    3  502    0  0.15320819416E+04 -0.73358741357E+03 -0.13415270222E+04  0.21645138762E+04  0.50400001928E-02 0.  1.
       -1    1    3    3    0  502 -0.15320819416E+04  0.73358741357E+03  0.85148374882E+03  0.19001184551E+04  0.50400001928E-02 0. -1.
</event>
<event>
 5   0  0.4750125E-08  0.3929867E+04  0.7818609E-02  0.8018846E-01
        1   -1    0    0  501    0  0.00000000000E+00  0.00000000000E+00  0.22610099664E+04  0.22610099664E+04  0.50400001928E-02 0.  1.
       -1   -1    0    0    0  501  0.00000000000E+00  0.00000000000E+00 -0.17076277149E+04  0.17076277149E+04  0.50400001928E-02 0. -1.
    10030    2    1    2    0    0  0.00000000000E+00  0.00000000000E+00  0.55338225151E+03  0.39686376813E+04  0.39298668081E+04 0.  0.
        4    1    3    3  502    0 -0.10424119852E+04 -0.39414334756E+03 -0.13576041889E+04  0.17564345908E+04  0.12699999809E+01 0. -1.
       -4    1    3    3    0  502  0.10424119852E+04  0.39414334756E+03  0.19109864404E+04  0.22122030905E+04  0.12699999809E+01 0.  1.
</event>
<event>
 5   0  0.4762788E-08  0.3883365E+04  0.7818609E-02  0.8028498E-01
       -1   -1    0    0    0  501  0.00000000000E+00  0.00000000000E+00  0.20973029967E+04  0.20973029967E+04  0.50400001928E-02 0.  1.
        1   -1    0    0  501    0  0.00000000000E+00  0.00000000000E+00 -0.17976087358E+04  0.17976087358E+04  0.50400001928E-02 0. -1.
    10030    2    1    2    0    0  0.00000000000E+00  0.00000000000E+00  0.29969426092E+03  0.38949117325E+04  0.38833646177E+04 0.  0.
        2    1    3    3  502    0  0.10893749117E+04  0.12891884696E+04  0.11125896575E+04  0.20215341586E+04  0.25500000920E-02 0. -1.
       -2    1    3    3    0  502 -0.10893749117E+04 -0.12891884696E+04 -0.81289539657E+03  0.18733775739E+04  0.25500000920E-02 0.  1.
</event>
<event>
 5   0  0.1546846E-07  0.3902832E+04  0.7818609E-02  0.8024440E-01
        2   -1    0    0  501    0  0.00000000000E+00  0.00000000000E+00  0.24315716524E+04  0.24315716524E+04  0.25500000920E-02 0.  1.
       -2   -1    0    0    0  501  0.00000000000E+00  0.00000000000E+00 -0.15660755171E+04  0.15660755171E+04  0.25500000920E-02 0. -1.
    10030    2    1    2    0    0  0.00000000000E+00  0.00000000000E+00  0.86549613528E+03  0.39976471694E+04  0.39028322192E+04 0.  0.
        2    1    3    3  502    0  0.96699856900E+03 -0.16578600116E+04  0.71419370243E+02  0.19205954225E+04  0.25500000920E-02 0. -1.
       -2    1    3    3    0  502 -0.96699856900E+03  0.16578600116E+04  0.79407676504E+03  0.20770517469E+04  0.25500000920E-02 0.  1.
</event>
<event>
 5   0  0.4750125E-08  0.3911043E+04  0.7818609E-02  0.8022736E-01
       -1   -1    0    0    0  501  0.00000000000E+00  0.00000000000E+00  0.20030547268E+04  0.20030547268E+04  0.50400001928E-02 0.  1.
        1   -1    0    0  501    0  0.00000000000E+00  0.00000000000E+00 -0.19091162850E+04  0.19091162850E+04  0.50400001928E-02 0. -1.
    10030    2    1    2    0    0  0.00000000000E+00  0.00000000000E+00  0.93938441794E+02  0.39121710119E+04  0.39110430316E+04 0.  0.
        3    1    3    3  502    0 -0.18003616432E+04 -0.73008729619E+03  0.27004672795E+03  0.19614420083E+04  0.10100000352E+00 0.  1.
       -3    1    3    3    0  502  0.18003616432E+04  0.73008729619E+03 -0.17610828615E+03  0.19507290035E+04  0.10100000352E+00 0. -1.
</event>
<event>
 5   0  0.1501585E-07  0.3914903E+04  0.7818609E-02  0.8021937E-01
       -2   -1    0    0    0  501  0.00000000000E+00  0.00000000000E+00  0.12425118298E+04  0.12425118298E+04  0.25500000920E-02 0.  1.
        2   -1    0    0  501    0  0.00000000000E+00  0.00000000000E+00 -0.30837670474E+04  0.30837670474E+04  0.25500000920E-02 0. -1.
    10030    2    1    2    0    0  0.00000000000E+00  0.00000000000E+00 -0.18412552176E+04  0.43262788772E+04  0.39149033382E+04 0.  0.
        5    1    3    3  502    0  0.10412617515E+04 -0.31085167508E+03  0.87856246176E+03  0.13974079177E+04  0.46999998093E+01 0.  1.
       -5    1    3    3    0  502 -0.10412617515E+04  0.31085167508E+03 -0.27198176793E+04  0.29288709596E+04  0.46999998093E+01 0. -1.
</event>
<event>
 5   0  0.4750125E-08  0.3921854E+04  0.7818609E-02  0.8020499E-01
       -1   -1    0    0    0  501  0.00000000000E+00  0.00000000000E+00  0.18219407524E+04  0.18219407524E+04  0.50400001928E-02 0.  1.
        1   -1    0    0  501    0  0.00000000000E+00  0.00000000000E+00 -0.21105155901E+04  0.21105155901E+04  0.50400001928E-02 0. -1.
    10030    2    1    2    0    0  0.00000000000E+00  0.00000000000E+00 -0.28857483763E+03  0.39324563425E+04  0.39218538281E+04 0.  0.
        3    1    3    3  502    0  0.41107919164E+03  0.11177856387E+04  0.14177441783E+04  0.18516018473E+04  0.10100000352E+00 0.  1.
       -3    1    3    3    0  502 -0.41107919164E+03 -0.11177856387E+04 -0.17063190159E+04  0.20808544952E+04  0.10100000352E+00 0. -1.
</event>
<event>
 5   0  0.1546846E-07  0.3466406E+04  0.7818609E-02  0.8121798E-01
        2   -1    0    0  501    0  0.00000000000E+00  0.00000000000E+00  0.29270082454E+04  0.29270082454E+04  0.25500000920E-02 0. -1.
       -2   -1    0    0    0  501  0.00000000000E+00  0.00000000000E+00 -0.10263014164E+04  0.10263014164E+04  0.25500000920E-02 0.  1.
    10030    2    1    2    0    0  0.00000000000E+00  0.00000000000E+00  0.19007068290E+04  0.39533096618E+04  0.34664060398E+04 0.  0.
        2    1    3    3  502    0  0.85844404734E+02 -0.12512033646E+03 -0.10187117250E+04  0.10299504547E+04  0.25500000920E-02 0.  1.
       -2    1    3    3    0  502 -0.85844404734E+02  0.12512033646E+03  0.29194185540E+04  0.29233592071E+04  0.25500000920E-02 0. -1.
</event>
<event>
 5   0  0.1546846E-07  0.3904200E+04  0.7818609E-02  0.8024156E-01
        2   -1    0    0  501    0  0.00000000000E+00  0.00000000000E+00  0.21252438265E+04  0.21252438265E+04  0.25500000920E-02 0.  1.
       -2   -1    0    0    0  501  0.00000000000E+00  0.00000000000E+00 -0.17930620690E+04  0.17930620690E+04  0.25500000920E-02 0. -1.
    10030    2    1    2    0    0  0.00000000000E+00  0.00000000000E+00  0.33218175752E+03  0.39183058956E+04  0.39041998375E+04 0.  0.
        2    1    3    3  502    0 -0.82663802430E+02 -0.38821904934E+03  0.20843172548E+04  0.21217741994E+04  0.25500000920E-02 0.  1.
       -2    1    3    3    0  502  0.82663802430E+02  0.38821904934E+03 -0.17521354973E+04  0.17965316962E+04  0.25500000920E-02 0. -1.
</event>
<event>
 5   0  0.4750125E-08  0.3901133E+04  0.7818609E-02  0.8024794E-01
        1   -1    0    0  501    0  0.00000000000E+00  0.00000000000E+00  0.26567550024E+04  0.26567550024E+04  0.50400001928E-02 0.  1.
       -1   -1    0    0    0  501  0.00000000000E+00  0.00000000000E+00 -0.14320887640E+04  0.14320887640E+04  0.50400001928E-02 0. -1.
    10030    2    1    2    0    0  0.00000000000E+00  0.00000000000E+00  0.12246662384E+04  0.40888437664E+04  0.39011326497E+04 0.  0.
        1    1    3    3  502    0  0.16646356365E+03  0.10414732354E+04  0.23321180337E+04  0.25595216626E+04  0.50400001928E-02 0.  1.
       -1    1    3    3    0  502 -0.16646356365E+03 -0.10414732354E+04 -0.11074517954E+04  0.15293221038E+04  0.50400001928E-02 0. -1.
</event>
<event>
 5   0  0.1503228E-07  0.3884155E+04  0.7818609E-02  0.8028333E-01
       -2   -1    0    0    0  501  0.00000000000E+00  0.00000000000E+00  0.13583602147E+04  0.13583602147E+04  0.25500000920E-02 0.  1.
        2   -1    0    0  501    0  0.00000000000E+00  0.00000000000E+00 -0.27766307242E+04  0.27766307242E+04  0.25500000920E-02 0. -1.
    10030    2    1    2    0    0  0.00000000000E+00  0.00000000000E+00 -0.14182705095E+04  0.41349909389E+04  0.38841548407E+04 0.  0.
        3    1    3    3  502    0  0.10815138017E+04  0.46092849126E+03  0.93650519810E+03  0.15030532837E+04  0.10100000352E+00 0.  1.
       -3    1    3    3    0  502 -0.10815138017E+04 -0.46092849126E+03 -0.23547757076E+04  0.26319376552E+04  0.10100000352E+00 0. -1.
</event>
<event>
 5   0  0.1546846E-07  0.3941758E+04  0.7818609E-02  0.8016400E-01
       -2   -1    0    0    0  501  0.00000000000E+00  0.00000000000E+00  0.20806294556E+04  0.20806294556E+04  0.25500000920E-02 0. -1.
        2   -1    0    0  501    0  0.00000000000E+00  0.00000000000E+00 -0.18669173150E+04  0.18669173150E+04  0.25500000920E-02 0.  1.
    10030    2    1    2    0    0  0.00000000000E+00  0.00000000000E+00  0.21371214064E+03  0.39475467706E+04  0.39417575556E+04 0.  0.
        2    1    3    3  502    0 -0.11223533649E+04 -0.14064296932E+03  0.17231984989E+04  0.20612788718E+04  0.25500000920E-02 0. -1.
       -2    1    3    3    0  502  0.11223533649E+04  0.14064296932E+03 -0.15094863583E+04  0.18862678989E+04  0.25500000920E-02 0.  1.
</event>
<event>
 5   0  0.4750125E-08  0.3894309E+04  0.7818609E-02  0.8026214E-01
       -1   -1    0    0    0  501  0.00000000000E+00  0.00000000000E+00  0.18033573337E+04  0.18033573337E+04  0.50400001928E-02 0. -1.
        1   -1    0    0  501    0  0.00000000000E+00  0.00000000000E+00 -0.21024180999E+04  0.21024180999E+04  0.50400001928E-02 0.  1.
    10030    2    1    2    0    0  0.00000000000E+00  0.00000000000E+00 -0.29906076612E+03  0.39057754336E+04  0.38943092322E+04 0.  0.
        3    1    3    3  502    0  0.90598487624E+03 -0.50533882211E+03  0.15031183699E+04  0.18263462885E+04  0.10100000352E+00 0. -1.
       -3    1    3    3    0  502 -0.90598487624E+03  0.50533882211E+03 -0.18021791361E+04  0.20794291452E+04  0.10100000352E+00 0.  1.
</event>
<event>
 5   0  0.4750125E-08  0.3915950E+04  0.7818609E-02  0.8021720E-01
       -1   -1    0    0    0  501  0.00000000000E+00  0.00000000000E+00  0.13844305495E+04  0.13844305495E+04  0.50400001928E-02 0. -1.
        1   -1    0    0  501    0  0.00000000000E+00  0.00000000000E+00 -0.27691290062E+04  0.27691290062E+04  0.50400001928E-02 0.  1.
    10030    2    1    2    0    0  0.00000000000E+00  0.00000000000E+00 -0.13846984567E+04  0.41535595557E+04  0.39159503529E+04 0.  0.
        5    1    3    3  502    0  0.13838579580E+04 -0.27444965425E+03  0.74769713516E+03  0.15967024007E+04  0.46999998093E+01 0. -1.
       -5    1    3    3    0  502 -0.13838579580E+04  0.27444965425E+03 -0.21323955918E+04  0.25568571549E+04  0.46999998093E+01 0.  1.
</event>
<event>
 5   0  0.4750125E-08  0.3913427E+04  0.7818609E-02  0.8022242E-01
        1   -1    0    0  501    0  0.00000000000E+00  0.00000000000E+00  0.17729452818E+04  0.17729452818E+04  0.50400001928E-02 0.  1.
       -1   -1    0    0    0  501  0.00000000000E+00  0.00000000000E+00 -0.21595293107E+04  0.21595293107E+04  0.50400001928E-02 0. -1.
    10030    2    1    2    0    0  0.00000000000E+00  0.00000000000E+00 -0.38658402891E+03  0.39324745925E+04  0.39134267860E+04 0.  0.
        4    1    3    3  502    0 -0.10955618852E+04  0.11774056396E+03  0.14315529254E+04  0.18065060409E+04  0.12699999809E+01 0.  1.
       -4    1    3    3    0  502  0.10955618852E+04 -0.11774056396E+03 -0.18181369543E+04  0.21259685516E+04  0.12699999809E+01 0. -1.
</event>
<event>
 5   0  0.1503228E-07  0.3961194E+04  0.7818609E-02  0.8012421E-01
        2   -1    0    0  501    0  0.00000000000E+00  0.00000000000E+00  0.12998113605E+04  0.12998113605E+04  0.25500000920E-02 0.  1.
       -2   -1    0    0    0  501  0.00000000000E+00  0.00000000000E+00 -0.30179498206E+04  0.30179498206E+04  0.25500000920E-02 0. -1.
    10030    2    1    2    0    0  0.00000000000E+00  0.00000000000E+00 -0.17181384600E+04  0.43177611811E+04  0.39611944978E+04 0.  0.
        3    1    3    3  502    0  0.64894210927E+03 -0.18507237299E+04 -0.11604761329E+04  0.22788174676E+04  0.10100000352E+00 0. -1.
       -3    1    3    3    0  502 -0.64894210927E+03  0.18507237299E+04 -0.55766232713E+03  0.20389437135E+04  0.10100000352E+00 0.  1.
</event>
<event>
 5   0  0.1546846E-07  0.3904598E+04  0.7818609E-02  0.8024074E-01
       -2   -1    0    0    0  501  0.00000000000E+00  0.00000000000E+00  0.15334453049E+04  0.15334453049E+04  0.25500000920E-02 0. -1.
        2   -1    0    0  501    0  0.00000000000E+00  0.00000000000E+00 -0.24855605749E+04  0.24855605749E+04  0.25500000920E-02 0.  1.
    10030    2    1    2    0    0  0.00000000000E+00  0.00000000000E+00 -0.95211526998E+03  0.40190058798E+04  0.39045979018E+04 0.  0.
        2    1    3    3  502    0 -0.31274567557E+03 -0.84308888165E+03 -0.22597093113E+04  0.24320556925E+04  0.25500000920E-02 0.  1.
       -2    1    3    3    0  502  0.31274567557E+03  0.84308888165E+03  0.13075940413E+04  0.15869501873E+04  0.25500000920E-02 0. -1.
</event>
<event>
 5   0  0.1520986E-07  0.3887708E+04  0.7818609E-02  0.8027591E-01
        2   -1    0    0  501    0  0.00000000000E+00  0.00000000000E+00  0.26029806551E+04  0.26029806551E+04  0.25500000920E-02 0. -1.
       -2   -1    0    0    0  501  0.00000000000E+00  0.00000000000E+00 -0.14516312149E+04  0.14516312149E+04  0.25500000920E-02 0.  1.
    10030    2    1    2    0    0  0.00000000000E+00  0.00000000000E+00  0.11513494402E+04  0.40546118701E+04  0.38877077929E+04 0.  0.
        4    1    3    3  502    0  0.16659127792E+04 -0.71233102730E+03  0.13100978858E+04  0.22358530729E+04  0.12699999809E+01 0. -1.
       -4    1    3    3    0  502 -0.16659127792E+04  0.71233102730E+03 -0.15874844562E+03  0.18187587971E+04  0.12699999809E+01 0.  1.
</event>
<event>
 5   0  0.4762788E-08  0.3884420E+04  0.7818609E-02  0.8028277E-01
        1   -1    0    0  501    0  0.00000000000E+00  0.00000000000E+00  0.19799392750E+04  0.19799392750E+04  0.50400001928E-02 0. -1.
       -1   -1    0    0    0  501  0.00000000000E+00  0.00000000000E+00 -0.19051993770E+04  0.19051993770E+04  0.50400001928E-02 0.  1.
    10030    2    1    2    0    0  0.00000000000E+00  0.00000000000E+00  0.74739897999E+02  0.38851386520E+04  0.38844196855E+04 0.  0.
        2    1    3    3  502    0  0.73693222669E+03  0.97114776503E+03 -0.14748563195E+04  0.19134780510E+04  0.25500000920E-02 0.  1.
       -2    1    3    3    0  502 -0.73693222669E+03 -0.97114776503E+03  0.15495962175E+04  0.19716606010E+04  0.25500000920E-02 0. -1.
</event>
<event>
 5   0  0.1503228E-07  0.3898463E+04  0.7818609E-02  0.8025349E-01
       -2   -1    0    0    0  501  0.00000000000E+00  0.00000000000E+00  0.15048835273E+04  0.15048835273E+04  0.25500000920E-02 0.  1.
        2   -1    0    0  501    0  0.00000000000E+00  0.00000000000E+00 -0.25247829776E+04  0.25247829776E+04  0.25500000920E-02 0. -1.
    10030    2    1    2    0    0  0.00000000000E+00  0.00000000000E+00 -0.10198994502E+04  0.40296665049E+04  0.38984634476E+04 0.  0.
        3    1    3    3  502    0 -0.15412705937E+04 -0.16430748026E+03 -0.17316724351E+04  0.23240484986E+04  0.10100000352E+00 0. -1.
       -3    1    3    3    0  502  0.15412705937E+04  0.16430748026E+03  0.71177298484E+03  0.17056180063E+04  0.10100000352E+00 0.  1.
</event>
<event>
 5   0  0.1546846E-07  0.3904330E+04  0.7818609E-02  0.8024129E-01
       -2   -1    0    0    0  501  0.00000000000E+00  0.00000000000E+00  0.24658755204E+04  0.24658755204E+04  0.25500000920E-02 0. -1.
        2   -1    0    0  501    0  0.00000000000E+00  0.00000000000E+00 -0.15454743361E+04  0.15454743361E+04  0.25500000920E-02 0.  1.
    10030    2    1    2    0    0  0.00000000000E+00  0.00000000000E+00  0.92040118426E+03  0.40113498566E+04  0.39043295624E+04 0.  0.
        2    1    3    3  502    0 -0.40622562875E+03 -0.30023049434E+03 -0.14771673421E+04  0.15611473242E+04  0.25500000920E-02 0.  1.
       -2    1    3    3    0  502  0.40622562875E+03  0.30023049434E+03  0.23975685263E+04  0.24502025324E+04  0.25500000920E-02 0. -1.
</event>
<event>
 5   0  0.4750125E-08  0.3890351E+04  0.7818609E-02  0.8027039E-01
        1   -1    0    0  501    0  0.00000000000E+00  0.00000000000E+00  0.18586991212E+04  0.18586991212E+04  0.50400001928E-02 0.  1.
       -1   -1    0    0    0  501  0.00000000000E+00  0.00000000000E+00 -0.20356751887E+04  0.20356751887E+04  0.50400001928E-02 0. -1.
    10030    2    1    2    0    0  0.00000000000E+00  0.00000000000E+00 -0.17697606748E+03  0.38943743099E+04  0.38903509787E+04 0.  0.
        1    1    3    3  502    0  0.13092258487E+04  0.99038686871E+03  0.95603211795E+03  0.18997199486E+04  0.50400001928E-02 0.  1.
       -1    1    3    3    0  502 -0.13092258487E+04 -0.99038686871E+03 -0.11330081854E+04  0.19946543613E+04  0.50400001928E-02 0. -1.
</event>
<event>
 5   0  0.4750125E-08  0.3906497E+04  0.7818609E-02  0.8023679E-01
        1   -1    0    0  501    0  0.00000000000E+00  0.00000000000E+00  0.18284313054E+04  0.18284313054E+04  0.50400001928E-02 0. -1.
       -1   -1    0    0    0  501  0.00000000000E+00  0.00000000000E+00 -0.20865862438E+04  0.20865862438E+04  0.50400001928E-02 0.  1.
    10030    2    1    2    0    0  0.00000000000E+00  0.00000000000E+00 -0.25815493838E+03  0.39150175492E+04  0.39064969523E+04 0.  0.
        5    1    3    3  502    0 -0.85950059756E+03 -0.64686264539E+03  0.15048112825E+04  0.18497707007E+04  0.46999998093E+01 0. -1.
       -5    1    3    3    0  502  0.85950059756E+03  0.64686264539E+03 -0.17629662209E+04  0.20652468485E+04  0.46999998093E+01 0.  1.
</event>
<event>
 5   0  0.4750125E-08  0.3822497E+04  0.7818609E-02  0.8041344E-01
       -1   -1    0    0    0  501  0.00000000000E+00  0.00000000000E+00  0.13352677144E+04  0.13352677145E+04  0.50400001928E-02 0. -1.
        1   -1    0    0  501    0  0.00000000000E+00  0.00000000000E+00 -0.27356841606E+04  0.27356841606E+04  0.50400001928E-02 0.  1.
    10030    2    1    2    0    0  0.00000000000E+00  0.00000000000E+00 -0.14004164461E+04  0.40709518750E+04  0.38224969518E+04 0.  0.
        4    1    3    3  502    0  0.15022887727E+04  0.13870342078E+02  0.55802521798E+03  0.16026408518E+04  0.12699999809E+01 0. -1.
       -4    1    3    3    0  502 -0.15022887727E+04 -0.13870342078E+02 -0.19584416641E+04  0.24683110233E+04  0.12699999809E+01 0.  1.
</event>
<event>
 5   0  0.4750125E-08  0.3906962E+04  0.7818609E-02  0.8023583E-01
       -1   -1    0    0    0  501  0.00000000000E+00  0.00000000000E+00  0.19193948817E+04  0.19193948817E+04  0.50400001928E-02 0. -1.
        1   -1    0    0  501    0  0.00000000000E+00  0.00000000000E+00 -0.19881725659E+04  0.19881725659E+04  0.50400001928E-02 0.  1.
    10030    2    1    2    0    0  0.00000000000E+00  0.00000000000E+00 -0.68777684183E+02  0.39075674476E+04  0.39069621175E+04 0.  0.
        3    1    3    3  502    0  0.18183780939E+04  0.67211931019E+03  0.20615824927E+03  0.19495498182E+04  0.10100000352E+00 0. -1.
       -3    1    3    3    0  502 -0.18183780939E+04 -0.67211931019E+03 -0.27493593345E+03  0.19580176295E+04  0.10100000352E+00 0.  1.
</event>
<event>
 5   0  0.1503228E-07  0.3897382E+04  0.7818609E-02  0.8025574E-01
        2   -1    0    0  501    0  0.00000000000E+00  0.00000000000E+00  0.24938657198E+04  0.24938657198E+04  0.25500000920E-02 0. -1.
       -2   -1    0    0    0  501  0.00000000000E+00  0.00000000000E+00 -0.15226952322E+04  0.15226952322E+04  0.25500000920E-02 0.  1.
    10030    2    1    2    0    0  0.00000000000E+00  0.00000000000E+00  0.97117048762E+03  0.40165609519E+04  0.38973824247E+04 0.  0.
        3    1    3    3  502    0 -0.19366271683E+03  0.11417848208E+04 -0.11295724715E+04  0.16177489928E+04  0.10100000352E+00 0.  1.
       -3    1    3    3    0  502  0.19366271683E+03 -0.11417848208E+04  0.21007429591E+04  0.23988119592E+04  0.10100000352E+00 0. -1.
</event>
<event>
 5   0  0.4750125E-08  0.3904780E+04  0.7818609E-02  0.8024036E-01
        1   -1    0    0  501    0  0.00000000000E+00  0.00000000000E+00  0.11057041726E+04  0.11057041726E+04  0.50400001928E-02 0. -1.
       -1   -1    0    0    0  501  0.00000000000E+00  0.00000000000E+00 -0.34474193496E+04  0.34474193496E+04  0.50400001928E-02 0.  1.
    10030    2    1    2    0    0  0.00000000000E+00  0.00000000000E+00 -0.23417151770E+04  0.45531235222E+04  0.39047796146E+04 0.  0.
        4    1    3    3  502    0  0.67108114983E+03  0.17105156697E+04 -0.19404523718E+04  0.26723717529E+04  0.12699999809E+01 0.  1.
       -4    1    3    3    0  502 -0.67108114983E+03 -0.17105156697E+04 -0.40126280521E+03  0.18807517693E+04  0.12699999809E+01 0. -1.
</event>
<event>
 5   0  0.1538018E-07  0.3803218E+04  0.7818609E-02  0.8045465E-01
        2   -1    0    0  501    0  0.00000000000E+00  0.00000000000E+00  0.24532005087E+04  0.24532005087E+04  0.25500000920E-02 0. -1.
       -2   -1    0    0    0  501  0.00000000000E+00  0.00000000000E+00 -0.14740407417E+04  0.14740407417E+04  0.25500000920E-02 0.  1.
    10030    2    1    2    0    0  0.00000000000E+00  0.00000000000E+00  0.97915976699E+03  0.39272412505E+04  0.38032183726E+04 0.  0.
        1    1    3    3  502    0 -0.94743867674E+02  0.15951353599E+04  0.15540621888E+04  0.22290227688E+04  0.50400001928E-02 0. -1.
       -1    1    3    3    0  502  0.94743867674E+02 -0.15951353599E+04 -0.57490242185E+03  0.16982184817E+04  0.50400001928E-02 0.  1.
</event>
<event>
 5   0  0.4762788E-08  0.3829723E+04  0.7818609E-02  0.8039806E-01
        1   -1    0    0  501    0  0.00000000000E+00  0.00000000000E+00  0.19338624936E+04  0.19338624936E+04  0.50400001928E-02 0. -1.
       -1   -1    0    0    0  501  0.00000000000E+00  0.00000000000E+00 -0.18960471324E+04  0.18960471324E+04  0.50400001928E-02 0.  1.
    10030    2    1    2    0    0  0.00000000000E+00  0.00000000000E+00  0.37815361200E+02  0.38299096260E+04  0.38297229328E+04 0.  0.
        2    1    3    3  502    0  0.14117022198E+04  0.97672851303E+03  0.86735500919E+03  0.19233321235E+04  0.25500000920E-02 0. -1.
       -2    1    3    3    0  502 -0.14117022198E+04 -0.97672851303E+03 -0.82953964799E+03  0.19065775025E+04  0.25500000920E-02 0.  1.
</event>
<event>
 5   0  0.4750125E-08  0.3922797E+04  0.7818609E-02  0.8020305E-01
       -1   -1    0    0    0  501  0.00000000000E+00  0.00000000000E+00  0.34121585649E+04  0.34121585649E+04  0.50400001928E-02 0. -1.
        1   -1    0    0  501    0  0.00000000000E+00  0.00000000000E+00 -0.11274634603E+04  0.11274634603E+04  0.50400001928E-02 0.  1.
    10030    2    1    2    0    0  0.00000000000E+00  0.00000000000E+00  0.22846951046E+04  0.45396220252E+04  0.39227970138E+04 0.  0.
        5    1    3    3  502    0 -0.11175383272E+03 -0.12447944254E+04  0.28916812254E+04  0.31502134023E+04  0.46999998093E+01 0. -1.
       -5    1    3    3    0  502  0.11175383272E+03  0.12447944254E+04 -0.60698612079E+03  0.13894086230E+04  0.46999998093E+01 0.  1.
</event>
<event>
 5   0  0.1538018E-07  0.3899738E+04  0.7818609E-02  0.8025084E-01
        2   -1    0    0  501    0  0.00000000000E+00  0.00000000000E+00  0.23015825499E+04  0.23015825499E+04  0.25500000920E-02 0.  1.
       -2   -1    0    0    0  501  0.00000000000E+00  0.00000000000E+00 -0.16519024437E+04  0.16519024437E+04  0.25500000920E-02 0. -1.
    10030    2    1    2    0    0  0.00000000000E+00  0.00000000000E+00  0.64968010623E+03  0.39534849936E+04  0.38997383700E+04 0.  0.
        1    1    3    3  502    0 -0.33726258695E+03 -0.17650288061E+04 -0.44250467797E+03  0.18506439769E+04  0.50400001928E-02 0. -1.
       -1    1    3    3    0  502  0.33726258695E+03  0.17650288061E+04  0.10921847842E+04  0.21028410168E+04  0.50400001928E-02 0.  1.
</event>
<event>
 5   0  0.4750125E-08  0.3843186E+04  0.7818609E-02  0.8036950E-01
        1   -1    0    0  501    0  0.00000000000E+00  0.00000000000E+00  0.22579561967E+04  0.22579561967E+04  0.50400001928E-02 0.  1.
       -1   -1    0    0    0  501  0.00000000000E+00  0.00000000000E+00 -0.16353367488E+04  0.16353367488E+04  0.50400001928E-02 0. -1.
    10030    2    1    2    0    0  0.00000000000E+00  0.00000000000E+00  0.62261944788E+03  0.38932929454E+04  0.38431855253E+04 0.  0.
        4    1    3    3  502    0 -0.89088048270E+03 -0.71752496972E+03  0.18754636799E+04  0.21967875965E+04  0.12699999809E+01 0.  1.
       -4    1    3    3    0  502  0.89088048270E+03  0.71752496972E+03 -0.12528442320E+04  0.16965053490E+04  0.12699999809E+01 0. -1.
</event>
<event>
 5   0  0.1546846E-07  0.3898059E+04  0.7818609E-02  0.8025433E-01
        2   -1    0    0  501    0  0.00000000000E+00  0.00000000000E+00  0.25293462507E+04  0.25293462507E+04  0.25500000920E-02 0. -1.
       -2   -1    0    0    0  501  0.00000000000E+00  0.00000000000E+00 -0.15018570982E+04  0.15018570982E+04  0.25500000920E-02 0.  1.
    10030    2    1    2    0    0  0.00000000000E+00  0.00000000000E+00  0.10274891525E+04  0.40312033489E+04  0.38980593225E+04 0.  0.
        2    1    3    3  502    0  0.18559732312E+04 -0.54712021730E+03  0.75570062832E+03  0.20772723959E+04  0.25500000920E-02 0. -1.
       -2    1    3    3    0  502 -0.18559732312E+04  0.54712021730E+03  0.27178852421E+03  0.19539309530E+04  0.25500000920E-02 0.  1.
</event>
<event>
 5   0  0.4750125E-08  0.3895940E+04  0.7818609E-02  0.8025874E-01
        1   -1    0    0  501    0  0.00000000000E+00  0.00000000000E+00  0.22996245612E+04  0.22996245613E+04  0.50400001928E-02 0.  1.
       -1   -1    0    0    0  501  0.00000000000E+00  0.00000000000E+00 -0.16500899425E+04  0.16500899425E+04  0.50400001928E-02 0. -1.
    10030    2    1    2    0    0  0.00000000000E+00  0.00000000000E+00  0.64953461871E+03  0.39497145038E+04  0.38959401228E+04 0.  0.
        5    1    3    3  502    0  0.53044407273E+03  0.18524905321E+04  0.35392463718E+02  0.19272692605E+04  0.46999998093E+01 0. -1.
       -5    1    3    3    0  502 -0.53044407273E+03 -0.18524905321E+04  0.61414215499E+03  0.20224452433E+04  0.46999998093E+01 0.  1.
</event>
<event>
 5   0  0.1503228E-07  0.3908986E+04  0.7818609E-02  0.8023163E-01
       -2   -1    0    0    0  501  0.00000000000E+00  0.00000000000E+00  0.15302992552E+04  0.15302992552E+04  0.25500000920E-02 0.  1.
        2   -1    0    0  501    0  0.00000000000E+00  0.00000000000E+00 -0.24962712104E+04  0.24962712104E+04  0.25500000920E-02 0. -1.
    10030    2    1    2    0    0  0.00000000000E+00  0.00000000000E+00 -0.96597195521E+03  0.40265704655E+04  0.39089855328E+04 0.  0.
        3    1    3    3  502    0  0.77144185057E+03  0.17950549628E+04 -0.53648194120E+03  0.20261188839E+04  0.10100000352E+00 0. -1.
       -3    1    3    3    0  502 -0.77144185057E+03 -0.17950549628E+04 -0.42949001401E+03  0.20004515816E+04  0.10100000352E+00 0.  1.
</event>
<event>
 5   0  0.4762788E-08  0.3868663E+04  0.7818609E-02  0.8031578E-01
        1   -1    0    0  501    0  0.00000000000E+00  0.00000000000E+00  0.14386600775E+04  0.14386600775E+04  0.50400001928E-02 0. -1.
       -1   -1    0    0    0  501  0.00000000000E+00  0.00000000000E+00 -0.26007801518E+04  0.26007801519E+04  0.50400001928E-02 0.  1.
    10030    2    1    2    0    0  0.00000000000E+00  0.00000000000E+00 -0.11621200744E+04  0.40394402293E+04  0.38686631152E+04 0.  0.
        2    1    3    3  502    0  0.26966179782E+03  0.12827022630E+04 -0.20663873908E+04  0.24470389105E+04  0.25500000920E-02 0.  1.
       -2    1    3    3    0  502 -0.26966179782E+03 -0.12827022630E+04  0.90426731645E+03  0.15924013188E+04  0.25500000920E-02 0. -1.
</event>
<event>
 5   0  0.1546846E-07  0.3892361E+04  0.7818609E-02  0.8026620E-01
       -2   -1    0    0    0  501  0.00000000000E+00  0.00000000000E+00  0.32197943471E+04  0.32197943471E+04  0.25500000920E-02 0. -1.
        2   -1    0    0  501    0  0.00000000000E+00  0.00000000000E+00 -0.11763538888E+04  0.11763538888E+04  0.25500000920E-02 0.  1.
    10030    2    1    2    0    0  0.00000000000E+00  0.00000000000E+00  0.20434404583E+04  0.43961482359E+04  0.38923605184E+04 0.  0.
        2    1    3    3  502    0 -0.72074889984E+03  0.14051172677E+04 -0.26294559959E+03  0.16009290743E+04  0.25500000920E-02 0.  1.
       -2    1    3    3    0  502  0.72074889984E+03 -0.14051172677E+04  0.23063860579E+04  0.27952191615E+04  0.25500000920E-02 0. -1.
</event>
<event>
 5   0  0.1538018E-07  0.3903878E+04  0.7818609E-02  0.8024223E-01
        2   -1    0    0  501    0  0.00000000000E+00  0.00000000000E+00  0.15770761800E+04  0.15770761800E+04  0.25500000920E-02 0.  1.
       -2   -1    0    0    0  501  0.00000000000E+00  0.00000000000E+00 -0.24159052606E+04  0.24159052606E+04  0.25500000920E-02 0. -1.
    10030    2    1    2    0    0  0.00000000000E+00  0.00000000000E+00 -0.83882908058E+03  0.39929814406E+04  0.39038783995E+04 0.  0.
        1    1    3    3  502    0 -0.83942614956E+03  0.10203345046E+04  0.10501628194E+04  0.16877679667E+04  0.50400001928E-02 0.  1.
       -1    1    3    3    0  502  0.83942614956E+03 -0.10203345046E+04 -0.18889919000E+04  0.23052134739E+04  0.50400001928E-02 0. -1.
</event>
<event>
 5   0  0.4750125E-08  0.3863366E+04  0.7818609E-02  0.8032692E-01
       -1   -1    0    0    0  501  0.00000000000E+00  0.00000000000E+00  0.26388086217E+04  0.26388086217E+04  0.50400001928E-02 0. -1.
        1   -1    0    0  501    0  0.00000000000E+00  0.00000000000E+00 -0.14140468871E+04  0.14140468871E+04  0.50400001928E-02 0.  1.
    10030    2    1    2    0    0  0.00000000000E+00  0.00000000000E+00  0.12247617345E+04  0.40528555088E+04  0.38633659507E+04 0.  0.
        3    1    3    3  502    0 -0.12468640134E+04 -0.93931586771E+03 -0.58114553672E+03  0.16657473735E+04  0.10100000352E+00 0.  1.
       -3    1    3    3    0  502  0.12468640134E+04  0.93931586771E+03  0.18059072713E+04  0.23871081353E+04  0.10100000352E+00 0. -1.
</event>
<event>
 5   0  0.4750125E-08  0.3872237E+04  0.7818609E-02  0.8030828E-01
       -1   -1    0    0    0  501  0.00000000000E+00  0.00000000000E+00  0.27322883709E+04  0.27322883709E+04  0.50400001928E-02 0. -1.
        1   -1    0    0  501    0  0.00000000000E+00  0.00000000000E+00 -0.13719466582E+04  0.13719466582E+04  0.50400001928E-02 0.  1.
    10030    2    1    2    0    0  0.00000000000E+00  0.00000000000E+00  0.13603417127E+04  0.41042350291E+04  0.38722365112E+04 0.  0.
        4    1    3    3  502    0  0.26615721901E+03  0.76245434341E+03 -0.11849079760E+04  0.14339403110E+04  0.12699999809E+01 0.  1.
       -4    1    3    3    0  502 -0.26615721901E+03 -0.76245434341E+03  0.25452496887E+04  0.26702947181E+04  0.12699999809E+01 0. -1.
</event>
<event>
 5   0  0.1546846E-07  0.3926504E+04  0.7818609E-02  0.8019539E-01
       -2   -1    0    0    0  501  0.00000000000E+00  0.00000000000E+00  0.17698279077E+04  0.17698279077E+04  0.25500000920E-02 0.  1.
        2   -1    0    0  501    0  0.00000000000E+00  0.00000000000E+00 -0.21778148181E+04  0.21778148181E+04  0.25500000920E-02 0. -1.
    10030    2    1    2    0    0  0.00000000000E+00  0.00000000000E+00 -0.40798691044E+03  0.39476427258E+04  0.39265035046E+04 0.  0.
        2    1    3    3  502    0  0.43066983003E+03  0.17844640891E+04 -0.90385092105E+03  0.20461512836E+04  0.25500000920E-02 0. -1.
       -2    1    3    3    0  502 -0.43066983003E+03 -0.17844640891E+04  0.49586401061E+03  0.19014914422E+04  0.25500000920E-02 0.  1.
</event>
<event>
 5   0  0.1520986E-07  0.3936985E+04  0.7818609E-02  0.8017381E-01
       -2   -1    0    0    0  501  0.00000000000E+00  0.00000000000E+00  0.19259443078E+04  0.19259443078E+04  0.25500000920E-02 0. -1.
        2   -1    0    0  501    0  0.00000000000E+00  0.00000000000E+00 -0.20119802180E+04  0.20119802180E+04  0.25500000920E-02 0.  1.
    10030    2    1    2    0    0  0.00000000000E+00  0.00000000000E+00 -0.86035910158E+02  0.39379245258E+04  0.39369845559E+04 0.  0.
        4    1    3    3  502    0 -0.10853362792E+04 -0.19220256281E+03  0.15883415771E+04  0.19333202639E+04  0.12699999809E+01 0. -1.
       -4    1    3    3    0  502  0.10853362792E+04  0.19220256281E+03 -0.16743774873E+04  0.20046042619E+04  0.12699999809E+01 0.  1.
</event>
<event>
 5   0  0.1503228E-07  0.3949546E+04  0.7818609E-02  0.8014803E-01
        2   -1    0    0  501    0  0.00000000000E+00  0.00000000000E+00  0.25313259301E+04  0.25313259301E+04  0.25500000920E-02 0.  1.
       -2   -1    0    0    0  501  0.00000000000E+00  0.00000000000E+00 -0.15405873405E+04  0.15405873405E+04  0.25500000920E-02 0. -1.
    10030    2    1    2    0    0  0.00000000000E+00  0.00000000000E+00  0.99073858965E+03  0.40719132706E+04  0.39495461423E+04 0.  0.
        3    1    3    3  502    0  0.14960129760E+04 -0.11780728843E+04  0.10348580848E+04  0.21672198345E+04  0.10100000352E+00 0.  1.
       -3    1    3    3    0  502 -0.14960129760E+04  0.11780728843E+04 -0.44119495126E+02  0.19046934361E+04  0.10100000352E+00 0. -1.
</event>
<event>
 5   0  0.1501585E-07  0.3890626E+04  0.7818609E-02  0.8026982E-01
       -2   -1    0    0    0  501  0.00000000000E+00  0.00000000000E+00  0.15332006689E+04  0.15332006689E+04  0.25500000920E-02 0.  1.
        2   -1    0    0  501    0  0.00000000000E+00  0.00000000000E+00 -0.24681977745E+04  0.24681977745E+04  0.25500000920E-02 0. -1.
    10030    2    1    2    0    0  0.00000000000E+00  0.00000000000E+00 -0.93499710565E+03  0.40013984434E+04  0.38906259028E+04 0.  0.
        5    1    3    3  502    0  0.82094982213E+03  0.63431208324E+03  0.12249264580E+04  0.16052343588E+04  0.46999998093E+01 0.  1.
       -5    1    3    3    0  502 -0.82094982213E+03 -0.63431208324E+03 -0.21599235636E+04  0.23961640845E+04  0.46999998093E+01 0. -1.
</event>
<event>
 5   0  0.4750125E-08  0.3903287E+04  0.7818609E-02  0.8024346E-01
        1   -1    0    0  501    0  0.00000000000E+00  0.00000000000E+00  0.18312293244E+04  0.18312293244E+04  0.50400001928E-02 0. -1.
       -1   -1    0    0    0  501  0.00000000000E+00  0.00000000000E+00 -0.20799752353E+04  0.20799752353E+04  0.50400001928E-02 0.  1.
    10030    2    1    2    0    0  0.00000000000E+00  0.00000000000E+00 -0.24874591087E+03  0.39112045598E+04  0.39032866382E+04 0.  0.
        4    1    3    3  502    0  0.95927881246E+03 -0.14862723028E+04  0.70173185924E+03  0.19030634286E+04  0.12699999809E+01 0.  1.
       -4    1    3    3    0  502 -0.95927881246E+03  0.14862723028E+04 -0.95047777011E+03  0.20081411311E+04  0.12699999809E+01 0. -1.
</event>
<event>
 5   0  0.4750125E-08  0.3892666E+04  0.7818609E-02  0.8026556E-01
       -1   -1    0    0    0  501  0.00000000000E+00  0.00000000000E+00  0.12014076530E+04  0.12014076530E+04  0.50400001928E-02 0.  1.
        1   -1    0    0  501    0  0.00000000000E+00  0.00000000000E+00 -0.31531443040E+04  0.31531443040E+04  0.50400001928E-02 0. -1.
    10030    2    1    2    0    0  0.00000000000E+00  0.00000000000E+00 -0.19517366510E+04  0.43545519570E+04  0.38926657693E+04 0.  0.
        5    1    3    3  502    0  0.26438207481E+03  0.14470836589E+04  0.44980998694E+03  0.15382782946E+04  0.46999998093E+01 0.  1.
       -5    1    3    3    0  502 -0.26438207481E+03 -0.14470836589E+04 -0.24015466379E+04  0.28162736624E+04  0.46999998093E+01 0. -1.
</event>
<event>
 5   0  0.4750125E-08  0.3903449E+04  0.7818609E-02  0.8024312E-01
        1   -1    0    0  501    0  0.00000000000E+00  0.00000000000E+00  0.12154932958E+04  0.12154932958E+04  0.50400001928E-02 0. -1.
       -1   -1    0    0    0  501  0.00000000000E+00  0.00000000000E+00 -0.31338956454E+04  0.31338956454E+04  0.50400001928E-02 0.  1.
    10030    2    1    2    0    0  0.00000000000E+00  0.00000000000E+00 -0.19184023497E+04  0.43493889412E+04  0.39034493191E+04 0.  0.
        1    1    3    3  502    0 -0.11837914902E+04 -0.15315582241E+04 -0.68131826529E+03  0.20521275460E+04  0.50400001928E-02 0.  1.
       -1    1    3    3    0  502  0.11837914902E+04  0.15315582241E+04 -0.12370840844E+04  0.22972613952E+04  0.50400001928E-02 0. -1.
</event>
<event>
 5   0  0.1520986E-07  0.3978663E+04  0.7818609E-02  0.8008865E-01
        2   -1    0    0  501    0  0.00000000000E+00  0.00000000000E+00  0.25582240495E+04  0.25582240495E+04  0.25500000920E-02 0.  1.
       -2   -1    0    0    0  501  0.00000000000E+00  0.00000000000E+00 -0.15469479993E+04  0.15469479993E+04  0.25500000920E-02 0. -1.
    10030    2    1    2    0    0  0.00000000000E+00  0.00000000000E+00  0.10112760502E+04  0.41051720487E+04  0.39786628784E+04 0.  0.
        4    1    3    3  502    0  0.42627041906E+03 -0.74137019718E+03 -0.13476087363E+04  0.15960536202E+04  0.12699999809E+01 0. -1.
       -4    1    3    3    0  502 -0.42627041906E+03  0.74137019718E+03  0.23588847865E+04  0.25091184285E+04  0.12699999809E+01 0.  1.
</event>
<event>
 5   0  0.1520986E-07  0.3901416E+04  0.7818609E-02  0.8024735E-01
       -2   -1    0    0    0  501  0.00000000000E+00  0.00000000000E+00  0.17514521453E+04  0.17514521453E+04  0.25500000920E-02 0.  1.
        2   -1    0    0  501    0  0.00000000000E+00  0.00000000000E+00 -0.21726319023E+04  0.21726319023E+04  0.25500000920E-02 0. -1.
    10030    2    1    2    0    0  0.00000000000E+00  0.00000000000E+00 -0.42117975704E+03  0.39240840475E+04  0.39014155411E+04 0.  0.
        4    1    3    3  502    0 -0.95831073599E+03  0.39034106475E+03 -0.18738406037E+04  0.21405620371E+04  0.12699999809E+01 0. -1.
       -4    1    3    3    0  502  0.95831073599E+03 -0.39034106475E+03  0.14526608467E+04  0.17835220105E+04  0.12699999809E+01 0.  1.
</event>
<event>
 5   0  0.1546846E-07  0.3892197E+04  0.7818609E-02  0.8026654E-01
        2   -1    0    0  501    0  0.00000000000E+00  0.00000000000E+00  0.25406409215E+04  0.25406409215E+04  0.25500000920E-02 0.  1.
       -2   -1    0    0    0  501  0.00000000000E+00  0.00000000000E+00 -0.14906865127E+04  0.14906865127E+04  0.25500000920E-02 0. -1.
    10030    2    1    2    0    0  0.00000000000E+00  0.00000000000E+00  0.10499544088E+04  0.40313274341E+04  0.38921968887E+04 0.  0.
        2    1    3    3  502    0 -0.60103889576E+03 -0.12291452206E+04 -0.90841948470E+03  0.16423372637E+04  0.25500000920E-02 0. -1.
       -2    1    3    3    0  502  0.60103889576E+03  0.12291452206E+04  0.19583738935E+04  0.23889901704E+04  0.25500000920E-02 0.  1.
</event>
<event>
 5   0  0.4762788E-08  0.3909593E+04  0.7818609E-02  0.8023037E-01
       -1   -1    0    0    0  501  0.00000000000E+00  0.00000000000E+00  0.14656397890E+04  0.14656397890E+04  0.50400001928E-02 0.  1.
        1   -1    0    0  501    0  0.00000000000E+00  0.00000000000E+00 -0.26072088811E+04  0.26072088811E+04  0.50400001928E-02 0. -1.
    10030    2    1    2    0    0  0.00000000000E+00  0.00000000000E+00 -0.11415690921E+04  0.40728486702E+04  0.39095928558E+04 0.  0.
        2    1    3    3  502    0 -0.14774558505E+04  0.11211205539E+04 -0.12141844476E+04  0.22167613672E+04  0.25500000920E-02 0. -1.
       -2    1    3    3    0  502  0.14774558505E+04 -0.11211205539E+04  0.72615355504E+02  0.18560873030E+04  0.25500000920E-02 0.  1.
</event>
<event>
 5   0  0.4750125E-08  0.3909593E+04  0.7818609E-02  0.8023037E-01
       -1   -1    0    0    0  501  0.00000000000E+00  0.00000000000E+00  0.23728236292E+04  0.23728236292E+04  0.50400001928E-02 0. -1.
        1   -1    0    0  501    0  0.00000000000E+00  0.00000000000E+00 -0.16104141697E+04  0.16104141697E+04  0.50400001928E-02 0.  1.
    10030    2    1    2    0    0  0.00000000000E+00  0.00000000000E+00  0.76240945951E+03  0.39832377990E+04  0.39095927127E+04 0.  0.
        3    1    3    3  502    0  0.18210220096E+04 -0.70152436907E+03  0.26516825061E+03  0.19694090005E+04  0.10100000352E+00 0.  1.
       -3    1    3    3    0  502 -0.18210220096E+04  0.70152436907E+03  0.49724120890E+03  0.20138287985E+04  0.10100000352E+00 0. -1.
</event>
<event>
 5   0  0.1501585E-07  0.3947408E+04  0.7818609E-02  0.8015241E-01
       -2   -1    0    0    0  501  0.00000000000E+00  0.00000000000E+00  0.21514902788E+04  0.21514902788E+04  0.25500000920E-02 0. -1.
        2   -1    0    0  501    0  0.00000000000E+00  0.00000000000E+00 -0.18106086268E+04  0.18106086268E+04  0.25500000920E-02 0.  1.
    10030    2    1    2    0    0  0.00000000000E+00  0.00000000000E+00  0.34088165197E+03  0.39620989056E+04  0.39474076857E+04 0.  0.
        5    1    3    3  502    0 -0.13515855416E+04 -0.87317845708E+03  0.13176120820E+04  0.20797470477E+04  0.46999998093E+01 0. -1.
       -5    1    3    3    0  502  0.13515855416E+04  0.87317845708E+03 -0.97673043000E+03  0.18823518579E+04  0.46999998093E+01 0.  1.
</event>
<event>
 5   0  0.1538018E-07  0.3884793E+04  0.7818609E-02  0.8028199E-01
       -2   -1    0    0    0  501  0.00000000000E+00  0.00000000000E+00  0.11855807900E+04  0.11855807900E+04  0.25500000920E-02 0.  1.
        2   -1    0    0  501    0  0.00000000000E+00  0.00000000000E+00 -0.31823256054E+04  0.31823256054E+04  0.25500000920E-02 0. -1.
    10030    2    1    2    0    0  0.00000000000E+00  0.00000000000E+00 -0.19967448153E+04  0.43679063954E+04  0.38847929702E+04 0.  0.
        1    1    3    3  502    0 -0.64380625511E+02 -0.54025156864E+03 -0.30949008661E+04  0.31423602583E+04  0.50400001928E-02 0. -1.
       -1    1    3    3    0  502  0.64380625511E+02  0.54025156864E+03  0.10981560507E+04  0.12255461371E+04  0.50400001928E-02 0.  1.
</event>
<event>
 5   0  0.4750125E-08  0.3884441E+04  0.7818609E-02  0.8028273E-01
       -1   -1    0    0    0  501  0.00000000000E+00  0.00000000000E+00  0.17979222920E+04  0.17979222920E+04  0.50400001928E-02 0. -1.
        1   -1    0    0  501    0  0.00000000000E+00  0.00000000000E+00 -0.20980993835E+04  0.20980993835E+04  0.50400001928E-02 0.  1.
    10030    2    1    2    0    0  0.00000000000E+00  0.00000000000E+00 -0.30017709156E+03  0.38960216755E+04  0.38844405788E+04 0.  0.
        4    1    3    3  502    0 -0.15700290202E+04 -0.11182176013E+04  0.88983831367E+02  0.19295910093E+04  0.12699999809E+01 0.  1.
       -4    1    3    3    0  502  0.15700290202E+04  0.11182176013E+04 -0.38916092293E+03  0.19664306662E+04  0.12699999809E+01 0. -1.
</event>
<event>
 5   0  0.4750125E-08  0.3901858E+04  0.7818609E-02  0.8024643E-01
       -1   -1    0    0    0  501  0.00000000000E+00  0.00000000000E+00  0.30083372634E+04  0.30083372634E+04  0.50400001928E-02 0. -1.
        1   -1    0    0  501    0  0.00000000000E+00  0.00000000000E+00 -0.12651917794E+04  0.12651917794E+04  0.50400001928E-02 0.  1.
    10030    2    1    2    0    0  0.00000000000E+00  0.00000000000E+00  0.17431454839E+04  0.42735290428E+04  0.39018578013E+04 0.  0.
        4    1    3    3  502    0  0.45872036002E+03 -0.76511673925E+03  0.27718618366E+04  0.29118804315E+04  0.12699999809E+01 0. -1.
       -4    1    3    3    0  502 -0.45872036002E+03  0.76511673925E+03 -0.10287163527E+04  0.13616486113E+04  0.12699999809E+01 0.  1.
</event>
<event>
 5   0  0.4750125E-08  0.3847278E+04  0.7818609E-02  0.8036085E-01
       -1   -1    0    0    0  501  0.00000000000E+00  0.00000000000E+00  0.16955480883E+04  0.16955480883E+04  0.50400001928E-02 0.  1.
        1   -1    0    0  501    0  0.00000000000E+00  0.00000000000E+00 -0.21824130770E+04  0.21824130770E+04  0.50400001928E-02 0. -1.
    10030    2    1    2    0    0  0.00000000000E+00  0.00000000000E+00 -0.48686498865E+03  0.38779611653E+04  0.38472776456E+04 0.  0.
        5    1    3    3  502    0 -0.23806073381E+03 -0.10808173531E+04  0.13424959904E+04  0.17398725924E+04  0.46999998093E+01 0.  1.
       -5    1    3    3    0  502  0.23806073381E+03  0.10808173531E+04 -0.18293609791E+04  0.21380885729E+04  0.46999998093E+01 0. -1.
</event>
<event>
 5   0  0.1520986E-07  0.3855056E+04  0.7818609E-02  0.8034442E-01
        2   -1    0    0  501    0  0.00000000000E+00  0.00000000000E+00  0.20360068452E+04  0.20360068452E+04  0.25500000920E-02 0. -1.
       -2   -1    0    0    0  501  0.00000000000E+00  0.00000000000E+00 -0.18248286705E+04  0.18248286705E+04  0.25500000920E-02 0.  1.
    10030    2    1    2    0    0  0.00000000000E+00  0.00000000000E+00  0.21117817468E+03  0.38608355158E+04  0.38550557270E+04 0.  0.
        4    1    3    3  502    0  0.30459794216E+03 -0.23646216144E+03 -0.17858047481E+04  0.18269631828E+04  0.12699999809E+01 0.  1.
       -4    1    3    3    0  502 -0.30459794216E+03  0.23646216144E+03  0.19969829227E+04  0.20338723330E+04  0.12699999809E+01 0. -1.
</event>
<event>
 5   0  0.4750125E-08  0.3893432E+04  0.7818609E-02  0.8026397E-01
       -3   -1    0    0    0  501  0.00000000000E+00  0.00000000000E+00  0.20844946056E+04  0.20844946080E+04  0.10100000352E+00 0. -1.
        3   -1    0    0  501    0  0.00000000000E+00  0.00000000000E+00 -0.18180437966E+04  0.18180437994E+04  0.10100000352E+00 0.  1.
    10030    2    1    2    0    0  0.00000000000E+00  0.00000000000E+00  0.26645080902E+03  0.39025384074E+04  0.38934316467E+04 0.  0.
        3    1    3    3  502    0 -0.14794265542E+04 -0.10684247901E+04 -0.54620077711E+03  0.19048805108E+04  0.10100000352E+00 0.  1.
       -3    1    3    3    0  502  0.14794265542E+04  0.10684247901E+04  0.81265158613E+03  0.19976578966E+04  0.10100000352E+00 0. -1.
</event>
<event>
 5   0  0.1503228E-07  0.3891653E+04  0.7818609E-02  0.8026767E-01
       -2   -1    0    0    0  501  0.00000000000E+00  0.00000000000E+00  0.21441518159E+04  0.21441518159E+04  0.25500000920E-02 0.  1.
        2   -1    0    0  501    0  0.00000000000E+00  0.00000000000E+00 -0.17658456370E+04  0.17658456370E+04  0.25500000920E-02 0. -1.
    10030    2    1    2    0    0  0.00000000000E+00  0.00000000000E+00  0.37830617892E+03  0.39099974530E+04  0.38916531856E+04 0.  0.
        3    1    3    3  502    0 -0.56541573653E+02 -0.19002965086E+04  0.60573671686E+03  0.19953046761E+04  0.10100000352E+00 0.  1.
       -3    1    3    3    0  502  0.56541573653E+02  0.19002965086E+04 -0.22743053793E+03  0.19146927769E+04  0.10100000352E+00 0. -1.
</event>
<event>
 5   0  0.1503228E-07  0.3887342E+04  0.7818609E-02  0.8027667E-01
        2   -1    0    0  501    0  0.00000000000E+00  0.00000000000E+00  0.20553977502E+04  0.20553977502E+04  0.25500000920E-02 0.  1.
       -2   -1    0    0    0  501  0.00000000000E+00  0.00000000000E+00 -0.18380171208E+04  0.18380171208E+04  0.25500000920E-02 0. -1.
    10030    2    1    2    0    0  0.00000000000E+00  0.00000000000E+00  0.21738062940E+03  0.38934148709E+04  0.38873416391E+04 0.  0.
        3    1    3    3  502    0 -0.15219921628E+04 -0.60720407208E+03  0.11556460217E+04  0.20051620051E+04  0.10100000352E+00 0.  1.
       -3    1    3    3    0  502  0.15219921628E+04  0.60720407208E+03 -0.93826539235E+03  0.18882528659E+04  0.10100000352E+00 0. -1.
</event>
<event>
 5   0  0.4750125E-08  0.3898931E+04  0.7818609E-02  0.8025252E-01
        3   -1    0    0  501    0  0.00000000000E+00  0.00000000000E+00  0.17624293450E+04  0.17624293478E+04  0.10100000352E+00 0.  1.
       -3   -1    0    0    0  501  0.00000000000E+00  0.00000000000E+00 -0.21563509408E+04  0.21563509432E+04  0.10100000352E+00 0. -1.
    10030    2    1    2    0    0  0.00000000000E+00  0.00000000000E+00 -0.39392159589E+03  0.39187802911E+04  0.38989312312E+04 0.  0.
        2    1    3    3  502    0 -0.11858265225E+04  0.96340566678E+01 -0.17521384440E+04  0.21157189047E+04  0.25500000920E-02 0. -1.
       -2    1    3    3    0  502  0.11858265225E+04 -0.96340566678E+01  0.13582168481E+04  0.18030613864E+04  0.25500000920E-02 0.  1.
</event>
<event>
 5   0  0.1503228E-07  0.3907449E+04  0.7818609E-02  0.8023482E-01
       -2   -1    0    0    0  501  0.00000000000E+00  0.00000000000E+00  0.17469031620E+04  0.17469031620E+04  0.25500000920E-02 0.  1.
        2   -1    0    0  501    0  0.00000000000E+00  0.00000000000E+00 -0.21850325464E+04  0.21850325464E+04  0.25500000920E-02 0. -1.
    10030    2    1    2    0    0  0.00000000000E+00  0.00000000000E+00 -0.43812938434E+03  0.39319357084E+04  0.39074494312E+04 0.  0.
        3    1    3    3  502    0  0.28879412482E+03 -0.57913516765E+03  0.16359190518E+04  0.17592699461E+04  0.10100000352E+00 0.  1.
       -3    1    3    3    0  502 -0.28879412482E+03  0.57913516765E+03 -0.20740484362E+04  0.21726657623E+04  0.10100000352E+00 0. -1.
</event>
<event>
 5   0  0.1546846E-07  0.3916709E+04  0.7818609E-02  0.8021563E-01
        2   -1    0    0  501    0  0.00000000000E+00  0.00000000000E+00  0.16747339043E+04  0.16747339043E+04  0.25500000920E-02 0.  1.
       -2   -1    0    0    0  501  0.00000000000E+00  0.00000000000E+00 -0.22900074820E+04  0.22900074820E+04  0.25500000920E-02 0. -1.
    10030    2    1    2    0    0  0.00000000000E+00  0.00000000000E+00 -0.61527357773E+03  0.39647413862E+04  0.39167094205E+04 0.  0.
        2    1    3    3  502    0  0.51234579495E+03  0.16008104274E+04  0.70970597087E+03  0.18244930263E+04  0.25500000920E-02 0.  1.
       -2    1    3    3    0  502 -0.51234579495E+03 -0.16008104274E+04 -0.13249795486E+04  0.21402483599E+04  0.25500000920E-02 0. -1.
</event>
<event>
 5   0  0.1538018E-07  0.3885745E+04  0.7818609E-02  0.8028000E-01
       -2   -1    0    0    0  501  0.00000000000E+00  0.00000000000E+00  0.18136591899E+04  0.18136591899E+04  0.25500000920E-02 0. -1.
        2   -1    0    0  501    0  0.00000000000E+00  0.00000000000E+00 -0.20812917047E+04  0.20812917047E+04  0.25500000920E-02 0.  1.
    10030    2    1    2    0    0  0.00000000000E+00  0.00000000000E+00 -0.26763251481E+03  0.38949508946E+04  0.38857451420E+04 0.  0.
        1    1    3    3  502    0  0.17953307753E+04  0.66413389679E+03  0.19933752098E+03  0.19245835583E+04  0.50400001928E-02 0. -1.
       -1    1    3    3    0  502 -0.17953307753E+04 -0.66413389679E+03 -0.46697003579E+03  0.19703673363E+04  0.50400001928E-02 0.  1.
</event>
<event>
 5   0  0.4750125E-08  0.3893292E+04  0.7818609E-02  0.8026426E-01
        1   -1    0    0  501    0  0.00000000000E+00  0.00000000000E+00  0.22852873296E+04  0.22852873297E+04  0.50400001928E-02 0.  1.
       -1   -1    0    0    0  501  0.00000000000E+00  0.00000000000E+00 -0.16581856751E+04  0.16581856751E+04  0.50400001928E-02 0. -1.
    10030    2    1    2    0    0  0.00000000000E+00  0.00000000000E+00  0.62710165457E+03  0.39434730047E+04  0.38932920330E+04 0.  0.
        3    1    3    3  502    0  0.16518224661E+04  0.42876303268E+03  0.12621448469E+04  0.21225844677E+04  0.10100000352E+00 0.  1.
       -3    1    3    3    0  502 -0.16518224661E+04 -0.42876303268E+03 -0.63504319238E+03  0.18208885370E+04  0.10100000352E+00 0. -1.
</event>
<event>
 5   0  0.1520986E-07  0.3880516E+04  0.7818609E-02  0.8029094E-01
        2   -1    0    0  501    0  0.00000000000E+00  0.00000000000E+00  0.28563497704E+04  0.28563497704E+04  0.25500000920E-02 0. -1.
       -2   -1    0    0    0  501  0.00000000000E+00  0.00000000000E+00 -0.13179759304E+04  0.13179759304E+04  0.25500000920E-02 0.  1.
    10030    2    1    2    0    0  0.00000000000E+00  0.00000000000E+00  0.15383738400E+04  0.41743257008E+04  0.38805155566E+04 0.  0.
        4    1    3    3  502    0 -0.11690589915E+04  0.14936567578E+04  0.32973535435E+03  0.19252107554E+04  0.12699999809E+01 0.  1.
       -4    1    3    3    0  502  0.11690589915E+04 -0.14936567578E+04  0.12086384856E+04  0.22491149454E+04  0.12699999809E+01 0. -1.
</event>
<event>
 5   0  0.1520986E-07  0.3804991E+04  0.7818609E-02  0.8045085E-01
       -2   -1    0    0    0  501  0.00000000000E+00  0.00000000000E+00  0.17703184954E+04  0.17703184954E+04  0.25500000920E-02 0. -1.
        2   -1    0    0  501    0  0.00000000000E+00  0.00000000000E+00 -0.20445410119E+04  0.20445410119E+04  0.25500000920E-02 0.  1.
    10030    2    1    2    0    0  0.00000000000E+00  0.00000000000E+00 -0.27422251644E+03  0.38148595073E+04  0.38049908110E+04 0.  0.
        4    1    3    3  502    0 -0.19973990408E+03  0.13665179318E+04 -0.14490232512E+04  0.20017335694E+04  0.12699999809E+01 0.  1.
       -4    1    3    3    0  502  0.19973990408E+03 -0.13665179318E+04  0.11748007348E+04  0.18131259379E+04  0.12699999809E+01 0. -1.
</event>
<event>
 5   0  0.1501585E-07  0.3885855E+04  0.7818609E-02  0.8027978E-01
       -2   -1    0    0    0  501  0.00000000000E+00  0.00000000000E+00  0.14320496084E+04  0.14320496084E+04  0.25500000920E-02 0. -1.
        2   -1    0    0  501    0  0.00000000000E+00  0.00000000000E+00 -0.26360588263E+04  0.26360588263E+04  0.25500000920E-02 0.  1.
    10030    2    1    2    0    0  0.00000000000E+00  0.00000000000E+00 -0.12040092179E+04  0.40681084347E+04  0.38858548660E+04 0.  0.
        5    1    3    3  502    0 -0.91271401746E+03 -0.16282940081E+04 -0.11663193120E+04  0.22010704401E+04  0.46999998093E+01 0. -1.
       -5    1    3    3    0  502  0.91271401746E+03  0.16282940081E+04 -0.37689905877E+02  0.18670379947E+04  0.46999998093E+01 0.  1.
</event>
<event>
 5   0  0.4750125E-08  0.3875362E+04  0.7818609E-02  0.8030173E-01
       -1   -1    0    0    0  501  0.00000000000E+00  0.00000000000E+00  0.23406830541E+04  0.23406830541E+04  0.50400001928E-02 0.  1.
        1   -1    0    0  501    0  0.00000000000E+00  0.00000000000E+00 -0.16040646075E+04  0.16040646075E+04  0.50400001928E-02 0. -1.
    10030    2    1    2    0    0  0.00000000000E+00  0.00000000000E+00  0.73661844658E+03  0.39447476616E+04  0.38753615803E+04 0.  0.
        4    1    3    3  502    0 -0.15431737077E+04  0.74182755200E+03  0.12916961077E+04  0.21448015425E+04  0.12699999809E+01 0.  1.
       -4    1    3    3    0  502  0.15431737077E+04 -0.74182755200E+03 -0.55507766117E+03  0.17999461191E+04  0.12699999809E+01 0. -1.
</event>
<event>
 5   0  0.4762788E-08  0.4310046E+04  0.7818609E-02  0.7944763E-01
       -1   -1    0    0    0  501  0.00000000000E+00  0.00000000000E+00  0.30879185385E+04  0.30879185385E+04  0.50400001928E-02 0. -1.
        1   -1    0    0  501    0  0.00000000000E+00  0.00000000000E+00 -0.15039661250E+04  0.15039661251E+04  0.50400001928E-02 0.  1.
    10030    2    1    2    0    0  0.00000000000E+00  0.00000000000E+00  0.15839524135E+04  0.45918846636E+04  0.43100463473E+04 0.  0.
        2    1    3    3  502    0 -0.21016583327E+04  0.19718625158E+03  0.12542561260E+04  0.24554039576E+04  0.25500000920E-02 0.  1.
       -2    1    3    3    0  502  0.21016583327E+04 -0.19718625158E+03  0.32969628754E+03  0.21364807060E+04  0.25500000920E-02 0. -1.
</event>
<event>
 5   0  0.1503228E-07  0.3919998E+04  0.7818609E-02  0.8020883E-01
       -2   -1    0    0    0  501  0.00000000000E+00  0.00000000000E+00  0.14670668714E+04  0.14670668714E+04  0.25500000920E-02 0. -1.
        2   -1    0    0  501    0  0.00000000000E+00  0.00000000000E+00 -0.26185556741E+04  0.26185556741E+04  0.25500000920E-02 0.  1.
    10030    2    1    2    0    0  0.00000000000E+00  0.00000000000E+00 -0.11514888027E+04  0.40856225455E+04  0.39199981023E+04 0.  0.
        3    1    3    3  502    0  0.15566098040E+04  0.11906143255E+04 -0.60869860255E+03  0.20520990602E+04  0.10100000352E+00 0. -1.
       -3    1    3    3    0  502 -0.15566098040E+04 -0.11906143255E+04 -0.54279020014E+03  0.20335234853E+04  0.10100000352E+00 0.  1.
</event>
<event>
 5   0  0.1520986E-07  0.3887779E+04  0.7818609E-02  0.8027576E-01
        2   -1    0    0  501    0  0.00000000000E+00  0.00000000000E+00  0.20725426387E+04  0.20725426387E+04  0.25500000920E-02 0.  1.
       -2   -1    0    0    0  501  0.00000000000E+00  0.00000000000E+00 -0.18232220474E+04  0.18232220474E+04  0.25500000920E-02 0. -1.
    10030    2    1    2    0    0  0.00000000000E+00  0.00000000000E+00  0.24932059133E+03  0.38957646861E+04  0.38877785087E+04 0.  0.
        4    1    3    3  502    0  0.16580394855E+04  0.38432053085E+03  0.10656881999E+04  0.20081061123E+04  0.12699999809E+01 0.  1.
       -4    1    3    3    0  502 -0.16580394855E+04 -0.38432053085E+03 -0.81636760862E+03  0.18876585738E+04  0.12699999809E+01 0. -1.
</event>
<event>
 5   0  0.1520986E-07  0.3900714E+04  0.7818609E-02  0.8024881E-01
        2   -1    0    0  501    0  0.00000000000E+00  0.00000000000E+00  0.22167307989E+04  0.22167307989E+04  0.25500000920E-02 0. -1.
       -2   -1    0    0    0  501  0.00000000000E+00  0.00000000000E+00 -0.17159921698E+04  0.17159921698E+04  0.25500000920E-02 0.  1.
    10030    2    1    2    0    0  0.00000000000E+00  0.00000000000E+00  0.50073862908E+03  0.39327229687E+04  0.39007141364E+04 0.  0.
        4    1    3    3  502    0 -0.18567333215E+04  0.12567588696E+03  0.83880065199E+03  0.20412842042E+04  0.12699999809E+01 0.  1.
       -4    1    3    3    0  502  0.18567333215E+04 -0.12567588696E+03 -0.33806202291E+03  0.18914387645E+04  0.12699999809E+01 0. -1.
</event>
<event>
 5   0  0.4750125E-08  0.3948034E+04  0.7818609E-02  0.8015113E-01
        1   -1    0    0  501    0  0.00000000000E+00  0.00000000000E+00  0.16902575379E+04  0.16902575379E+04  0.50400001928E-02 0.  1.
       -1   -1    0    0    0  501  0.00000000000E+00  0.00000000000E+00 -0.23054139216E+04  0.23054139217E+04  0.50400001928E-02 0. -1.
    10030    2    1    2    0    0  0.00000000000E+00  0.00000000000E+00 -0.61515638371E+03  0.39956714596E+04  0.39480340724E+04 0.  0.
        3    1    3    3  502    0  0.64910320730E+03 -0.31873440224E+03  0.15513799825E+04  0.17116385288E+04  0.10100000352E+00 0.  1.
       -3    1    3    3    0  502 -0.64910320730E+03  0.31873440224E+03 -0.21665363662E+04  0.22840329308E+04  0.10100000352E+00 0. -1.
</event>
<event>
 5   0  0.4750125E-08  0.3881650E+04  0.7818609E-02  0.8028856E-01
        1   -1    0    0  501    0  0.00000000000E+00  0.00000000000E+00  0.20837000895E+04  0.20837000895E+04  0.50400001928E-02 0.  1.
       -1   -1    0    0    0  501  0.00000000000E+00  0.00000000000E+00 -0.18077468250E+04  0.18077468250E+04  0.50400001928E-02 0. -1.
    10030    2    1    2    0    0  0.00000000000E+00  0.00000000000E+00  0.27595326447E+03  0.38914469146E+04  0.38816502785E+04 0.  0.
        1    1    3    3  502    0  0.64269905866E+03  0.12901516755E+04 -0.11650146641E+04  0.18533247404E+04  0.50400001928E-02 0. -1.
       -1    1    3    3    0  502 -0.64269905866E+03 -0.12901516755E+04  0.14409679285E+04  0.20381221742E+04  0.50400001928E-02 0.  1.
</event>
<event>
 5   0  0.4750125E-08  0.3910512E+04  0.7818609E-02  0.8022846E-01
       -1   -1    0    0    0  501  0.00000000000E+00  0.00000000000E+00  0.21545395871E+04  0.21545395871E+04  0.50400001928E-02 0. -1.
        1   -1    0    0  501    0  0.00000000000E+00  0.00000000000E+00 -0.17744052372E+04  0.17744052372E+04  0.50400001928E-02 0.  1.
    10030    2    1    2    0    0  0.00000000000E+00  0.00000000000E+00  0.38013434989E+03  0.39289448243E+04  0.39105121542E+04 0.  0.
        4    1    3    3  502    0  0.12778622946E+04 -0.44560133371E+03 -0.12278013038E+04  0.18272904112E+04  0.12699999809E+01 0.  1.
       -4    1    3    3    0  502 -0.12778622946E+04  0.44560133371E+03  0.16079356537E+04  0.21016544130E+04  0.12699999809E+01 0. -1.
</event>
<event>
 5   0  0.1538018E-07  0.3692860E+04  0.7818609E-02  0.8069546E-01
       -2   -1    0    0    0  501  0.00000000000E+00  0.00000000000E+00  0.14441022931E+04  0.14441022931E+04  0.25500000920E-02 0.  1.
        2   -1    0    0  501    0  0.00000000000E+00  0.00000000000E+00 -0.23608460869E+04  0.23608460869E+04  0.25500000920E-02 0. -1.
    10030    2    1    2    0    0  0.00000000000E+00  0.00000000000E+00 -0.91674379378E+03  0.38049483800E+04  0.36928597307E+04 0.  0.
        1    1    3    3  502    0 -0.14062040293E+04  0.10537515347E+04 -0.10425930026E+04  0.20432332803E+04  0.50400001928E-02 0. -1.
       -1    1    3    3    0  502  0.14062040293E+04 -0.10537515347E+04  0.12584920881E+03  0.17617150996E+04  0.50400001928E-02 0.  1.
</event>
<event>
 5   0  0.1520986E-07  0.3890205E+04  0.7818609E-02  0.8027069E-01
       -2   -1    0    0    0  501  0.00000000000E+00  0.00000000000E+00  0.15730538494E+04  0.15730538494E+04  0.25500000920E-02 0.  1.
        2   -1    0    0  501    0  0.00000000000E+00  0.00000000000E+00 -0.24051461354E+04  0.24051461354E+04  0.25500000920E-02 0. -1.
    10030    2    1    2    0    0  0.00000000000E+00  0.00000000000E+00 -0.83209228604E+03  0.39781999848E+04  0.38902053347E+04 0.  0.
        4    1    3    3  502    0  0.12299223701E+04  0.40225872784E+03  0.10690078709E+04  0.16784816238E+04  0.12699999809E+01 0.  1.
       -4    1    3    3    0  502 -0.12299223701E+04 -0.40225872784E+03 -0.19011001569E+04  0.22997183610E+04  0.12699999809E+01 0. -1.
</event>
<event>
 5   0  0.4750125E-08  0.3907430E+04  0.7818609E-02  0.8023486E-01
        1   -1    0    0  501    0  0.00000000000E+00  0.00000000000E+00  0.22336191245E+04  0.22336191245E+04  0.50400001928E-02 0.  1.
       -1   -1    0    0    0  501  0.00000000000E+00  0.00000000000E+00 -0.17088863952E+04  0.17088863952E+04  0.50400001928E-02 0. -1.
    10030    2    1    2    0    0  0.00000000000E+00  0.00000000000E+00  0.52473272927E+03  0.39425055197E+04  0.39074295049E+04 0.  0.
        5    1    3    3  502    0 -0.12265699582E+04  0.14668759200E+04 -0.14220741583E+03  0.19174055039E+04  0.46999998093E+01 0. -1.
       -5    1    3    3    0  502  0.12265699582E+04 -0.14668759200E+04  0.66694014510E+03  0.20251000159E+04  0.46999998093E+01 0.  1.
</event>
<event>
 5   0  0.1538018E-07  0.3842244E+04  0.7818609E-02  0.8037150E-01
       -2   -1    0    0    0  501  0.00000000000E+00  0.00000000000E+00  0.14082233461E+04  0.14082233461E+04  0.25500000920E-02 0. -1.
        2   -1    0    0  501    0  0.00000000000E+00  0.00000000000E+00 -0.26208265819E+04  0.26208265819E+04  0.25500000920E-02 0.  1.
    10030    2    1    2    0    0  0.00000000000E+00  0.00000000000E+00 -0.12126032358E+04  0.40290499280E+04  0.38422437084E+04 0.  0.
        1    1    3    3  502    0  0.14497808996E+04  0.42160246134E+03 -0.18519515365E+04  0.23894220611E+04  0.50400001928E-02 0.  1.
       -1    1    3    3    0  502 -0.14497808996E+04 -0.42160246134E+03  0.63934830072E+03  0.16396278669E+04  0.50400001928E-02 0. -1.
</event>
<event>
 5   0  0.4750125E-08  0.3896552E+04  0.7818609E-02  0.8025747E-01
        1   -1    0    0  501    0  0.00000000000E+00  0.00000000000E+00  0.26125925789E+04  0.26125925789E+04  0.50400001928E-02 0. -1.
       -1   -1    0    0    0  501  0.00000000000E+00  0.00000000000E+00 -0.14528783489E+04  0.14528783489E+04  0.50400001928E-02 0.  1.
    10030    2    1    2    0    0  0.00000000000E+00  0.00000000000E+00  0.11597142301E+04  0.40654709278E+04  0.38965519077E+04 0.  0.
        3    1    3    3  502    0  0.22575805776E+03  0.59848356258E+03 -0.13402005115E+04  0.14850207731E+04  0.10100000352E+00 0.  1.
       -3    1    3    3    0  502 -0.22575805776E+03 -0.59848356258E+03  0.24999147416E+04  0.25804501547E+04  0.10100000352E+00 0. -1.
</event>
<event>
 5   0  0.4750125E-08  0.3893319E+04  0.7818609E-02  0.8026420E-01
        1   -1    0    0  501    0  0.00000000000E+00  0.00000000000E+00  0.20855024228E+04  0.20855024228E+04  0.50400001928E-02 0. -1.
       -1   -1    0    0    0  501  0.00000000000E+00  0.00000000000E+00 -0.18170597348E+04  0.18170597348E+04  0.50400001928E-02 0.  1.
    10030    2    1    2    0    0  0.00000000000E+00  0.00000000000E+00  0.26844268797E+03  0.39025621577E+04  0.38933186253E+04 0.  0.
        5    1    3    3  502    0 -0.10477494310E+04  0.16316600563E+04  0.30599617294E+03  0.19630968283E+04  0.46999998093E+01 0.  1.
       -5    1    3    3    0  502  0.10477494310E+04 -0.16316600563E+04 -0.37553484965E+02  0.19394653293E+04  0.46999998093E+01 0. -1.
</event>
<event>
 5   0  0.4750125E-08  0.3903892E+04  0.7818609E-02  0.8024220E-01
       -4   -1    0    0    0  501  0.00000000000E+00  0.00000000000E+00  0.18705833364E+04  0.18705837675E+04  0.12699999809E+01 0. -1.
        4   -1    0    0  501    0  0.00000000000E+00  0.00000000000E+00 -0.20368470622E+04  0.20368474581E+04  0.12699999809E+01 0.  1.
    10030    2    1    2    0    0  0.00000000000E+00  0.00000000000E+00 -0.16626372577E+03  0.39074312256E+04  0.39038923085E+04 0.  0.
        1    1    3    3  502    0  0.10311417034E+04  0.16522216807E+04  0.47386094048E+02  0.19481619893E+04  0.50400001928E-02 0. -1.
       -1    1    3    3    0  502 -0.10311417034E+04 -0.16522216807E+04 -0.21364981982E+03  0.19592692363E+04  0.50400001928E-02 0.  1.
</event>
<event>
 5   0  0.1501585E-07  0.3918324E+04  0.7818609E-02  0.8021229E-01
       -2   -1    0    0    0  501  0.00000000000E+00  0.00000000000E+00  0.28952171558E+04  0.28952171558E+04  0.25500000920E-02 0.  1.
        2   -1    0    0  501    0  0.00000000000E+00  0.00000000000E+00 -0.13257436598E+04  0.13257436598E+04  0.25500000920E-02 0. -1.
    10030    2    1    2    0    0  0.00000000000E+00  0.00000000000E+00  0.15694734960E+04  0.42209608156E+04  0.39183240234E+04 0.  0.
        5    1    3    3  502    0  0.10892107362E+03  0.38187591745E+03 -0.12819293950E+04  0.13420350519E+04  0.46999998093E+01 0. -1.
       -5    1    3    3    0  502 -0.10892107362E+03 -0.38187591745E+03  0.28514028910E+04  0.28789257638E+04  0.46999998093E+01 0.  1.
</event>
<event>
 5   0  0.1520986E-07  0.3851518E+04  0.7818609E-02  0.8035189E-01
       -2   -1    0    0    0  501  0.00000000000E+00  0.00000000000E+00  0.23307136385E+04  0.23307136385E+04  0.25500000920E-02 0. -1.
        2   -1    0    0  501    0  0.00000000000E+00  0.00000000000E+00 -0.15911638447E+04  0.15911638447E+04  0.25500000920E-02 0.  1.
    10030    2    1    2    0    0  0.00000000000E+00  0.00000000000E+00  0.73954979378E+03  0.39218774832E+04  0.38515177652E+04 0.  0.
        4    1    3    3  502    0  0.18669450436E+04  0.37520552473E+03  0.66186465558E+03  0.20160182084E+04  0.12699999809E+01 0.  1.
       -4    1    3    3    0  502 -0.18669450436E+04 -0.37520552473E+03  0.77685138201E+02  0.19058592747E+04  0.12699999809E+01 0. -1.
</event>
<event>
 5   0  0.4750125E-08  0.3904069E+04  0.7818609E-02  0.8024183E-01
       -1   -1    0    0    0  501  0.00000000000E+00  0.00000000000E+00  0.21621360408E+04  0.21621360408E+04  0.50400001928E-02 0.  1.
        1   -1    0    0  501    0  0.00000000000E+00  0.00000000000E+00 -0.17623495442E+04  0.17623495442E+04  0.50400001928E-02 0. -1.
    10030    2    1    2    0    0  0.00000000000E+00  0.00000000000E+00  0.39978649657E+03  0.39244855850E+04  0.39040693980E+04 0.  0.
        1    1    3    3  502    0 -0.11202472627E+04 -0.26959113247E+01  0.18068393310E+04  0.21259420419E+04  0.50400001928E-02 0.  1.
       -1    1    3    3    0  502  0.11202472627E+04  0.26959113247E+01 -0.14070528344E+04  0.17985435431E+04  0.50400001928E-02 0. -1.
</event>
<event>
 5   0  0.1501585E-07  0.3893352E+04  0.7818609E-02  0.8026413E-01
        2   -1    0    0  501    0  0.00000000000E+00  0.00000000000E+00  0.19953101475E+04  0.19953101475E+04  0.25500000920E-02 0.  1.
       -2   -1    0    0    0  501  0.00000000000E+00  0.00000000000E+00 -0.18992268745E+04  0.18992268745E+04  0.25500000920E-02 0. -1.
    10030    2    1    2    0    0  0.00000000000E+00  0.00000000000E+00  0.96083273017E+02  0.38945370220E+04  0.38933515922E+04 0.  0.
        5    1    3    3  502    0  0.19320847241E+04  0.22411563002E+03 -0.31640438255E+02  0.19453026510E+04  0.46999998093E+01 0.  1.
       -5    1    3    3    0  502 -0.19320847241E+04 -0.22411563002E+03  0.12772371127E+03  0.19492343710E+04  0.46999998093E+01 0. -1.
</event>
<event>
 5   0  0.4750125E-08  0.3883795E+04  0.7818609E-02  0.8028408E-01
        1   -1    0    0  501    0  0.00000000000E+00  0.00000000000E+00  0.24073008009E+04  0.24073008009E+04  0.50400001928E-02 0. -1.
       -1   -1    0    0    0  501  0.00000000000E+00  0.00000000000E+00 -0.15664704480E+04  0.15664704480E+04  0.50400001928E-02 0.  1.
    10030    2    1    2    0    0  0.00000000000E+00  0.00000000000E+00  0.84083035296E+03  0.39737712489E+04  0.38837948268E+04 0.  0.
        5    1    3    3  502    0 -0.67233289169E+03 -0.13409142833E+04 -0.84138714858E+03  0.17198944899E+04  0.46999998093E+01 0.  1.
       -5    1    3    3    0  502  0.67233289169E+03  0.13409142833E+04  0.16822175015E+04  0.22538767591E+04  0.46999998093E+01 0. -1.
</event>
<event>
 5   0  0.1503228E-07  0.3913526E+04  0.7818609E-02  0.8022222E-01
       -2   -1    0    0    0  501  0.00000000000E+00  0.00000000000E+00  0.29379885273E+04  0.29379885273E+04  0.25500000920E-02 0.  1.
        2   -1    0    0  501    0  0.00000000000E+00  0.00000000000E+00 -0.13032458429E+04  0.13032458429E+04  0.25500000920E-02 0. -1.
    10030    2    1    2    0    0  0.00000000000E+00  0.00000000000E+00  0.16347426844E+04  0.42412343702E+04  0.39135259471E+04 0.  0.
        3    1    3    3  502    0  0.41334950724E+03  0.11800406456E+04 -0.81384876326E+03  0.14918792043E+04  0.10100000352E+00 0. -1.
       -3    1    3    3    0  502 -0.41334950724E+03 -0.11800406456E+04  0.24485914477E+04  0.27493551659E+04  0.10100000352E+00 0.  1.
</event>
<event>
 5   0  0.1501585E-07  0.3900984E+04  0.7818609E-02  0.8024825E-01
        2   -1    0    0  501    0  0.00000000000E+00  0.00000000000E+00  0.21946348203E+04  0.21946348203E+04  0.25500000920E-02 0. -1.
       -2   -1    0    0    0  501  0.00000000000E+00  0.00000000000E+00 -0.17335087440E+04  0.17335087440E+04  0.25500000920E-02 0.  1.
    10030    2    1    2    0    0  0.00000000000E+00  0.00000000000E+00  0.46112607625E+03  0.39281435643E+04  0.39009837994E+04 0.  0.
        5    1    3    3  502    0  0.99097669263E+03 -0.43466271882E+03 -0.14035199201E+04  0.17722462415E+04  0.46999998093E+01 0.  1.
       -5    1    3    3    0  502 -0.99097669263E+03  0.43466271882E+03  0.18646459964E+04  0.21558973227E+04  0.46999998093E+01 0. -1.
</event>
<event>
 5   0  0.4750125E-08  0.3874409E+04  0.7818609E-02  0.8030373E-01
       -1   -1    0    0    0  501  0.00000000000E+00  0.00000000000E+00  0.15125312172E+04  0.15125312172E+04  0.50400001928E-02 0. -1.
        1   -1    0    0  501    0  0.00000000000E+00  0.00000000000E+00 -0.24811131636E+04  0.24811131636E+04  0.50400001928E-02 0.  1.
    10030    2    1    2    0    0  0.00000000000E+00  0.00000000000E+00 -0.96858194637E+03  0.39936443808E+04  0.38744089167E+04 0.  0.
        4    1    3    3  502    0  0.11579352206E+04 -0.59523931209E+03  0.99430042788E+03  0.16382181685E+04  0.12699999809E+01 0. -1.
       -4    1    3    3    0  502 -0.11579352206E+04  0.59523931209E+03 -0.19628823742E+04  0.23554262123E+04  0.12699999809E+01 0.  1.
</event>
<event>
 5   0  0.1503228E-07  0.3893902E+04  0.7818609E-02  0.8026299E-01
       -2   -1    0    0    0  501  0.00000000000E+00  0.00000000000E+00  0.18019002606E+04  0.18019002606E+04  0.25500000920E-02 0. -1.
        2   -1    0    0  501    0  0.00000000000E+00  0.00000000000E+00 -0.21036777590E+04  0.21036777590E+04  0.25500000920E-02 0.  1.
    10030    2    1    2    0    0  0.00000000000E+00  0.00000000000E+00 -0.30177749836E+03  0.39055780196E+04  0.38939016435E+04 0.  0.
        3    1    3    3  502    0  0.89745480050E+03  0.66699398330E+03 -0.17495035111E+04  0.20763113057E+04  0.10100000352E+00 0.  1.
       -3    1    3    3    0  502 -0.89745480050E+03 -0.66699398330E+03  0.14477260127E+04  0.18292667139E+04  0.10100000352E+00 0. -1.
</event>
<event>
 5   0  0.1546846E-07  0.4026779E+04  0.7818609E-02  0.7999166E-01
       -2   -1    0    0    0  501  0.00000000000E+00  0.00000000000E+00  0.15466381473E+04  0.15466381473E+04  0.25500000920E-02 0. -1.
        2   -1    0    0  501    0  0.00000000000E+00  0.00000000000E+00 -0.26209988722E+04  0.26209988722E+04  0.25500000920E-02 0.  1.
    10030    2    1    2    0    0  0.00000000000E+00  0.00000000000E+00 -0.10743607249E+04  0.41676370195E+04  0.40267787820E+04 0.  0.
        2    1    3    3  502    0  0.11591962797E+04  0.24835442499E+03 -0.22214724942E+04  0.25180063498E+04  0.25500000920E-02 0.  1.
       -2    1    3    3    0  502 -0.11591962797E+04 -0.24835442499E+03  0.11471117693E+04  0.16496306697E+04  0.25500000920E-02 0. -1.
</event>
<event>
 5   0  0.1520986E-07  0.3893360E+04  0.7818609E-02  0.8026412E-01
        2   -1    0    0  501    0  0.00000000000E+00  0.00000000000E+00  0.24623660901E+04  0.24623660901E+04  0.25500000920E-02 0.  1.
       -2   -1    0    0    0  501  0.00000000000E+00  0.00000000000E+00 -0.15389928803E+04  0.15389928803E+04  0.25500000920E-02 0. -1.
    10030    2    1    2    0    0  0.00000000000E+00  0.00000000000E+00  0.92337320987E+03  0.40013589704E+04  0.38933604412E+04 0.  0.
        4    1    3    3  502    0 -0.59040002948E+03  0.43289561092E+02  0.23676138600E+04  0.24405006011E+04  0.12699999809E+01 0.  1.
       -4    1    3    3    0  502  0.59040002948E+03 -0.43289561092E+02 -0.14442406501E+04  0.15608583694E+04  0.12699999809E+01 0. -1.
</event>
<event>
 5   0  0.1501585E-07  0.3886654E+04  0.7818609E-02  0.8027811E-01
        2   -1    0    0  501    0  0.00000000000E+00  0.00000000000E+00  0.21479843524E+04  0.21479843524E+04  0.25500000920E-02 0. -1.
       -2   -1    0    0    0  501  0.00000000000E+00  0.00000000000E+00 -0.17581694805E+04  0.17581694805E+04  0.25500000920E-02 0.  1.
    10030    2    1    2    0    0  0.00000000000E+00  0.00000000000E+00  0.38981487193E+03  0.39061538329E+04  0.38866543623E+04 0.  0.
        5    1    3    3  502    0  0.11561143687E+04 -0.15557554178E+04  0.33533349051E+03  0.19670907435E+04  0.46999998093E+01 0. -1.
       -5    1    3    3    0  502 -0.11561143687E+04  0.15557554178E+04  0.54481381420E+02  0.19390630893E+04  0.46999998093E+01 0.  1.
</event>
<event>
 5   0  0.1538018E-07  0.4044104E+04  0.7818609E-02  0.7995708E-01
        2   -1    0    0  501    0  0.00000000000E+00  0.00000000000E+00  0.18210975681E+04  0.18210975681E+04  0.25500000920E-02 0.  1.
       -2   -1    0    0    0  501  0.00000000000E+00  0.00000000000E+00 -0.22451816905E+04  0.22451816905E+04  0.25500000920E-02 0. -1.
    10030    2    1    2    0    0  0.00000000000E+00  0.00000000000E+00 -0.42408412243E+03  0.40662792586E+04  0.40441043095E+04 0.  0.
        1    1    3    3  502    0 -0.12042045452E+04  0.16241779888E+04 -0.23732332898E+03  0.20357762864E+04  0.50400001928E-02 0. -1.
       -1    1    3    3    0  502  0.12042045452E+04 -0.16241779888E+04 -0.18676079345E+03  0.20305029722E+04  0.50400001928E-02 0.  1.
</event>
<event>
 5   0  0.1538018E-07  0.3893410E+04  0.7818609E-02  0.8026401E-01
        2   -1    0    0  501    0  0.00000000000E+00  0.00000000000E+00  0.11125868267E+04  0.11125868267E+04  0.25500000920E-02 0.  1.
       -2   -1    0    0    0  501  0.00000000000E+00  0.00000000000E+00 -0.34061698937E+04  0.34061698937E+04  0.25500000920E-02 0. -1.
    10030    2    1    2    0    0  0.00000000000E+00  0.00000000000E+00 -0.22935830670E+04  0.45187567203E+04  0.38934096898E+04 0.  0.
        1    1    3    3  502    0 -0.75873954452E+03 -0.90318898996E+03 -0.29441458576E+04  0.31716605870E+04  0.50400001928E-02 0. -1.
       -1    1    3    3    0  502  0.75873954452E+03  0.90318898996E+03  0.65056279060E+03  0.13470961334E+04  0.50400001928E-02 0.  1.
</event>
<event>
 5   0  0.4750125E-08  0.3890914E+04  0.7818609E-02  0.8026922E-01
       -1   -1    0    0    0  501  0.00000000000E+00  0.00000000000E+00  0.23797082197E+04  0.23797082197E+04  0.50400001928E-02 0. -1.
        1   -1    0    0  501    0  0.00000000000E+00  0.00000000000E+00 -0.15904482537E+04  0.15904482537E+04  0.50400001928E-02 0.  1.
    10030    2    1    2    0    0  0.00000000000E+00  0.00000000000E+00  0.78925996599E+03  0.39701564734E+04  0.38909139196E+04 0.  0.
        1    1    3    3  502    0  0.17251054974E+04 -0.81845427593E+03  0.14283280217E+02  0.19094659963E+04  0.50400001928E-02 0.  1.
       -1    1    3    3    0  502 -0.17251054974E+04  0.81845427593E+03  0.77497668577E+03  0.20606904771E+04  0.50400001928E-02 0. -1.
</event>
<event>
 5   0  0.4762788E-08  0.3908040E+04  0.7818609E-02  0.8023359E-01
        1   -1    0    0  501    0  0.00000000000E+00  0.00000000000E+00  0.20328992487E+04  0.20328992487E+04  0.50400001928E-02 0.  1.
       -1   -1    0    0    0  501  0.00000000000E+00  0.00000000000E+00 -0.18782014166E+04  0.18782014166E+04  0.50400001928E-02 0. -1.
    10030    2    1    2    0    0  0.00000000000E+00  0.00000000000E+00  0.15469783208E+03  0.39111006654E+04  0.39080400452E+04 0.  0.
        2    1    3    3  502    0 -0.28030996271E+03  0.43948631986E+02 -0.18574755721E+04  0.18790211969E+04  0.25500000920E-02 0. -1.
       -2    1    3    3    0  502  0.28030996271E+03 -0.43948631986E+02  0.20121734042E+04  0.20320794684E+04  0.25500000920E-02 0.  1.
</event>
<event>
 5   0  0.1538018E-07  0.3702734E+04  0.7818609E-02  0.8067356E-01
        2   -1    0    0  501    0  0.00000000000E+00  0.00000000000E+00  0.16260210102E+04  0.16260210102E+04  0.25500000920E-02 0. -1.
       -2   -1    0    0    0  501  0.00000000000E+00  0.00000000000E+00 -0.21079433911E+04  0.21079433911E+04  0.25500000920E-02 0.  1.
    10030    2    1    2    0    0  0.00000000000E+00  0.00000000000E+00 -0.48192238088E+03  0.37339644014E+04  0.37027342559E+04 0.  0.
        1    1    3    3  502    0 -0.47996282969E+03  0.17386242949E+04 -0.66207338290E+03  0.19213328502E+04  0.50400001928E-02 0. -1.
       -1    1    3    3    0  502  0.47996282969E+03 -0.17386242949E+04  0.18015100203E+03  0.18126315512E+04  0.50400001928E-02 0.  1.
</event>
<event>
 5   0  0.4750125E-08  0.3883504E+04  0.7818609E-02  0.8028469E-01
       -1   -1    0    0    0  501  0.00000000000E+00  0.00000000000E+00  0.16266800444E+04  0.16266800444E+04  0.50400001928E-02 0. -1.
        1   -1    0    0  501    0  0.00000000000E+00  0.00000000000E+00 -0.23178504200E+04  0.23178504200E+04  0.50400001928E-02 0.  1.
    10030    2    1    2    0    0  0.00000000000E+00  0.00000000000E+00 -0.69117037561E+03  0.39445304645E+04  0.38835041003E+04 0.  0.
        5    1    3    3  502    0  0.14341642538E+04  0.39356004033E+03 -0.16136678513E+04  0.21944618102E+04  0.46999998093E+01 0.  1.
       -5    1    3    3    0  502 -0.14341642538E+04 -0.39356004033E+03  0.92249747569E+03  0.17500686543E+04  0.46999998093E+01 0. -1.
</event>
<event>
 5   0  0.1501585E-07  0.3920620E+04  0.7818609E-02  0.8020754E-01
        2   -1    0    0  501    0  0.00000000000E+00  0.00000000000E+00  0.26393246371E+04  0.26393246371E+04  0.25500000920E-02 0. -1.
       -2   -1    0    0    0  501  0.00000000000E+00  0.00000000000E+00 -0.14559846434E+04  0.14559846434E+04  0.25500000920E-02 0.  1.
    10030    2    1    2    0    0  0.00000000000E+00  0.00000000000E+00  0.11833399937E+04  0.40953092805E+04  0.39206204308E+04 0.  0.
        5    1    3    3  502    0 -0.66771271084E+03  0.25450151101E+01 -0.13335320381E+04  0.14913673350E+04  0.46999998093E+01 0.  1.
       -5    1    3    3    0  502  0.66771271084E+03 -0.25450151101E+01  0.25168720318E+04  0.26039419455E+04  0.46999998093E+01 0. -1.
</event>
<event>
 5   0  0.4750125E-08  0.3935103E+04  0.7818609E-02  0.8017768E-01
       -1   -1    0    0    0  501  0.00000000000E+00  0.00000000000E+00  0.15911095010E+04  0.15911095010E+04  0.50400001928E-02 0.  1.
        1   -1    0    0  501    0  0.00000000000E+00  0.00000000000E+00 -0.24330561864E+04  0.24330561864E+04  0.50400001928E-02 0. -1.
    10030    2    1    2    0    0  0.00000000000E+00  0.00000000000E+00 -0.84194668542E+03  0.40241656874E+04  0.39351029540E+04 0.  0.
        3    1    3    3  502    0  0.68723443272E+03 -0.40037954431E+03 -0.22613329466E+04  0.23971277918E+04  0.10100000352E+00 0. -1.
       -3    1    3    3    0  502 -0.68723443272E+03  0.40037954431E+03  0.14193862611E+04  0.16270378955E+04  0.10100000352E+00 0.  1.
</event>
<event>
 5   0  0.1546846E-07  0.3906692E+04  0.7818609E-02  0.8023639E-01
        2   -1    0    0  501    0  0.00000000000E+00  0.00000000000E+00  0.17602649812E+04  0.17602649812E+04  0.25500000920E-02 0. -1.
       -2   -1    0    0    0  501  0.00000000000E+00  0.00000000000E+00 -0.21676056357E+04  0.21676056357E+04  0.25500000920E-02 0.  1.
    10030    2    1    2    0    0  0.00000000000E+00  0.00000000000E+00 -0.40734065449E+03  0.39278706169E+04  0.39066918453E+04 0.  0.
        2    1    3    3  502    0 -0.17121352173E+04  0.45798787666E+03  0.62200047308E+03  0.18783089432E+04  0.25500000920E-02 0. -1.
       -2    1    3    3    0  502  0.17121352173E+04 -0.45798787666E+03 -0.10293411276E+04  0.20495616737E+04  0.25500000920E-02 0.  1.
</event>
<event>
 5   0  0.4750125E-08  0.3892087E+04  0.7818609E-02  0.8026677E-01
        1   -1    0    0  501    0  0.00000000000E+00  0.00000000000E+00  0.19637228721E+04  0.19637228721E+04  0.50400001928E-02 0. -1.
       -1   -1    0    0    0  501  0.00000000000E+00  0.00000000000E+00 -0.19285234159E+04  0.19285234159E+04  0.50400001928E-02 0.  1.
    10030    2    1    2    0    0  0.00000000000E+00  0.00000000000E+00  0.35199456212E+02  0.38922462879E+04  0.38920871219E+04 0.  0.
        4    1    3    3  502    0 -0.20362589885E+03  0.19342253225E+04  0.83880814430E+02  0.19467225557E+04  0.12699999809E+01 0.  1.
       -4    1    3    3    0  502  0.20362589885E+03 -0.19342253225E+04 -0.48681358218E+02  0.19455237322E+04  0.12699999809E+01 0. -1.
</event>
<event>
 5   0  0.4750125E-08  0.3908987E+04  0.7818609E-02  0.8023163E-01
       -1   -1    0    0    0  501  0.00000000000E+00  0.00000000000E+00  0.34412699833E+04  0.34412699833E+04  0.50400001928E-02 0.  1.
        1   -1    0    0  501    0  0.00000000000E+00  0.00000000000E+00 -0.11100685959E+04  0.11100685959E+04  0.50400001928E-02 0. -1.
    10030    2    1    2    0    0  0.00000000000E+00  0.00000000000E+00  0.23312013874E+04  0.45513385791E+04  0.39089874588E+04 0.  0.
        5    1    3    3  502    0  0.26840616870E+03 -0.59371792747E+03 -0.97988442598E+03  0.11767490927E+04  0.46999998093E+01 0. -1.
       -5    1    3    3    0  502 -0.26840616870E+03  0.59371792747E+03  0.33110858134E+04  0.33745894865E+04  0.46999998093E+01 0.  1.
</event>
<event>
 5   0  0.4750125E-08  0.3841931E+04  0.7818609E-02  0.8037216E-01
       -1   -1    0    0    0  501  0.00000000000E+00  0.00000000000E+00  0.26160327136E+04  0.26160327136E+04  0.50400001928E-02 0.  1.
        1   -1    0    0  501    0  0.00000000000E+00  0.00000000000E+00 -0.14105745143E+04  0.14105745143E+04  0.50400001928E-02 0. -1.
    10030    2    1    2    0    0  0.00000000000E+00  0.00000000000E+00  0.12054581993E+04  0.40266072279E+04  0.38419313239E+04 0.  0.
        3    1    3    3  502    0  0.39963886126E+03  0.18779890561E+04  0.54023969264E+03  0.19945959616E+04  0.10100000352E+00 0.  1.
       -3    1    3    3    0  502 -0.39963886126E+03 -0.18779890561E+04  0.66521850661E+03  0.20320112663E+04  0.10100000352E+00 0. -1.
</event>
<event>
 5   0  0.4762788E-08  0.3907972E+04  0.7818609E-02  0.8023373E-01
       -1   -1    0    0    0  501  0.00000000000E+00  0.00000000000E+00  0.14876377322E+04  0.14876377322E+04  0.50400001928E-02 0.  1.
        1   -1    0    0  501    0  0.00000000000E+00  0.00000000000E+00 -0.25665265990E+04  0.25665265990E+04  0.50400001928E-02 0. -1.
    10030    2    1    2    0    0  0.00000000000E+00  0.00000000000E+00 -0.10788888669E+04  0.40541643312E+04  0.39079722667E+04 0.  0.
        2    1    3    3  502    0 -0.22664086095E+03  0.11918269231E+04  0.10496016491E+04  0.16042073171E+04  0.25500000920E-02 0.  1.
       -2    1    3    3    0  502  0.22664086095E+03 -0.11918269231E+04 -0.21284905160E+04  0.24499570141E+04  0.25500000920E-02 0. -1.
</event>
<event>
 5   0  0.1503228E-07  0.3862905E+04  0.7818609E-02  0.8032789E-01
        2   -1    0    0  501    0  0.00000000000E+00  0.00000000000E+00  0.12375495293E+04  0.12375495293E+04  0.25500000920E-02 0. -1.
       -2   -1    0    0    0  501  0.00000000000E+00  0.00000000000E+00 -0.30144323752E+04  0.30144323752E+04  0.25500000920E-02 0.  1.
    10030    2    1    2    0    0  0.00000000000E+00  0.00000000000E+00 -0.17768828459E+04  0.42519819045E+04  0.38629053144E+04 0.  0.
        3    1    3    3  502    0 -0.11904762934E+04 -0.15083979431E+04 -0.11030431026E+04  0.22156719650E+04  0.10100000352E+00 0.  1.
       -3    1    3    3    0  502  0.11904762934E+04  0.15083979431E+04 -0.67383974338E+03  0.20363099396E+04  0.10100000352E+00 0. -1.
</event>
<event>
 5   0  0.1538018E-07  0.3933358E+04  0.7818609E-02  0.8018127E-01
       -2   -1    0    0    0  501  0.00000000000E+00  0.00000000000E+00  0.22438063918E+04  0.22438063918E+04  0.25500000920E-02 0.  1.
        2   -1    0    0  501    0  0.00000000000E+00  0.00000000000E+00 -0.17237793621E+04  0.17237793621E+04  0.25500000920E-02 0. -1.
    10030    2    1    2    0    0  0.00000000000E+00  0.00000000000E+00  0.52002702967E+03  0.39675857539E+04  0.39333584382E+04 0.  0.
        1    1    3    3  502    0 -0.64880486581E+03  0.13927609188E+04 -0.97830770999E+03  0.18214874983E+04  0.50400001928E-02 0. -1.
       -1    1    3    3    0  502  0.64880486581E+03 -0.13927609188E+04  0.14983347397E+04  0.21460982557E+04  0.50400001928E-02 0.  1.
</event>
<event>
 5   0  0.4762788E-08  0.3816216E+04  0.7818609E-02  0.8042684E-01
        1   -1    0    0  501    0  0.00000000000E+00  0.00000000000E+00  0.14924289518E+04  0.14924289519E+04  0.50400001928E-02 0. -1.
       -1   -1    0    0    0  501  0.00000000000E+00  0.00000000000E+00 -0.24395639805E+04  0.24395639805E+04  0.50400001928E-02 0.  1.
    10030    2    1    2    0    0  0.00000000000E+00  0.00000000000E+00 -0.94713502861E+03  0.39319929323E+04  0.38162158819E+04 0.  0.
        2    1    3    3  502    0  0.17862597799E+04 -0.56639495208E+03 -0.84412942748E+03  0.20552570966E+04  0.25500000920E-02 0.  1.
       -2    1    3    3    0  502 -0.17862597799E+04  0.56639495208E+03 -0.10300560113E+03  0.18767358357E+04  0.25500000920E-02 0. -1.
</event>
<event>
 5   0  0.4750125E-08  0.3894252E+04  0.7818609E-02  0.8026226E-01
       -1   -1    0    0    0  501  0.00000000000E+00  0.00000000000E+00  0.16189894757E+04  0.16189894757E+04  0.50400001928E-02 0. -1.
        1   -1    0    0  501    0  0.00000000000E+00  0.00000000000E+00 -0.23417686368E+04  0.23417686368E+04  0.50400001928E-02 0.  1.
    10030    2    1    2    0    0  0.00000000000E+00  0.00000000000E+00 -0.72277916110E+03  0.39607581125E+04  0.38942515468E+04 0.  0.
        4    1    3    3  502    0 -0.80181469278E+03 -0.48718187181E+03 -0.20967061682E+04  0.22970483988E+04  0.12699999809E+01 0.  1.
       -4    1    3    3    0  502  0.80181469278E+03  0.48718187181E+03  0.13739270071E+04  0.16637097137E+04  0.12699999809E+01 0. -1.
</event>
<event>
 5   0  0.4750125E-08  0.3876254E+04  0.7818609E-02  0.8029986E-01
       -1   -1    0    0    0  501  0.00000000000E+00  0.00000000000E+00  0.14561050487E+04  0.14561050487E+04  0.50400001928E-02 0.  1.
        1   -1    0    0  501    0  0.00000000000E+00  0.00000000000E+00 -0.25797145582E+04  0.25797145582E+04  0.50400001928E-02 0. -1.
    10030    2    1    2    0    0  0.00000000000E+00  0.00000000000E+00 -0.11236095095E+04  0.40358196069E+04  0.38762535481E+04 0.  0.
        3    1    3    3  502    0 -0.16953095793E+04 -0.71967875008E+03 -0.11902436379E+04  0.21928730015E+04  0.10100000352E+00 0.  1.
       -3    1    3    3    0  502  0.16953095793E+04  0.71967875008E+03  0.66634128370E+02  0.18429466054E+04  0.10100000352E+00 0. -1.
</event>
<event>
 5   0  0.4750125E-08  0.3891774E+04  0.7818609E-02  0.8026742E-01
        1   -1    0    0  501    0  0.00000000000E+00  0.00000000000E+00  0.21901338784E+04  0.21901338784E+04  0.50400001928E-02 0.  1.
       -1   -1    0    0    0  501  0.00000000000E+00  0.00000000000E+00 -0.17288790880E+04  0.17288790880E+04  0.50400001928E-02 0. -1.
    10030    2    1    2    0    0  0.00000000000E+00  0.00000000000E+00  0.46125479036E+03  0.39190129664E+04  0.38917742290E+04 0.  0.
        4    1    3    3  502    0 -0.60890787354E+02  0.66011133619E+03 -0.16116636505E+04  0.17426749551E+04  0.12699999809E+01 0. -1.
       -4    1    3    3    0  502  0.60890787354E+02 -0.66011133619E+03  0.20729184408E+04  0.21763380113E+04  0.12699999809E+01 0.  1.
</event>
<event>
 5   0  0.1546846E-07  0.3895847E+04  0.7818609E-02  0.8025894E-01
        2   -1    0    0  501    0  0.00000000000E+00  0.00000000000E+00  0.33498006180E+04  0.33498006180E+04  0.25500000920E-02 0. -1.
       -2   -1    0    0    0  501  0.00000000000E+00  0.00000000000E+00 -0.11327256963E+04  0.11327256963E+04  0.25500000920E-02 0.  1.
    10030    2    1    2    0    0  0.00000000000E+00  0.00000000000E+00  0.22170749217E+04  0.44825263143E+04  0.38958466281E+04 0.  0.
        2    1    3    3  502    0  0.18913031344E+04 -0.11005043111E+03  0.16298283498E+04  0.24990956551E+04  0.25500000920E-02 0. -1.
       -2    1    3    3    0  502 -0.18913031344E+04  0.11005043111E+03  0.58724657192E+03  0.19834306592E+04  0.25500000920E-02 0.  1.
</event>
<event>
 5   0  0.1538018E-07  0.3892674E+04  0.7818609E-02  0.8026555E-01
        2   -1    0    0  501    0  0.00000000000E+00  0.00000000000E+00  0.22300470368E+04  0.22300470368E+04  0.25500000920E-02 0. -1.
       -2   -1    0    0    0  501  0.00000000000E+00  0.00000000000E+00 -0.16987205919E+04  0.16987205919E+04  0.25500000920E-02 0.  1.
    10030    2    1    2    0    0  0.00000000000E+00  0.00000000000E+00  0.53132644487E+03  0.39287676287E+04  0.38926735400E+04 0.  0.
        1    1    3    3  502    0 -0.47190909300E+03  0.77966894529E+03 -0.14700636205E+04  0.17296441555E+04  0.50400001928E-02 0.  1.
       -1    1    3    3    0  502  0.47190909300E+03 -0.77966894529E+03  0.20013900654E+04  0.21991234731E+04  0.50400001928E-02 0. -1.
</event>
<event>
 5   0  0.4750125E-08  0.3912028E+04  0.7818609E-02  0.8022532E-01
       -1   -1    0    0    0  501  0.00000000000E+00  0.00000000000E+00  0.18810771949E+04  0.18810771949E+04  0.50400001928E-02 0.  1.
        1   -1    0    0  501    0  0.00000000000E+00  0.00000000000E+00 -0.20339358973E+04  0.20339358974E+04  0.50400001928E-02 0. -1.
    10030    2    1    2    0    0  0.00000000000E+00  0.00000000000E+00 -0.15285870243E+03  0.39150130923E+04  0.39120278283E+04 0.  0.
        1    1    3    3  502    0 -0.25568568697E+03 -0.96888279775E+03 -0.17575568830E+04  0.20231448894E+04  0.50400001928E-02 0. -1.
       -1    1    3    3    0  502  0.25568568697E+03  0.96888279775E+03  0.16046981806E+04  0.18918682029E+04  0.50400001928E-02 0.  1.
</event>
<event>
 5   0  0.1546846E-07  0.3900648E+04  0.7818609E-02  0.8024895E-01
        2   -1    0    0  501    0  0.00000000000E+00  0.00000000000E+00  0.26788494640E+04  0.26788494640E+04  0.25500000920E-02 0. -1.
       -2   -1    0    0    0  501  0.00000000000E+00  0.00000000000E+00 -0.14199240740E+04  0.14199240740E+04  0.25500000920E-02 0.  1.
    10030    2    1    2    0    0  0.00000000000E+00  0.00000000000E+00  0.12589253900E+04  0.40987735381E+04  0.39006475589E+04 0.  0.
        2    1    3    3  502    0 -0.11585995829E+04  0.15075715523E+04  0.10858479969E+04  0.21895640779E+04  0.25500000920E-02 0. -1.
       -2    1    3    3    0  502  0.11585995829E+04 -0.15075715523E+04  0.17307739315E+03  0.19092094602E+04  0.25500000920E-02 0.  1.
</event>
<event>
 5   0  0.4750125E-08  0.3874690E+04  0.7818609E-02  0.8030314E-01
       -1   -1    0    0    0  501  0.00000000000E+00  0.00000000000E+00  0.20484594650E+04  0.20484594650E+04  0.50400001928E-02 0. -1.
        1   -1    0    0  501    0  0.00000000000E+00  0.00000000000E+00 -0.18322581290E+04  0.18322581290E+04  0.50400001928E-02 0.  1.
    10030    2    1    2    0    0  0.00000000000E+00  0.00000000000E+00  0.21620133599E+03  0.38807175939E+04  0.38746904426E+04 0.  0.
        3    1    3    3  502    0 -0.43018071910E+03  0.15804819853E+04 -0.92807506882E+03  0.18826316954E+04  0.10100000352E+00 0.  1.
       -3    1    3    3    0  502  0.43018071910E+03 -0.15804819853E+04  0.11442764048E+04  0.19980858985E+04  0.10100000352E+00 0. -1.
</event>
<event>
 5   0  0.1538018E-07  0.3924196E+04  0.7818609E-02  0.8020016E-01
       -2   -1    0    0    0  501  0.00000000000E+00  0.00000000000E+00  0.22022567914E+04  0.22022567914E+04  0.25500000920E-02 0.  1.
        2   -1    0    0  501    0  0.00000000000E+00  0.00000000000E+00 -0.17481285872E+04  0.17481285872E+04  0.25500000920E-02 0. -1.
    10030    2    1    2    0    0  0.00000000000E+00  0.00000000000E+00  0.45412820414E+03  0.39503853786E+04  0.39241957410E+04 0.  0.
        1    1    3    3  502    0  0.28769127490E+03 -0.60666818990E+03  0.20830102689E+04  0.21885484556E+04  0.50400001928E-02 0.  1.
       -1    1    3    3    0  502 -0.28769127490E+03  0.60666818990E+03 -0.16288820647E+04  0.17618369230E+04  0.50400001928E-02 0. -1.
</event>
<event>
 5   0  0.4750125E-08  0.3890089E+04  0.7818609E-02  0.8027094E-01
       -1   -1    0    0    0  501  0.00000000000E+00  0.00000000000E+00  0.20159359646E+04  0.20159359647E+04  0.50400001928E-02 0.  1.
        1   -1    0    0  501    0  0.00000000000E+00  0.00000000000E+00 -0.18766456591E+04  0.18766456591E+04  0.50400001928E-02 0. -1.
    10030    2    1    2    0    0  0.00000000000E+00  0.00000000000E+00  0.13929030552E+03  0.38925816238E+04  0.38900886762E+04 0.  0.
        3    1    3    3  502    0  0.39645893790E+03 -0.12501657708E+04  0.15069163287E+04  0.19977214460E+04  0.10100000352E+00 0.  1.
       -3    1    3    3    0  502 -0.39645893790E+03  0.12501657708E+04 -0.13676260232E+04  0.18948601778E+04  0.10100000352E+00 0. -1.
</event>
<event>
 5   0  0.1501585E-07  0.3830488E+04  0.7818609E-02  0.8039644E-01
        2   -1    0    0  501    0  0.00000000000E+00  0.00000000000E+00  0.26083950130E+04  0.26083950130E+04  0.25500000920E-02 0. -1.
       -2   -1    0    0    0  501  0.00000000000E+00  0.00000000000E+00 -0.14062897944E+04  0.14062897944E+04  0.25500000920E-02 0.  1.
    10030    2    1    2    0    0  0.00000000000E+00  0.00000000000E+00  0.12021052186E+04  0.40146848074E+04  0.38304878471E+04 0.  0.
        5    1    3    3  502    0  0.14056105019E+04  0.97286141083E+03 -0.30415550293E+03  0.17362986113E+04  0.46999998093E+01 0.  1.
       -5    1    3    3    0  502 -0.14056105019E+04 -0.97286141083E+03  0.15062607215E+04  0.22783861961E+04  0.46999998093E+01 0. -1.
</event>
<event>
 5   0  0.1538018E-07  0.4004168E+04  0.7818609E-02  0.8003706E-01
       -2   -1    0    0    0  501  0.00000000000E+00  0.00000000000E+00  0.16111233692E+04  0.16111233692E+04  0.25500000920E-02 0.  1.
        2   -1    0    0  501    0  0.00000000000E+00  0.00000000000E+00 -0.24879164924E+04  0.24879164924E+04  0.25500000920E-02 0. -1.
    10030    2    1    2    0    0  0.00000000000E+00  0.00000000000E+00 -0.87679312315E+03  0.40990398616E+04  0.40041680292E+04 0.  0.
        1    1    3    3  502    0 -0.11865518030E+04  0.12618108028E+03 -0.20841290973E+04  0.24015455316E+04  0.50400001928E-02 0. -1.
       -1    1    3    3    0  502  0.11865518030E+04 -0.12618108028E+03  0.12073359741E+04  0.16974943301E+04  0.50400001928E-02 0.  1.
</event>
<event>
 5   0  0.4762788E-08  0.3882909E+04  0.7818609E-02  0.8028593E-01
       -1   -1    0    0    0  501  0.00000000000E+00  0.00000000000E+00  0.30281398726E+04  0.30281398726E+04  0.50400001928E-02 0. -1.
        1   -1    0    0  501    0  0.00000000000E+00  0.00000000000E+00 -0.12447398879E+04  0.12447398879E+04  0.50400001928E-02 0.  1.
    10030    2    1    2    0    0  0.00000000000E+00  0.00000000000E+00  0.17833999846E+04  0.42728797605E+04  0.38829094687E+04 0.  0.
        2    1    3    3  502    0 -0.20983034647E+03  0.10930823901E+04 -0.85877946324E+03  0.14058307339E+04  0.25500000920E-02 0.  1.
       -2    1    3    3    0  502  0.20983034647E+03 -0.10930823901E+04  0.26421794479E+04  0.28670490266E+04  0.25500000920E-02 0. -1.
</event>
<event>
 5   0  0.1546846E-07  0.3893215E+04  0.7818609E-02  0.8026442E-01
        2   -1    0    0  501    0  0.00000000000E+00  0.00000000000E+00  0.20588086139E+04  0.20588086139E+04  0.25500000920E-02 0. -1.
       -2   -1    0    0    0  501  0.00000000000E+00  0.00000000000E+00 -0.18405209308E+04  0.18405209308E+04  0.25500000920E-02 0.  1.
    10030    2    1    2    0    0  0.00000000000E+00  0.00000000000E+00  0.21828768305E+03  0.38993295447E+04  0.38932147880E+04 0.  0.
        2    1    3    3  502    0 -0.11465524893E+04 -0.43861196980E+03  0.16222506478E+04  0.20343697390E+04  0.25500000920E-02 0. -1.
       -2    1    3    3    0  502  0.11465524893E+04  0.43861196980E+03 -0.14039629647E+04  0.18649598057E+04  0.25500000920E-02 0.  1.
</event>
<event>
 5   0  0.1538018E-07  0.3882595E+04  0.7818609E-02  0.8028659E-01
       -2   -1    0    0    0  501  0.00000000000E+00  0.00000000000E+00  0.16937386011E+04  0.16937386011E+04  0.25500000920E-02 0. -1.
        2   -1    0    0  501    0  0.00000000000E+00  0.00000000000E+00 -0.22250400469E+04  0.22250400469E+04  0.25500000920E-02 0.  1.
    10030    2    1    2    0    0  0.00000000000E+00  0.00000000000E+00 -0.53130144583E+03  0.39187786479E+04  0.38825951199E+04 0.  0.
        1    1    3    3  502    0  0.92492327215E+03  0.15543673437E+04  0.44596980081E+03  0.18629090052E+04  0.50400001928E-02 0. -1.
       -1    1    3    3    0  502 -0.92492327215E+03 -0.15543673437E+04 -0.97727124664E+03  0.20558696427E+04  0.50400001928E-02 0.  1.
</event>
<event>
 5   0  0.4762788E-08  0.3886962E+04  0.7818609E-02  0.8027746E-01
       -1   -1    0    0    0  501  0.00000000000E+00  0.00000000000E+00  0.18242115019E+04  0.18242115019E+04  0.50400001928E-02 0. -1.
        1   -1    0    0  501    0  0.00000000000E+00  0.00000000000E+00 -0.20705488827E+04  0.20705488827E+04  0.50400001928E-02 0.  1.
    10030    2    1    2    0    0  0.00000000000E+00  0.00000000000E+00 -0.24633738072E+03  0.38947603846E+04  0.38869623549E+04 0.  0.
        2    1    3    3  502    0 -0.10027033580E+04  0.15055163250E+04 -0.83531646913E+03  0.19924224032E+04  0.25500000920E-02 0.  1.
       -2    1    3    3    0  502  0.10027033580E+04 -0.15055163250E+04  0.58897908841E+03  0.19023379814E+04  0.25500000920E-02 0. -1.
</event>
<event>
 5   0  0.4750125E-08  0.3901095E+04  0.7818609E-02  0.8024801E-01
        1   -1    0    0  501    0  0.00000000000E+00  0.00000000000E+00  0.22348941607E+04  0.22348941607E+04  0.50400001928E-02 0.  1.
       -1   -1    0    0    0  501  0.00000000000E+00  0.00000000000E+00 -0.17023785458E+04  0.17023785458E+04  0.50400001928E-02 0. -1.
    10030    2    1    2    0    0  0.00000000000E+00  0.00000000000E+00  0.53251561489E+03  0.39372727066E+04  0.39010951649E+04 0.  0.
        4    1    3    3  502    0  0.13164725871E+04 -0.11790561638E+04 -0.56684290748E+03  0.18559595913E+04  0.12699999809E+01 0. -1.
       -4    1    3    3    0  502 -0.13164725871E+04  0.11790561638E+04  0.10993585224E+04  0.20813131152E+04  0.12699999809E+01 0.  1.
</event>
<event>
 5   0  0.1501585E-07  0.4057647E+04  0.7818609E-02  0.7993017E-01
       -2   -1    0    0    0  501  0.00000000000E+00  0.00000000000E+00  0.18050424425E+04  0.18050424425E+04  0.25500000920E-02 0.  1.
        2   -1    0    0  501    0  0.00000000000E+00  0.00000000000E+00 -0.22803476541E+04  0.22803476542E+04  0.25500000920E-02 0. -1.
    10030    2    1    2    0    0  0.00000000000E+00  0.00000000000E+00 -0.47530521166E+03  0.40853900966E+04  0.40576467561E+04 0.  0.
        5    1    3    3  502    0  0.13514877521E+04 -0.91816895710E+03 -0.14486015837E+04  0.21835800915E+04  0.46999998093E+01 0. -1.
       -5    1    3    3    0  502 -0.13514877521E+04  0.91816895710E+03  0.97329637205E+03  0.19018100051E+04  0.46999998093E+01 0.  1.
</event>
<event>
 5   0  0.4750125E-08  0.3824767E+04  0.7818609E-02  0.8040861E-01
        1   -1    0    0  501    0  0.00000000000E+00  0.00000000000E+00  0.11339303542E+04  0.11339303542E+04  0.50400001928E-02 0.  1.
       -1   -1    0    0    0  501  0.00000000000E+00  0.00000000000E+00 -0.32252510097E+04  0.32252510097E+04  0.50400001928E-02 0. -1.
    10030    2    1    2    0    0  0.00000000000E+00  0.00000000000E+00 -0.20913206555E+04  0.43591813639E+04  0.38247666699E+04 0.  0.
        5    1    3    3  502    0  0.11213909317E+04  0.33755875658E+03  0.67744539069E+03  0.13529293711E+04  0.46999998093E+01 0.  1.
       -5    1    3    3    0  502 -0.11213909317E+04 -0.33755875658E+03 -0.27687660462E+04  0.30062519928E+04  0.46999998093E+01 0. -1.
</event>
<event>
 5   0  0.4750125E-08  0.3970894E+04  0.7818609E-02  0.8010444E-01
        1   -1    0    0  501    0  0.00000000000E+00  0.00000000000E+00  0.23830233886E+04  0.23830233886E+04  0.50400001928E-02 0.  1.
       -1   -1    0    0    0  501  0.00000000000E+00  0.00000000000E+00 -0.16542012073E+04  0.16542012073E+04  0.50400001928E-02 0. -1.
    10030    2    1    2    0    0  0.00000000000E+00  0.00000000000E+00  0.72882218127E+03  0.40372245959E+04  0.39708941897E+04 0.  0.
        3    1    3    3  502    0 -0.25326481475E+03 -0.44513849498E+03  0.23147106468E+04  0.23706911935E+04  0.10100000352E+00 0.  1.
       -3    1    3    3    0  502  0.25326481475E+03  0.44513849498E+03 -0.15858884655E+04  0.16665334024E+04  0.10100000352E+00 0. -1.
</event>
<event>
 5   0  0.1503228E-07  0.3854746E+04  0.7818609E-02  0.8034508E-01
       -2   -1    0    0    0  501  0.00000000000E+00  0.00000000000E+00  0.15376046579E+04  0.15376046579E+04  0.25500000920E-02 0. -1.
        2   -1    0    0  501    0  0.00000000000E+00  0.00000000000E+00 -0.24159441714E+04  0.24159441714E+04  0.25500000920E-02 0.  1.
    10030    2    1    2    0    0  0.00000000000E+00  0.00000000000E+00 -0.87833951353E+03  0.39535488293E+04  0.38547461712E+04 0.  0.
        3    1    3    3  502    0 -0.68696946137E+03 -0.39816551423E+03 -0.22404028719E+04  0.23769450680E+04  0.10100000352E+00 0.  1.
       -3    1    3    3    0  502  0.68696946137E+03  0.39816551423E+03  0.13620633584E+04  0.15766037613E+04  0.10100000352E+00 0. -1.
</event>
<event>
 5   0  0.1501585E-07  0.3906512E+04  0.7818609E-02  0.8023676E-01
       -2   -1    0    0    0  501  0.00000000000E+00  0.00000000000E+00  0.22558166729E+04  0.22558166729E+04  0.25500000920E-02 0.  1.
        2   -1    0    0  501    0  0.00000000000E+00  0.00000000000E+00 -0.16912763875E+04  0.16912763875E+04  0.25500000920E-02 0. -1.
    10030    2    1    2    0    0  0.00000000000E+00  0.00000000000E+00  0.56454028543E+03  0.39470930605E+04  0.39065122416E+04 0.  0.
        5    1    3    3  502    0 -0.39338044078E+03  0.55829651298E+03 -0.15666968765E+04  0.17090946025E+04  0.46999998093E+01 0. -1.
       -5    1    3    3    0  502  0.39338044078E+03 -0.55829651298E+03  0.21312371619E+04  0.22379984580E+04  0.46999998093E+01 0.  1.
</event>
<event>
 5   0  0.4750125E-08  0.3902995E+04  0.7818609E-02  0.8024407E-01
        1   -1    0    0  501    0  0.00000000000E+00  0.00000000000E+00  0.17520848416E+04  0.17520848416E+04  0.50400001928E-02 0.  1.
       -1   -1    0    0    0  501  0.00000000000E+00  0.00000000000E+00 -0.21736064584E+04  0.21736064584E+04  0.50400001928E-02 0. -1.
    10030    2    1    2    0    0  0.00000000000E+00  0.00000000000E+00 -0.42152161683E+03  0.39256913000E+04  0.39029952228E+04 0.  0.
        5    1    3    3  502    0 -0.10552416929E+04 -0.10549774023E+04 -0.14757740646E+04  0.20986766139E+04  0.46999998093E+01 0. -1.
       -5    1    3    3    0  502  0.10552416929E+04  0.10549774023E+04  0.10542524478E+04  0.18270146861E+04  0.46999998093E+01 0.  1.
</event>
<event>
 5   0  0.4762788E-08  0.3898575E+04  0.7818609E-02  0.8025326E-01
        1   -1    0    0  501    0  0.00000000000E+00  0.00000000000E+00  0.15704813725E+04  0.15704813725E+04  0.50400001928E-02 0.  1.
       -1   -1    0    0    0  501  0.00000000000E+00  0.00000000000E+00 -0.24194631762E+04  0.24194631762E+04  0.50400001928E-02 0. -1.
    10030    2    1    2    0    0  0.00000000000E+00  0.00000000000E+00 -0.84898180369E+03  0.39899445487E+04  0.38985750472E+04 0.  0.
        2    1    3    3  502    0  0.75327620867E+03  0.78782570442E+03  0.12294370030E+04  0.16430489133E+04  0.25500000920E-02 0.  1.
       -2    1    3    3    0  502 -0.75327620867E+03 -0.78782570442E+03 -0.20784188067E+04  0.23468956354E+04  0.25500000920E-02 0. -1.
</event>
<event>
 5   0  0.1520986E-07  0.3937567E+04  0.7818609E-02  0.8017261E-01
       -2   -1    0    0    0  501  0.00000000000E+00  0.00000000000E+00  0.16660980778E+04  0.16660980778E+04  0.25500000920E-02 0. -1.
        2   -1    0    0  501    0  0.00000000000E+00  0.00000000000E+00 -0.23264592200E+04  0.23264592200E+04  0.25500000920E-02 0.  1.
    10030    2    1    2    0    0  0.00000000000E+00  0.00000000000E+00 -0.66036114218E+03  0.39925572978E+04  0.39375673884E+04 0.  0.
        4    1    3    3  502    0 -0.14976496879E+02  0.15222584046E+04  0.93569861748E+03  0.17869047153E+04  0.12699999809E+01 0. -1.
       -4    1    3    3    0  502  0.14976496879E+02 -0.15222584046E+04 -0.15960597597E+04  0.22056525826E+04  0.12699999809E+01 0.  1.
</event>
<event>
 5   0  0.1501585E-07  0.3474944E+04  0.7818609E-02  0.8119754E-01
        2   -1    0    0  501    0  0.00000000000E+00  0.00000000000E+00  0.20109930500E+04  0.20109930500E+04  0.25500000920E-02 0.  1.
       -2   -1    0    0    0  501  0.00000000000E+00  0.00000000000E+00 -0.15011535717E+04  0.15011535717E+04  0.25500000920E-02 0. -1.
    10030    2    1    2    0    0  0.00000000000E+00  0.00000000000E+00  0.50983947836E+03  0.35121466217E+04  0.34749442583E+04 0.  0.
        5    1    3    3  502    0 -0.91234797210E+03 -0.12292862969E+04  0.10854615372E+04  0.18766386069E+04  0.46999998093E+01 0.  1.
       -5    1    3    3    0  502  0.91234797210E+03  0.12292862969E+04 -0.57562205886E+03  0.16355080148E+04  0.46999998093E+01 0. -1.
</event>
<event>
 5   0  0.4750125E-08  0.3893186E+04  0.7818609E-02  0.8026448E-01
        1   -1    0    0  501    0  0.00000000000E+00  0.00000000000E+00  0.27797994062E+04  0.27797994062E+04  0.50400001928E-02 0. -1.
       -1   -1    0    0    0  501  0.00000000000E+00  0.00000000000E+00 -0.13631289909E+04  0.13631289909E+04  0.50400001928E-02 0.  1.
    10030    2    1    2    0    0  0.00000000000E+00  0.00000000000E+00  0.14166704153E+04  0.41429283970E+04  0.38931864376E+04 0.  0.
        1    1    3    3  502    0 -0.20270061396E+02 -0.96391840493E+02 -0.13604753124E+04  0.13640364137E+04  0.50400001928E-02 0.  1.
       -1    1    3    3    0  502  0.20270061396E+02  0.96391840493E+02  0.27771457277E+04  0.27788919833E+04  0.50400001928E-02 0. -1.
</event>
<event>
 5   0  0.1546846E-07  0.3893270E+04  0.7818609E-02  0.8026430E-01
       -2   -1    0    0    0  501  0.00000000000E+00  0.00000000000E+00  0.15130959918E+04  0.15130959918E+04  0.25500000920E-02 0. -1.
        2   -1    0    0  501    0  0.00000000000E+00  0.00000000000E+00 -0.25043937613E+04  0.25043937613E+04  0.25500000920E-02 0.  1.
    10030    2    1    2    0    0  0.00000000000E+00  0.00000000000E+00 -0.99129776952E+03  0.40174897530E+04  0.38932701740E+04 0.  0.
        2    1    3    3  502    0 -0.93388408581E+03  0.12768029199E+04  0.67501814094E+03  0.17198879826E+04  0.25500000920E-02 0. -1.
       -2    1    3    3    0  502  0.93388408581E+03 -0.12768029199E+04 -0.16663159105E+04  0.22976017704E+04  0.25500000920E-02 0.  1.
</event>
<event>
 5   0  0.4762788E-08  0.3904772E+04  0.7818609E-02  0.8024037E-01
        1   -1    0    0  501    0  0.00000000000E+00  0.00000000000E+00  0.32037203903E+04  0.32037203903E+04  0.50400001928E-02 0. -1.
       -1   -1    0    0    0  501  0.00000000000E+00  0.00000000000E+00 -0.11898078900E+04  0.11898078900E+04  0.50400001928E-02 0.  1.
    10030    2    1    2    0    0  0.00000000000E+00  0.00000000000E+00  0.20139125002E+04  0.43935282803E+04  0.39047723610E+04 0.  0.
        2    1    3    3  502    0  0.11937635577E+04 -0.68677799383E+03 -0.55012312633E+03  0.14830276122E+04  0.25500000920E-02 0.  1.
       -2    1    3    3    0  502 -0.11937635577E+04  0.68677799383E+03  0.25640356266E+04  0.29105006681E+04  0.25500000920E-02 0. -1.
</event>
<event>
 5   0  0.1538018E-07  0.3848752E+04  0.7818609E-02  0.8035773E-01
        2   -1    0    0  501    0  0.00000000000E+00  0.00000000000E+00  0.27004393122E+04  0.27004393122E+04  0.25500000920E-02 0. -1.
       -2   -1    0    0    0  501  0.00000000000E+00  0.00000000000E+00 -0.13713409389E+04  0.13713409389E+04  0.25500000920E-02 0.  1.
    10030    2    1    2    0    0  0.00000000000E+00  0.00000000000E+00  0.13290983733E+04  0.40717802511E+04  0.38487519961E+04 0.  0.
        1    1    3    3  502    0  0.18324247745E+04  0.18174299407E+03  0.73221522929E+02  0.18428707121E+04  0.50400001928E-02 0.  1.
       -1    1    3    3    0  502 -0.18324247745E+04 -0.18174299407E+03  0.12558768503E+04  0.22289095391E+04  0.50400001928E-02 0. -1.
</event>
<event>
 5   0  0.4750125E-08  0.3862014E+04  0.7818609E-02  0.8032976E-01
        1   -1    0    0  501    0  0.00000000000E+00  0.00000000000E+00  0.23648430248E+04  0.23648430248E+04  0.50400001928E-02 0. -1.
       -1   -1    0    0    0  501  0.00000000000E+00  0.00000000000E+00 -0.15767592203E+04  0.15767592204E+04  0.50400001928E-02 0.  1.
    10030    2    1    2    0    0  0.00000000000E+00  0.00000000000E+00  0.78808380440E+03  0.39416022451E+04  0.38620140051E+04 0.  0.
        3    1    3    3  502    0 -0.93986672977E+03 -0.16269150483E+04 -0.60771501438E+02  0.18798657478E+04  0.10100000352E+00 0.  1.
       -3    1    3    3    0  502  0.93986672977E+03  0.16269150483E+04  0.84885530584E+03  0.20617364973E+04  0.10100000352E+00 0. -1.
</event>
<event>
 5   0  0.4750125E-08  0.3861664E+04  0.7818609E-02  0.8033050E-01
       -1   -1    0    0    0  501  0.00000000000E+00  0.00000000000E+00  0.22123871810E+04  0.22123871810E+04  0.50400001928E-02 0.  1.
        1   -1    0    0  501    0  0.00000000000E+00  0.00000000000E+00 -0.16851082405E+04  0.16851082405E+04  0.50400001928E-02 0. -1.
    10030    2    1    2    0    0  0.00000000000E+00  0.00000000000E+00  0.52727894055E+03  0.38974954215E+04  0.38616638227E+04 0.  0.
        3    1    3    3  502    0 -0.86245249930E+03 -0.48474338157E+03  0.19371294510E+04  0.21751484960E+04  0.10100000352E+00 0.  1.
       -3    1    3    3    0  502  0.86245249930E+03  0.48474338157E+03 -0.14098505105E+04  0.17223469254E+04  0.10100000352E+00 0. -1.
</event>
<event>
 5   0  0.1520986E-07  0.3908791E+04  0.7818609E-02  0.8023203E-01
        2   -1    0    0  501    0  0.00000000000E+00  0.00000000000E+00  0.27059084526E+04  0.27059084526E+04  0.25500000920E-02 0. -1.
       -2   -1    0    0    0  501  0.00000000000E+00  0.00000000000E+00 -0.14116005266E+04  0.14116005266E+04  0.25500000920E-02 0.  1.
    10030    2    1    2    0    0  0.00000000000E+00  0.00000000000E+00  0.12943079261E+04  0.41175089792E+04  0.39087910134E+04 0.  0.
        4    1    3    3  502    0 -0.32159944407E+02 -0.16667125780E+04 -0.42746341512E+03  0.17209566130E+04  0.12699999809E+01 0.  1.
       -4    1    3    3    0  502  0.32159944407E+02  0.16667125780E+04  0.17217713412E+04  0.23965523662E+04  0.12699999809E+01 0. -1.
</event>
<event>
 5   0  0.1538018E-07  0.3898000E+04  0.7818609E-02  0.8025445E-01
       -2   -1    0    0    0  501  0.00000000000E+00  0.00000000000E+00  0.28111206057E+04  0.28111206057E+04  0.25500000920E-02 0. -1.
        2   -1    0    0  501    0  0.00000000000E+00  0.00000000000E+00 -0.13512761907E+04  0.13512761907E+04  0.25500000920E-02 0.  1.
    10030    2    1    2    0    0  0.00000000000E+00  0.00000000000E+00  0.14598444150E+04  0.41623967964E+04  0.38979996633E+04 0.  0.
        1    1    3    3  502    0 -0.22012766153E+03 -0.19362172441E+04  0.76701969904E+03  0.20942093072E+04  0.50400001928E-02 0.  1.
       -1    1    3    3    0  502  0.22012766153E+03  0.19362172441E+04  0.69282471594E+03  0.20681874892E+04  0.50400001928E-02 0. -1.
</event>
<event>
 5   0  0.4762788E-08  0.3900068E+04  0.7818609E-02  0.8025015E-01
       -1   -1    0    0    0  501  0.00000000000E+00  0.00000000000E+00  0.17290119642E+04  0.17290119642E+04  0.50400001928E-02 0.  1.
        1   -1    0    0  501    0  0.00000000000E+00  0.00000000000E+00 -0.21993095227E+04  0.21993095228E+04  0.50400001928E-02 0. -1.
    10030    2    1    2    0    0  0.00000000000E+00  0.00000000000E+00 -0.47029755857E+03  0.39283214869E+04  0.39000679367E+04 0.  0.
        2    1    3    3  502    0  0.14077042198E+04  0.24486591611E+03  0.11015073862E+04  0.18041366382E+04  0.25500000920E-02 0.  1.
       -2    1    3    3    0  502 -0.14077042198E+04 -0.24486591611E+03 -0.15718049448E+04  0.21241848488E+04  0.25500000920E-02 0. -1.
</event>
<event>
 5   0  0.4750125E-08  0.3887509E+04  0.7818609E-02  0.8027632E-01
       -1   -1    0    0    0  501  0.00000000000E+00  0.00000000000E+00  0.13205714465E+04  0.13205714465E+04  0.50400001928E-02 0. -1.
        1   -1    0    0  501    0  0.00000000000E+00  0.00000000000E+00 -0.28610200473E+04  0.28610200473E+04  0.50400001928E-02 0.  1.
    10030    2    1    2    0    0  0.00000000000E+00  0.00000000000E+00 -0.15404486008E+04  0.41815914939E+04  0.38875089106E+04 0.  0.
        1    1    3    3  502    0  0.98489512686E+03 -0.24936721813E+03  0.10122316623E+04  0.14341601579E+04  0.50400001928E-02 0. -1.
       -1    1    3    3    0  502 -0.98489512686E+03  0.24936721813E+03 -0.25526802631E+04  0.27474313360E+04  0.50400001928E-02 0.  1.
</event>
<event>
 5   0  0.4750125E-08  0.4044794E+04  0.7818609E-02  0.7995571E-01
       -1   -1    0    0    0  501  0.00000000000E+00  0.00000000000E+00  0.14919301858E+04  0.14919301858E+04  0.50400001928E-02 0.  1.
        1   -1    0    0  501    0  0.00000000000E+00  0.00000000000E+00 -0.27414745886E+04  0.27414745886E+04  0.50400001928E-02 0. -1.
    10030    2    1    2    0    0  0.00000000000E+00  0.00000000000E+00 -0.12495444028E+04  0.42334047744E+04  0.40447935385E+04 0.  0.
        5    1    3    3  502    0  0.49773114964E+03  0.10814266152E+04  0.10863478034E+04  0.16116430937E+04  0.46999998093E+01 0.  1.
       -5    1    3    3    0  502 -0.49773114964E+03 -0.10814266152E+04 -0.23358922062E+04  0.26217616807E+04  0.46999998093E+01 0. -1.
</event>
<event>
 5   0  0.1546846E-07  0.3907930E+04  0.7818609E-02  0.8023382E-01
        2   -1    0    0  501    0  0.00000000000E+00  0.00000000000E+00  0.14513035140E+04  0.14513035140E+04  0.25500000920E-02 0. -1.
       -2   -1    0    0    0  501  0.00000000000E+00  0.00000000000E+00 -0.26307237221E+04  0.26307237221E+04  0.25500000920E-02 0.  1.
    10030    2    1    2    0    0  0.00000000000E+00  0.00000000000E+00 -0.11794202081E+04  0.40820272361E+04  0.39079296729E+04 0.  0.
        2    1    3    3  502    0 -0.31930187913E+03 -0.13033376829E+04  0.89389477812E+03  0.16123556308E+04  0.25500000920E-02 0. -1.
       -2    1    3    3    0  502  0.31930187913E+03  0.13033376829E+04 -0.20733149863E+04  0.24696716053E+04  0.25500000920E-02 0.  1.
</event>
<event>
 5   0  0.4750125E-08  0.3889805E+04  0.7818609E-02  0.8027153E-01
        1   -1    0    0  501    0  0.00000000000E+00  0.00000000000E+00  0.13799071935E+04  0.13799071935E+04  0.50400001928E-02 0.  1.
       -1   -1    0    0    0  501  0.00000000000E+00  0.00000000000E+00 -0.27412322133E+04  0.27412322133E+04  0.50400001928E-02 0. -1.
    10030    2    1    2    0    0  0.00000000000E+00  0.00000000000E+00 -0.13613250198E+04  0.41211394069E+04  0.38898051624E+04 0.  0.
        4    1    3    3  502    0 -0.85557757335E+03  0.11749915251E+04  0.68848777687E+03  0.16083019306E+04  0.12699999809E+01 0.  1.
       -4    1    3    3    0  502  0.85557757335E+03 -0.11749915251E+04 -0.20498127967E+04  0.25128374763E+04  0.12699999809E+01 0. -1.
</event>
<event>
 5   0  0.1501585E-07  0.3923464E+04  0.7818609E-02  0.8020167E-01
        2   -1    0    0  501    0  0.00000000000E+00  0.00000000000E+00  0.26859626911E+04  0.26859626911E+04  0.25500000920E-02 0.  1.
       -2   -1    0    0    0  501  0.00000000000E+00  0.00000000000E+00 -0.14327798961E+04  0.14327798961E+04  0.25500000920E-02 0. -1.
    10030    2    1    2    0    0  0.00000000000E+00  0.00000000000E+00  0.12531827950E+04  0.41187425872E+04  0.39234644616E+04 0.  0.
        5    1    3    3  502    0 -0.23276493958E+03 -0.12524093528E+04  0.21927097772E+04  0.25358838619E+04  0.46999998093E+01 0.  1.
       -5    1    3    3    0  502  0.23276493958E+03  0.12524093528E+04 -0.93952698215E+03  0.15828587253E+04  0.46999998093E+01 0. -1.
</event>
<event>
 5   0  0.4750125E-08  0.3843968E+04  0.7818609E-02  0.8036785E-01
       -1   -1    0    0    0  501  0.00000000000E+00  0.00000000000E+00  0.12451162648E+04  0.12451162648E+04  0.50400001928E-02 0.  1.
        1   -1    0    0  501    0  0.00000000000E+00  0.00000000000E+00 -0.29668099110E+04  0.29668099110E+04  0.50400001928E-02 0. -1.
    10030    2    1    2    0    0  0.00000000000E+00  0.00000000000E+00 -0.17216936462E+04  0.42119261758E+04  0.38439684051E+04 0.  0.
        5    1    3    3  502    0 -0.19184137904E+04 -0.42765144563E+02 -0.74151426211E+03  0.20571839538E+04  0.46999998093E+01 0. -1.
       -5    1    3    3    0  502  0.19184137904E+04  0.42765144563E+02 -0.98017938407E+03  0.21547422221E+04  0.46999998093E+01 0.  1.
</event>
<event>
 5   0  0.4750125E-08  0.3896685E+04  0.7818609E-02  0.8025719E-01
        1   -1    0    0  501    0  0.00000000000E+00  0.00000000000E+00  0.12848372967E+04  0.12848372967E+04  0.50400001928E-02 0.  1.
       -1   -1    0    0    0  501  0.00000000000E+00  0.00000000000E+00 -0.29544901901E+04  0.29544901901E+04  0.50400001928E-02 0. -1.
    10030    2    1    2    0    0  0.00000000000E+00  0.00000000000E+00 -0.16696528934E+04  0.42393274869E+04  0.38966853551E+04 0.  0.
        1    1    3    3  502    0  0.31981398481E+03 -0.12866406035E+04 -0.23880615196E+04  0.27314030916E+04  0.50400001928E-02 0. -1.
       -1    1    3    3    0  502 -0.31981398481E+03  0.12866406035E+04  0.71840862621E+03  0.15079243952E+04  0.50400001928E-02 0.  1.
</event>
<event>
 5   0  0.1546846E-07  0.3890733E+04  0.7818609E-02  0.8026959E-01
       -2   -1    0    0    0  501  0.00000000000E+00  0.00000000000E+00  0.19231860923E+04  0.19231860923E+04  0.25500000920E-02 0. -1.
        2   -1    0    0  501    0  0.00000000000E+00  0.00000000000E+00 -0.19678026032E+04  0.19678026032E+04  0.25500000920E-02 0.  1.
    10030    2    1    2    0    0  0.00000000000E+00  0.00000000000E+00 -0.44616510883E+02  0.38909886955E+04  0.38907328867E+04 0.  0.
        2    1    3    3  502    0  0.36813677257E+03  0.16168757082E+04 -0.10395471240E+04  0.19571586451E+04  0.25500000920E-02 0.  1.
       -2    1    3    3    0  502 -0.36813677257E+03 -0.16168757082E+04  0.99493061313E+03  0.19338300504E+04  0.25500000920E-02 0. -1.
</event>
<event>
 5   0  0.4750125E-08  0.3907994E+04  0.7818609E-02  0.8023369E-01
        1   -1    0    0  501    0  0.00000000000E+00  0.00000000000E+00  0.14716057038E+04  0.14716057038E+04  0.50400001928E-02 0.  1.
       -1   -1    0    0    0  501  0.00000000000E+00  0.00000000000E+00 -0.25945161454E+04  0.25945161454E+04  0.50400001928E-02 0. -1.
    10030    2    1    2    0    0  0.00000000000E+00  0.00000000000E+00 -0.11229104415E+04  0.40661218492E+04  0.39079942468E+04 0.  0.
        5    1    3    3  502    0  0.13968363983E+03  0.16847668610E+03 -0.25817181972E+04  0.25909818318E+04  0.46999998093E+01 0. -1.
       -5    1    3    3    0  502 -0.13968363983E+03 -0.16847668610E+03  0.14588077557E+04  0.14751400174E+04  0.46999998093E+01 0.  1.
</event>
<event>
 5   0  0.1538018E-07  0.3881751E+04  0.7818609E-02  0.8028835E-01
        2   -1    0    0  501    0  0.00000000000E+00  0.00000000000E+00  0.23397123633E+04  0.23397123633E+04  0.25500000920E-02 0. -1.
       -2   -1    0    0    0  501  0.00000000000E+00  0.00000000000E+00 -0.16100260375E+04  0.16100260375E+04  0.25500000920E-02 0.  1.
    10030    2    1    2    0    0  0.00000000000E+00  0.00000000000E+00  0.72968632577E+03  0.39497384008E+04  0.38817510612E+04 0.  0.
        1    1    3    3  502    0  0.70240711579E+03 -0.17990768916E+04  0.16926741400E+03  0.19387379595E+04  0.50400001928E-02 0.  1.
       -1    1    3    3    0  502 -0.70240711579E+03  0.17990768916E+04  0.56041891177E+03  0.20110004413E+04  0.50400001928E-02 0. -1.
</event>
<event>
 5   0  0.4750125E-08  0.3928905E+04  0.7818609E-02  0.8019044E-01
       -1   -1    0    0    0  501  0.00000000000E+00  0.00000000000E+00  0.17311560031E+04  0.17311560031E+04  0.50400001928E-02 0. -1.
        1   -1    0    0  501    0  0.00000000000E+00  0.00000000000E+00 -0.22291884144E+04  0.22291884144E+04  0.50400001928E-02 0.  1.
    10030    2    1    2    0    0  0.00000000000E+00  0.00000000000E+00 -0.49803241132E+03  0.39603444175E+04  0.39289046339E+04 0.  0.
        1    1    3    3  502    0 -0.16966879347E+04  0.99009837032E+03 -0.24366573402E+03  0.19794993611E+04  0.50400001928E-02 0. -1.
       -1    1    3    3    0  502  0.16966879347E+04 -0.99009837032E+03 -0.25436667730E+03  0.19808450563E+04  0.50400001928E-02 0.  1.
</event>
<event>
 5   0  0.4762788E-08  0.3874482E+04  0.7818609E-02  0.8030357E-01
       -1   -1    0    0    0  501  0.00000000000E+00  0.00000000000E+00  0.18606384499E+04  0.18606384499E+04  0.50400001928E-02 0. -1.
        1   -1    0    0  501    0  0.00000000000E+00  0.00000000000E+00 -0.20169975610E+04  0.20169975610E+04  0.50400001928E-02 0.  1.
    10030    2    1    2    0    0  0.00000000000E+00  0.00000000000E+00 -0.15635911105E+03  0.38776360109E+04  0.38744822702E+04 0.  0.
        2    1    3    3  502    0 -0.18463452828E+04 -0.53737615645E+03 -0.31318802202E+03  0.19482943242E+04  0.25500000920E-02 0.  1.
       -2    1    3    3    0  502  0.18463452828E+04  0.53737615645E+03  0.15682891097E+03  0.19293416867E+04  0.25500000920E-02 0. -1.
</event>
<event>
 5   0  0.1520986E-07  0.3892231E+04  0.7818609E-02  0.8026647E-01
        2   -1    0    0  501    0  0.00000000000E+00  0.00000000000E+00  0.21603727360E+04  0.21603727360E+04  0.25500000920E-02 0. -1.
       -2   -1    0    0    0  501  0.00000000000E+00  0.00000000000E+00 -0.17531073189E+04  0.17531073189E+04  0.25500000920E-02 0.  1.
    10030    2    1    2    0    0  0.00000000000E+00  0.00000000000E+00  0.40726541709E+03  0.39134800549E+04  0.38922308539E+04 0.  0.
        4    1    3    3  502    0 -0.22177585087E+03 -0.43389051698E+03 -0.16907760921E+04  0.17595939632E+04  0.12699999809E+01 0.  1.
       -4    1    3    3    0  502  0.22177585087E+03  0.43389051698E+03  0.20980415092E+04  0.21538860917E+04  0.12699999809E+01 0. -1.
</event>
<event>
 5   0  0.1546846E-07  0.3884793E+04  0.7818609E-02  0.8028199E-01
       -2   -1    0    0    0  501  0.00000000000E+00  0.00000000000E+00  0.28118970782E+04  0.28118970782E+04  0.25500000920E-02 0. -1.
        2   -1    0    0  501    0  0.00000000000E+00  0.00000000000E+00 -0.13417647468E+04  0.13417647468E+04  0.25500000920E-02 0.  1.
    10030    2    1    2    0    0  0.00000000000E+00  0.00000000000E+00  0.14701323314E+04  0.41536618251E+04  0.38847931071E+04 0.  0.
        2    1    3    3  502    0  0.10665614266E+04  0.99839826570E+03  0.21037191682E+04  0.25612471010E+04  0.25500000920E-02 0. -1.
       -2    1    3    3    0  502 -0.10665614266E+04 -0.99839826570E+03 -0.63358683672E+03  0.15924147241E+04  0.25500000920E-02 0.  1.
</event>
<event>
 5   0  0.1520986E-07  0.3889024E+04  0.7818609E-02  0.8027316E-01
       -2   -1    0    0    0  501  0.00000000000E+00  0.00000000000E+00  0.14088436656E+04  0.14088436656E+04  0.25500000920E-02 0.  1.
        2   -1    0    0  501    0  0.00000000000E+00  0.00000000000E+00 -0.26838511197E+04  0.26838511197E+04  0.25500000920E-02 0. -1.
    10030    2    1    2    0    0  0.00000000000E+00  0.00000000000E+00 -0.12750074541E+04  0.40926947852E+04  0.38890238617E+04 0.  0.
        4    1    3    3  502    0  0.74832101476E+03 -0.74928752121E+03 -0.23537744891E+04  0.25810215205E+04  0.12699999809E+01 0. -1.
       -4    1    3    3    0  502 -0.74832101476E+03  0.74928752121E+03  0.10787670350E+04  0.15116732647E+04  0.12699999809E+01 0.  1.
</event>
<event>
 5   0  0.4762788E-08  0.3920682E+04  0.7818609E-02  0.8020741E-01
        1   -1    0    0  501    0  0.00000000000E+00  0.00000000000E+00  0.15562833066E+04  0.15562833066E+04  0.50400001928E-02 0. -1.
       -1   -1    0    0    0  501  0.00000000000E+00  0.00000000000E+00 -0.24693043882E+04  0.24693043882E+04  0.50400001928E-02 0.  1.
    10030    2    1    2    0    0  0.00000000000E+00  0.00000000000E+00 -0.91302108154E+03  0.40255876948E+04  0.39206821846E+04 0.  0.
        2    1    3    3  502    0  0.80135855414E+03  0.13494906991E+03  0.13751934795E+04  0.15973552798E+04  0.25500000920E-02 0. -1.
       -2    1    3    3    0  502 -0.80135855414E+03 -0.13494906991E+03 -0.22882145611E+04  0.24282324150E+04  0.25500000920E-02 0.  1.
</event>
<event>
 5   0  0.1538018E-07  0.3900913E+04  0.7818609E-02  0.8024839E-01
       -2   -1    0    0    0  501  0.00000000000E+00  0.00000000000E+00  0.17041800454E+04  0.17041800454E+04  0.25500000920E-02 0. -1.
        2   -1    0    0  501    0  0.00000000000E+00  0.00000000000E+00 -0.22323234791E+04  0.22323234791E+04  0.25500000920E-02 0.  1.
    10030    2    1    2    0    0  0.00000000000E+00  0.00000000000E+00 -0.52814343364E+03  0.39365035245E+04  0.39009132920E+04 0.  0.
        1    1    3    3  502    0 -0.77510071895E+02 -0.12810699373E+04 -0.17461898551E+04  0.21671010603E+04  0.50400001928E-02 0.  1.
       -1    1    3    3    0  502  0.77510071895E+02  0.12810699373E+04  0.12180464214E+04  0.17694024642E+04  0.50400001928E-02 0. -1.
</event>
<event>
 5   0  0.4750125E-08  0.3901536E+04  0.7818609E-02  0.8024710E-01
        1   -1    0    0  501    0  0.00000000000E+00  0.00000000000E+00  0.17572830908E+04  0.17572830908E+04  0.50400001928E-02 0. -1.
       -1   -1    0    0    0  501  0.00000000000E+00  0.00000000000E+00 -0.21655569116E+04  0.21655569116E+04  0.50400001928E-02 0.  1.
    10030    2    1    2    0    0  0.00000000000E+00  0.00000000000E+00 -0.40827382078E+03  0.39228400025E+04  0.39015363861E+04 0.  0.
        4    1    3    3  502    0 -0.43317123819E+03  0.11431552624E+04  0.13243789446E+04  0.18023380586E+04  0.12699999809E+01 0. -1.
       -4    1    3    3    0  502  0.43317123819E+03 -0.11431552624E+04 -0.17326527654E+04  0.21205019439E+04  0.12699999809E+01 0.  1.
</event>
<event>
 5   0  0.4762788E-08  0.3900675E+04  0.7818609E-02  0.8024889E-01
       -1   -1    0    0    0  501  0.00000000000E+00  0.00000000000E+00  0.20444084560E+04  0.20444084560E+04  0.50400001928E-02 0.  1.
        1   -1    0    0  501    0  0.00000000000E+00  0.00000000000E+00 -0.18605951353E+04  0.18605951353E+04  0.50400001928E-02 0. -1.
    10030    2    1    2    0    0  0.00000000000E+00  0.00000000000E+00  0.18381332073E+03  0.39050035913E+04  0.39006750328E+04 0.  0.
        2    1    3    3  502    0 -0.10426806417E+04  0.64290394771E+03  0.16112561248E+04  0.20240194432E+04  0.25500000920E-02 0.  1.
       -2    1    3    3    0  502  0.10426806417E+04 -0.64290394771E+03 -0.14274428041E+04  0.18809841481E+04  0.25500000920E-02 0. -1.
</event>
<event>
 5   0  0.4750125E-08  0.3877476E+04  0.7818609E-02  0.8029730E-01
        1   -1    0    0  501    0  0.00000000000E+00  0.00000000000E+00  0.17396600668E+04  0.17396600668E+04  0.50400001928E-02 0.  1.
       -1   -1    0    0    0  501  0.00000000000E+00  0.00000000000E+00 -0.21605970046E+04  0.21605970047E+04  0.50400001928E-02 0. -1.
    10030    2    1    2    0    0  0.00000000000E+00  0.00000000000E+00 -0.42093693790E+03  0.39002570714E+04  0.38774756372E+04 0.  0.
        1    1    3    3  502    0  0.35325861110E+03  0.94440969012E+03 -0.18760968780E+04  0.21298922050E+04  0.50400001928E-02 0. -1.
       -1    1    3    3    0  502 -0.35325861110E+03 -0.94440969012E+03  0.14551599401E+04  0.17703648665E+04  0.50400001928E-02 0.  1.
</event>
<event>
 5   0  0.1538018E-07  0.3884798E+04  0.7818609E-02  0.8028198E-01
       -2   -1    0    0    0  501  0.00000000000E+00  0.00000000000E+00  0.21553057355E+04  0.21553057355E+04  0.25500000920E-02 0. -1.
        2   -1    0    0  501    0  0.00000000000E+00  0.00000000000E+00 -0.17505241922E+04  0.17505241922E+04  0.25500000920E-02 0.  1.
    10030    2    1    2    0    0  0.00000000000E+00  0.00000000000E+00  0.40478154329E+03  0.39058299276E+04  0.38847984923E+04 0.  0.
        1    1    3    3  502    0  0.16582180153E+03 -0.82983139664E+03  0.19602261035E+04  0.21350886149E+04  0.50400001928E-02 0. -1.
       -1    1    3    3    0  502 -0.16582180153E+03  0.82983139664E+03 -0.15554445602E+04  0.17707413127E+04  0.50400001928E-02 0.  1.
</event>
<event>
 5   0  0.4750125E-08  0.3855037E+04  0.7818609E-02  0.8034446E-01
        1   -1    0    0  501    0  0.00000000000E+00  0.00000000000E+00  0.26702009697E+04  0.26702009697E+04  0.50400001928E-02 0.  1.
       -1   -1    0    0    0  501  0.00000000000E+00  0.00000000000E+00 -0.13914034743E+04  0.13914034743E+04  0.50400001928E-02 0. -1.
    10030    2    1    2    0    0  0.00000000000E+00  0.00000000000E+00  0.12787974954E+04  0.40616044439E+04  0.38550366567E+04 0.  0.
        3    1    3    3  502    0  0.13640555335E+04 -0.98031258350E+03  0.16353931229E+04  0.23443913787E+04  0.10100000352E+00 0.  1.
       -3    1    3    3    0  502 -0.13640555335E+04  0.98031258350E+03 -0.35659562748E+03  0.17172130653E+04  0.10100000352E+00 0. -1.
</event>
<event>
 5   0  0.4750125E-08  0.3882036E+04  0.7818609E-02  0.8028776E-01
       -1   -1    0    0    0  501  0.00000000000E+00  0.00000000000E+00  0.20343304014E+04  0.20343304014E+04  0.50400001928E-02 0.  1.
        1   -1    0    0  501    0  0.00000000000E+00  0.00000000000E+00 -0.18519853266E+04  0.18519853266E+04  0.50400001928E-02 0. -1.
    10030    2    1    2    0    0  0.00000000000E+00  0.00000000000E+00  0.18234507479E+03  0.38863157280E+04  0.38820355758E+04 0.  0.
        5    1    3    3  502    0  0.92830462573E+03 -0.16542563383E+04 -0.32063784807E+03  0.19238358118E+04  0.46999998093E+01 0. -1.
       -5    1    3    3    0  502 -0.92830462573E+03  0.16542563383E+04  0.50298292287E+03  0.19624799163E+04  0.46999998093E+01 0.  1.
</event>
<event>
 5   0  0.4750125E-08  0.3808363E+04  0.7818609E-02  0.8044363E-01
       -1   -1    0    0    0  501  0.00000000000E+00  0.00000000000E+00  0.16791637006E+04  0.16791637006E+04  0.50400001928E-02 0.  1.
        1   -1    0    0  501    0  0.00000000000E+00  0.00000000000E+00 -0.21593525328E+04  0.21593525328E+04  0.50400001928E-02 0. -1.
    10030    2    1    2    0    0  0.00000000000E+00  0.00000000000E+00 -0.48018883218E+03  0.38385162335E+04  0.38083625825E+04 0.  0.
        3    1    3    3  502    0  0.15108759070E+04  0.48104784569E+03 -0.13028400128E+04  0.20522049472E+04  0.10100000352E+00 0. -1.
       -3    1    3    3    0  502 -0.15108759070E+04 -0.48104784569E+03  0.82265118058E+03  0.17863112863E+04  0.10100000352E+00 0.  1.
</event>
<event>
 5   0  0.1546846E-07  0.3923188E+04  0.7818609E-02  0.8020224E-01
        2   -1    0    0  501    0  0.00000000000E+00  0.00000000000E+00  0.14051457918E+04  0.14051457918E+04  0.25500000920E-02 0. -1.
       -2   -1    0    0    0  501  0.00000000000E+00  0.00000000000E+00 -0.27384001799E+04  0.27384001799E+04  0.25500000920E-02 0.  1.
    10030    2    1    2    0    0  0.00000000000E+00  0.00000000000E+00 -0.13332543881E+04  0.41435459717E+04  0.39231882387E+04 0.  0.
        2    1    3    3  502    0 -0.18061622925E+04  0.24573127672E+03 -0.14320724656E+04  0.23180676509E+04  0.25500000920E-02 0.  1.
       -2    1    3    3    0  502  0.18061622925E+04 -0.24573127672E+03  0.98818077501E+02  0.18254783208E+04  0.25500000920E-02 0. -1.
</event>
<event>
 5   0  0.1546846E-07  0.3882758E+04  0.7818609E-02  0.8028625E-01
        2   -1    0    0  501    0  0.00000000000E+00  0.00000000000E+00  0.26312466977E+04  0.26312466977E+04  0.25500000920E-02 0. -1.
       -2   -1    0    0    0  501  0.00000000000E+00  0.00000000000E+00 -0.14323826355E+04  0.14323826355E+04  0.25500000920E-02 0.  1.
    10030    2    1    2    0    0  0.00000000000E+00  0.00000000000E+00  0.11988640622E+04  0.40636293332E+04  0.38827578238E+04 0.  0.
        2    1    3    3  502    0 -0.11325928884E+04 -0.14865976612E+04  0.49390223261E+02  0.18695396897E+04  0.25500000920E-02 0. -1.
       -2    1    3    3    0  502  0.11325928884E+04  0.14865976612E+04  0.11494738389E+04  0.21940896435E+04  0.25500000920E-02 0.  1.
</event>
<event>
 5   0  0.1520986E-07  0.3841021E+04  0.7818609E-02  0.8037409E-01
       -2   -1    0    0    0  501  0.00000000000E+00  0.00000000000E+00  0.14334264566E+04  0.14334264566E+04  0.25500000920E-02 0.  1.
        2   -1    0    0  501    0  0.00000000000E+00  0.00000000000E+00 -0.25731073262E+04  0.25731073262E+04  0.25500000920E-02 0. -1.
    10030    2    1    2    0    0  0.00000000000E+00  0.00000000000E+00 -0.11396808696E+04  0.40065337828E+04  0.38410207586E+04 0.  0.
        4    1    3    3  502    0 -0.16065132255E+04  0.32241626693E+03 -0.16147663443E+04  0.23005018915E+04  0.12699999809E+01 0. -1.
       -4    1    3    3    0  502  0.16065132255E+04 -0.32241626693E+03  0.47508547468E+03  0.17060318913E+04  0.12699999809E+01 0.  1.
</event>
<event>
 5   0  0.4750125E-08  0.3884153E+04  0.7818609E-02  0.8028333E-01
        1   -1    0    0  501    0  0.00000000000E+00  0.00000000000E+00  0.28077507657E+04  0.28077507657E+04  0.50400001928E-02 0.  1.
       -1   -1    0    0    0  501  0.00000000000E+00  0.00000000000E+00 -0.13433035575E+04  0.13433035575E+04  0.50400001928E-02 0. -1.
    10030    2    1    2    0    0  0.00000000000E+00  0.00000000000E+00  0.14644472082E+04  0.41510543233E+04  0.38841532371E+04 0.  0.
        3    1    3    3  502    0  0.46846740859E+03 -0.85478326474E+03  0.25273936207E+04  0.27088437878E+04  0.10100000352E+00 0.  1.
       -3    1    3    3    0  502 -0.46846740859E+03  0.85478326474E+03 -0.10629464125E+04  0.14422105355E+04  0.10100000352E+00 0. -1.
</event>
<event>
 5   0  0.4750125E-08  0.3891668E+04  0.7818609E-02  0.8026764E-01
        1   -1    0    0  501    0  0.00000000000E+00  0.00000000000E+00  0.21994326999E+04  0.21994326999E+04  0.50400001928E-02 0. -1.
       -1   -1    0    0    0  501  0.00000000000E+00  0.00000000000E+00 -0.17214758018E+04  0.17214758018E+04  0.50400001928E-02 0.  1.
    10030    2    1    2    0    0  0.00000000000E+00  0.00000000000E+00  0.47795689807E+03  0.39209085016E+04  0.38916681104E+04 0.  0.
        4    1    3    3  502    0 -0.11321719313E+04  0.19898939289E+03  0.18207614655E+04  0.21532728549E+04  0.12699999809E+01 0. -1.
       -4    1    3    3    0  502  0.11321719313E+04 -0.19898939289E+03 -0.13428045674E+04  0.17676356468E+04  0.12699999809E+01 0.  1.
</event>
<event>
 5   0  0.1501585E-07  0.3888478E+04  0.7818609E-02  0.8027430E-01
       -2   -1    0    0    0  501  0.00000000000E+00  0.00000000000E+00  0.22073585908E+04  0.22073585908E+04  0.25500000920E-02 0.  1.
        2   -1    0    0  501    0  0.00000000000E+00  0.00000000000E+00 -0.17124831635E+04  0.17124831635E+04  0.25500000920E-02 0. -1.
    10030    2    1    2    0    0  0.00000000000E+00  0.00000000000E+00  0.49487542737E+03  0.39198417543E+04  0.38884775543E+04 0.  0.
        5    1    3    3  502    0  0.10299894833E+04  0.13955431539E+04 -0.63806848482E+03  0.18481267574E+04  0.46999998093E+01 0. -1.
       -5    1    3    3    0  502 -0.10299894833E+04 -0.13955431539E+04  0.11329439122E+04  0.20717149969E+04  0.46999998093E+01 0.  1.
</event>
<event>
 5   0  0.4750125E-08  0.3961576E+04  0.7818609E-02  0.8012343E-01
       -1   -1    0    0    0  501  0.00000000000E+00  0.00000000000E+00  0.18340404138E+04  0.18340404138E+04  0.50400001928E-02 0. -1.
        1   -1    0    0  501    0  0.00000000000E+00  0.00000000000E+00 -0.21392768077E+04  0.21392768078E+04  0.50400001928E-02 0.  1.
    10030    2    1    2    0    0  0.00000000000E+00  0.00000000000E+00 -0.30523639396E+03  0.39733172216E+04  0.39615755056E+04 0.  0.
        5    1    3    3  502    0 -0.14419694565E+04 -0.12738632978E+04 -0.62464503649E+03  0.20229204450E+04  0.46999998093E+01 0. -1.
       -5    1    3    3    0  502  0.14419694565E+04  0.12738632978E+04  0.31940864253E+03  0.19503967766E+04  0.46999998093E+01 0.  1.
</event>
<event>
 5   0  0.4762788E-08  0.3891244E+04  0.7818609E-02  0.8026853E-01
       -1   -1    0    0    0  501  0.00000000000E+00  0.00000000000E+00  0.30580721745E+04  0.30580721745E+04  0.50400001928E-02 0. -1.
        1   -1    0    0  501    0  0.00000000000E+00  0.00000000000E+00 -0.12378531106E+04  0.12378531106E+04  0.50400001928E-02 0.  1.
    10030    2    1    2    0    0  0.00000000000E+00  0.00000000000E+00  0.18202190639E+04  0.42959252851E+04  0.38912435820E+04 0.  0.
        2    1    3    3  502    0  0.12172170370E+04 -0.12332816695E+04 -0.66690540834E+02  0.17340843751E+04  0.25500000920E-02 0.  1.
       -2    1    3    3    0  502 -0.12172170370E+04  0.12332816695E+04  0.18869096048E+04  0.25618409100E+04  0.25500000920E-02 0. -1.
</event>
<event>
 5   0  0.1503228E-07  0.3970942E+04  0.7818609E-02  0.8010434E-01
        2   -1    0    0  501    0  0.00000000000E+00  0.00000000000E+00  0.30165360110E+04  0.30165360110E+04  0.25500000920E-02 0. -1.
       -2   -1    0    0    0  501  0.00000000000E+00  0.00000000000E+00 -0.13068281293E+04  0.13068281293E+04  0.25500000920E-02 0.  1.
    10030    2    1    2    0    0  0.00000000000E+00  0.00000000000E+00  0.17097078817E+04  0.43233641404E+04  0.39709415067E+04 0.  0.
        3    1    3    3  502    0  0.17715457729E+04  0.88718629270E+03  0.99521476500E+03  0.22171888467E+04  0.10100000352E+00 0. -1.
       -3    1    3    3    0  502 -0.17715457729E+04 -0.88718629270E+03  0.71449311670E+03  0.21061752936E+04  0.10100000352E+00 0.  1.
</event>
<event>
 5   0  0.4750125E-08  0.3926814E+04  0.7818609E-02  0.8019475E-01
        1   -1    0    0  501    0  0.00000000000E+00  0.00000000000E+00  0.14785451476E+04  0.14785451476E+04  0.50400001928E-02 0.  1.
       -1   -1    0    0    0  501  0.00000000000E+00  0.00000000000E+00 -0.26072702172E+04  0.26072702172E+04  0.50400001928E-02 0. -1.
    10030    2    1    2    0    0  0.00000000000E+00  0.00000000000E+00 -0.11287250696E+04  0.40858153648E+04  0.39268138372E+04 0.  0.
        5    1    3    3  502    0 -0.51715642501E+03  0.71490191424E+03 -0.23893524541E+04  0.25470694444E+04  0.46999998093E+01 0. -1.
       -5    1    3    3    0  502  0.51715642501E+03 -0.71490191424E+03  0.12606273845E+04  0.15387459204E+04  0.46999998093E+01 0.  1.
</event>
<event>
 5   0  0.4750125E-08  0.4249718E+04  0.7818609E-02  0.7955982E-01
       -1   -1    0    0    0  501  0.00000000000E+00  0.00000000000E+00  0.26467395430E+04  0.26467395430E+04  0.50400001928E-02 0.  1.
        1   -1    0    0  501    0  0.00000000000E+00  0.00000000000E+00 -0.17058821625E+04  0.17058821625E+04  0.50400001928E-02 0. -1.
    10030    2    1    2    0    0  0.00000000000E+00  0.00000000000E+00  0.94085738054E+03  0.43526217055E+04  0.42497180025E+04 0.  0.
        5    1    3    3  502    0  0.13668040766E+04  0.13824594621E+04  0.13489013343E+04  0.23662004243E+04  0.46999998093E+01 0.  1.
       -5    1    3    3    0  502 -0.13668040766E+04 -0.13824594621E+04 -0.40804395376E+03  0.19864212812E+04  0.46999998093E+01 0. -1.
</event>
<event>
 5   0  0.4750125E-08  0.3924130E+04  0.7818609E-02  0.8020029E-01
        1   -1    0    0  501    0  0.00000000000E+00  0.00000000000E+00  0.13443491505E+04  0.13443491506E+04  0.50400001928E-02 0.  1.
       -1   -1    0    0    0  501  0.00000000000E+00  0.00000000000E+00 -0.28636158587E+04  0.28636158587E+04  0.50400001928E-02 0. -1.
    10030    2    1    2    0    0  0.00000000000E+00  0.00000000000E+00 -0.15192667081E+04  0.42079650092E+04  0.39241302461E+04 0.  0.
        3    1    3    3  502    0 -0.10819100671E+04  0.13784003044E+04 -0.17061938365E+04  0.24457338797E+04  0.10100000352E+00 0. -1.
       -3    1    3    3    0  502  0.10819100671E+04 -0.13784003044E+04  0.18692712838E+03  0.17622311295E+04  0.10100000352E+00 0.  1.
</event>
<event>
 5   0  0.4762788E-08  0.3935906E+04  0.7818609E-02  0.8017603E-01
        1   -1    0    0  501    0  0.00000000000E+00  0.00000000000E+00  0.24594203243E+04  0.24594203243E+04  0.50400001928E-02 0. -1.
       -1   -1    0    0    0  501  0.00000000000E+00  0.00000000000E+00 -0.15746960143E+04  0.15746960144E+04  0.50400001928E-02 0.  1.
    10030    2    1    2    0    0  0.00000000000E+00  0.00000000000E+00  0.88472430994E+03  0.40341163387E+04  0.39359061891E+04 0.  0.
        2    1    3    3  502    0 -0.14517664173E+04 -0.96147157746E+03 -0.49746162721E+03  0.18109448901E+04  0.25500000920E-02 0.  1.
       -2    1    3    3    0  502  0.14517664173E+04  0.96147157746E+03  0.13821859372E+04  0.22231714485E+04  0.25500000920E-02 0. -1.
</event>
<event>
 5   0  0.4750125E-08  0.3922440E+04  0.7818609E-02  0.8020378E-01
       -1   -1    0    0    0  501  0.00000000000E+00  0.00000000000E+00  0.20751007744E+04  0.20751007744E+04  0.50400001928E-02 0. -1.
        1   -1    0    0  501    0  0.00000000000E+00  0.00000000000E+00 -0.18535890052E+04  0.18535890052E+04  0.50400001928E-02 0.  1.
    10030    2    1    2    0    0  0.00000000000E+00  0.00000000000E+00  0.22151176914E+03  0.39286897796E+04  0.39224400468E+04 0.  0.
        4    1    3    3  502    0 -0.68801225066E+03  0.54529503010E+03  0.18673103998E+04  0.20633849057E+04  0.12699999809E+01 0. -1.
       -4    1    3    3    0  502  0.68801225066E+03 -0.54529503010E+03 -0.16457986307E+04  0.18653048739E+04  0.12699999809E+01 0.  1.
</event>
<event>
 5   0  0.4750125E-08  0.3853409E+04  0.7818609E-02  0.8034790E-01
        1   -1    0    0  501    0  0.00000000000E+00  0.00000000000E+00  0.10893126821E+04  0.10893126821E+04  0.50400001928E-02 0. -1.
       -1   -1    0    0    0  501  0.00000000000E+00  0.00000000000E+00 -0.34078284678E+04  0.34078284678E+04  0.50400001928E-02 0.  1.
    10030    2    1    2    0    0  0.00000000000E+00  0.00000000000E+00 -0.23185157857E+04  0.44971411499E+04  0.38534092793E+04 0.  0.
        4    1    3    3  502    0  0.15338012854E+04  0.98562521072E+02 -0.25152173835E+04  0.29476399124E+04  0.12699999809E+01 0.  1.
       -4    1    3    3    0  502 -0.15338012854E+04 -0.98562521072E+02  0.19670159783E+03  0.15495012375E+04  0.12699999809E+01 0. -1.
</event>
<event>
 5   0  0.1503228E-07  0.3909485E+04  0.7818609E-02  0.8023059E-01
       -2   -1    0    0    0  501  0.00000000000E+00  0.00000000000E+00  0.22561891238E+04  0.22561891239E+04  0.25500000920E-02 0. -1.
        2   -1    0    0  501    0  0.00000000000E+00  0.00000000000E+00 -0.16935719559E+04  0.16935719559E+04  0.25500000920E-02 0.  1.
    10030    2    1    2    0    0  0.00000000000E+00  0.00000000000E+00  0.56261716796E+03  0.39497610797E+04  0.39094851975E+04 0.  0.
        3    1    3    3  502    0  0.10659647323E+04  0.14306167261E+04  0.10883329319E+04  0.20898357850E+04  0.10100000352E+00 0. -1.
       -3    1    3    3    0  502 -0.10659647323E+04 -0.14306167261E+04 -0.52571576396E+03  0.18599252947E+04  0.10100000352E+00 0.  1.
</event>
<event>
 5   0  0.1520986E-07  0.3912423E+04  0.7818609E-02  0.8022450E-01
        2   -1    0    0  501    0  0.00000000000E+00  0.00000000000E+00  0.26150593743E+04  0.26150593743E+04  0.25500000920E-02 0. -1.
       -2   -1    0    0    0  501  0.00000000000E+00  0.00000000000E+00 -0.14633559933E+04  0.14633559933E+04  0.25500000920E-02 0.  1.
    10030    2    1    2    0    0  0.00000000000E+00  0.00000000000E+00  0.11517033810E+04  0.40784153676E+04  0.39124226807E+04 0.  0.
        4    1    3    3  502    0 -0.15069765738E+04 -0.21529835704E+03  0.18565654981E+04  0.24008683508E+04  0.12699999809E+01 0. -1.
       -4    1    3    3    0  502  0.15069765738E+04  0.21529835704E+03 -0.70486211712E+03  0.16775470168E+04  0.12699999809E+01 0.  1.
</event>
<event>
 5   0  0.1520986E-07  0.3870427E+04  0.7818609E-02  0.8031208E-01
        2   -1    0    0  501    0  0.00000000000E+00  0.00000000000E+00  0.29282496942E+04  0.29282496942E+04  0.25500000920E-02 0. -1.
       -2   -1    0    0    0  501  0.00000000000E+00  0.00000000000E+00 -0.12789388324E+04  0.12789388324E+04  0.25500000920E-02 0.  1.
    10030    2    1    2    0    0  0.00000000000E+00  0.00000000000E+00  0.16493108618E+04  0.42071885266E+04  0.38704274932E+04 0.  0.
        4    1    3    3  502    0  0.37095146863E+03 -0.79284246071E+02 -0.12381308057E+04  0.12949364806E+04  0.12699999809E+01 0.  1.
       -4    1    3    3    0  502 -0.37095146863E+03  0.79284246071E+02  0.28874416675E+04  0.29122520461E+04  0.12699999809E+01 0. -1.
</event>
<event>
 5   0  0.4750125E-08  0.3875946E+04  0.7818609E-02  0.8030051E-01
       -1   -1    0    0    0  501  0.00000000000E+00  0.00000000000E+00  0.12755666776E+04  0.12755666776E+04  0.50400001928E-02 0.  1.
        1   -1    0    0  501    0  0.00000000000E+00  0.00000000000E+00 -0.29443692101E+04  0.29443692101E+04  0.50400001928E-02 0. -1.
    10030    2    1    2    0    0  0.00000000000E+00  0.00000000000E+00 -0.16688025325E+04  0.42199358878E+04  0.38759459496E+04 0.  0.
        5    1    3    3  502    0 -0.18215603757E+04  0.47218991413E+03 -0.32995433836E+03  0.19104809533E+04  0.46999998093E+01 0.  1.
       -5    1    3    3    0  502  0.18215603757E+04 -0.47218991413E+03 -0.13388481941E+04  0.23094549345E+04  0.46999998093E+01 0. -1.
</event>
<event>
 5   0  0.4750125E-08  0.3866666E+04  0.7818609E-02  0.8031998E-01
       -1   -1    0    0    0  501  0.00000000000E+00  0.00000000000E+00  0.16204067491E+04  0.16204067491E+04  0.50400001928E-02 0.  1.
        1   -1    0    0  501    0  0.00000000000E+00  0.00000000000E+00 -0.23066903459E+04  0.23066903459E+04  0.50400001928E-02 0. -1.
    10030    2    1    2    0    0  0.00000000000E+00  0.00000000000E+00 -0.68628359679E+03  0.39270970951E+04  0.38666660599E+04 0.  0.
        3    1    3    3  502    0  0.12288868735E+04 -0.59690057736E+03  0.10462009247E+04  0.17207526354E+04  0.10100000352E+00 0.  1.
       -3    1    3    3    0  502 -0.12288868735E+04  0.59690057736E+03 -0.17324845215E+04  0.22063444597E+04  0.10100000352E+00 0. -1.
</event>
<event>
 5   0  0.1520986E-07  0.3898525E+04  0.7818609E-02  0.8025336E-01
       -2   -1    0    0    0  501  0.00000000000E+00  0.00000000000E+00  0.24604391705E+04  0.24604391705E+04  0.25500000920E-02 0.  1.
        2   -1    0    0  501    0  0.00000000000E+00  0.00000000000E+00 -0.15442868241E+04  0.15442868241E+04  0.25500000920E-02 0. -1.
    10030    2    1    2    0    0  0.00000000000E+00  0.00000000000E+00  0.91615234642E+03  0.40047259947E+04  0.38985247428E+04 0.  0.
        4    1    3    3  502    0 -0.74753342610E+02  0.10795987128E+04 -0.12073545168E+04  0.16213660861E+04  0.12699999809E+01 0. -1.
       -4    1    3    3    0  502  0.74753342610E+02 -0.10795987128E+04  0.21235068632E+04  0.23833599086E+04  0.12699999809E+01 0.  1.
</event>
<event>
 5   0  0.1501585E-07  0.3894764E+04  0.7818609E-02  0.8026119E-01
       -2   -1    0    0    0  501  0.00000000000E+00  0.00000000000E+00  0.12209957334E+04  0.12209957334E+04  0.25500000920E-02 0.  1.
        2   -1    0    0  501    0  0.00000000000E+00  0.00000000000E+00 -0.31059045769E+04  0.31059045769E+04  0.25500000920E-02 0. -1.
    10030    2    1    2    0    0  0.00000000000E+00  0.00000000000E+00 -0.18849088435E+04  0.43269003103E+04  0.38947637858E+04 0.  0.
        5    1    3    3  502    0  0.77585709642E+03  0.17830732943E+04 -0.82609810309E+03  0.21127623560E+04  0.46999998093E+01 0.  1.
       -5    1    3    3    0  502 -0.77585709642E+03 -0.17830732943E+04 -0.10588107404E+04  0.22141379544E+04  0.46999998093E+01 0. -1.
</event>
<event>
 5   0  0.4750125E-08  0.3913491E+04  0.7818609E-02  0.8022229E-01
       -1   -1    0    0    0  501  0.00000000000E+00  0.00000000000E+00  0.19548124062E+04  0.19548124062E+04  0.50400001928E-02 0.  1.
        1   -1    0    0  501    0  0.00000000000E+00  0.00000000000E+00 -0.19586802623E+04  0.19586802623E+04  0.50400001928E-02 0. -1.
    10030    2    1    2    0    0  0.00000000000E+00  0.00000000000E+00 -0.38678560897E+01  0.39134926685E+04  0.39134907571E+04 0.  0.
        5    1    3    3  502    0 -0.75617752735E+03 -0.54374687311E+03  0.17189286941E+04  0.19550455392E+04  0.46999998093E+01 0.  1.
       -5    1    3    3    0  502  0.75617752735E+03  0.54374687311E+03 -0.17227965502E+04  0.19584471293E+04  0.46999998093E+01 0. -1.
</event>
<event>
 5   0  0.4750125E-08  0.3902201E+04  0.7818609E-02  0.8024572E-01
        1   -1    0    0  501    0  0.00000000000E+00  0.00000000000E+00  0.22695345595E+04  0.22695345595E+04  0.50400001928E-02 0. -1.
       -1   -1    0    0    0  501  0.00000000000E+00  0.00000000000E+00 -0.16773453421E+04  0.16773453421E+04  0.50400001928E-02 0.  1.
    10030    2    1    2    0    0  0.00000000000E+00  0.00000000000E+00  0.59218921744E+03  0.39468799016E+04  0.39022010313E+04 0.  0.
        3    1    3    3  502    0 -0.87511499832E+02 -0.17955231824E+04  0.10632186327E+04  0.20885391144E+04  0.10100000352E+00 0. -1.
       -3    1    3    3    0  502  0.87511499832E+02  0.17955231824E+04 -0.47102941528E+03  0.18583407872E+04  0.10100000352E+00 0.  1.
</event>
<event>
 5   0  0.1546846E-07  0.3886422E+04  0.7818609E-02  0.8027859E-01
        2   -1    0    0  501    0  0.00000000000E+00  0.00000000000E+00  0.28424556410E+04  0.28424556410E+04  0.25500000920E-02 0.  1.
       -2   -1    0    0    0  501  0.00000000000E+00  0.00000000000E+00 -0.13284532615E+04  0.13284532615E+04  0.25500000920E-02 0. -1.
    10030    2    1    2    0    0  0.00000000000E+00  0.00000000000E+00  0.15140023796E+04  0.41709089025E+04  0.38864222451E+04 0.  0.
        2    1    3    3  502    0 -0.99118018753E+03 -0.13341519134E+04  0.18375117419E+04  0.24776700535E+04  0.25500000920E-02 0.  1.
       -2    1    3    3    0  502  0.99118018753E+03  0.13341519134E+04 -0.32350936234E+03  0.16932388490E+04  0.25500000920E-02 0. -1.
</event>
<event>
 5   0  0.1501585E-07  0.3890659E+04  0.7818609E-02  0.8026975E-01
       -2   -1    0    0    0  501  0.00000000000E+00  0.00000000000E+00  0.14069330108E+04  0.14069330108E+04  0.25500000920E-02 0.  1.
        2   -1    0    0  501    0  0.00000000000E+00  0.00000000000E+00 -0.26897565233E+04  0.26897565233E+04  0.25500000920E-02 0. -1.
    10030    2    1    2    0    0  0.00000000000E+00  0.00000000000E+00 -0.12828235125E+04  0.40966895341E+04  0.38906591953E+04 0.  0.
        5    1    3    3  502    0  0.15998545886E+04 -0.10524229420E+04 -0.10018184689E+04  0.21612013067E+04  0.46999998093E+01 0.  1.
       -5    1    3    3    0  502 -0.15998545886E+04  0.10524229420E+04 -0.28100504363E+03  0.19354882273E+04  0.46999998093E+01 0. -1.
</event>
<event>
 5   0  0.1538018E-07  0.3900572E+04  0.7818609E-02  0.8024910E-01
        2   -1    0    0  501    0  0.00000000000E+00  0.00000000000E+00  0.26243646990E+04  0.26243646990E+04  0.25500000920E-02 0.  1.
       -2   -1    0    0    0  501  0.00000000000E+00  0.00000000000E+00 -0.14493471008E+04  0.14493471008E+04  0.25500000920E-02 0. -1.
    10030    2    1    2    0    0  0.00000000000E+00  0.00000000000E+00  0.11750175982E+04  0.40737117999E+04  0.39005719417E+04 0.  0.
        1    1    3    3  502    0 -0.12529047789E+04  0.10406133405E+01  0.21484567409E+04  0.24870942554E+04  0.50400001928E-02 0.  1.
       -1    1    3    3    0  502  0.12529047789E+04 -0.10406133405E+01 -0.97343914269E+03  0.15866175444E+04  0.50400001928E-02 0. -1.
</event>
<event>
 5   0  0.1520986E-07  0.3911044E+04  0.7818609E-02  0.8022736E-01
       -2   -1    0    0    0  501  0.00000000000E+00  0.00000000000E+00  0.30308749232E+04  0.30308749232E+04  0.25500000920E-02 0.  1.
        2   -1    0    0  501    0  0.00000000000E+00  0.00000000000E+00 -0.12617040039E+04  0.12617040039E+04  0.25500000920E-02 0. -1.
    10030    2    1    2    0    0  0.00000000000E+00  0.00000000000E+00  0.17691709194E+04  0.42925789271E+04  0.39110443750E+04 0.  0.
        4    1    3    3  502    0  0.11308580267E+04  0.75278137261E+03 -0.65924140235E+03  0.15100067917E+04  0.12699999809E+01 0. -1.
       -4    1    3    3    0  502 -0.11308580267E+04 -0.75278137261E+03  0.24284123217E+04  0.27825721354E+04  0.12699999809E+01 0.  1.
</event>
<event>
 5   0  0.1501585E-07  0.3925698E+04  0.7818609E-02  0.8019706E-01
       -2   -1    0    0    0  501  0.00000000000E+00  0.00000000000E+00  0.15656541196E+04  0.15656541196E+04  0.25500000920E-02 0.  1.
        2   -1    0    0  501    0  0.00000000000E+00  0.00000000000E+00 -0.24608098618E+04  0.24608098618E+04  0.25500000920E-02 0. -1.
    10030    2    1    2    0    0  0.00000000000E+00  0.00000000000E+00 -0.89515574226E+03  0.40264639814E+04  0.39256984589E+04 0.  0.
        5    1    3    3  502    0 -0.16264606456E+04  0.10268347252E+04 -0.46397071689E+02  0.19240422456E+04  0.46999998093E+01 0. -1.
       -5    1    3    3    0  502  0.16264606456E+04 -0.10268347252E+04 -0.84875867057E+03  0.21024217358E+04  0.46999998093E+01 0.  1.
</event>
<event>
 5   0  0.1503228E-07  0.3965543E+04  0.7818609E-02  0.8011534E-01
        2   -1    0    0  501    0  0.00000000000E+00  0.00000000000E+00  0.28931403346E+04  0.28931403346E+04  0.25500000920E-02 0. -1.
       -2   -1    0    0    0  501  0.00000000000E+00  0.00000000000E+00 -0.13588635393E+04  0.13588635393E+04  0.25500000920E-02 0.  1.
    10030    2    1    2    0    0  0.00000000000E+00  0.00000000000E+00  0.15342767953E+04  0.42520038740E+04  0.39655430472E+04 0.  0.
        3    1    3    3  502    0 -0.38791587275E+03  0.97538470665E+03 -0.10364940777E+04  0.14751861014E+04  0.10100000352E+00 0.  1.
       -3    1    3    3    0  502  0.38791587275E+03 -0.97538470665E+03  0.25707708730E+04  0.27768177726E+04  0.10100000352E+00 0. -1.
</event>
<event>
 5   0  0.4750125E-08  0.3898592E+04  0.7818609E-02  0.8025322E-01
       -1   -1    0    0    0  501  0.00000000000E+00  0.00000000000E+00  0.17033424591E+04  0.17033424591E+04  0.50400001928E-02 0.  1.
        1   -1    0    0  501    0  0.00000000000E+00  0.00000000000E+00 -0.22307641752E+04  0.22307641752E+04  0.50400001928E-02 0. -1.
    10030    2    1    2    0    0  0.00000000000E+00  0.00000000000E+00 -0.52742171612E+03  0.39341066343E+04  0.38985922258E+04 0.  0.
        4    1    3    3  502    0  0.12181191189E+04 -0.74035696341E+03 -0.16054134024E+04  0.21469272058E+04  0.12699999809E+01 0. -1.
       -4    1    3    3    0  502 -0.12181191189E+04  0.74035696341E+03  0.10779916863E+04  0.17871794286E+04  0.12699999809E+01 0.  1.
</event>
<event>
 5   0  0.1501585E-07  0.3916264E+04  0.7818609E-02  0.8021655E-01
       -2   -1    0    0    0  501  0.00000000000E+00  0.00000000000E+00  0.28093565159E+04  0.28093565159E+04  0.25500000920E-02 0. -1.
        2   -1    0    0  501    0  0.00000000000E+00  0.00000000000E+00 -0.13648253628E+04  0.13648253628E+04  0.25500000920E-02 0.  1.
    10030    2    1    2    0    0  0.00000000000E+00  0.00000000000E+00  0.14445311531E+04  0.41741818787E+04  0.39162640493E+04 0.  0.
        5    1    3    3  502    0 -0.13714616492E+04 -0.11153894473E+04  0.16199043509E+04  0.23977307752E+04  0.46999998093E+01 0. -1.
       -5    1    3    3    0  502  0.13714616492E+04  0.11153894473E+04 -0.17537319774E+03  0.17764511035E+04  0.46999998093E+01 0.  1.
</event>
<event>
 5   0  0.4750125E-08  0.3904125E+04  0.7818609E-02  0.8024172E-01
        1   -1    0    0  501    0  0.00000000000E+00  0.00000000000E+00  0.17725818971E+04  0.17725818971E+04  0.50400001928E-02 0. -1.
       -1   -1    0    0    0  501  0.00000000000E+00  0.00000000000E+00 -0.21497164847E+04  0.21497164847E+04  0.50400001928E-02 0.  1.
    10030    2    1    2    0    0  0.00000000000E+00  0.00000000000E+00 -0.37713458760E+03  0.39222983819E+04  0.39041252669E+04 0.  0.
        5    1    3    3  502    0  0.33136923669E+03 -0.10442045138E+03  0.17412638567E+04  0.17755931714E+04  0.46999998093E+01 0. -1.
       -5    1    3    3    0  502 -0.33136923669E+03  0.10442045138E+03 -0.21183984443E+04  0.21467052104E+04  0.46999998093E+01 0.  1.
</event>
<event>
 5   0  0.4750125E-08  0.3867039E+04  0.7818609E-02  0.8031920E-01
       -1   -1    0    0    0  501  0.00000000000E+00  0.00000000000E+00  0.19615249748E+04  0.19615249748E+04  0.50400001928E-02 0. -1.
        1   -1    0    0  501    0  0.00000000000E+00  0.00000000000E+00 -0.19059135802E+04  0.19059135802E+04  0.50400001928E-02 0.  1.
    10030    2    1    2    0    0  0.00000000000E+00  0.00000000000E+00  0.55611394595E+02  0.38674385550E+04  0.38670387055E+04 0.  0.
        5    1    3    3  502    0  0.42462061219E+03  0.62012831192E+02 -0.18576814574E+04  0.19066071285E+04  0.46999998093E+01 0.  1.
       -5    1    3    3    0  502 -0.42462061219E+03 -0.62012831192E+02  0.19132928520E+04  0.19608314264E+04  0.46999998093E+01 0. -1.
</event>
<event>
 5   0  0.4750125E-08  0.3894994E+04  0.7818609E-02  0.8026071E-01
        1   -1    0    0  501    0  0.00000000000E+00  0.00000000000E+00  0.25134170831E+04  0.25134170831E+04  0.50400001928E-02 0.  1.
       -1   -1    0    0    0  501  0.00000000000E+00  0.00000000000E+00 -0.15089989633E+04  0.15089989633E+04  0.50400001928E-02 0. -1.
    10030    2    1    2    0    0  0.00000000000E+00  0.00000000000E+00  0.10044181197E+04  0.40224160464E+04  0.38949935932E+04 0.  0.
        5    1    3    3  502    0  0.11239078208E+04 -0.53429407253E+03 -0.10448242804E+04  0.16249057857E+04  0.46999998093E+01 0. -1.
       -5    1    3    3    0  502 -0.11239078208E+04  0.53429407253E+03  0.20492424002E+04  0.23975102607E+04  0.46999998093E+01 0.  1.
</event>
<event>
 5   0  0.4750125E-08  0.3902955E+04  0.7818609E-02  0.8024415E-01
        1   -1    0    0  501    0  0.00000000000E+00  0.00000000000E+00  0.20721960317E+04  0.20721960317E+04  0.50400001928E-02 0. -1.
       -1   -1    0    0    0  501  0.00000000000E+00  0.00000000000E+00 -0.18377913128E+04  0.18377913128E+04  0.50400001928E-02 0.  1.
    10030    2    1    2    0    0  0.00000000000E+00  0.00000000000E+00  0.23440471887E+03  0.39099873445E+04  0.39029547092E+04 0.  0.
        1    1    3    3  502    0 -0.45930625999E+03 -0.18823131871E+04 -0.11602325023E+03  0.19410117386E+04  0.50400001928E-02 0.  1.
       -1    1    3    3    0  502  0.45930625999E+03  0.18823131871E+04  0.35042796910E+03  0.19689756059E+04  0.50400001928E-02 0. -1.
</event>
<event>
 5   0  0.1503228E-07  0.3928252E+04  0.7818609E-02  0.8019179E-01
        2   -1    0    0  501    0  0.00000000000E+00  0.00000000000E+00  0.21753732866E+04  0.21753732866E+04  0.25500000920E-02 0. -1.
       -2   -1    0    0    0  501  0.00000000000E+00  0.00000000000E+00 -0.17733927893E+04  0.17733927893E+04  0.25500000920E-02 0.  1.
    10030    2    1    2    0    0  0.00000000000E+00  0.00000000000E+00  0.40198049731E+03  0.39487660759E+04  0.39282521815E+04 0.  0.
        3    1    3    3  502    0 -0.18801822033E+04 -0.24515828555E+03  0.71611494796E+03  0.20268222250E+04  0.10100000352E+00 0. -1.
       -3    1    3    3    0  502  0.18801822033E+04  0.24515828555E+03 -0.31413445065E+03  0.19219438509E+04  0.10100000352E+00 0.  1.
</event>
<event>
 5   0  0.4762788E-08  0.3857864E+04  0.7818609E-02  0.8033850E-01
        1   -1    0    0  501    0  0.00000000000E+00  0.00000000000E+00  0.23130858884E+04  0.23130858884E+04  0.50400001928E-02 0.  1.
       -1   -1    0    0    0  501  0.00000000000E+00  0.00000000000E+00 -0.16085774730E+04  0.16085774730E+04  0.50400001928E-02 0. -1.
    10030    2    1    2    0    0  0.00000000000E+00  0.00000000000E+00  0.70450841541E+03  0.39216633614E+04  0.38578635814E+04 0.  0.
        2    1    3    3  502    0 -0.18431706829E+03 -0.99830858671E+03 -0.13150487507E+04  0.16613085302E+04  0.25500000920E-02 0. -1.
       -2    1    3    3    0  502  0.18431706829E+03  0.99830858671E+03  0.20195571661E+04  0.22603548312E+04  0.25500000920E-02 0.  1.
</event>
<event>
 5   0  0.4750125E-08  0.3892646E+04  0.7818609E-02  0.8026560E-01
       -1   -1    0    0    0  501  0.00000000000E+00  0.00000000000E+00  0.26103477084E+04  0.26103477084E+04  0.50400001928E-02 0. -1.
        1   -1    0    0  501    0  0.00000000000E+00  0.00000000000E+00 -0.14512141249E+04  0.14512141249E+04  0.50400001928E-02 0.  1.
    10030    2    1    2    0    0  0.00000000000E+00  0.00000000000E+00  0.11591335835E+04  0.40615618333E+04  0.38926461258E+04 0.  0.
        4    1    3    3  502    0  0.16196066216E+04  0.73410251069E+03  0.14051935916E+04  0.22664074540E+04  0.12699999809E+01 0.  1.
       -4    1    3    3    0  502 -0.16196066216E+04 -0.73410251069E+03 -0.24606000809E+03  0.17951543792E+04  0.12699999809E+01 0. -1.
</event>
<event>
 5   0  0.1546846E-07  0.3912199E+04  0.7818609E-02  0.8022497E-01
       -2   -1    0    0    0  501  0.00000000000E+00  0.00000000000E+00  0.16602834223E+04  0.16602834223E+04  0.25500000920E-02 0.  1.
        2   -1    0    0  501    0  0.00000000000E+00  0.00000000000E+00 -0.23046222635E+04  0.23046222635E+04  0.25500000920E-02 0. -1.
    10030    2    1    2    0    0  0.00000000000E+00  0.00000000000E+00 -0.64433884120E+03  0.39649056857E+04  0.39121994523E+04 0.  0.
        2    1    3    3  502    0  0.48219217872E+03 -0.18604377291E+04 -0.69120179710E+03  0.20424244822E+04  0.25500000920E-02 0. -1.
       -2    1    3    3    0  502 -0.48219217872E+03  0.18604377291E+04  0.46862955906E+02  0.19224812035E+04  0.25500000920E-02 0.  1.
</event>
<event>
 5   0  0.1546846E-07  0.3930455E+04  0.7818609E-02  0.8018725E-01
        2   -1    0    0  501    0  0.00000000000E+00  0.00000000000E+00  0.20232580368E+04  0.20232580369E+04  0.25500000920E-02 0. -1.
       -2   -1    0    0    0  501  0.00000000000E+00  0.00000000000E+00 -0.19088618535E+04  0.19088618535E+04  0.25500000920E-02 0.  1.
    10030    2    1    2    0    0  0.00000000000E+00  0.00000000000E+00  0.11439618335E+03  0.39321198904E+04  0.39304554883E+04 0.  0.
        2    1    3    3  502    0 -0.10854623594E+04 -0.16139732276E+04 -0.22395823375E+03  0.19578803343E+04  0.25500000920E-02 0.  1.
       -2    1    3    3    0  502  0.10854623594E+04  0.16139732276E+04  0.33835441710E+03  0.19742395560E+04  0.25500000920E-02 0. -1.
</event>
<event>
 5   0  0.4750125E-08  0.3886373E+04  0.7818609E-02  0.8027869E-01
       -1   -1    0    0    0  501  0.00000000000E+00  0.00000000000E+00  0.26668998831E+04  0.26668998831E+04  0.50400001928E-02 0. -1.
        1   -1    0    0  501    0  0.00000000000E+00  0.00000000000E+00 -0.14158662555E+04  0.14158662555E+04  0.50400001928E-02 0.  1.
    10030    2    1    2    0    0  0.00000000000E+00  0.00000000000E+00  0.12510336277E+04  0.40827661386E+04  0.38863728855E+04 0.  0.
        1    1    3    3  502    0  0.90859325970E+03  0.58408248471E+03 -0.10714382301E+04  0.15214052522E+04  0.50400001928E-02 0.  1.
       -1    1    3    3    0  502 -0.90859325970E+03 -0.58408248471E+03  0.23224718577E+04  0.25613608864E+04  0.50400001928E-02 0. -1.
</event>
<event>
 5   0  0.1501585E-07  0.3869419E+04  0.7818609E-02  0.8031420E-01
        2   -1    0    0  501    0  0.00000000000E+00  0.00000000000E+00  0.22665209203E+04  0.22665209203E+04  0.25500000920E-02 0. -1.
       -2   -1    0    0    0  501  0.00000000000E+00  0.00000000000E+00 -0.16514741228E+04  0.16514741228E+04  0.25500000920E-02 0.  1.
    10030    2    1    2    0    0  0.00000000000E+00  0.00000000000E+00  0.61504679749E+03  0.39179950431E+04  0.38694188963E+04 0.  0.
        5    1    3    3  502    0  0.15915845342E+04 -0.93542756562E+03 -0.27845797507E+03  0.18670101751E+04  0.46999998093E+01 0.  1.
       -5    1    3    3    0  502 -0.15915845342E+04  0.93542756562E+03  0.89350477256E+03  0.20509848680E+04  0.46999998093E+01 0. -1.
</event>
<event>
 5   0  0.4750125E-08  0.3907401E+04  0.7818609E-02  0.8023492E-01
       -1   -1    0    0    0  501  0.00000000000E+00  0.00000000000E+00  0.12234113447E+04  0.12234113447E+04  0.50400001928E-02 0. -1.
        1   -1    0    0  501    0  0.00000000000E+00  0.00000000000E+00 -0.31199206645E+04  0.31199206645E+04  0.50400001928E-02 0.  1.
    10030    2    1    2    0    0  0.00000000000E+00  0.00000000000E+00 -0.18965093197E+04  0.43433320092E+04  0.39074013542E+04 0.  0.
        3    1    3    3  502    0  0.60813828355E+03 -0.10733071483E+04  0.73573051826E+03  0.14363564363E+04  0.10100000352E+00 0. -1.
       -3    1    3    3    0  502 -0.60813828355E+03  0.10733071483E+04 -0.26322398380E+04  0.29069755729E+04  0.10100000352E+00 0.  1.
</event>
<event>
 5   0  0.1520986E-07  0.3886864E+04  0.7818609E-02  0.8027767E-01
        2   -1    0    0  501    0  0.00000000000E+00  0.00000000000E+00  0.23432264712E+04  0.23432264712E+04  0.25500000920E-02 0.  1.
       -2   -1    0    0    0  501  0.00000000000E+00  0.00000000000E+00 -0.16118490799E+04  0.16118490799E+04  0.25500000920E-02 0. -1.
    10030    2    1    2    0    0  0.00000000000E+00  0.00000000000E+00  0.73137739128E+03  0.39550755511E+04  0.38868637391E+04 0.  0.
        4    1    3    3  502    0  0.39816758171E+03 -0.15845022979E+04  0.14366519162E+04  0.21755815996E+04  0.12699999809E+01 0.  1.
       -4    1    3    3    0  502 -0.39816758171E+03  0.15845022979E+04 -0.70527452493E+03  0.17794939516E+04  0.12699999809E+01 0. -1.
</event>
<event>
 5   0  0.4762788E-08  0.3859311E+04  0.7818609E-02  0.8033545E-01
        1   -1    0    0  501    0  0.00000000000E+00  0.00000000000E+00  0.13018290753E+04  0.13018290753E+04  0.50400001928E-02 0. -1.
       -1   -1    0    0    0  501  0.00000000000E+00  0.00000000000E+00 -0.28602610454E+04  0.28602610454E+04  0.50400001928E-02 0.  1.
    10030    2    1    2    0    0  0.00000000000E+00  0.00000000000E+00 -0.15584319701E+04  0.41620901207E+04  0.38593113333E+04 0.  0.
        2    1    3    3  502    0 -0.18260081133E+04  0.61726177911E+02 -0.14487746617E+04  0.23317512241E+04  0.25500000920E-02 0. -1.
       -2    1    3    3    0  502  0.18260081133E+04 -0.61726177911E+02 -0.10965730846E+03  0.18303388966E+04  0.25500000920E-02 0.  1.
</event>
<event>
 5   0  0.4750125E-08  0.3914250E+04  0.7818609E-02  0.8022072E-01
        1   -1    0    0  501    0  0.00000000000E+00  0.00000000000E+00  0.20187128921E+04  0.20187128921E+04  0.50400001928E-02 0. -1.
       -1   -1    0    0    0  501  0.00000000000E+00  0.00000000000E+00 -0.18974161041E+04  0.18974161041E+04  0.50400001928E-02 0.  1.
    10030    2    1    2    0    0  0.00000000000E+00  0.00000000000E+00  0.12129678795E+03  0.39161289962E+04  0.39142500436E+04 0.  0.
        3    1    3    3  502    0 -0.73215412867E+03  0.18149299166E+04  0.78491484590E+02  0.19586171636E+04  0.10100000352E+00 0.  1.
       -3    1    3    3    0  502  0.73215412867E+03 -0.18149299166E+04  0.42805303365E+02  0.19575118325E+04  0.10100000352E+00 0. -1.
</event>
<event>
 5   0  0.4750125E-08  0.3863859E+04  0.7818609E-02  0.8032588E-01
       -1   -1    0    0    0  501  0.00000000000E+00  0.00000000000E+00  0.23663701533E+04  0.23663701534E+04  0.50400001928E-02 0. -1.
        1   -1    0    0  501    0  0.00000000000E+00  0.00000000000E+00 -0.15772476279E+04  0.15772476279E+04  0.50400001928E-02 0.  1.
    10030    2    1    2    0    0  0.00000000000E+00  0.00000000000E+00  0.78912252541E+03  0.39436177813E+04  0.38638590612E+04 0.  0.
        1    1    3    3  502    0 -0.93692792535E+03  0.83333772821E+03 -0.11054932800E+04  0.16716462241E+04  0.50400001928E-02 0.  1.
       -1    1    3    3    0  502  0.93692792535E+03 -0.83333772821E+03  0.18946158054E+04  0.22719715572E+04  0.50400001928E-02 0. -1.
</event>
<event>
 5   0  0.4750125E-08  0.3481885E+04  0.7818609E-02  0.8118097E-01
       -1   -1    0    0    0  501  0.00000000000E+00  0.00000000000E+00  0.11518818171E+04  0.11518818171E+04  0.50400001928E-02 0.  1.
        1   -1    0    0  501    0  0.00000000000E+00  0.00000000000E+00 -0.26312421994E+04  0.26312421994E+04  0.50400001928E-02 0. -1.
    10030    2    1    2    0    0  0.00000000000E+00  0.00000000000E+00 -0.14793603823E+04  0.37831240165E+04  0.34818845735E+04 0.  0.
        3    1    3    3  502    0 -0.28969515383E+03 -0.15952617710E+04 -0.14286519621E+04  0.21609789076E+04  0.10100000352E+00 0.  1.
       -3    1    3    3    0  502  0.28969515383E+03  0.15952617710E+04 -0.50708420173E+02  0.16221451089E+04  0.10100000352E+00 0. -1.
</event>
<event>
 5   0  0.1520986E-07  0.3828129E+04  0.7818609E-02  0.8040145E-01
       -2   -1    0    0    0  501  0.00000000000E+00  0.00000000000E+00  0.16855519226E+04  0.16855519226E+04  0.25500000920E-02 0.  1.
        2   -1    0    0  501    0  0.00000000000E+00  0.00000000000E+00 -0.21735571688E+04  0.21735571688E+04  0.25500000920E-02 0. -1.
    10030    2    1    2    0    0  0.00000000000E+00  0.00000000000E+00 -0.48800524618E+03  0.38591090914E+04  0.38281292898E+04 0.  0.
        4    1    3    3  502    0 -0.37328757002E+03 -0.16823239457E+04  0.59585679205E+03  0.18233497738E+04  0.12699999809E+01 0.  1.
       -4    1    3    3    0  502  0.37328757002E+03  0.16823239457E+04 -0.10838620382E+04  0.20357593176E+04  0.12699999809E+01 0. -1.
</event>
<event>
 5   0  0.1538018E-07  0.3911341E+04  0.7818609E-02  0.8022675E-01
        2   -1    0    0  501    0  0.00000000000E+00  0.00000000000E+00  0.25549657359E+04  0.25549657359E+04  0.25500000920E-02 0. -1.
       -2   -1    0    0    0  501  0.00000000000E+00  0.00000000000E+00 -0.14969468950E+04  0.14969468950E+04  0.25500000920E-02 0.  1.
    10030    2    1    2    0    0  0.00000000000E+00  0.00000000000E+00  0.10580188409E+04  0.40519126309E+04  0.39113414707E+04 0.  0.
        1    1    3    3  502    0  0.84170201194E+03 -0.17363781230E+04  0.19949477000E+03  0.19399147987E+04  0.50400001928E-02 0.  1.
       -1    1    3    3    0  502 -0.84170201194E+03  0.17363781230E+04  0.85852407091E+03  0.21119978322E+04  0.50400001928E-02 0. -1.
</event>
<event>
 5   0  0.4762788E-08  0.3939144E+04  0.7818609E-02  0.8016937E-01
       -1   -1    0    0    0  501  0.00000000000E+00  0.00000000000E+00  0.16167603828E+04  0.16167603828E+04  0.50400001928E-02 0. -1.
        1   -1    0    0  501    0  0.00000000000E+00  0.00000000000E+00 -0.23993747338E+04  0.23993747338E+04  0.50400001928E-02 0.  1.
    10030    2    1    2    0    0  0.00000000000E+00  0.00000000000E+00 -0.78261435105E+03  0.40161351166E+04  0.39391440761E+04 0.  0.
        2    1    3    3  502    0 -0.60589511154E+03  0.54132408798E+03 -0.22205522185E+04  0.23645280310E+04  0.25500000920E-02 0.  1.
       -2    1    3    3    0  502  0.60589511154E+03 -0.54132408798E+03  0.14379378675E+04  0.16516070856E+04  0.25500000920E-02 0. -1.
</event>
<event>
 5   0  0.4762788E-08  0.3913689E+04  0.7818609E-02  0.8022188E-01
       -1   -1    0    0    0  501  0.00000000000E+00  0.00000000000E+00  0.16170645614E+04  0.16170645614E+04  0.50400001928E-02 0.  1.
        1   -1    0    0  501    0  0.00000000000E+00  0.00000000000E+00 -0.23680199603E+04  0.23680199603E+04  0.50400001928E-02 0. -1.
    10030    2    1    2    0    0  0.00000000000E+00  0.00000000000E+00 -0.75095539893E+03  0.39850845218E+04  0.39136893891E+04 0.  0.
        2    1    3    3  502    0  0.48222024168E+03  0.10918910339E+04  0.12034478611E+04  0.16950071226E+04  0.25500000920E-02 0.  1.
       -2    1    3    3    0  502 -0.48222024168E+03 -0.10918910339E+04 -0.19544032600E+04  0.22900773991E+04  0.25500000920E-02 0. -1.
</event>
<event>
 5   0  0.1520986E-07  0.3847184E+04  0.7818609E-02  0.8036104E-01
        2   -1    0    0  501    0  0.00000000000E+00  0.00000000000E+00  0.26045118917E+04  0.26045118917E+04  0.25500000920E-02 0. -1.
       -2   -1    0    0    0  501  0.00000000000E+00  0.00000000000E+00 -0.14206910337E+04  0.14206910337E+04  0.25500000920E-02 0.  1.
    10030    2    1    2    0    0  0.00000000000E+00  0.00000000000E+00  0.11838208580E+04  0.40252029254E+04  0.38471842647E+04 0.  0.
        4    1    3    3  502    0 -0.17927118533E+04  0.35027126060E+03  0.12228910842E+04  0.21981742337E+04  0.12699999809E+01 0. -1.
       -4    1    3    3    0  502  0.17927118533E+04 -0.35027126060E+03 -0.39070226123E+02  0.18270286917E+04  0.12699999809E+01 0.  1.
</event>
<event>
 5   0  0.4750125E-08  0.3878840E+04  0.7818609E-02  0.8029445E-01
        1   -1    0    0  501    0  0.00000000000E+00  0.00000000000E+00  0.18258335858E+04  0.18258335858E+04  0.50400001928E-02 0.  1.
       -1   -1    0    0    0  501  0.00000000000E+00  0.00000000000E+00 -0.20600724354E+04  0.20600724354E+04  0.50400001928E-02 0. -1.
    10030    2    1    2    0    0  0.00000000000E+00  0.00000000000E+00 -0.23423884962E+03  0.38859060211E+04  0.38788397449E+04 0.  0.
        3    1    3    3  502    0 -0.22188541821E+03  0.74992809059E+02  0.18116131324E+04  0.18266907816E+04  0.10100000352E+00 0.  1.
       -3    1    3    3    0  502  0.22188541821E+03 -0.74992809059E+02 -0.20458519820E+04  0.20592152395E+04  0.10100000352E+00 0. -1.
</event>
<event>
 5   0  0.1520986E-07  0.3900310E+04  0.7818609E-02  0.8024965E-01
       -2   -1    0    0    0  501  0.00000000000E+00  0.00000000000E+00  0.18585935269E+04  0.18585935269E+04  0.25500000920E-02 0. -1.
        2   -1    0    0  501    0  0.00000000000E+00  0.00000000000E+00 -0.20462273478E+04  0.20462273478E+04  0.25500000920E-02 0.  1.
    10030    2    1    2    0    0  0.00000000000E+00  0.00000000000E+00 -0.18763382086E+03  0.39048208747E+04  0.39003101944E+04 0.  0.
        4    1    3    3  502    0 -0.10027387041E+04  0.11345988681E+04 -0.13241823524E+04  0.20115317585E+04  0.12699999809E+01 0. -1.
       -4    1    3    3    0  502  0.10027387041E+04 -0.11345988681E+04  0.11365485315E+04  0.18932891162E+04  0.12699999809E+01 0.  1.
</event>
<event>
 5   0  0.4750125E-08  0.3915742E+04  0.7818609E-02  0.8021763E-01
        1   -1    0    0  501    0  0.00000000000E+00  0.00000000000E+00  0.12417338009E+04  0.12417338009E+04  0.50400001928E-02 0. -1.
       -1   -1    0    0    0  501  0.00000000000E+00  0.00000000000E+00 -0.30870215968E+04  0.30870215968E+04  0.50400001928E-02 0.  1.
    10030    2    1    2    0    0  0.00000000000E+00  0.00000000000E+00 -0.18452877959E+04  0.43287553977E+04  0.39157421063E+04 0.  0.
        3    1    3    3  502    0  0.49347887996E+03 -0.58632950171E+03  0.10690391939E+04  0.13153510930E+04  0.10100000352E+00 0. -1.
       -3    1    3    3    0  502 -0.49347887996E+03  0.58632950171E+03 -0.29143269898E+04  0.30134043046E+04  0.10100000352E+00 0.  1.
</event>
<event>
 5   0  0.4750125E-08  0.3904207E+04  0.7818609E-02  0.8024155E-01
       -1   -1    0    0    0  501  0.00000000000E+00  0.00000000000E+00  0.18628627067E+04  0.18628627067E+04  0.50400001928E-02 0. -1.
        1   -1    0    0  501    0  0.00000000000E+00  0.00000000000E+00 -0.20456189810E+04  0.20456189810E+04  0.50400001928E-02 0.  1.
    10030    2    1    2    0    0  0.00000000000E+00  0.00000000000E+00 -0.18275627436E+03  0.39084816877E+04  0.39042066092E+04 0.  0.
        3    1    3    3  502    0 -0.17949488211E+04 -0.61040280402E+03 -0.55694053428E+03  0.19760100259E+04  0.10100000352E+00 0.  1.
       -3    1    3    3    0  502  0.17949488211E+04  0.61040280402E+03  0.37418425992E+03  0.19324716619E+04  0.10100000352E+00 0. -1.
</event>
<event>
 5   0  0.1520986E-07  0.3893039E+04  0.7818609E-02  0.8026478E-01
       -2   -1    0    0    0  501  0.00000000000E+00  0.00000000000E+00  0.15632014165E+04  0.15632014165E+04  0.25500000920E-02 0.  1.
        2   -1    0    0  501    0  0.00000000000E+00  0.00000000000E+00 -0.24238326339E+04  0.24238326339E+04  0.25500000920E-02 0. -1.
    10030    2    1    2    0    0  0.00000000000E+00  0.00000000000E+00 -0.86063121742E+03  0.39870340504E+04  0.38930392274E+04 0.  0.
        4    1    3    3  502    0 -0.89429056350E+03  0.62025793904E+03 -0.20831149587E+04  0.23502861671E+04  0.12699999809E+01 0. -1.
       -4    1    3    3    0  502  0.89429056350E+03 -0.62025793904E+03  0.12224837413E+04  0.16367478833E+04  0.12699999809E+01 0.  1.
</event>
<event>
 5   0  0.1538018E-07  0.3903477E+04  0.7818609E-02  0.8024306E-01
       -2   -1    0    0    0  501  0.00000000000E+00  0.00000000000E+00  0.27600928333E+04  0.27600928333E+04  0.25500000920E-02 0. -1.
        2   -1    0    0  501    0  0.00000000000E+00  0.00000000000E+00 -0.13801286900E+04  0.13801286900E+04  0.25500000920E-02 0.  1.
    10030    2    1    2    0    0  0.00000000000E+00  0.00000000000E+00  0.13799641433E+04  0.41402215233E+04  0.39034770686E+04 0.  0.
        1    1    3    3  502    0 -0.17665349915E+04 -0.37269578665E+03 -0.96427428472E+02  0.18079950981E+04  0.50400001928E-02 0.  1.
       -1    1    3    3    0  502  0.17665349915E+04  0.37269578665E+03  0.14763915717E+04  0.23322264253E+04  0.50400001928E-02 0. -1.
</event>
<event>
 5   0  0.1520986E-07  0.3890945E+04  0.7818609E-02  0.8026915E-01
        2   -1    0    0  501    0  0.00000000000E+00  0.00000000000E+00  0.14626280102E+04  0.14626280102E+04  0.25500000920E-02 0.  1.
       -2   -1    0    0    0  501  0.00000000000E+00  0.00000000000E+00 -0.25877139703E+04  0.25877139703E+04  0.25500000920E-02 0. -1.
    10030    2    1    2    0    0  0.00000000000E+00  0.00000000000E+00 -0.11250859601E+04  0.40503419806E+04  0.38909448392E+04 0.  0.
        4    1    3    3  502    0 -0.13025233515E+04 -0.13718080795E+04 -0.10355092989E+04  0.21565494683E+04  0.12699999809E+01 0. -1.
       -4    1    3    3    0  502  0.13025233515E+04  0.13718080795E+04 -0.89576661248E+02  0.18937925122E+04  0.12699999809E+01 0.  1.
</event>
<event>
 5   0  0.1520986E-07  0.3769829E+04  0.7818609E-02  0.8052661E-01
       -2   -1    0    0    0  501  0.00000000000E+00  0.00000000000E+00  0.30557771843E+04  0.30557771843E+04  0.25500000920E-02 0. -1.
        2   -1    0    0  501    0  0.00000000000E+00  0.00000000000E+00 -0.11626838676E+04  0.11626838676E+04  0.25500000920E-02 0.  1.
    10030    2    1    2    0    0  0.00000000000E+00  0.00000000000E+00  0.18930933167E+04  0.42184610519E+04  0.37698290864E+04 0.  0.
        4    1    3    3  502    0  0.10417928329E+03 -0.73450344712E+03  0.28855461440E+04  0.29793836273E+04  0.12699999809E+01 0. -1.
       -4    1    3    3    0  502 -0.10417928329E+03  0.73450344712E+03 -0.99245282724E+03  0.12390774246E+04  0.12699999809E+01 0.  1.
</event>
<event>
 5   0  0.4750125E-08  0.3910479E+04  0.7818609E-02  0.8022853E-01
       -1   -1    0    0    0  501  0.00000000000E+00  0.00000000000E+00  0.17136268141E+04  0.17136268141E+04  0.50400001928E-02 0. -1.
        1   -1    0    0  501    0  0.00000000000E+00  0.00000000000E+00 -0.22309178925E+04  0.22309178925E+04  0.50400001928E-02 0.  1.
    10030    2    1    2    0    0  0.00000000000E+00  0.00000000000E+00 -0.51729107846E+03  0.39445447066E+04  0.39104786002E+04 0.  0.
        1    1    3    3  502    0  0.12282278381E+03 -0.15292560808E+04  0.96404058842E+03  0.18119282141E+04  0.50400001928E-02 0. -1.
       -1    1    3    3    0  502 -0.12282278381E+03  0.15292560808E+04 -0.14813316669E+04  0.21326164925E+04  0.50400001928E-02 0.  1.
</event>
<event>
 5   0  0.4750125E-08  0.3880998E+04  0.7818609E-02  0.8028993E-01
       -1   -1    0    0    0  501  0.00000000000E+00  0.00000000000E+00  0.16264108287E+04  0.16264108287E+04  0.50400001928E-02 0. -1.
        1   -1    0    0  501    0  0.00000000000E+00  0.00000000000E+00 -0.23152435286E+04  0.23152435286E+04  0.50400001928E-02 0.  1.
    10030    2    1    2    0    0  0.00000000000E+00  0.00000000000E+00 -0.68883269990E+03  0.39416543573E+04  0.38809984004E+04 0.  0.
        3    1    3    3  502    0  0.13453357847E+04  0.12702897752E+04 -0.93834019385E+03  0.20746196799E+04  0.10100000352E+00 0.  1.
       -3    1    3    3    0  502 -0.13453357847E+04 -0.12702897752E+04  0.24950749395E+03  0.18670346774E+04  0.10100000352E+00 0. -1.
</event>
<event>
 5   0  0.1546846E-07  0.3903103E+04  0.7818609E-02  0.8024384E-01
        2   -1    0    0  501    0  0.00000000000E+00  0.00000000000E+00  0.21992384368E+04  0.21992384368E+04  0.25500000920E-02 0.  1.
       -2   -1    0    0    0  501  0.00000000000E+00  0.00000000000E+00 -0.17317603619E+04  0.17317603619E+04  0.25500000920E-02 0. -1.
    10030    2    1    2    0    0  0.00000000000E+00  0.00000000000E+00  0.46747807493E+03  0.39309987988E+04  0.39031033557E+04 0.  0.
        2    1    3    3  502    0  0.60886009971E+03 -0.12509697383E+04 -0.11445879075E+04  0.18015874625E+04  0.25500000920E-02 0. -1.
       -2    1    3    3    0  502 -0.60886009971E+03  0.12509697383E+04  0.16120659824E+04  0.21294113362E+04  0.25500000920E-02 0.  1.
</event>
<event>
 5   0  0.4762788E-08  0.3923114E+04  0.7818609E-02  0.8020239E-01
       -1   -1    0    0    0  501  0.00000000000E+00  0.00000000000E+00  0.32702323296E+04  0.32702323296E+04  0.50400001928E-02 0. -1.
        1   -1    0    0  501    0  0.00000000000E+00  0.00000000000E+00 -0.11765849129E+04  0.11765849129E+04  0.50400001928E-02 0.  1.
    10030    2    1    2    0    0  0.00000000000E+00  0.00000000000E+00  0.20936474167E+04  0.44468172425E+04  0.39231140798E+04 0.  0.
        2    1    3    3  502    0 -0.18818014699E+04 -0.23656565858E+03  0.16142106810E+04  0.24905453630E+04  0.25500000920E-02 0.  1.
       -2    1    3    3    0  502  0.18818014699E+04  0.23656565858E+03  0.47943673568E+03  0.19562718795E+04  0.25500000920E-02 0. -1.
</event>
<event>
 5   0  0.4750125E-08  0.3779757E+04  0.7818609E-02  0.8050513E-01
       -1   -1    0    0    0  501  0.00000000000E+00  0.00000000000E+00  0.16679856730E+04  0.16679856730E+04  0.50400001928E-02 0.  1.
        1   -1    0    0  501    0  0.00000000000E+00  0.00000000000E+00 -0.21412893089E+04  0.21412893089E+04  0.50400001928E-02 0. -1.
    10030    2    1    2    0    0  0.00000000000E+00  0.00000000000E+00 -0.47330363588E+03  0.38092749820E+04  0.37797565472E+04 0.  0.
        4    1    3    3  502    0 -0.10722595695E+04  0.15542428048E+04 -0.31617939839E+03  0.19145188183E+04  0.12699999809E+01 0.  1.
       -4    1    3    3    0  502  0.10722595695E+04 -0.15542428048E+04 -0.15712423749E+03  0.18947561637E+04  0.12699999809E+01 0. -1.
</event>
<event>
 5   0  0.4750125E-08  0.3951492E+04  0.7818609E-02  0.8014404E-01
       -1   -1    0    0    0  501  0.00000000000E+00  0.00000000000E+00  0.14420832941E+04  0.14420832941E+04  0.50400001928E-02 0. -1.
        1   -1    0    0  501    0  0.00000000000E+00  0.00000000000E+00 -0.27068977024E+04  0.27068977024E+04  0.50400001928E-02 0.  1.
    10030    2    1    2    0    0  0.00000000000E+00  0.00000000000E+00 -0.12648144083E+04  0.41489809965E+04  0.39514918477E+04 0.  0.
        4    1    3    3  502    0  0.24031037783E+03  0.72310038707E+03  0.12815933925E+04  0.14910085459E+04  0.12699999809E+01 0. -1.
       -4    1    3    3    0  502 -0.24031037783E+03 -0.72310038707E+03 -0.25464078008E+04  0.26579724506E+04  0.12699999809E+01 0.  1.
</event>
<event>
 5   0  0.1546846E-07  0.3921596E+04  0.7818609E-02  0.8020553E-01
       -2   -1    0    0    0  501  0.00000000000E+00  0.00000000000E+00  0.14905993274E+04  0.14905993274E+04  0.25500000920E-02 0. -1.
        2   -1    0    0  501    0  0.00000000000E+00  0.00000000000E+00 -0.25793168268E+04  0.25793168268E+04  0.25500000920E-02 0.  1.
    10030    2    1    2    0    0  0.00000000000E+00  0.00000000000E+00 -0.10887174994E+04  0.40699161542E+04  0.39215955565E+04 0.  0.
        2    1    3    3  502    0  0.47226401614E+03  0.16822466836E+04 -0.14678103787E+04  0.22819847750E+04  0.25500000920E-02 0. -1.
       -2    1    3    3    0  502 -0.47226401614E+03 -0.16822466836E+04  0.37909287935E+03  0.17879313792E+04  0.25500000920E-02 0.  1.
</event>
<event>
 5   0  0.4750125E-08  0.3948010E+04  0.7818609E-02  0.8015117E-01
        1   -1    0    0  501    0  0.00000000000E+00  0.00000000000E+00  0.18245186167E+04  0.18245186167E+04  0.50400001928E-02 0.  1.
       -1   -1    0    0    0  501  0.00000000000E+00  0.00000000000E+00 -0.21357391172E+04  0.21357391172E+04  0.50400001928E-02 0. -1.
    10030    2    1    2    0    0  0.00000000000E+00  0.00000000000E+00 -0.31122050058E+03  0.39602577339E+04  0.39480100201E+04 0.  0.
        1    1    3    3  502    0 -0.13548584837E+03  0.14671511291E+04 -0.14733853855E+04  0.20836874394E+04  0.50400001928E-02 0. -1.
       -1    1    3    3    0  502  0.13548584837E+03 -0.14671511291E+04  0.11621648849E+04  0.18765702946E+04  0.50400001928E-02 0.  1.
</event>
<event>
 5   0  0.1546846E-07  0.3875450E+04  0.7818609E-02  0.8030155E-01
        2   -1    0    0  501    0  0.00000000000E+00  0.00000000000E+00  0.21917561512E+04  0.21917561512E+04  0.25500000920E-02 0. -1.
       -2   -1    0    0    0  501  0.00000000000E+00  0.00000000000E+00 -0.17131371641E+04  0.17131371641E+04  0.25500000920E-02 0.  1.
    10030    2    1    2    0    0  0.00000000000E+00  0.00000000000E+00  0.47861898708E+03  0.39048933153E+04  0.38754503827E+04 0.  0.
        2    1    3    3  502    0  0.18999104921E+03  0.15684356985E+04  0.13697473419E+04  0.20910033285E+04  0.25500000920E-02 0. -1.
       -2    1    3    3    0  502 -0.18999104921E+03 -0.15684356985E+04 -0.89112835486E+03  0.18138899867E+04  0.25500000920E-02 0.  1.
</event>
<event>
 5   0  0.1546846E-07  0.3866308E+04  0.7818609E-02  0.8032073E-01
       -2   -1    0    0    0  501  0.00000000000E+00  0.00000000000E+00  0.16437384530E+04  0.16437384530E+04  0.25500000920E-02 0.  1.
        2   -1    0    0  501    0  0.00000000000E+00  0.00000000000E+00 -0.22735270791E+04  0.22735270791E+04  0.25500000920E-02 0. -1.
    10030    2    1    2    0    0  0.00000000000E+00  0.00000000000E+00 -0.62978862618E+03  0.39172655321E+04  0.38663077393E+04 0.  0.
        2    1    3    3  502    0 -0.10610254779E+03 -0.19295688710E+04 -0.36645815742E+03  0.19669228149E+04  0.25500000920E-02 0. -1.
       -2    1    3    3    0  502  0.10610254779E+03  0.19295688710E+04 -0.26333046876E+03  0.19503427172E+04  0.25500000920E-02 0.  1.
</event>
<event>
 5   0  0.1546846E-07  0.3889971E+04  0.7818609E-02  0.8027118E-01
        2   -1    0    0  501    0  0.00000000000E+00  0.00000000000E+00  0.23704201646E+04  0.23704201646E+04  0.25500000920E-02 0.  1.
       -2   -1    0    0    0  501  0.00000000000E+00  0.00000000000E+00 -0.15959063346E+04  0.15959063346E+04  0.25500000920E-02 0. -1.
    10030    2    1    2    0    0  0.00000000000E+00  0.00000000000E+00  0.77451383000E+03  0.39663264993E+04  0.38899709801E+04 0.  0.
        2    1    3    3  502    0  0.17287930198E+04 -0.10294221331E+03  0.12898709928E+04  0.21594188066E+04  0.25500000920E-02 0. -1.
       -2    1    3    3    0  502 -0.17287930198E+04  0.10294221331E+03 -0.51535716277E+03  0.18069076926E+04  0.25500000920E-02 0.  1.
</event>
<event>
 5   0  0.1538018E-07  0.3895523E+04  0.7818609E-02  0.8025961E-01
        2   -1    0    0  501    0  0.00000000000E+00  0.00000000000E+00  0.16501102552E+04  0.16501102552E+04  0.25500000920E-02 0. -1.
       -2   -1    0    0    0  501  0.00000000000E+00  0.00000000000E+00 -0.22991042329E+04  0.22991042329E+04  0.25500000920E-02 0.  1.
    10030    2    1    2    0    0  0.00000000000E+00  0.00000000000E+00 -0.64899397764E+03  0.39492144881E+04  0.38955233140E+04 0.  0.
        1    1    3    3  502    0 -0.64759145993E+03  0.17119652185E+04  0.35069746682E+03  0.18636491948E+04  0.50400001928E-02 0.  1.
       -1    1    3    3    0  502  0.64759145993E+03 -0.17119652185E+04 -0.99969144446E+03  0.20855652932E+04  0.50400001928E-02 0. -1.
</event>
<event>
 5   0  0.4762788E-08  0.3938306E+04  0.7818609E-02  0.8017109E-01
       -1   -1    0    0    0  501  0.00000000000E+00  0.00000000000E+00  0.17238970707E+04  0.17238970707E+04  0.50400001928E-02 0. -1.
        1   -1    0    0  501    0  0.00000000000E+00  0.00000000000E+00 -0.22493010588E+04  0.22493010588E+04  0.50400001928E-02 0.  1.
    10030    2    1    2    0    0  0.00000000000E+00  0.00000000000E+00 -0.52540398816E+03  0.39731981295E+04  0.39383059842E+04 0.  0.
        2    1    3    3  502    0  0.18870468491E+04  0.67751728453E+02 -0.82624508840E+03  0.20611203394E+04  0.25500000920E-02 0.  1.
       -2    1    3    3    0  502 -0.18870468491E+04 -0.67751728453E+02  0.30084110024E+03  0.19120777900E+04  0.25500000920E-02 0. -1.
</event>
<event>
 5   0  0.1520986E-07  0.3893072E+04  0.7818609E-02  0.8026472E-01
       -2   -1    0    0    0  501  0.00000000000E+00  0.00000000000E+00  0.28437801947E+04  0.28437801948E+04  0.25500000920E-02 0. -1.
        2   -1    0    0  501    0  0.00000000000E+00  0.00000000000E+00 -0.13323823214E+04  0.13323823214E+04  0.25500000920E-02 0.  1.
    10030    2    1    2    0    0  0.00000000000E+00  0.00000000000E+00  0.15113978733E+04  0.41761625162E+04  0.38930720299E+04 0.  0.
        4    1    3    3  502    0 -0.20859491057E+03 -0.96598611841E+03 -0.10432564562E+04  0.14370200639E+04  0.12699999809E+01 0.  1.
       -4    1    3    3    0  502  0.20859491057E+03  0.96598611841E+03  0.25546543295E+04  0.27391424523E+04  0.12699999809E+01 0. -1.
</event>
<event>
 5   0  0.1501585E-07  0.3898155E+04  0.7818609E-02  0.8025413E-01
       -2   -1    0    0    0  501  0.00000000000E+00  0.00000000000E+00  0.17491507526E+04  0.17491507526E+04  0.25500000920E-02 0. -1.
        2   -1    0    0  501    0  0.00000000000E+00  0.00000000000E+00 -0.21718559187E+04  0.21718559187E+04  0.25500000920E-02 0.  1.
    10030    2    1    2    0    0  0.00000000000E+00  0.00000000000E+00 -0.42270516610E+03  0.39210066712E+04  0.38981551609E+04 0.  0.
        5    1    3    3  502    0 -0.10072910827E+04 -0.77769606062E+03  0.12735925381E+04  0.18004184322E+04  0.46999998093E+01 0. -1.
       -5    1    3    3    0  502  0.10072910827E+04  0.77769606062E+03 -0.16962977042E+04  0.21205882390E+04  0.46999998093E+01 0.  1.
</event>
<event>
 5   0  0.4750125E-08  0.3886111E+04  0.7818609E-02  0.8027924E-01
       -1   -1    0    0    0  501  0.00000000000E+00  0.00000000000E+00  0.24157407887E+04  0.24157407887E+04  0.50400001928E-02 0. -1.
        1   -1    0    0  501    0  0.00000000000E+00  0.00000000000E+00 -0.15628603128E+04  0.15628603129E+04  0.50400001928E-02 0.  1.
    10030    2    1    2    0    0  0.00000000000E+00  0.00000000000E+00  0.85288047582E+03  0.39786011015E+04  0.38861113750E+04 0.  0.
        5    1    3    3  502    0  0.42115082719E+03 -0.18280616491E+04 -0.91835129298E+02  0.18781994550E+04  0.46999998093E+01 0.  1.
       -5    1    3    3    0  502 -0.42115082719E+03  0.18280616491E+04  0.94471560512E+03  0.21004016465E+04  0.46999998093E+01 0. -1.
</event>
<event>
 5   0  0.1501585E-07  0.3930279E+04  0.7818609E-02  0.8018761E-01
       -2   -1    0    0    0  501  0.00000000000E+00  0.00000000000E+00  0.21063148416E+04  0.21063148416E+04  0.25500000920E-02 0. -1.
        2   -1    0    0  501    0  0.00000000000E+00  0.00000000000E+00 -0.18334265689E+04  0.18334265690E+04  0.25500000920E-02 0.  1.
    10030    2    1    2    0    0  0.00000000000E+00  0.00000000000E+00  0.27288827264E+03  0.39397414105E+04  0.39302791723E+04 0.  0.
        5    1    3    3  502    0  0.17566090426E+04 -0.42359667709E+03 -0.63784156473E+03  0.19162393966E+04  0.46999998093E+01 0.  1.
       -5    1    3    3    0  502 -0.17566090426E+04  0.42359667709E+03  0.91072983737E+03  0.20235020139E+04  0.46999998093E+01 0. -1.
</event>
<event>
 5   0  0.4750125E-08  0.3924858E+04  0.7818609E-02  0.8019879E-01
        1   -1    0    0  501    0  0.00000000000E+00  0.00000000000E+00  0.25095558475E+04  0.25095558475E+04  0.50400001928E-02 0. -1.
       -1   -1    0    0    0  501  0.00000000000E+00  0.00000000000E+00 -0.15345854936E+04  0.15345854936E+04  0.50400001928E-02 0.  1.
    10030    2    1    2    0    0  0.00000000000E+00  0.00000000000E+00  0.97497035386E+03  0.40441413411E+04  0.39248582135E+04 0.  0.
        5    1    3    3  502    0 -0.18997853093E+04 -0.48600150424E+03  0.40952717282E+03  0.20032763861E+04  0.46999998093E+01 0.  1.
       -5    1    3    3    0  502  0.18997853093E+04  0.48600150424E+03  0.56544318103E+03  0.20408649550E+04  0.46999998093E+01 0. -1.
</event>
<event>
 5   0  0.1501585E-07  0.3896788E+04  0.7818609E-02  0.8025698E-01
       -2   -1    0    0    0  501  0.00000000000E+00  0.00000000000E+00  0.15664239912E+04  0.15664239913E+04  0.25500000920E-02 0. -1.
        2   -1    0    0  501    0  0.00000000000E+00  0.00000000000E+00 -0.24235068250E+04  0.24235068250E+04  0.25500000920E-02 0.  1.
    10030    2    1    2    0    0  0.00000000000E+00  0.00000000000E+00 -0.85708283373E+03  0.39899308162E+04  0.38967880279E+04 0.  0.
        5    1    3    3  502    0 -0.92817834781E+03 -0.38063262399E+01 -0.21825815349E+04  0.23717533135E+04  0.46999998093E+01 0.  1.
       -5    1    3    3    0  502  0.92817834781E+03  0.38063262399E+01  0.13254987012E+04  0.16181775027E+04  0.46999998093E+01 0. -1.
</event>
<event>
 5   0  0.1546846E-07  0.3924989E+04  0.7818609E-02  0.8019852E-01
        2   -1    0    0  501    0  0.00000000000E+00  0.00000000000E+00  0.19836903464E+04  0.19836903464E+04  0.25500000920E-02 0. -1.
       -2   -1    0    0    0  501  0.00000000000E+00  0.00000000000E+00 -0.19415248074E+04  0.19415248074E+04  0.25500000920E-02 0.  1.
    10030    2    1    2    0    0  0.00000000000E+00  0.00000000000E+00  0.42165539045E+02  0.39252151538E+04  0.39249886715E+04 0.  0.
        2    1    3    3  502    0 -0.10394414285E+04 -0.22817562167E+03  0.16700810117E+04  0.19803214848E+04  0.25500000920E-02 0. -1.
       -2    1    3    3    0  502  0.10394414285E+04  0.22817562167E+03 -0.16279154727E+04  0.19448936690E+04  0.25500000920E-02 0.  1.
</event>
<event>
 5   0  0.4750125E-08  0.3902452E+04  0.7818609E-02  0.8024519E-01
        1   -1    0    0  501    0  0.00000000000E+00  0.00000000000E+00  0.26262055989E+04  0.26262055989E+04  0.50400001928E-02 0. -1.
       -1   -1    0    0    0  501  0.00000000000E+00  0.00000000000E+00 -0.14497279550E+04  0.14497279550E+04  0.50400001928E-02 0.  1.
    10030    2    1    2    0    0  0.00000000000E+00  0.00000000000E+00  0.11764776438E+04  0.40759335539E+04  0.39024523943E+04 0.  0.
        1    1    3    3  502    0  0.12991063049E+04 -0.73035991504E+03 -0.72718540517E+03  0.16582826691E+04  0.50400001928E-02 0.  1.
       -1    1    3    3    0  502 -0.12991063049E+04  0.73035991504E+03  0.19036630490E+04  0.24176508849E+04  0.50400001928E-02 0. -1.
</event>
<event>
 5   0  0.4750125E-08  0.3900027E+04  0.7818609E-02  0.8025024E-01
        1   -1    0    0  501    0  0.00000000000E+00  0.00000000000E+00  0.17253177484E+04  0.17253177484E+04  0.50400001928E-02 0. -1.
       -1   -1    0    0    0  501  0.00000000000E+00  0.00000000000E+00 -0.22039722671E+04  0.22039722671E+04  0.50400001928E-02 0.  1.
    10030    2    1    2    0    0  0.00000000000E+00  0.00000000000E+00 -0.47865451873E+03  0.39292900155E+04  0.39000269073E+04 0.  0.
        3    1    3    3  502    0  0.24380225614E+03  0.87826862873E+03  0.14974860495E+04  0.17530715339E+04  0.10100000352E+00 0. -1.
       -3    1    3    3    0  502 -0.24380225614E+03 -0.87826862873E+03 -0.19761405682E+04  0.21762184816E+04  0.10100000352E+00 0.  1.
</event>
<event>
 5   0  0.1520986E-07  0.3819865E+04  0.7818609E-02  0.8041905E-01
        2   -1    0    0  501    0  0.00000000000E+00  0.00000000000E+00  0.22955527956E+04  0.22955527956E+04  0.25500000920E-02 0. -1.
       -2   -1    0    0    0  501  0.00000000000E+00  0.00000000000E+00 -0.15890910575E+04  0.15890910575E+04  0.25500000920E-02 0.  1.
    10030    2    1    2    0    0  0.00000000000E+00  0.00000000000E+00  0.70646173806E+03  0.38846438531E+04  0.38198651387E+04 0.  0.
        4    1    3    3  502    0 -0.86764158699E+03  0.14762017277E+04  0.12136686140E+04  0.20988012250E+04  0.12699999809E+01 0. -1.
       -4    1    3    3    0  502  0.86764158699E+03 -0.14762017277E+04 -0.50720687598E+03  0.17858426281E+04  0.12699999809E+01 0.  1.
</event>
<event>
 5   0  0.1520986E-07  0.3902873E+04  0.7818609E-02  0.8024432E-01
       -2   -1    0    0    0  501  0.00000000000E+00  0.00000000000E+00  0.15751397970E+04  0.15751397970E+04  0.25500000920E-02 0.  1.
        2   -1    0    0  501    0  0.00000000000E+00  0.00000000000E+00 -0.24176290933E+04  0.24176290933E+04  0.25500000920E-02 0. -1.
    10030    2    1    2    0    0  0.00000000000E+00  0.00000000000E+00 -0.84248929632E+03  0.39927688903E+04  0.39028726853E+04 0.  0.
        4    1    3    3  502    0  0.17945166153E+04  0.16497186746E+03 -0.11872203852E+04  0.21580082149E+04  0.12699999809E+01 0.  1.
       -4    1    3    3    0  502 -0.17945166153E+04 -0.16497186746E+03  0.34473108891E+03  0.18347606754E+04  0.12699999809E+01 0. -1.
</event>
<event>
 5   0  0.1538018E-07  0.3924049E+04  0.7818609E-02  0.8020046E-01
        2   -1    0    0  501    0  0.00000000000E+00  0.00000000000E+00  0.13178099384E+04  0.13178099384E+04  0.25500000920E-02 0.  1.
       -2   -1    0    0    0  501  0.00000000000E+00  0.00000000000E+00 -0.29211654014E+04  0.29211654014E+04  0.25500000920E-02 0. -1.
    10030    2    1    2    0    0  0.00000000000E+00  0.00000000000E+00 -0.16033554630E+04  0.42389753398E+04  0.39240493359E+04 0.  0.
        1    1    3    3  502    0  0.18534705106E+04  0.75893253341E+02 -0.14920514124E+04  0.23806154954E+04  0.50400001928E-02 0. -1.
       -1    1    3    3    0  502 -0.18534705106E+04 -0.75893253341E+02 -0.11130405064E+03  0.18583598444E+04  0.50400001928E-02 0.  1.
</event>
<event>
 5   0  0.1501585E-07  0.3881937E+04  0.7818609E-02  0.8028797E-01
       -2   -1    0    0    0  501  0.00000000000E+00  0.00000000000E+00  0.13780730144E+04  0.13780730144E+04  0.25500000920E-02 0. -1.
        2   -1    0    0  501    0  0.00000000000E+00  0.00000000000E+00 -0.27337870310E+04  0.27337870310E+04  0.25500000920E-02 0.  1.
    10030    2    1    2    0    0  0.00000000000E+00  0.00000000000E+00 -0.13557140166E+04  0.41118600454E+04  0.38819366994E+04 0.  0.
        5    1    3    3  502    0 -0.10093342402E+04  0.15516018781E+04 -0.12964975884E+04  0.22599009012E+04  0.46999998093E+01 0.  1.
       -5    1    3    3    0  502  0.10093342402E+04 -0.15516018781E+04 -0.59216428203E+02  0.18519591442E+04  0.46999998093E+01 0. -1.
</event>
<event>
 5   0  0.4750125E-08  0.3895086E+04  0.7818609E-02  0.8026052E-01
        1   -1    0    0  501    0  0.00000000000E+00  0.00000000000E+00  0.20792933894E+04  0.20792933894E+04  0.50400001928E-02 0. -1.
       -1   -1    0    0    0  501  0.00000000000E+00  0.00000000000E+00 -0.18241409838E+04  0.18241409838E+04  0.50400001928E-02 0.  1.
    10030    2    1    2    0    0  0.00000000000E+00  0.00000000000E+00  0.25515240561E+03  0.39034343732E+04  0.38950862834E+04 0.  0.
        3    1    3    3  502    0  0.15663759941E+04 -0.11536356321E+04  0.22005264323E+03  0.19577620138E+04  0.10100000352E+00 0.  1.
       -3    1    3    3    0  502 -0.15663759941E+04  0.11536356321E+04  0.35099762382E+02  0.19456723594E+04  0.10100000352E+00 0. -1.
</event>
<event>
 5   0  0.4750125E-08  0.3909259E+04  0.7818609E-02  0.8023106E-01
       -1   -1    0    0    0  501  0.00000000000E+00  0.00000000000E+00  0.11671353175E+04  0.11671353175E+04  0.50400001928E-02 0.  1.
        1   -1    0    0  501    0  0.00000000000E+00  0.00000000000E+00 -0.32734655199E+04  0.32734655199E+04  0.50400001928E-02 0. -1.
    10030    2    1    2    0    0  0.00000000000E+00  0.00000000000E+00 -0.21063302024E+04  0.44406008374E+04  0.39092593768E+04 0.  0.
        1    1    3    3  502    0  0.65358360317E+03  0.14992754013E+03 -0.31387215594E+04  0.32095518100E+04  0.50400001928E-02 0. -1.
       -1    1    3    3    0  502 -0.65358360317E+03 -0.14992754013E+03  0.10323913570E+04  0.12310490273E+04  0.50400001928E-02 0.  1.
</event>
<event>
 5   0  0.1546846E-07  0.3893048E+04  0.7818609E-02  0.8026477E-01
        2   -1    0    0  501    0  0.00000000000E+00  0.00000000000E+00  0.16672141707E+04  0.16672141707E+04  0.25500000920E-02 0. -1.
       -2   -1    0    0    0  501  0.00000000000E+00  0.00000000000E+00 -0.22726270730E+04  0.22726270730E+04  0.25500000920E-02 0.  1.
    10030    2    1    2    0    0  0.00000000000E+00  0.00000000000E+00 -0.60541290228E+03  0.39398412438E+04  0.38930481944E+04 0.  0.
        2    1    3    3  502    0  0.12767758507E+04 -0.12976739482E+04  0.39466380323E+03  0.18627597178E+04  0.25500000920E-02 0. -1.
       -2    1    3    3    0  502 -0.12767758507E+04  0.12976739482E+04 -0.10000767055E+04  0.20770815260E+04  0.25500000920E-02 0.  1.
</event>
<event>
 5   0  0.4750125E-08  0.3867767E+04  0.7818609E-02  0.8031767E-01
        1   -1    0    0  501    0  0.00000000000E+00  0.00000000000E+00  0.26790229702E+04  0.26790229702E+04  0.50400001928E-02 0.  1.
       -1   -1    0    0    0  501  0.00000000000E+00  0.00000000000E+00 -0.13959960470E+04  0.13959960471E+04  0.50400001928E-02 0. -1.
    10030    2    1    2    0    0  0.00000000000E+00  0.00000000000E+00  0.12830269232E+04  0.40750190173E+04  0.38677670439E+04 0.  0.
        5    1    3    3  502    0 -0.70289473225E+02 -0.17076444671E+04 -0.31190366821E+03  0.17373244441E+04  0.46999998093E+01 0. -1.
       -5    1    3    3    0  502  0.70289473225E+02  0.17076444671E+04  0.15949305914E+04  0.23376945732E+04  0.46999998093E+01 0.  1.
</event>
<event>
 5   0  0.4750125E-08  0.3837911E+04  0.7818609E-02  0.8038068E-01
        1   -1    0    0  501    0  0.00000000000E+00  0.00000000000E+00  0.14892840582E+04  0.14892840582E+04  0.50400001928E-02 0. -1.
       -1   -1    0    0    0  501  0.00000000000E+00  0.00000000000E+00 -0.24725911376E+04  0.24725911376E+04  0.50400001928E-02 0.  1.
    10030    2    1    2    0    0  0.00000000000E+00  0.00000000000E+00 -0.98330707935E+03  0.39618751958E+04  0.38379111838E+04 0.  0.
        3    1    3    3  502    0  0.12018859528E+04  0.14088552080E+04 -0.10108785273E+04  0.21098052630E+04  0.10100000352E+00 0.  1.
       -3    1    3    3    0  502 -0.12018859528E+04 -0.14088552080E+04  0.27571447975E+02  0.18520699327E+04  0.10100000352E+00 0. -1.
</event>
<event>
 5   0  0.4762788E-08  0.3727446E+04  0.7818609E-02  0.8061906E-01
       -1   -1    0    0    0  501  0.00000000000E+00  0.00000000000E+00  0.11462707462E+04  0.11462707462E+04  0.50400001928E-02 0.  1.
        1   -1    0    0  501    0  0.00000000000E+00  0.00000000000E+00 -0.30302301155E+04  0.30302301155E+04  0.50400001928E-02 0. -1.
    10030    2    1    2    0    0  0.00000000000E+00  0.00000000000E+00 -0.18839593694E+04  0.41765008617E+04  0.37274463835E+04 0.  0.
        2    1    3    3  502    0  0.34867390576E+02  0.15460406001E+03 -0.30226658859E+04  0.30268180005E+04  0.25500000920E-02 0. -1.
       -2    1    3    3    0  502 -0.34867390576E+02 -0.15460406001E+03  0.11387065166E+04  0.11496828611E+04  0.25500000920E-02 0.  1.
</event>
<event>
 5   0  0.1546846E-07  0.3922706E+04  0.7818609E-02  0.8020323E-01
        2   -1    0    0  501    0  0.00000000000E+00  0.00000000000E+00  0.15510182272E+04  0.15510182272E+04  0.25500000920E-02 0. -1.
       -2   -1    0    0    0  501  0.00000000000E+00  0.00000000000E+00 -0.24802453033E+04  0.24802453033E+04  0.25500000920E-02 0.  1.
    10030    2    1    2    0    0  0.00000000000E+00  0.00000000000E+00 -0.92922707617E+03  0.40312635305E+04  0.39227060421E+04 0.  0.
        2    1    3    3  502    0 -0.38381364399E+03 -0.19030728272E+04 -0.17777171121E+03  0.19495132418E+04  0.25500000920E-02 0. -1.
       -2    1    3    3    0  502  0.38381364399E+03  0.19030728272E+04 -0.75145536496E+03  0.20817502886E+04  0.25500000920E-02 0.  1.
</event>
<event>
 5   0  0.1503228E-07  0.3902492E+04  0.7818609E-02  0.8024511E-01
       -2   -1    0    0    0  501  0.00000000000E+00  0.00000000000E+00  0.32217462491E+04  0.32217462491E+04  0.25500000920E-02 0.  1.
        2   -1    0    0  501    0  0.00000000000E+00  0.00000000000E+00 -0.11817696335E+04  0.11817696335E+04  0.25500000920E-02 0. -1.
    10030    2    1    2    0    0  0.00000000000E+00  0.00000000000E+00  0.20399766155E+04  0.44035158826E+04  0.39024924774E+04 0.  0.
        3    1    3    3  502    0  0.11099335875E+04  0.26159258492E+02  0.28305899809E+04  0.30405388545E+04  0.10100000352E+00 0.  1.
       -3    1    3    3    0  502 -0.11099335875E+04 -0.26159258492E+02 -0.79061336536E+03  0.13629770281E+04  0.10100000352E+00 0. -1.
</event>
<event>
 5   0  0.4750125E-08  0.3981496E+04  0.7818609E-02  0.8008290E-01
       -1   -1    0    0    0  501  0.00000000000E+00  0.00000000000E+00  0.26753007897E+04  0.26753007897E+04  0.50400001928E-02 0. -1.
        1   -1    0    0  501    0  0.00000000000E+00  0.00000000000E+00 -0.14813575989E+04  0.14813575989E+04  0.50400001928E-02 0.  1.
    10030    2    1    2    0    0  0.00000000000E+00  0.00000000000E+00  0.11939431908E+04  0.41566583886E+04  0.39814957763E+04 0.  0.
        5    1    3    3  502    0 -0.18766064419E+04 -0.31165104413E+03 -0.15593222430E+02  0.19023783403E+04  0.46999998093E+01 0.  1.
       -5    1    3    3    0  502  0.18766064419E+04  0.31165104413E+03  0.12095364132E+04  0.22542800483E+04  0.46999998093E+01 0. -1.
</event>
<event>
 5   0  0.4750125E-08  0.3912491E+04  0.7818609E-02  0.8022436E-01
        1   -1    0    0  501    0  0.00000000000E+00  0.00000000000E+00  0.15888806949E+04  0.15888806949E+04  0.50400001928E-02 0. -1.
       -1   -1    0    0    0  501  0.00000000000E+00  0.00000000000E+00 -0.24085487013E+04  0.24085487013E+04  0.50400001928E-02 0.  1.
    10030    2    1    2    0    0  0.00000000000E+00  0.00000000000E+00 -0.81966800634E+03  0.39974293962E+04  0.39124910399E+04 0.  0.
        1    1    3    3  502    0  0.94578099516E+02 -0.19103542293E+04  0.95628089701E+01  0.19127178950E+04  0.50400001928E-02 0. -1.
       -1    1    3    3    0  502 -0.94578099516E+02  0.19103542293E+04 -0.82923081531E+03  0.20847115013E+04  0.50400001928E-02 0.  1.
</event>
<event>
 5   0  0.4750125E-08  0.3922986E+04  0.7818609E-02  0.8020265E-01
        1   -1    0    0  501    0  0.00000000000E+00  0.00000000000E+00  0.11731472217E+04  0.11731472217E+04  0.50400001928E-02 0.  1.
       -1   -1    0    0    0  501  0.00000000000E+00  0.00000000000E+00 -0.32796008108E+04  0.32796008108E+04  0.50400001928E-02 0. -1.
    10030    2    1    2    0    0  0.00000000000E+00  0.00000000000E+00 -0.21064535891E+04  0.44527480325E+04  0.39229858932E+04 0.  0.
        5    1    3    3  502    0 -0.19055767660E+04 -0.30299681953E+03 -0.14535641471E+04  0.24157608953E+04  0.46999998093E+01 0. -1.
       -5    1    3    3    0  502  0.19055767660E+04  0.30299681953E+03 -0.65288944198E+03  0.20369871372E+04  0.46999998093E+01 0.  1.
</event>
<event>
 5   0  0.1501585E-07  0.3886966E+04  0.7818609E-02  0.8027746E-01
       -2   -1    0    0    0  501  0.00000000000E+00  0.00000000000E+00  0.15504545988E+04  0.15504545988E+04  0.25500000920E-02 0. -1.
        2   -1    0    0  501    0  0.00000000000E+00  0.00000000000E+00 -0.24361407194E+04  0.24361407194E+04  0.25500000920E-02 0.  1.
    10030    2    1    2    0    0  0.00000000000E+00  0.00000000000E+00 -0.88568612054E+03  0.39865953182E+04  0.38869656966E+04 0.  0.
        5    1    3    3  502    0 -0.45243739458E+03 -0.24269475947E+03  0.14796359997E+04  0.15661880870E+04  0.46999998093E+01 0. -1.
       -5    1    3    3    0  502  0.45243739458E+03  0.24269475947E+03 -0.23653221202E+04  0.24204072312E+04  0.46999998093E+01 0.  1.
</event>
<event>
 5   0  0.1546846E-07  0.3892414E+04  0.7818609E-02  0.8026609E-01
       -2   -1    0    0    0  501  0.00000000000E+00  0.00000000000E+00  0.12047953171E+04  0.12047953171E+04  0.25500000920E-02 0.  1.
        2   -1    0    0  501    0  0.00000000000E+00  0.00000000000E+00 -0.31438711409E+04  0.31438711409E+04  0.25500000920E-02 0. -1.
    10030    2    1    2    0    0  0.00000000000E+00  0.00000000000E+00 -0.19390758238E+04  0.43486664580E+04  0.38924137643E+04 0.  0.
        2    1    3    3  502    0  0.13299357930E+04 -0.13932308205E+03  0.61027845888E+03  0.14698911293E+04  0.25500000920E-02 0.  1.
       -2    1    3    3    0  502 -0.13299357930E+04  0.13932308205E+03 -0.25493542827E+04  0.28787753287E+04  0.25500000920E-02 0. -1.
</event>
<event>
 5   0  0.1546846E-07  0.3896299E+04  0.7818609E-02  0.8025799E-01
        2   -1    0    0  501    0  0.00000000000E+00  0.00000000000E+00  0.30424022266E+04  0.30424022266E+04  0.25500000920E-02 0. -1.
       -2   -1    0    0    0  501  0.00000000000E+00  0.00000000000E+00 -0.12474637305E+04  0.12474637305E+04  0.25500000920E-02 0.  1.
    10030    2    1    2    0    0  0.00000000000E+00  0.00000000000E+00  0.17949384960E+04  0.42898659571E+04  0.38962989779E+04 0.  0.
        2    1    3    3  502    0 -0.23856567862E+03  0.19324442371E+04  0.96738227461E+03  0.21741855436E+04  0.25500000920E-02 0. -1.
       -2    1    3    3    0  502  0.23856567862E+03 -0.19324442371E+04  0.82755622144E+03  0.21156804135E+04  0.25500000920E-02 0.  1.
</event>
<event>
 5   0  0.1501585E-07  0.3840486E+04  0.7818609E-02  0.8037522E-01
        2   -1    0    0  501    0  0.00000000000E+00  0.00000000000E+00  0.12626561602E+04  0.12626561603E+04  0.25500000920E-02 0. -1.
       -2   -1    0    0    0  501  0.00000000000E+00  0.00000000000E+00 -0.29202987373E+04  0.29202987373E+04  0.25500000920E-02 0.  1.
    10030    2    1    2    0    0  0.00000000000E+00  0.00000000000E+00 -0.16576425771E+04  0.41829548976E+04  0.38404860060E+04 0.  0.
        5    1    3    3  502    0 -0.16696417221E+04  0.59815916093E+03 -0.16305395962E+04  0.24091864450E+04  0.46999998093E+01 0.  1.
       -5    1    3    3    0  502  0.16696417221E+04 -0.59815916093E+03 -0.27102980872E+02  0.17737684526E+04  0.46999998093E+01 0. -1.
</event>
<event>
 5   0  0.1538018E-07  0.3819073E+04  0.7818609E-02  0.8042074E-01
       -2   -1    0    0    0  501  0.00000000000E+00  0.00000000000E+00  0.21410295419E+04  0.21410295419E+04  0.25500000920E-02 0. -1.
        2   -1    0    0  501    0  0.00000000000E+00  0.00000000000E+00 -0.17030729569E+04  0.17030729569E+04  0.25500000920E-02 0.  1.
    10030    2    1    2    0    0  0.00000000000E+00  0.00000000000E+00  0.43795658491E+03  0.38441024988E+04  0.38190729308E+04 0.  0.
        1    1    3    3  502    0 -0.10332448932E+04  0.25769457006E+03  0.18143988270E+04  0.21038166755E+04  0.50400001928E-02 0. -1.
       -1    1    3    3    0  502  0.10332448932E+04 -0.25769457006E+03 -0.13764422421E+04  0.17402858233E+04  0.50400001928E-02 0.  1.
</event>
<event>
 5   0  0.1546846E-07  0.3861699E+04  0.7818609E-02  0.8033042E-01
       -2   -1    0    0    0  501  0.00000000000E+00  0.00000000000E+00  0.13211740321E+04  0.13211740321E+04  0.25500000920E-02 0.  1.
        2   -1    0    0  501    0  0.00000000000E+00  0.00000000000E+00 -0.28218693330E+04  0.28218693330E+04  0.25500000920E-02 0. -1.
    10030    2    1    2    0    0  0.00000000000E+00  0.00000000000E+00 -0.15006953008E+04  0.41430433651E+04  0.38616993590E+04 0.  0.
        2    1    3    3  502    0  0.12995243218E+04 -0.89954181568E+03  0.43962289926E+03  0.16404899374E+04  0.25500000920E-02 0.  1.
       -2    1    3    3    0  502 -0.12995243218E+04  0.89954181568E+03 -0.19403182001E+04  0.25025534277E+04  0.25500000920E-02 0. -1.
</event>
<event>
 5   0  0.1538018E-07  0.3947929E+04  0.7818609E-02  0.8015134E-01
        2   -1    0    0  501    0  0.00000000000E+00  0.00000000000E+00  0.15145195441E+04  0.15145195441E+04  0.25500000920E-02 0. -1.
       -2   -1    0    0    0  501  0.00000000000E+00  0.00000000000E+00 -0.25727870666E+04  0.25727870666E+04  0.25500000920E-02 0.  1.
    10030    2    1    2    0    0  0.00000000000E+00  0.00000000000E+00 -0.10582675225E+04  0.40873066107E+04  0.39479292269E+04 0.  0.
        1    1    3    3  502    0  0.75910389141E+03 -0.48553985736E+03  0.12891584124E+04  0.15728690611E+04  0.50400001928E-02 0. -1.
       -1    1    3    3    0  502 -0.75910389141E+03  0.48553985736E+03 -0.23474259349E+04  0.25144375496E+04  0.50400001928E-02 0.  1.
</event>
<event>
 5   0  0.4750125E-08  0.3896336E+04  0.7818609E-02  0.8025792E-01
        1   -1    0    0  501    0  0.00000000000E+00  0.00000000000E+00  0.18983051772E+04  0.18983051772E+04  0.50400001928E-02 0. -1.
       -1   -1    0    0    0  501  0.00000000000E+00  0.00000000000E+00 -0.19993402403E+04  0.19993402403E+04  0.50400001928E-02 0.  1.
    10030    2    1    2    0    0  0.00000000000E+00  0.00000000000E+00 -0.10103506306E+03  0.38976454175E+04  0.38963356781E+04 0.  0.
        4    1    3    3  502    0 -0.12468634819E+04  0.12878546073E+04 -0.81374076495E+03  0.19686070399E+04  0.12699999809E+01 0. -1.
       -4    1    3    3    0  502  0.12468634819E+04 -0.12878546073E+04  0.71270570189E+03  0.19290383776E+04  0.12699999809E+01 0.  1.
</event>
<event>
 5   0  0.4750125E-08  0.3865550E+04  0.7818609E-02  0.8032232E-01
       -1   -1    0    0    0  501  0.00000000000E+00  0.00000000000E+00  0.25069820993E+04  0.25069820993E+04  0.50400001928E-02 0. -1.
        1   -1    0    0  501    0  0.00000000000E+00  0.00000000000E+00 -0.14900863895E+04  0.14900863895E+04  0.50400001928E-02 0.  1.
    10030    2    1    2    0    0  0.00000000000E+00  0.00000000000E+00  0.10168957098E+04  0.39970684889E+04  0.38655503645E+04 0.  0.
        1    1    3    3  502    0  0.64733165826E+01  0.74501933543E+03 -0.13356314982E+04  0.15293813170E+04  0.50400001928E-02 0.  1.
       -1    1    3    3    0  502 -0.64733165826E+01 -0.74501933543E+03  0.23525272079E+04  0.24676871718E+04  0.50400001928E-02 0. -1.
</event>
<event>
 5   0  0.4750125E-08  0.3790865E+04  0.7818609E-02  0.8048118E-01
       -1   -1    0    0    0  501  0.00000000000E+00  0.00000000000E+00  0.12750056283E+04  0.12750056283E+04  0.50400001928E-02 0. -1.
        1   -1    0    0  501    0  0.00000000000E+00  0.00000000000E+00 -0.28177635379E+04  0.28177635379E+04  0.50400001928E-02 0.  1.
    10030    2    1    2    0    0  0.00000000000E+00  0.00000000000E+00 -0.15427579096E+04  0.40927691661E+04  0.37908650041E+04 0.  0.
        1    1    3    3  502    0  0.43246152454E+03 -0.17202527567E+04 -0.50060020454E+02  0.17744854248E+04  0.50400001928E-02 0. -1.
       -1    1    3    3    0  502 -0.43246152454E+03  0.17202527567E+04 -0.14926978891E+04  0.23182837413E+04  0.50400001928E-02 0.  1.
</event>
<event>
 5   0  0.1520986E-07  0.3837765E+04  0.7818609E-02  0.8038099E-01
       -2   -1    0    0    0  501  0.00000000000E+00  0.00000000000E+00  0.15782622566E+04  0.15782622566E+04  0.25500000920E-02 0.  1.
        2   -1    0    0  501    0  0.00000000000E+00  0.00000000000E+00 -0.23330154430E+04  0.23330154430E+04  0.25500000920E-02 0. -1.
    10030    2    1    2    0    0  0.00000000000E+00  0.00000000000E+00 -0.75475318645E+03  0.39112776996E+04  0.38377650880E+04 0.  0.
        4    1    3    3  502    0  0.17143184257E+04 -0.82658969145E+03 -0.62695603923E+03  0.20037998081E+04  0.12699999809E+01 0. -1.
       -4    1    3    3    0  502 -0.17143184257E+04  0.82658969145E+03 -0.12779714722E+03  0.19074778915E+04  0.12699999809E+01 0.  1.
</event>
<event>
 5   0  0.4750125E-08  0.3912284E+04  0.7818609E-02  0.8022479E-01
       -3   -1    0    0    0  501  0.00000000000E+00  0.00000000000E+00  0.24318525839E+04  0.24318525860E+04  0.10100000352E+00 0. -1.
        3   -1    0    0  501    0  0.00000000000E+00  0.00000000000E+00 -0.15734882748E+04  0.15734882781E+04  0.10100000352E+00 0.  1.
    10030    2    1    2    0    0  0.00000000000E+00  0.00000000000E+00  0.85836430908E+03  0.40053408641E+04  0.39122840069E+04 0.  0.
        2    1    3    3  502    0 -0.78589503202E+03 -0.13594048949E+04 -0.76513272314E+03  0.17467228611E+04  0.25500000920E-02 0.  1.
       -2    1    3    3    0  502  0.78589503202E+03  0.13594048949E+04  0.16234970322E+04  0.22586180029E+04  0.25500000920E-02 0. -1.
</event>
<event>
 5   0  0.4762788E-08  0.3821857E+04  0.7818609E-02  0.8041481E-01
        1   -1    0    0  501    0  0.00000000000E+00  0.00000000000E+00  0.19888335463E+04  0.19888335463E+04  0.50400001928E-02 0.  1.
       -1   -1    0    0    0  501  0.00000000000E+00  0.00000000000E+00 -0.18360755407E+04  0.18360755407E+04  0.50400001928E-02 0. -1.
    10030    2    1    2    0    0  0.00000000000E+00  0.00000000000E+00  0.15275800557E+03  0.38249090871E+04  0.38218574693E+04 0.  0.
        2    1    3    3  502    0  0.61640294662E+03  0.14224223861E+04 -0.10418360977E+04  0.18677956236E+04  0.25500000920E-02 0. -1.
       -2    1    3    3    0  502 -0.61640294662E+03 -0.14224223861E+04  0.11945941033E+04  0.19571134634E+04  0.25500000920E-02 0.  1.
</event>
<event>
 5   0  0.4750125E-08  0.3889514E+04  0.7818609E-02  0.8027214E-01
        1   -1    0    0  501    0  0.00000000000E+00  0.00000000000E+00  0.17932997052E+04  0.17932997052E+04  0.50400001928E-02 0. -1.
       -1   -1    0    0    0  501  0.00000000000E+00  0.00000000000E+00 -0.21090059296E+04  0.21090059296E+04  0.50400001928E-02 0.  1.
    10030    2    1    2    0    0  0.00000000000E+00  0.00000000000E+00 -0.31570622435E+03  0.39023056349E+04  0.38895139603E+04 0.  0.
        4    1    3    3  502    0 -0.90010441598E+03 -0.63574554305E+02  0.15705570222E+04  0.18113201419E+04  0.12699999809E+01 0. -1.
       -4    1    3    3    0  502  0.90010441598E+03  0.63574554305E+02 -0.18862632465E+04  0.20909854930E+04  0.12699999809E+01 0.  1.
</event>
<event>
 5   0  0.4750125E-08  0.3915398E+04  0.7818609E-02  0.8021834E-01
       -1   -1    0    0    0  501  0.00000000000E+00  0.00000000000E+00  0.20428022743E+04  0.20428022743E+04  0.50400001928E-02 0. -1.
        1   -1    0    0  501    0  0.00000000000E+00  0.00000000000E+00 -0.18761409251E+04  0.18761409251E+04  0.50400001928E-02 0.  1.
    10030    2    1    2    0    0  0.00000000000E+00  0.00000000000E+00  0.16666134924E+03  0.39189431994E+04  0.39153977824E+04 0.  0.
        1    1    3    3  502    0  0.16867152217E+04 -0.39580022118E+02  0.10772102531E+04  0.20017384311E+04  0.50400001928E-02 0. -1.
       -1    1    3    3    0  502 -0.16867152217E+04  0.39580022118E+02 -0.91054890387E+03  0.19172047683E+04  0.50400001928E-02 0.  1.
</event>
<event>
 5   0  0.1503228E-07  0.3893930E+04  0.7818609E-02  0.8026293E-01
       -2   -1    0    0    0  501  0.00000000000E+00  0.00000000000E+00  0.14990843805E+04  0.14990843805E+04  0.25500000920E-02 0. -1.
        2   -1    0    0  501    0  0.00000000000E+00  0.00000000000E+00 -0.25286584239E+04  0.25286584239E+04  0.25500000920E-02 0.  1.
    10030    2    1    2    0    0  0.00000000000E+00  0.00000000000E+00 -0.10295740434E+04  0.40277428044E+04  0.38939298129E+04 0.  0.
        3    1    3    3  502    0 -0.17424419898E+04  0.69209857243E+03 -0.10577720531E+04  0.21526695632E+04  0.10100000352E+00 0.  1.
       -3    1    3    3    0  502  0.17424419898E+04 -0.69209857243E+03  0.28198009752E+02  0.18750732412E+04  0.10100000352E+00 0. -1.
</event>
<event>
 5   0  0.4762788E-08  0.3893935E+04  0.7818609E-02  0.8026292E-01
       -1   -1    0    0    0  501  0.00000000000E+00  0.00000000000E+00  0.18722295032E+04  0.18722295032E+04  0.50400001928E-02 0. -1.
        1   -1    0    0  501    0  0.00000000000E+00  0.00000000000E+00 -0.20246886601E+04  0.20246886601E+04  0.50400001928E-02 0.  1.
    10030    2    1    2    0    0  0.00000000000E+00  0.00000000000E+00 -0.15245915692E+03  0.38969181633E+04  0.38939346909E+04 0.  0.
        2    1    3    3  502    0  0.13278425085E+04  0.14177736998E+03  0.13416888161E+04  0.18929858503E+04  0.25500000920E-02 0. -1.
       -2    1    3    3    0  502 -0.13278425085E+04 -0.14177736998E+03 -0.14941479731E+04  0.20039323131E+04  0.25500000920E-02 0.  1.
</event>
<event>
 5   0  0.1503228E-07  0.3916782E+04  0.7818609E-02  0.8021548E-01
        2   -1    0    0  501    0  0.00000000000E+00  0.00000000000E+00  0.30998916084E+04  0.30998916084E+04  0.25500000920E-02 0.  1.
       -2   -1    0    0    0  501  0.00000000000E+00  0.00000000000E+00 -0.12372352268E+04  0.12372352268E+04  0.25500000920E-02 0. -1.
    10030    2    1    2    0    0  0.00000000000E+00  0.00000000000E+00  0.18626563816E+04  0.43371268352E+04  0.39167818919E+04 0.  0.
        3    1    3    3  502    0  0.48155151779E+03  0.54322263437E+03 -0.10827484401E+04  0.13035823294E+04  0.10100000352E+00 0. -1.
       -3    1    3    3    0  502 -0.48155151779E+03 -0.54322263437E+03  0.29454048217E+04  0.30335445058E+04  0.10100000352E+00 0.  1.
</event>
<event>
 5   0  0.4750125E-08  0.3861717E+04  0.7818609E-02  0.8033039E-01
       -3   -1    0    0    0  501  0.00000000000E+00  0.00000000000E+00  0.15037542414E+04  0.15037542448E+04  0.10100000352E+00 0.  1.
        3   -1    0    0  501    0  0.00000000000E+00  0.00000000000E+00 -0.24792717783E+04  0.24792717803E+04  0.10100000352E+00 0. -1.
    10030    2    1    2    0    0  0.00000000000E+00  0.00000000000E+00 -0.97551753682E+03  0.39830260251E+04  0.38617174744E+04 0.  0.
        3    1    3    3  502    0 -0.19986001106E+03  0.26396256814E+03  0.14742576966E+04  0.15109785001E+04  0.10100000352E+00 0.  1.
       -3    1    3    3    0  502  0.19986001106E+03 -0.26396256814E+03 -0.24497752335E+04  0.24720475250E+04  0.10100000352E+00 0. -1.
</event>
<event>
 5   0  0.1503228E-07  0.3908865E+04  0.7818609E-02  0.8023188E-01
        2   -1    0    0  501    0  0.00000000000E+00  0.00000000000E+00  0.18922315924E+04  0.18922315924E+04  0.25500000920E-02 0.  1.
       -2   -1    0    0    0  501  0.00000000000E+00  0.00000000000E+00 -0.20186783300E+04  0.20186783300E+04  0.25500000920E-02 0. -1.
    10030    2    1    2    0    0  0.00000000000E+00  0.00000000000E+00 -0.12644673754E+03  0.39109099224E+04  0.39088652629E+04 0.  0.
        3    1    3    3  502    0 -0.62004704542E+03 -0.32554863915E+03  0.17623862895E+04  0.18964297241E+04  0.10100000352E+00 0.  1.
       -3    1    3    3    0  502  0.62004704542E+03  0.32554863915E+03 -0.18888330270E+04  0.20144801983E+04  0.10100000352E+00 0. -1.
</event>
<event>
 5   0  0.4750125E-08  0.3913783E+04  0.7818609E-02  0.8022169E-01
        1   -1    0    0  501    0  0.00000000000E+00  0.00000000000E+00  0.13573116518E+04  0.13573116518E+04  0.50400001928E-02 0.  1.
       -1   -1    0    0    0  501  0.00000000000E+00  0.00000000000E+00 -0.28213306079E+04  0.28213306079E+04  0.50400001928E-02 0. -1.
    10030    2    1    2    0    0  0.00000000000E+00  0.00000000000E+00 -0.14640189561E+04  0.41786422597E+04  0.39137832887E+04 0.  0.
        3    1    3    3  502    0  0.10572786347E+04 -0.93610200480E+03  0.71440223104E+03  0.15825598354E+04  0.10100000352E+00 0.  1.
       -3    1    3    3    0  502 -0.10572786347E+04  0.93610200480E+03 -0.21784211872E+04  0.25960824243E+04  0.10100000352E+00 0. -1.
</event>
<event>
 5   0  0.4750125E-08  0.3916503E+04  0.7818609E-02  0.8021606E-01
        1   -1    0    0  501    0  0.00000000000E+00  0.00000000000E+00  0.16016222502E+04  0.16016222502E+04  0.50400001928E-02 0. -1.
       -1   -1    0    0    0  501  0.00000000000E+00  0.00000000000E+00 -0.23942902912E+04  0.23942902912E+04  0.50400001928E-02 0.  1.
    10030    2    1    2    0    0  0.00000000000E+00  0.00000000000E+00 -0.79266804105E+03  0.39959125414E+04  0.39165028297E+04 0.  0.
        5    1    3    3  502    0  0.11827144693E+04 -0.13834773898E+04 -0.11334105038E+04  0.21441699243E+04  0.46999998093E+01 0.  1.
       -5    1    3    3    0  502 -0.11827144693E+04  0.13834773898E+04  0.34074246279E+03  0.18517426171E+04  0.46999998093E+01 0. -1.
</event>
<event>
 5   0  0.1501585E-07  0.3899948E+04  0.7818609E-02  0.8025040E-01
       -2   -1    0    0    0  501  0.00000000000E+00  0.00000000000E+00  0.22508188504E+04  0.22508188504E+04  0.25500000920E-02 0. -1.
        2   -1    0    0  501    0  0.00000000000E+00  0.00000000000E+00 -0.16893405380E+04  0.16893405380E+04  0.25500000920E-02 0.  1.
    10030    2    1    2    0    0  0.00000000000E+00  0.00000000000E+00  0.56147831235E+03  0.39401593884E+04  0.38999484754E+04 0.  0.
        5    1    3    3  502    0  0.17155304125E+03  0.93727736123E+03  0.19995914482E+04  0.22150185885E+04  0.46999998093E+01 0. -1.
       -5    1    3    3    0  502 -0.17155304125E+03 -0.93727736123E+03 -0.14381131358E+04  0.17251407999E+04  0.46999998093E+01 0.  1.
</event>
<event>
 5   0  0.4750125E-08  0.3689667E+04  0.7818609E-02  0.8070256E-01
        1   -1    0    0  501    0  0.00000000000E+00  0.00000000000E+00  0.19912777900E+04  0.19912777900E+04  0.50400001928E-02 0. -1.
       -1   -1    0    0    0  501  0.00000000000E+00  0.00000000000E+00 -0.17091594972E+04  0.17091594972E+04  0.50400001928E-02 0.  1.
    10030    2    1    2    0    0  0.00000000000E+00  0.00000000000E+00  0.28211829281E+03  0.37004372871E+04  0.36896673813E+04 0.  0.
        3    1    3    3  502    0 -0.10397287174E+04 -0.69482878155E+03 -0.12192141545E+04  0.17465125268E+04  0.10100000352E+00 0.  1.
       -3    1    3    3    0  502  0.10397287174E+04  0.69482878155E+03  0.15013324473E+04  0.19539247603E+04  0.10100000352E+00 0. -1.
</event>
<event>
 5   0  0.4762788E-08  0.3918632E+04  0.7818609E-02  0.8021165E-01
        1   -1    0    0  501    0  0.00000000000E+00  0.00000000000E+00  0.23840560856E+04  0.23840560856E+04  0.50400001928E-02 0.  1.
       -1   -1    0    0    0  501  0.00000000000E+00  0.00000000000E+00 -0.16102467033E+04  0.16102467033E+04  0.50400001928E-02 0. -1.
    10030    2    1    2    0    0  0.00000000000E+00  0.00000000000E+00  0.77380938228E+03  0.39943027890E+04  0.39186316247E+04 0.  0.
        2    1    3    3  502    0  0.16444646734E+04 -0.58283858174E+03 -0.52191437322E+03  0.18210874464E+04  0.25500000920E-02 0. -1.
       -2    1    3    3    0  502 -0.16444646734E+04  0.58283858174E+03  0.12957237555E+04  0.21732153425E+04  0.25500000920E-02 0.  1.
</event>
<event>
 5   0  0.1546846E-07  0.3918580E+04  0.7818609E-02  0.8021176E-01
       -2   -1    0    0    0  501  0.00000000000E+00  0.00000000000E+00  0.13186131766E+04  0.13186131766E+04  0.25500000920E-02 0. -1.
        2   -1    0    0  501    0  0.00000000000E+00  0.00000000000E+00 -0.29112542907E+04  0.29112542907E+04  0.25500000920E-02 0.  1.
    10030    2    1    2    0    0  0.00000000000E+00  0.00000000000E+00 -0.15926411140E+04  0.42298674673E+04  0.39185804920E+04 0.  0.
        2    1    3    3  502    0  0.10936329393E+04  0.14413877619E+04  0.15189505452E+02  0.18093817749E+04  0.25500000920E-02 0. -1.
       -2    1    3    3    0  502 -0.10936329393E+04 -0.14413877619E+04 -0.16078306195E+04  0.24204856924E+04  0.25500000920E-02 0.  1.
</event>
<event>
 5   0  0.1546846E-07  0.3879842E+04  0.7818609E-02  0.8029235E-01
        2   -1    0    0  501    0  0.00000000000E+00  0.00000000000E+00  0.20837287233E+04  0.20837287233E+04  0.25500000920E-02 0.  1.
       -2   -1    0    0    0  501  0.00000000000E+00  0.00000000000E+00 -0.18060377573E+04  0.18060377573E+04  0.25500000920E-02 0. -1.
    10030    2    1    2    0    0  0.00000000000E+00  0.00000000000E+00  0.27769096603E+03  0.38897664807E+04  0.38798416207E+04 0.  0.
        2    1    3    3  502    0 -0.24017453373E+03  0.19010466094E+04  0.44232550791E+03  0.19665487212E+04  0.25500000920E-02 0.  1.
       -2    1    3    3    0  502  0.24017453373E+03 -0.19010466094E+04 -0.16463454188E+03  0.19232177595E+04  0.25500000920E-02 0. -1.
</event>
<event>
 5   0  0.1520986E-07  0.3917648E+04  0.7818609E-02  0.8021369E-01
       -2   -1    0    0    0  501  0.00000000000E+00  0.00000000000E+00  0.21389122132E+04  0.21389122132E+04  0.25500000920E-02 0. -1.
        2   -1    0    0  501    0  0.00000000000E+00  0.00000000000E+00 -0.17938981692E+04  0.17938981692E+04  0.25500000920E-02 0.  1.
    10030    2    1    2    0    0  0.00000000000E+00  0.00000000000E+00  0.34501404405E+03  0.39328103824E+04  0.39176476122E+04 0.  0.
        4    1    3    3  502    0 -0.81640493200E+03 -0.89090511183E+03 -0.13751343042E+04  0.18306351080E+04  0.12699999809E+01 0.  1.
       -4    1    3    3    0  502  0.81640493200E+03  0.89090511183E+03  0.17201483483E+04  0.21021752744E+04  0.12699999809E+01 0. -1.
</event>
<event>
 5   0  0.1538018E-07  0.3938272E+04  0.7818609E-02  0.8017116E-01
       -2   -1    0    0    0  501  0.00000000000E+00  0.00000000000E+00  0.16477048310E+04  0.16477048310E+04  0.25500000920E-02 0. -1.
        2   -1    0    0  501    0  0.00000000000E+00  0.00000000000E+00 -0.23532708655E+04  0.23532708655E+04  0.25500000920E-02 0.  1.
    10030    2    1    2    0    0  0.00000000000E+00  0.00000000000E+00 -0.70556603451E+03  0.40009756965E+04  0.39382715873E+04 0.  0.
        1    1    3    3  502    0 -0.72737709863E+03  0.38349730926E+03 -0.21705018383E+04  0.23210398230E+04  0.50400001928E-02 0.  1.
       -1    1    3    3    0  502  0.72737709863E+03 -0.38349730926E+03  0.14649358038E+04  0.16799358735E+04  0.50400001928E-02 0. -1.
</event>
<event>
 5   0  0.4762788E-08  0.3904668E+04  0.7818609E-02  0.8024059E-01
        1   -1    0    0  501    0  0.00000000000E+00  0.00000000000E+00  0.17826620398E+04  0.17826620398E+04  0.50400001928E-02 0.  1.
       -1   -1    0    0    0  501  0.00000000000E+00  0.00000000000E+00 -0.21381554262E+04  0.21381554262E+04  0.50400001928E-02 0. -1.
    10030    2    1    2    0    0  0.00000000000E+00  0.00000000000E+00 -0.35549338642E+03  0.39208174661E+04  0.39046682387E+04 0.  0.
        2    1    3    3  502    0 -0.10411402744E+04  0.16209692867E+04 -0.49543156744E+03  0.19892126426E+04  0.25500000920E-02 0. -1.
       -2    1    3    3    0  502  0.10411402744E+04 -0.16209692867E+04  0.13993818102E+03  0.19316048235E+04  0.25500000920E-02 0.  1.
</event>
<event>
 5   0  0.1520986E-07  0.3762274E+04  0.7818609E-02  0.8054299E-01
       -2   -1    0    0    0  501  0.00000000000E+00  0.00000000000E+00  0.16191000793E+04  0.16191000793E+04  0.25500000920E-02 0.  1.
        2   -1    0    0  501    0  0.00000000000E+00  0.00000000000E+00 -0.21855826719E+04  0.21855826719E+04  0.25500000920E-02 0. -1.
    10030    2    1    2    0    0  0.00000000000E+00  0.00000000000E+00 -0.56648259259E+03  0.38046827512E+04  0.37622743533E+04 0.  0.
        4    1    3    3  502    0  0.24171592554E+03 -0.11002724186E+04  0.12402759783E+04  0.16755035360E+04  0.12699999809E+01 0.  1.
       -4    1    3    3    0  502 -0.24171592554E+03  0.11002724186E+04 -0.18067585709E+04  0.21291792152E+04  0.12699999809E+01 0. -1.
</event>
<event>
 5   0  0.1503228E-07  0.3692415E+04  0.7818609E-02  0.8069645E-01
        2   -1    0    0  501    0  0.00000000000E+00  0.00000000000E+00  0.16913425642E+04  0.16913425642E+04  0.25500000920E-02 0.  1.
       -2   -1    0    0    0  501  0.00000000000E+00  0.00000000000E+00 -0.20152524748E+04  0.20152524748E+04  0.25500000920E-02 0. -1.
    10030    2    1    2    0    0  0.00000000000E+00  0.00000000000E+00 -0.32390991064E+03  0.37065950390E+04  0.36924150840E+04 0.  0.
        3    1    3    3  502    0 -0.23861959005E+03 -0.17945282541E+04  0.20166714159E+03  0.18215215095E+04  0.10100000352E+00 0. -1.
       -3    1    3    3    0  502  0.23861959005E+03  0.17945282541E+04 -0.52557705223E+03  0.18850735295E+04  0.10100000352E+00 0.  1.
</event>
<event>
 5   0  0.4750125E-08  0.3958319E+04  0.7818609E-02  0.8013008E-01
       -1   -1    0    0    0  501  0.00000000000E+00  0.00000000000E+00  0.14065425106E+04  0.14065425106E+04  0.50400001928E-02 0.  1.
        1   -1    0    0  501    0  0.00000000000E+00  0.00000000000E+00 -0.27848947755E+04  0.27848947755E+04  0.50400001928E-02 0. -1.
    10030    2    1    2    0    0  0.00000000000E+00  0.00000000000E+00 -0.13783522649E+04  0.41914372861E+04  0.39583192844E+04 0.  0.
        3    1    3    3  502    0  0.44819103548E+03  0.35669318155E+03 -0.26952038162E+04  0.27553999439E+04  0.10100000352E+00 0. -1.
       -3    1    3    3    0  502 -0.44819103548E+03 -0.35669318155E+03  0.13168515512E+04  0.14360373422E+04  0.10100000352E+00 0.  1.
</event>
<event>
 5   0  0.1501585E-07  0.4007698E+04  0.7818609E-02  0.8002995E-01
        2   -1    0    0  501    0  0.00000000000E+00  0.00000000000E+00  0.26655940165E+04  0.26655940165E+04  0.25500000920E-02 0.  1.
       -2   -1    0    0    0  501  0.00000000000E+00  0.00000000000E+00 -0.15063847521E+04  0.15063847521E+04  0.25500000920E-02 0. -1.
    10030    2    1    2    0    0  0.00000000000E+00  0.00000000000E+00  0.11592092644E+04  0.41719787687E+04  0.40076976842E+04 0.  0.
        5    1    3    3  502    0 -0.97190065682E+03  0.85893424225E+03  0.21696415965E+04  0.25277906690E+04  0.46999998093E+01 0.  1.
       -5    1    3    3    0  502  0.97190065682E+03 -0.85893424225E+03 -0.10104323321E+04  0.16441880996E+04  0.46999998093E+01 0. -1.
</event>
<event>
 5   0  0.4750125E-08  0.3900865E+04  0.7818609E-02  0.8024849E-01
        1   -1    0    0  501    0  0.00000000000E+00  0.00000000000E+00  0.23260988657E+04  0.23260988657E+04  0.50400001928E-02 0.  1.
       -1   -1    0    0    0  501  0.00000000000E+00  0.00000000000E+00 -0.16354366245E+04  0.16354366245E+04  0.50400001928E-02 0. -1.
    10030    2    1    2    0    0  0.00000000000E+00  0.00000000000E+00  0.69066224115E+03  0.39615354902E+04  0.39008651744E+04 0.  0.
        4    1    3    3  502    0 -0.19225794276E+04 -0.27157741964E+02  0.67773896893E+03  0.20387204127E+04  0.12699999809E+01 0.  1.
       -4    1    3    3    0  502  0.19225794276E+04  0.27157741964E+02  0.12923272219E+02  0.19228150775E+04  0.12699999809E+01 0. -1.
</event>
<event>
 5   0  0.1538018E-07  0.3896670E+04  0.7818609E-02  0.8025722E-01
        2   -1    0    0  501    0  0.00000000000E+00  0.00000000000E+00  0.12877429683E+04  0.12877429683E+04  0.25500000920E-02 0.  1.
       -2   -1    0    0    0  501  0.00000000000E+00  0.00000000000E+00 -0.29478010734E+04  0.29478010734E+04  0.25500000920E-02 0. -1.
    10030    2    1    2    0    0  0.00000000000E+00  0.00000000000E+00 -0.16600581051E+04  0.42355440417E+04  0.38966704270E+04 0.  0.
        1    1    3    3  502    0  0.66659183188E+03  0.53256003958E+03  0.10738809077E+04  0.13715630026E+04  0.50400001928E-02 0.  1.
       -1    1    3    3    0  502 -0.66659183188E+03 -0.53256003958E+03 -0.27339390129E+04  0.28639810391E+04  0.50400001928E-02 0. -1.
</event>
<event>
 5   0  0.1546846E-07  0.3896675E+04  0.7818609E-02  0.8025721E-01
        2   -1    0    0  501    0  0.00000000000E+00  0.00000000000E+00  0.22386406114E+04  0.22386406114E+04  0.25500000920E-02 0.  1.
       -2   -1    0    0    0  501  0.00000000000E+00  0.00000000000E+00 -0.16956803381E+04  0.16956803381E+04  0.25500000920E-02 0. -1.
    10030    2    1    2    0    0  0.00000000000E+00  0.00000000000E+00  0.54296027335E+03  0.39343209495E+04  0.38966749256E+04 0.  0.
        2    1    3    3  502    0 -0.10088720114E+04 -0.79831405680E+03  0.17487943168E+04  0.21710388368E+04  0.25500000920E-02 0. -1.
       -2    1    3    3    0  502  0.10088720114E+04  0.79831405680E+03 -0.12058340434E+04  0.17632821127E+04  0.25500000920E-02 0.  1.
</event>
<event>
 5   0  0.4750125E-08  0.3935761E+04  0.7818609E-02  0.8017632E-01
        3   -1    0    0  501    0  0.00000000000E+00  0.00000000000E+00  0.19652768271E+04  0.19652768297E+04  0.10100000352E+00 0.  1.
       -3   -1    0    0    0  501  0.00000000000E+00  0.00000000000E+00 -0.19704878105E+04  0.19704878131E+04  0.10100000352E+00 0. -1.
    10030    2    1    2    0    0  0.00000000000E+00  0.00000000000E+00 -0.52109833848E+01  0.39357646428E+04  0.39357611931E+04 0.  0.
        4    1    3    3  502    0 -0.15881116062E+04 -0.40781471438E+03  0.10855779442E+04  0.19664415579E+04  0.12699999809E+01 0.  1.
       -4    1    3    3    0  502  0.15881116062E+04  0.40781471438E+03 -0.10907889276E+04  0.19693230848E+04  0.12699999809E+01 0. -1.
</event>
<event>
 5   0  0.1520986E-07  0.3867258E+04  0.7818609E-02  0.8031874E-01
       -2   -1    0    0    0  501  0.00000000000E+00  0.00000000000E+00  0.25663938782E+04  0.25663938782E+04  0.25500000920E-02 0.  1.
        2   -1    0    0  501    0  0.00000000000E+00  0.00000000000E+00 -0.14568775445E+04  0.14568775445E+04  0.25500000920E-02 0. -1.
    10030    2    1    2    0    0  0.00000000000E+00  0.00000000000E+00  0.11095163336E+04  0.40232714227E+04  0.38672582595E+04 0.  0.
        4    1    3    3  502    0 -0.55858048454E+03 -0.14893163481E+04  0.16985879597E+04  0.23270749906E+04  0.12699999809E+01 0.  1.
       -4    1    3    3    0  502  0.55858048454E+03  0.14893163481E+04 -0.58907162601E+03  0.16961964320E+04  0.12699999809E+01 0. -1.
</event>
<event>
 5   0  0.1501585E-07  0.3933372E+04  0.7818609E-02  0.8018124E-01
        2   -1    0    0  501    0  0.00000000000E+00  0.00000000000E+00  0.27912376828E+04  0.27912376828E+04  0.25500000920E-02 0.  1.
       -2   -1    0    0    0  501  0.00000000000E+00  0.00000000000E+00 -0.13857130426E+04  0.13857130426E+04  0.25500000920E-02 0. -1.
    10030    2    1    2    0    0  0.00000000000E+00  0.00000000000E+00  0.14055246402E+04  0.41769507255E+04  0.39333723252E+04 0.  0.
        5    1    3    3  502    0 -0.10020627160E+02  0.12744167914E+04 -0.88785757399E+03  0.15532391100E+04  0.46999998093E+01 0. -1.
       -5    1    3    3    0  502  0.10020627160E+02 -0.12744167914E+04  0.22933822142E+04  0.26237116155E+04  0.46999998093E+01 0.  1.
</event>
<event>
 5   0  0.4750125E-08  0.3879606E+04  0.7818609E-02  0.8029284E-01
       -1   -1    0    0    0  501  0.00000000000E+00  0.00000000000E+00  0.28533914452E+04  0.28533914452E+04  0.50400001928E-02 0.  1.
        1   -1    0    0  501    0  0.00000000000E+00  0.00000000000E+00 -0.13187238588E+04  0.13187238588E+04  0.50400001928E-02 0. -1.
    10030    2    1    2    0    0  0.00000000000E+00  0.00000000000E+00  0.15346675864E+04  0.41721153040E+04  0.38796058445E+04 0.  0.
        4    1    3    3  502    0 -0.13084191405E+03  0.10900955364E+04 -0.95242891425E+03  0.14534615009E+04  0.12699999809E+01 0. -1.
       -4    1    3    3    0  502  0.13084191405E+03 -0.10900955364E+04  0.24870965006E+04  0.27186538031E+04  0.12699999809E+01 0.  1.
</event>
<event>
 5   0  0.1503228E-07  0.3778812E+04  0.7818609E-02  0.8050717E-01
       -2   -1    0    0    0  501  0.00000000000E+00  0.00000000000E+00  0.24077450380E+04  0.24077450380E+04  0.25500000920E-02 0.  1.
        2   -1    0    0  501    0  0.00000000000E+00  0.00000000000E+00 -0.14826546378E+04  0.14826546378E+04  0.25500000920E-02 0. -1.
    10030    2    1    2    0    0  0.00000000000E+00  0.00000000000E+00  0.92509040019E+03  0.38903996757E+04  0.37788116371E+04 0.  0.
        3    1    3    3  502    0  0.68490327160E+02 -0.16527039673E+04  0.14025984913E+04  0.21687332400E+04  0.10100000352E+00 0.  1.
       -3    1    3    3    0  502 -0.68490327160E+02  0.16527039673E+04 -0.47750809108E+03  0.17216664357E+04  0.10100000352E+00 0. -1.
</event>
<event>
 5   0  0.4750125E-08  0.3907938E+04  0.7818609E-02  0.8023380E-01
       -1   -1    0    0    0  501  0.00000000000E+00  0.00000000000E+00  0.31511131775E+04  0.31511131775E+04  0.50400001928E-02 0.  1.
        1   -1    0    0  501    0  0.00000000000E+00  0.00000000000E+00 -0.12116334068E+04  0.12116334068E+04  0.50400001928E-02 0. -1.
    10030    2    1    2    0    0  0.00000000000E+00  0.00000000000E+00  0.19394797708E+04  0.43627465843E+04  0.39079375606E+04 0.  0.
        3    1    3    3  502    0  0.75060182550E+03  0.24136300547E+03 -0.10261588432E+04  0.12940870073E+04  0.10100000352E+00 0. -1.
       -3    1    3    3    0  502 -0.75060182550E+03 -0.24136300547E+03  0.29656386139E+04  0.30686595770E+04  0.10100000352E+00 0.  1.
</event>
<event>
 5   0  0.4750125E-08  0.3862738E+04  0.7818609E-02  0.8032824E-01
        1   -1    0    0  501    0  0.00000000000E+00  0.00000000000E+00  0.15875245311E+04  0.15875245311E+04  0.50400001928E-02 0. -1.
       -1   -1    0    0    0  501  0.00000000000E+00  0.00000000000E+00 -0.23496870326E+04  0.23496870326E+04  0.50400001928E-02 0.  1.
    10030    2    1    2    0    0  0.00000000000E+00  0.00000000000E+00 -0.76216250149E+03  0.39372115637E+04  0.38627377879E+04 0.  0.
        5    1    3    3  502    0 -0.12509292013E+04 -0.14650545768E+04 -0.52141259030E+03  0.19957710187E+04  0.46999998093E+01 0. -1.
       -5    1    3    3    0  502  0.12509292013E+04  0.14650545768E+04 -0.24074991119E+03  0.19414405449E+04  0.46999998093E+01 0.  1.
</event>
<event>
 5   0  0.4750125E-08  0.3948168E+04  0.7818609E-02  0.8015085E-01
        1   -1    0    0  501    0  0.00000000000E+00  0.00000000000E+00  0.25190969034E+04  0.25190969034E+04  0.50400001928E-02 0. -1.
       -1   -1    0    0    0  501  0.00000000000E+00  0.00000000000E+00 -0.15469862002E+04  0.15469862002E+04  0.50400001928E-02 0.  1.
    10030    2    1    2    0    0  0.00000000000E+00  0.00000000000E+00  0.97211070327E+03  0.40660831036E+04  0.39481682570E+04 0.  0.
        1    1    3    3  502    0  0.57701292288E+03 -0.15068144522E+04 -0.68526667688E+03  0.17530043140E+04  0.50400001928E-02 0.  1.
       -1    1    3    3    0  502 -0.57701292288E+03  0.15068144522E+04  0.16573773802E+04  0.23130787896E+04  0.50400001928E-02 0. -1.
</event>
<event>
 5   0  0.1503228E-07  0.3928199E+04  0.7818609E-02  0.8019190E-01
       -2   -1    0    0    0  501  0.00000000000E+00  0.00000000000E+00  0.15164667663E+04  0.15164667664E+04  0.25500000920E-02 0.  1.
        2   -1    0    0  501    0  0.00000000000E+00  0.00000000000E+00 -0.25438645128E+04  0.25438645128E+04  0.25500000920E-02 0. -1.
    10030    2    1    2    0    0  0.00000000000E+00  0.00000000000E+00 -0.10273977465E+04  0.40603312792E+04  0.39281985651E+04 0.  0.
        3    1    3    3  502    0 -0.89834451495E+03  0.13790027640E+04 -0.16216759852E+04  0.23105203963E+04  0.10100000352E+00 0. -1.
       -3    1    3    3    0  502  0.89834451495E+03 -0.13790027640E+04  0.59427823869E+03  0.17498108829E+04  0.10100000352E+00 0.  1.
</event>
<event>
 5   0  0.1503228E-07  0.3898433E+04  0.7818609E-02  0.8025355E-01
       -2   -1    0    0    0  501  0.00000000000E+00  0.00000000000E+00  0.19467391973E+04  0.19467391973E+04  0.25500000920E-02 0.  1.
        2   -1    0    0  501    0  0.00000000000E+00  0.00000000000E+00 -0.19516970548E+04  0.19516970548E+04  0.25500000920E-02 0. -1.
    10030    2    1    2    0    0  0.00000000000E+00  0.00000000000E+00 -0.49578575419E+01  0.38984362521E+04  0.38984330996E+04 0.  0.
        3    1    3    3  502    0  0.17528804407E+04  0.84529841187E+03 -0.11350110258E+03  0.19493593191E+04  0.10100000352E+00 0.  1.
       -3    1    3    3    0  502 -0.17528804407E+04 -0.84529841187E+03  0.10854324503E+03  0.19490769330E+04  0.10100000352E+00 0. -1.
</event>
<event>
 5   0  0.1501585E-07  0.3907835E+04  0.7818609E-02  0.8023402E-01
        2   -1    0    0  501    0  0.00000000000E+00  0.00000000000E+00  0.20512016483E+04  0.20512016483E+04  0.25500000920E-02 0. -1.
       -2   -1    0    0    0  501  0.00000000000E+00  0.00000000000E+00 -0.18612476102E+04  0.18612476102E+04  0.25500000920E-02 0.  1.
    10030    2    1    2    0    0  0.00000000000E+00  0.00000000000E+00  0.18995403808E+03  0.39124492585E+04  0.39078352913E+04 0.  0.
        5    1    3    3  502    0 -0.10050322000E+04 -0.15476689872E+04  0.73792140213E+03  0.19874403394E+04  0.46999998093E+01 0. -1.
       -5    1    3    3    0  502  0.10050322000E+04  0.15476689872E+04 -0.54796736405E+03  0.19250089192E+04  0.46999998093E+01 0.  1.
</event>
<event>
 5   0  0.4750125E-08  0.3913412E+04  0.7818609E-02  0.8022246E-01
       -1   -1    0    0    0  501  0.00000000000E+00  0.00000000000E+00  0.14940629680E+04  0.14940629680E+04  0.50400001928E-02 0. -1.
        1   -1    0    0  501    0  0.00000000000E+00  0.00000000000E+00 -0.25626079010E+04  0.25626079010E+04  0.50400001928E-02 0.  1.
    10030    2    1    2    0    0  0.00000000000E+00  0.00000000000E+00 -0.10685449329E+04  0.40566708690E+04  0.39134115891E+04 0.  0.
        4    1    3    3  502    0  0.81755272787E+03  0.15250013681E+04  0.41277723627E+03  0.17788783812E+04  0.12699999809E+01 0.  1.
       -4    1    3    3    0  502 -0.81755272787E+03 -0.15250013681E+04 -0.14813221692E+04  0.22777924878E+04  0.12699999809E+01 0. -1.
</event>
<event>
 5   0  0.4750125E-08  0.3940052E+04  0.7818609E-02  0.8016750E-01
        1   -1    0    0  501    0  0.00000000000E+00  0.00000000000E+00  0.21127195657E+04  0.21127195657E+04  0.50400001928E-02 0.  1.
       -1   -1    0    0    0  501  0.00000000000E+00  0.00000000000E+00 -0.18369698056E+04  0.18369698056E+04  0.50400001928E-02 0. -1.
    10030    2    1    2    0    0  0.00000000000E+00  0.00000000000E+00  0.27574976013E+03  0.39496893714E+04  0.39400518017E+04 0.  0.
        1    1    3    3  502    0 -0.49282919118E+03 -0.78858824883E+03 -0.16031087111E+04  0.18532969480E+04  0.50400001928E-02 0. -1.
       -1    1    3    3    0  502  0.49282919118E+03  0.78858824883E+03  0.18788584712E+04  0.20963924234E+04  0.50400001928E-02 0.  1.
</event>
<event>
 5   0  0.1546846E-07  0.3911672E+04  0.7818609E-02  0.8022606E-01
        2   -1    0    0  501    0  0.00000000000E+00  0.00000000000E+00  0.20799402480E+04  0.20799402480E+04  0.25500000920E-02 0.  1.
       -2   -1    0    0    0  501  0.00000000000E+00  0.00000000000E+00 -0.18391362902E+04  0.18391362902E+04  0.25500000920E-02 0. -1.
    10030    2    1    2    0    0  0.00000000000E+00  0.00000000000E+00  0.24080395782E+03  0.39190765382E+04  0.39116715566E+04 0.  0.
        2    1    3    3  502    0 -0.49663839079E+03  0.18840810093E+04  0.29067266619E+03  0.19700003907E+04  0.25500000920E-02 0. -1.
       -2    1    3    3    0  502  0.49663839079E+03 -0.18840810093E+04 -0.49868708362E+02  0.19490761475E+04  0.25500000920E-02 0.  1.
</event>
<event>
 5   0  0.1503228E-07  0.3913688E+04  0.7818609E-02  0.8022188E-01
        2   -1    0    0  501    0  0.00000000000E+00  0.00000000000E+00  0.21245184723E+04  0.21245184723E+04  0.25500000920E-02 0. -1.
       -2   -1    0    0    0  501  0.00000000000E+00  0.00000000000E+00 -0.18024028119E+04  0.18024028119E+04  0.25500000920E-02 0.  1.
    10030    2    1    2    0    0  0.00000000000E+00  0.00000000000E+00  0.32211566031E+03  0.39269212842E+04  0.39136878099E+04 0.  0.
        3    1    3    3  502    0  0.18465544892E+04 -0.46450405056E+03  0.61392703678E+03  0.20006083853E+04  0.10100000352E+00 0.  1.
       -3    1    3    3    0  502 -0.18465544892E+04  0.46450405056E+03 -0.29181137648E+03  0.19263128989E+04  0.10100000352E+00 0. -1.
</event>
<event>
 5   0  0.4750125E-08  0.3839874E+04  0.7818609E-02  0.8037652E-01
       -1   -1    0    0    0  501  0.00000000000E+00  0.00000000000E+00  0.17975738829E+04  0.17975738829E+04  0.50400001928E-02 0. -1.
        1   -1    0    0  501    0  0.00000000000E+00  0.00000000000E+00 -0.20506292008E+04  0.20506292008E+04  0.50400001928E-02 0.  1.
    10030    2    1    2    0    0  0.00000000000E+00  0.00000000000E+00 -0.25305531787E+03  0.38482030837E+04  0.38398736932E+04 0.  0.
        1    1    3    3  502    0  0.11445843484E+04 -0.14761236795E+04 -0.57149872953E+03  0.19533625484E+04  0.50400001928E-02 0.  1.
       -1    1    3    3    0  502 -0.11445843484E+04  0.14761236795E+04  0.31844341166E+03  0.18948405353E+04  0.50400001928E-02 0. -1.
</event>
<event>
 5   0  0.1501585E-07  0.3912896E+04  0.7818609E-02  0.8022352E-01
       -2   -1    0    0    0  501  0.00000000000E+00  0.00000000000E+00  0.12114517371E+04  0.12114517371E+04  0.25500000920E-02 0. -1.
        2   -1    0    0  501    0  0.00000000000E+00  0.00000000000E+00 -0.31595879997E+04  0.31595879997E+04  0.25500000920E-02 0.  1.
    10030    2    1    2    0    0  0.00000000000E+00  0.00000000000E+00 -0.19481362626E+04  0.43710397368E+04  0.39128957925E+04 0.  0.
        5    1    3    3  502    0 -0.12417236848E+04  0.70702796866E+02  0.71298629175E+03  0.14336136638E+04  0.46999998093E+01 0. -1.
       -5    1    3    3    0  502  0.12417236848E+04 -0.70702796866E+02 -0.26611225544E+04  0.29374260730E+04  0.46999998093E+01 0.  1.
</event>
<event>
 5   0  0.4750125E-08  0.3873283E+04  0.7818609E-02  0.8030609E-01
       -1   -1    0    0    0  501  0.00000000000E+00  0.00000000000E+00  0.19918145507E+04  0.19918145507E+04  0.50400001928E-02 0. -1.
        1   -1    0    0  501    0  0.00000000000E+00  0.00000000000E+00 -0.18829968400E+04  0.18829968400E+04  0.50400001928E-02 0.  1.
    10030    2    1    2    0    0  0.00000000000E+00  0.00000000000E+00  0.10881771067E+03  0.38748113907E+04  0.38732831060E+04 0.  0.
        1    1    3    3  502    0 -0.17929667430E+04 -0.43214083416E+02 -0.67662108805E+03  0.19168759207E+04  0.50400001928E-02 0.  1.
       -1    1    3    3    0  502  0.17929667430E+04  0.43214083416E+02  0.78543879872E+03  0.19579354701E+04  0.50400001928E-02 0. -1.
</event>
<event>
 5   0  0.4750125E-08  0.3838393E+04  0.7818609E-02  0.8037966E-01
       -1   -1    0    0    0  501  0.00000000000E+00  0.00000000000E+00  0.20747982722E+04  0.20747982722E+04  0.50400001928E-02 0. -1.
        1   -1    0    0  501    0  0.00000000000E+00  0.00000000000E+00 -0.17752641306E+04  0.17752641306E+04  0.50400001928E-02 0.  1.
    10030    2    1    2    0    0  0.00000000000E+00  0.00000000000E+00  0.29953414165E+03  0.38500624028E+04  0.38383928673E+04 0.  0.
        5    1    3    3  502    0 -0.20212494518E+02  0.11600427618E+04 -0.13836662647E+04  0.18057303720E+04  0.46999998093E+01 0.  1.
       -5    1    3    3    0  502  0.20212494518E+02 -0.11600427618E+04  0.16832004064E+04  0.20443320308E+04  0.46999998093E+01 0. -1.
</event>
<event>
 5   0  0.1546846E-07  0.3900688E+04  0.7818609E-02  0.8024886E-01
       -2   -1    0    0    0  501  0.00000000000E+00  0.00000000000E+00  0.21462118376E+04  0.21462118376E+04  0.25500000920E-02 0. -1.
        2   -1    0    0  501    0  0.00000000000E+00  0.00000000000E+00 -0.17723513988E+04  0.17723513988E+04  0.25500000920E-02 0.  1.
    10030    2    1    2    0    0  0.00000000000E+00  0.00000000000E+00  0.37386043874E+03  0.39185632364E+04  0.39006879149E+04 0.  0.
        2    1    3    3  502    0  0.13920921081E+04  0.10828076592E+04 -0.64962154658E+03  0.18794682806E+04  0.25500000920E-02 0.  1.
       -2    1    3    3    0  502 -0.13920921081E+04 -0.10828076592E+04  0.10234819853E+04  0.20390949557E+04  0.25500000920E-02 0. -1.
</event>
<event>
 5   0  0.4750125E-08  0.3910905E+04  0.7818609E-02  0.8022765E-01
       -1   -1    0    0    0  501  0.00000000000E+00  0.00000000000E+00  0.26549916564E+04  0.26549916565E+04  0.50400001928E-02 0.  1.
        1   -1    0    0  501    0  0.00000000000E+00  0.00000000000E+00 -0.14402286365E+04  0.14402286365E+04  0.50400001928E-02 0. -1.
    10030    2    1    2    0    0  0.00000000000E+00  0.00000000000E+00  0.12147630199E+04  0.40952202930E+04  0.39109052729E+04 0.  0.
        1    1    3    3  502    0  0.27153973994E+03  0.18950677007E+04  0.19013057968E+03  0.19238412247E+04  0.50400001928E-02 0.  1.
       -1    1    3    3    0  502 -0.27153973994E+03 -0.18950677007E+04  0.10246324402E+04  0.21713790683E+04  0.50400001928E-02 0. -1.
</event>
<event>
 5   0  0.4762788E-08  0.3847399E+04  0.7818609E-02  0.8036059E-01
        1   -1    0    0  501    0  0.00000000000E+00  0.00000000000E+00  0.27181655137E+04  0.27181655137E+04  0.50400001928E-02 0. -1.
       -1   -1    0    0    0  501  0.00000000000E+00  0.00000000000E+00 -0.13614404751E+04  0.13614404751E+04  0.50400001928E-02 0.  1.
    10030    2    1    2    0    0  0.00000000000E+00  0.00000000000E+00  0.13567250386E+04  0.40796059888E+04  0.38473994065E+04 0.  0.
        2    1    3    3  502    0  0.69172098504E+03  0.17942457506E+04  0.62200578226E+03  0.20210608422E+04  0.25500000920E-02 0. -1.
       -2    1    3    3    0  502 -0.69172098504E+03 -0.17942457506E+04  0.73471925631E+03  0.20585451466E+04  0.25500000920E-02 0.  1.
</event>
<event>
 5   0  0.1501585E-07  0.3753338E+04  0.7818609E-02  0.8056243E-01
        2   -1    0    0  501    0  0.00000000000E+00  0.00000000000E+00  0.17784159443E+04  0.17784159443E+04  0.25500000920E-02 0. -1.
       -2   -1    0    0    0  501  0.00000000000E+00  0.00000000000E+00 -0.19803506280E+04  0.19803506280E+04  0.25500000920E-02 0.  1.
    10030    2    1    2    0    0  0.00000000000E+00  0.00000000000E+00 -0.20193468371E+03  0.37587665724E+04  0.37533383180E+04 0.  0.
        5    1    3    3  502    0  0.16677348080E+04 -0.19514794455E+03 -0.94029815477E+03  0.19244752064E+04  0.46999998093E+01 0.  1.
       -5    1    3    3    0  502 -0.16677348080E+04  0.19514794455E+03  0.73836347107E+03  0.18342913660E+04  0.46999998093E+01 0. -1.
</event>
<event>
 5   0  0.1520986E-07  0.3921786E+04  0.7818609E-02  0.8020513E-01
        2   -1    0    0  501    0  0.00000000000E+00  0.00000000000E+00  0.25713550563E+04  0.25713550563E+04  0.25500000920E-02 0. -1.
       -2   -1    0    0    0  501  0.00000000000E+00  0.00000000000E+00 -0.14953596436E+04  0.14953596436E+04  0.25500000920E-02 0.  1.
    10030    2    1    2    0    0  0.00000000000E+00  0.00000000000E+00  0.10759954126E+04  0.40667146999E+04  0.39217856038E+04 0.  0.
        4    1    3    3  502    0  0.11487889192E+04 -0.15031352651E+04  0.32190939012E+01  0.18918624637E+04  0.12699999809E+01 0. -1.
       -4    1    3    3    0  502 -0.11487889192E+04  0.15031352651E+04  0.10727763187E+04  0.21748522362E+04  0.12699999809E+01 0.  1.
</event>
<event>
 5   0  0.4762788E-08  0.3773147E+04  0.7818609E-02  0.8051942E-01
        1   -1    0    0  501    0  0.00000000000E+00  0.00000000000E+00  0.19440643311E+04  0.19440643311E+04  0.50400001928E-02 0. -1.
       -1   -1    0    0    0  501  0.00000000000E+00  0.00000000000E+00 -0.18307832713E+04  0.18307832713E+04  0.50400001928E-02 0.  1.
    10030    2    1    2    0    0  0.00000000000E+00  0.00000000000E+00  0.11328105983E+03  0.37748476024E+04  0.37731474690E+04 0.  0.
        2    1    3    3  502    0  0.78959987972E+03  0.11167361154E+04  0.13566847581E+04  0.19264373995E+04  0.25500000920E-02 0. -1.
       -2    1    3    3    0  502 -0.78959987972E+03 -0.11167361154E+04 -0.12434036982E+04  0.18484102029E+04  0.25500000920E-02 0.  1.
</event>
<event>
 5   0  0.4750125E-08  0.3883054E+04  0.7818609E-02  0.8028563E-01
        1   -1    0    0  501    0  0.00000000000E+00  0.00000000000E+00  0.23092646440E+04  0.23092646440E+04  0.50400001928E-02 0. -1.
       -1   -1    0    0    0  501  0.00000000000E+00  0.00000000000E+00 -0.16323493128E+04  0.16323493128E+04  0.50400001928E-02 0.  1.
    10030    2    1    2    0    0  0.00000000000E+00  0.00000000000E+00  0.67691533123E+03  0.39416139567E+04  0.38830537233E+04 0.  0.
        5    1    3    3  502    0  0.18391483166E+04 -0.17542287211E+01  0.96996111596E+03  0.20792585852E+04  0.46999998093E+01 0. -1.
       -5    1    3    3    0  502 -0.18391483166E+04  0.17542287211E+01 -0.29304578473E+03  0.18623553715E+04  0.46999998093E+01 0.  1.
</event>
<event>
 5   0  0.4762788E-08  0.3901887E+04  0.7818609E-02  0.8024637E-01
       -1   -1    0    0    0  501  0.00000000000E+00  0.00000000000E+00  0.16354051953E+04  0.16354051953E+04  0.50400001928E-02 0. -1.
        1   -1    0    0  501    0  0.00000000000E+00  0.00000000000E+00 -0.23273624767E+04  0.23273624767E+04  0.50400001928E-02 0.  1.
    10030    2    1    2    0    0  0.00000000000E+00  0.00000000000E+00 -0.69195728146E+03  0.39627676720E+04  0.39018870746E+04 0.  0.
        2    1    3    3  502    0 -0.10143941622E+04  0.61360655203E+03 -0.19195641369E+04  0.22561549132E+04  0.25500000920E-02 0.  1.
       -2    1    3    3    0  502  0.10143941622E+04 -0.61360655203E+03  0.12276068554E+04  0.17066127588E+04  0.25500000920E-02 0. -1.
</event>
<event>
 5   0  0.1503228E-07  0.3999550E+04  0.7818609E-02  0.8004637E-01
        2   -1    0    0  501    0  0.00000000000E+00  0.00000000000E+00  0.24151226083E+04  0.24151226083E+04  0.25500000920E-02 0.  1.
       -2   -1    0    0    0  501  0.00000000000E+00  0.00000000000E+00 -0.16558583735E+04  0.16558583735E+04  0.25500000920E-02 0. -1.
    10030    2    1    2    0    0  0.00000000000E+00  0.00000000000E+00  0.75926423480E+03  0.40709809817E+04  0.39995504717E+04 0.  0.
        3    1    3    3  502    0 -0.26291741898E+03 -0.11212437644E+04 -0.12844323024E+04  0.17251317336E+04  0.10100000352E+00 0. -1.
       -3    1    3    3    0  502  0.26291741898E+03  0.11212437644E+04  0.20436965373E+04  0.23458492482E+04  0.10100000352E+00 0.  1.
</event>
<event>
 5   0  0.4750125E-08  0.3714103E+04  0.7818609E-02  0.8064844E-01
       -1   -1    0    0    0  501  0.00000000000E+00  0.00000000000E+00  0.13504301629E+04  0.13504301630E+04  0.50400001928E-02 0.  1.
        1   -1    0    0  501    0  0.00000000000E+00  0.00000000000E+00 -0.25537346351E+04  0.25537346351E+04  0.50400001928E-02 0. -1.
    10030    2    1    2    0    0  0.00000000000E+00  0.00000000000E+00 -0.12033044722E+04  0.39041647981E+04  0.37141030031E+04 0.  0.
        4    1    3    3  502    0  0.15110619081E+04 -0.10679579702E+04 -0.43612552703E+03  0.19010653340E+04  0.12699999809E+01 0.  1.
       -4    1    3    3    0  502 -0.15110619081E+04  0.10679579702E+04 -0.76717894514E+03  0.20030994640E+04  0.12699999809E+01 0. -1.
</event>
<event>
 5   0  0.4750125E-08  0.3925764E+04  0.7818609E-02  0.8019692E-01
        1   -1    0    0  501    0  0.00000000000E+00  0.00000000000E+00  0.21787712398E+04  0.21787712398E+04  0.50400001928E-02 0.  1.
       -1   -1    0    0    0  501  0.00000000000E+00  0.00000000000E+00 -0.17683844217E+04  0.17683844217E+04  0.50400001928E-02 0. -1.
    10030    2    1    2    0    0  0.00000000000E+00  0.00000000000E+00  0.41038681804E+03  0.39471556615E+04  0.39257636806E+04 0.  0.
        3    1    3    3  502    0  0.61051056998E+02  0.10271081649E+04 -0.14755093756E+04  0.17988347177E+04  0.10100000352E+00 0. -1.
       -3    1    3    3    0  502 -0.61051056998E+02 -0.10271081649E+04  0.18858961937E+04  0.21483209438E+04  0.10100000352E+00 0.  1.
</event>
<event>
 5   0  0.1538018E-07  0.3916990E+04  0.7818609E-02  0.8021505E-01
        2   -1    0    0  501    0  0.00000000000E+00  0.00000000000E+00  0.26123483146E+04  0.26123483146E+04  0.25500000920E-02 0. -1.
       -2   -1    0    0    0  501  0.00000000000E+00  0.00000000000E+00 -0.14682964436E+04  0.14682964436E+04  0.25500000920E-02 0.  1.
    10030    2    1    2    0    0  0.00000000000E+00  0.00000000000E+00  0.11440518711E+04  0.40806447582E+04  0.39169895275E+04 0.  0.
        1    1    3    3  502    0 -0.11271053534E+04  0.15353933360E+04  0.97012052089E+02  0.19071472182E+04  0.50400001928E-02 0. -1.
       -1    1    3    3    0  502  0.11271053534E+04 -0.15353933360E+04  0.10470398190E+04  0.21734975400E+04  0.50400001928E-02 0.  1.
</event>
<event>
 5   0  0.4750125E-08  0.3899712E+04  0.7818609E-02  0.8025089E-01
        1   -1    0    0  501    0  0.00000000000E+00  0.00000000000E+00  0.22529678719E+04  0.22529678719E+04  0.50400001928E-02 0.  1.
       -1   -1    0    0    0  501  0.00000000000E+00  0.00000000000E+00 -0.16875242360E+04  0.16875242360E+04  0.50400001928E-02 0. -1.
    10030    2    1    2    0    0  0.00000000000E+00  0.00000000000E+00  0.56544363590E+03  0.39404921079E+04  0.38997117261E+04 0.  0.
        1    1    3    3  502    0 -0.92271812445E+03 -0.13329456508E+04 -0.81202134858E+03  0.18131551274E+04  0.50400001928E-02 0. -1.
       -1    1    3    3    0  502  0.92271812445E+03  0.13329456508E+04  0.13774649845E+04  0.21273369805E+04  0.50400001928E-02 0.  1.
</event>
<event>
 5   0  0.1503228E-07  0.3899416E+04  0.7818609E-02  0.8025151E-01
        2   -1    0    0  501    0  0.00000000000E+00  0.00000000000E+00  0.24999142323E+04  0.24999142323E+04  0.25500000920E-02 0. -1.
       -2   -1    0    0    0  501  0.00000000000E+00  0.00000000000E+00 -0.15205963695E+04  0.15205963695E+04  0.25500000920E-02 0.  1.
    10030    2    1    2    0    0  0.00000000000E+00  0.00000000000E+00  0.97931786275E+03  0.40205106018E+04  0.38994156001E+04 0.  0.
        3    1    3    3  502    0 -0.12242176820E+04 -0.13169393205E+03 -0.10690107313E+04  0.16305938116E+04  0.10100000352E+00 0.  1.
       -3    1    3    3    0  502  0.12242176820E+04  0.13169393205E+03  0.20483285940E+04  0.23899167902E+04  0.10100000352E+00 0. -1.
</event>
<event>
 5   0  0.1503228E-07  0.3960116E+04  0.7818609E-02  0.8012641E-01
       -2   -1    0    0    0  501  0.00000000000E+00  0.00000000000E+00  0.16708687070E+04  0.16708687070E+04  0.25500000920E-02 0.  1.
        2   -1    0    0  501    0  0.00000000000E+00  0.00000000000E+00 -0.23464623340E+04  0.23464623340E+04  0.25500000920E-02 0. -1.
    10030    2    1    2    0    0  0.00000000000E+00  0.00000000000E+00 -0.67559362696E+03  0.40173310410E+04  0.39601164053E+04 0.  0.
        3    1    3    3  502    0  0.25608849351E+03  0.11328932369E+04  0.12889934038E+04  0.17350885879E+04  0.10100000352E+00 0.  1.
       -3    1    3    3    0  502 -0.25608849351E+03 -0.11328932369E+04 -0.19645870307E+04  0.22822424530E+04  0.10100000352E+00 0. -1.
</event>
<event>
 5   0  0.1520986E-07  0.3895988E+04  0.7818609E-02  0.8025864E-01
        2   -1    0    0  501    0  0.00000000000E+00  0.00000000000E+00  0.25722294278E+04  0.25722294278E+04  0.25500000920E-02 0. -1.
       -2   -1    0    0    0  501  0.00000000000E+00  0.00000000000E+00 -0.14752493087E+04  0.14752493087E+04  0.25500000920E-02 0.  1.
    10030    2    1    2    0    0  0.00000000000E+00  0.00000000000E+00  0.10969801191E+04  0.40474787365E+04  0.38959875180E+04 0.  0.
        4    1    3    3  502    0  0.13724088624E+04  0.13809756489E+04  0.61483435797E+03  0.20417205316E+04  0.12699999809E+01 0. -1.
       -4    1    3    3    0  502 -0.13724088624E+04 -0.13809756489E+04  0.48214576111E+03  0.20057582049E+04  0.12699999809E+01 0.  1.
</event>
<event>
 5   0  0.4750125E-08  0.3918873E+04  0.7818609E-02  0.8021115E-01
       -1   -1    0    0    0  501  0.00000000000E+00  0.00000000000E+00  0.14762472510E+04  0.14762472510E+04  0.50400001928E-02 0. -1.
        1   -1    0    0  501    0  0.00000000000E+00  0.00000000000E+00 -0.26007778937E+04  0.26007778937E+04  0.50400001928E-02 0.  1.
    10030    2    1    2    0    0  0.00000000000E+00  0.00000000000E+00 -0.11245306427E+04  0.40770251447E+04  0.39188729073E+04 0.  0.
        5    1    3    3  502    0 -0.87040465809E+03 -0.14823565700E+04  0.41610352218E+03  0.17686575419E+04  0.46999998093E+01 0. -1.
       -5    1    3    3    0  502  0.87040465809E+03  0.14823565700E+04 -0.15406341649E+04  0.23083676027E+04  0.46999998093E+01 0.  1.
</event>
<event>
 5   0  0.1520986E-07  0.3892864E+04  0.7818609E-02  0.8026515E-01
        2   -1    0    0  501    0  0.00000000000E+00  0.00000000000E+00  0.27092436325E+04  0.27092436325E+04  0.25500000920E-02 0. -1.
       -2   -1    0    0    0  501  0.00000000000E+00  0.00000000000E+00 -0.13983970550E+04  0.13983970550E+04  0.25500000920E-02 0.  1.
    10030    2    1    2    0    0  0.00000000000E+00  0.00000000000E+00  0.13108465776E+04  0.41076406875E+04  0.38928644040E+04 0.  0.
        4    1    3    3  502    0  0.69610320819E+03  0.19452593984E+02 -0.12624537179E+04  0.14417798315E+04  0.12699999809E+01 0.  1.
       -4    1    3    3    0  502 -0.69610320819E+03 -0.19452593984E+02  0.25733002955E+04  0.26658608560E+04  0.12699999809E+01 0. -1.
</event>
<event>
 5   0  0.4750125E-08  0.3979587E+04  0.7818609E-02  0.8008677E-01
        1   -1    0    0  501    0  0.00000000000E+00  0.00000000000E+00  0.18239407581E+04  0.18239407581E+04  0.50400001928E-02 0. -1.
       -1   -1    0    0    0  501  0.00000000000E+00  0.00000000000E+00 -0.21707269459E+04  0.21707269459E+04  0.50400001928E-02 0.  1.
    10030    2    1    2    0    0  0.00000000000E+00  0.00000000000E+00 -0.34678618780E+03  0.39946677040E+04  0.39795865873E+04 0.  0.
        5    1    3    3  502    0  0.14301647889E+04 -0.55047293204E+03  0.11006146536E+04  0.18867343422E+04  0.46999998093E+01 0. -1.
       -5    1    3    3    0  502 -0.14301647889E+04  0.55047293204E+03 -0.14474008414E+04  0.21079333618E+04  0.46999998093E+01 0.  1.
</event>
<event>
 5   0  0.1538018E-07  0.3922503E+04  0.7818609E-02  0.8020365E-01
        2   -1    0    0  501    0  0.00000000000E+00  0.00000000000E+00  0.26230201194E+04  0.26230201194E+04  0.25500000920E-02 0.  1.
       -2   -1    0    0    0  501  0.00000000000E+00  0.00000000000E+00 -0.14664422886E+04  0.14664422886E+04  0.25500000920E-02 0. -1.
    10030    2    1    2    0    0  0.00000000000E+00  0.00000000000E+00  0.11565778308E+04  0.40894624079E+04  0.39225030921E+04 0.  0.
        1    1    3    3  502    0  0.95407531608E+03  0.16703374118E+04  0.17962440499E+03  0.19319812900E+04  0.50400001928E-02 0.  1.
       -1    1    3    3    0  502 -0.95407531608E+03 -0.16703374118E+04  0.97695342582E+03  0.21574811179E+04  0.50400001928E-02 0. -1.
</event>
<event>
 5   0  0.4762788E-08  0.3874808E+04  0.7818609E-02  0.8030289E-01
        1   -1    0    0  501    0  0.00000000000E+00  0.00000000000E+00  0.22027294390E+04  0.22027294390E+04  0.50400001928E-02 0. -1.
       -1   -1    0    0    0  501  0.00000000000E+00  0.00000000000E+00 -0.17040375550E+04  0.17040375550E+04  0.50400001928E-02 0.  1.
    10030    2    1    2    0    0  0.00000000000E+00  0.00000000000E+00  0.49869188396E+03  0.39067669940E+04  0.38748077049E+04 0.  0.
        2    1    3    3  502    0  0.12682250257E+04 -0.24089176035E+03  0.17059450459E+04  0.21393157915E+04  0.25500000920E-02 0. -1.
       -2    1    3    3    0  502 -0.12682250257E+04  0.24089176035E+03 -0.12072531619E+04  0.17674512025E+04  0.25500000920E-02 0.  1.
</event>
<event>
 5   0  0.1501585E-07  0.3901777E+04  0.7818609E-02  0.8024660E-01
       -2   -1    0    0    0  501  0.00000000000E+00  0.00000000000E+00  0.22454793954E+04  0.22454793954E+04  0.25500000920E-02 0. -1.
        2   -1    0    0  501    0  0.00000000000E+00  0.00000000000E+00 -0.16949455627E+04  0.16949455627E+04  0.25500000920E-02 0.  1.
    10030    2    1    2    0    0  0.00000000000E+00  0.00000000000E+00  0.55053383268E+03  0.39404249581E+04  0.39017766914E+04 0.  0.
        5    1    3    3  502    0 -0.15154468549E+04 -0.59990194492E+03  0.13580256322E+04  0.21214893875E+04  0.46999998093E+01 0. -1.
       -5    1    3    3    0  502  0.15154468549E+04  0.59990194492E+03 -0.80749179956E+03  0.18189355706E+04  0.46999998093E+01 0.  1.
</event>
<event>
 5   0  0.4750125E-08  0.3899789E+04  0.7818609E-02  0.8025073E-01
       -1   -1    0    0    0  501  0.00000000000E+00  0.00000000000E+00  0.12564324752E+04  0.12564324752E+04  0.50400001928E-02 0.  1.
        1   -1    0    0  501    0  0.00000000000E+00  0.00000000000E+00 -0.30260980538E+04  0.30260980538E+04  0.50400001928E-02 0. -1.
    10030    2    1    2    0    0  0.00000000000E+00  0.00000000000E+00 -0.17696655786E+04  0.42825305289E+04  0.38997886444E+04 0.  0.
        3    1    3    3  502    0 -0.27836702080E+03 -0.64126436995E+03  0.11140853023E+04  0.13152544474E+04  0.10100000352E+00 0.  1.
       -3    1    3    3    0  502  0.27836702080E+03  0.64126436995E+03 -0.28837508809E+04  0.29672760815E+04  0.10100000352E+00 0. -1.
</event>
<event>
 5   0  0.4750125E-08  0.3896109E+04  0.7818609E-02  0.8025839E-01
        1   -1    0    0  501    0  0.00000000000E+00  0.00000000000E+00  0.11119029006E+04  0.11119029006E+04  0.50400001928E-02 0.  1.
       -1   -1    0    0    0  501  0.00000000000E+00  0.00000000000E+00 -0.34129929621E+04  0.34129929621E+04  0.50400001928E-02 0. -1.
    10030    2    1    2    0    0  0.00000000000E+00  0.00000000000E+00 -0.23010900614E+04  0.45248958627E+04  0.38961092256E+04 0.  0.
        3    1    3    3  502    0 -0.27027552951E+03 -0.10653141323E+04  0.71744034557E+03  0.13125028465E+04  0.10100000352E+00 0.  1.
       -3    1    3    3    0  502  0.27027552951E+03  0.10653141323E+04 -0.30185304070E+04  0.32123930162E+04  0.10100000352E+00 0. -1.
</event>
<event>
 5   0  0.4750125E-08  0.3893880E+04  0.7818609E-02  0.8026303E-01
       -1   -1    0    0    0  501  0.00000000000E+00  0.00000000000E+00  0.24784860136E+04  0.24784860136E+04  0.50400001928E-02 0. -1.
        1   -1    0    0  501    0  0.00000000000E+00  0.00000000000E+00 -0.15293914867E+04  0.15293914868E+04  0.50400001928E-02 0.  1.
    10030    2    1    2    0    0  0.00000000000E+00  0.00000000000E+00  0.94909452689E+03  0.40078775004E+04  0.38938800235E+04 0.  0.
        3    1    3    3  502    0  0.11204532493E+03 -0.19437113151E+04  0.47737873913E+03  0.20046092642E+04  0.10100000352E+00 0. -1.
       -3    1    3    3    0  502 -0.11204532493E+03  0.19437113151E+04  0.47171578776E+03  0.20032682362E+04  0.10100000352E+00 0.  1.
</event>
<event>
 5   0  0.4750125E-08  0.3873842E+04  0.7818609E-02  0.8030492E-01
       -1   -1    0    0    0  501  0.00000000000E+00  0.00000000000E+00  0.23272260399E+04  0.23272260399E+04  0.50400001928E-02 0. -1.
        1   -1    0    0  501    0  0.00000000000E+00  0.00000000000E+00 -0.16120751797E+04  0.16120751797E+04  0.50400001928E-02 0.  1.
    10030    2    1    2    0    0  0.00000000000E+00  0.00000000000E+00  0.71515086016E+03  0.39393012196E+04  0.38738421943E+04 0.  0.
        4    1    3    3  502    0  0.11351276957E+03  0.11333061876E+04  0.19506986791E+04  0.22588702958E+04  0.12699999809E+01 0. -1.
       -4    1    3    3    0  502 -0.11351276957E+03 -0.11333061876E+04 -0.12355478190E+04  0.16804309238E+04  0.12699999809E+01 0.  1.
</event>
<event>
 5   0  0.4750125E-08  0.3712714E+04  0.7818609E-02  0.8065150E-01
       -1   -1    0    0    0  501  0.00000000000E+00  0.00000000000E+00  0.35261088388E+04  0.35261088388E+04  0.50400001928E-02 0.  1.
        1   -1    0    0  501    0  0.00000000000E+00  0.00000000000E+00 -0.97729840841E+03  0.97729840842E+03  0.50400001928E-02 0. -1.
    10030    2    1    2    0    0  0.00000000000E+00  0.00000000000E+00  0.25488104304E+04  0.45034072472E+04  0.37127135931E+04 0.  0.
        5    1    3    3  502    0 -0.14757315833E+04 -0.84942621543E+02  0.26365212999E+04  0.30226256152E+04  0.46999998093E+01 0.  1.
       -5    1    3    3    0  502  0.14757315833E+04  0.84942621543E+02 -0.87710869543E+02  0.14807816320E+04  0.46999998093E+01 0. -1.
</event>
<event>
 5   0  0.1501585E-07  0.3876298E+04  0.7818609E-02  0.8029977E-01
        2   -1    0    0  501    0  0.00000000000E+00  0.00000000000E+00  0.22757784906E+04  0.22757784906E+04  0.25500000920E-02 0. -1.
       -2   -1    0    0    0  501  0.00000000000E+00  0.00000000000E+00 -0.16506091402E+04  0.16506091402E+04  0.25500000920E-02 0.  1.
    10030    2    1    2    0    0  0.00000000000E+00  0.00000000000E+00  0.62516935042E+03  0.39263876308E+04  0.38762976034E+04 0.  0.
        5    1    3    3  502    0 -0.55669801279E+03  0.13848676410E+04  0.15649381133E+04  0.21625966913E+04  0.46999998093E+01 0. -1.
       -5    1    3    3    0  502  0.55669801279E+03 -0.13848676410E+04 -0.93976876287E+03  0.17637909395E+04  0.46999998093E+01 0.  1.
</event>
<event>
 5   0  0.1538018E-07  0.3951139E+04  0.7818609E-02  0.8014477E-01
       -2   -1    0    0    0  501  0.00000000000E+00  0.00000000000E+00  0.19017322502E+04  0.19017322502E+04  0.25500000920E-02 0. -1.
        2   -1    0    0  501    0  0.00000000000E+00  0.00000000000E+00 -0.20522736451E+04  0.20522736451E+04  0.25500000920E-02 0.  1.
    10030    2    1    2    0    0  0.00000000000E+00  0.00000000000E+00 -0.15054139486E+03  0.39540058953E+04  0.39511390647E+04 0.  0.
        1    1    3    3  502    0  0.14181896194E+04 -0.13707078701E+04 -0.18837090852E+03  0.19813090271E+04  0.50400001928E-02 0.  1.
       -1    1    3    3    0  502 -0.14181896194E+04  0.13707078701E+04  0.37829513661E+02  0.19726968682E+04  0.50400001928E-02 0. -1.
</event>
<event>
 5   0  0.4750125E-08  0.3856190E+04  0.7818609E-02  0.8034203E-01
       -1   -1    0    0    0  501  0.00000000000E+00  0.00000000000E+00  0.13186361043E+04  0.13186361043E+04  0.50400001928E-02 0. -1.
        1   -1    0    0  501    0  0.00000000000E+00  0.00000000000E+00 -0.28192386717E+04  0.28192386717E+04  0.50400001928E-02 0.  1.
    10030    2    1    2    0    0  0.00000000000E+00  0.00000000000E+00 -0.15006025673E+04  0.41378747760E+04  0.38561897771E+04 0.  0.
        1    1    3    3  502    0  0.16953674067E+04 -0.63488464666E+03 -0.38359751176E+02  0.18107513990E+04  0.50400001928E-02 0. -1.
       -1    1    3    3    0  502 -0.16953674067E+04  0.63488464666E+03 -0.14622428161E+04  0.23271233770E+04  0.50400001928E-02 0.  1.
</event>
<event>
 5   0  0.1520986E-07  0.3897482E+04  0.7818609E-02  0.8025553E-01
        2   -1    0    0  501    0  0.00000000000E+00  0.00000000000E+00  0.16256908696E+04  0.16256908696E+04  0.25500000920E-02 0. -1.
       -2   -1    0    0    0  501  0.00000000000E+00  0.00000000000E+00 -0.23359862719E+04  0.23359862719E+04  0.25500000920E-02 0.  1.
    10030    2    1    2    0    0  0.00000000000E+00  0.00000000000E+00 -0.71029540225E+03  0.39616771415E+04  0.38974820353E+04 0.  0.
        4    1    3    3  502    0 -0.11628022598E+04 -0.11453519775E+04  0.72711924568E+03  0.17867972068E+04  0.12699999809E+01 0. -1.
       -4    1    3    3    0  502  0.11628022598E+04  0.11453519775E+04 -0.14374146479E+04  0.21748799348E+04  0.12699999809E+01 0.  1.
</event>
<event>
 5   0  0.1503228E-07  0.3886001E+04  0.7818609E-02  0.8027947E-01
       -2   -1    0    0    0  501  0.00000000000E+00  0.00000000000E+00  0.14543203750E+04  0.14543203750E+04  0.25500000920E-02 0.  1.
        2   -1    0    0  501    0  0.00000000000E+00  0.00000000000E+00 -0.25958872180E+04  0.25958872180E+04  0.25500000920E-02 0. -1.
    10030    2    1    2    0    0  0.00000000000E+00  0.00000000000E+00 -0.11415668430E+04  0.40502075931E+04  0.38860013754E+04 0.  0.
        3    1    3    3  502    0 -0.41952771832E+03  0.87064069003E+03 -0.23276053936E+04  0.25202709371E+04  0.10100000352E+00 0. -1.
       -3    1    3    3    0  502  0.41952771832E+03 -0.87064069003E+03  0.11860385506E+04  0.15299366560E+04  0.10100000352E+00 0.  1.
</event>
<event>
 5   0  0.4750125E-08  0.3932250E+04  0.7818609E-02  0.8018355E-01
       -1   -1    0    0    0  501  0.00000000000E+00  0.00000000000E+00  0.14276386777E+04  0.14276386777E+04  0.50400001928E-02 0. -1.
        1   -1    0    0  501    0  0.00000000000E+00  0.00000000000E+00 -0.27077205412E+04  0.27077205412E+04  0.50400001928E-02 0.  1.
    10030    2    1    2    0    0  0.00000000000E+00  0.00000000000E+00 -0.12800818635E+04  0.41353592189E+04  0.39322495205E+04 0.  0.
        3    1    3    3  502    0  0.99151901297E+03 -0.12945002262E+04 -0.17953305274E+04  0.24252943123E+04  0.10100000352E+00 0.  1.
       -3    1    3    3    0  502 -0.99151901297E+03  0.12945002262E+04  0.51524866381E+03  0.17100649065E+04  0.10100000352E+00 0. -1.
</event>
<event>
 5   0  0.4750125E-08  0.3907960E+04  0.7818609E-02  0.8023376E-01
       -1   -1    0    0    0  501  0.00000000000E+00  0.00000000000E+00  0.14112619756E+04  0.14112619756E+04  0.50400001928E-02 0.  1.
        1   -1    0    0  501    0  0.00000000000E+00  0.00000000000E+00 -0.27054071382E+04  0.27054071382E+04  0.50400001928E-02 0. -1.
    10030    2    1    2    0    0  0.00000000000E+00  0.00000000000E+00 -0.12941451626E+04  0.41166691138E+04  0.39079601956E+04 0.  0.
        5    1    3    3  502    0 -0.17303763451E+04 -0.51808844943E+03  0.13797876324E+03  0.18115402745E+04  0.46999998093E+01 0.  1.
       -5    1    3    3    0  502  0.17303763451E+04  0.51808844943E+03 -0.14321239258E+04  0.23051288393E+04  0.46999998093E+01 0. -1.
</event>
<event>
 5   0  0.4750125E-08  0.3894303E+04  0.7818609E-02  0.8026215E-01
        1   -1    0    0  501    0  0.00000000000E+00  0.00000000000E+00  0.19114943900E+04  0.19114943900E+04  0.50400001928E-02 0. -1.
       -1   -1    0    0    0  501  0.00000000000E+00  0.00000000000E+00 -0.19834740885E+04  0.19834740885E+04  0.50400001928E-02 0.  1.
    10030    2    1    2    0    0  0.00000000000E+00  0.00000000000E+00 -0.71979698522E+02  0.38949684785E+04  0.38943033230E+04 0.  0.
        4    1    3    3  502    0  0.12018221043E+03  0.11856867565E+04 -0.15760908782E+04  0.19759455756E+04  0.12699999809E+01 0.  1.
       -4    1    3    3    0  502 -0.12018221043E+03 -0.11856867565E+04  0.15041111797E+04  0.19190229029E+04  0.12699999809E+01 0. -1.
</event>
<event>
 5   0  0.1501585E-07  0.3920387E+04  0.7818609E-02  0.8020802E-01
        2   -1    0    0  501    0  0.00000000000E+00  0.00000000000E+00  0.21608207750E+04  0.21608207750E+04  0.25500000920E-02 0. -1.
       -2   -1    0    0    0  501  0.00000000000E+00  0.00000000000E+00 -0.17781943319E+04  0.17781943319E+04  0.25500000920E-02 0.  1.
    10030    2    1    2    0    0  0.00000000000E+00  0.00000000000E+00  0.38262644305E+03  0.39390151069E+04  0.39203873555E+04 0.  0.
        5    1    3    3  502    0 -0.18789393359E+04  0.14626299377E+02 -0.36964972907E+03  0.19150169631E+04  0.46999998093E+01 0. -1.
       -5    1    3    3    0  502  0.18789393359E+04 -0.14626299377E+02  0.75227617212E+03  0.20239981438E+04  0.46999998093E+01 0.  1.
</event>
<event>
 5   0  0.1546846E-07  0.3818363E+04  0.7818609E-02  0.8042226E-01
       -2   -1    0    0    0  501  0.00000000000E+00  0.00000000000E+00  0.14594657382E+04  0.14594657382E+04  0.25500000920E-02 0.  1.
        2   -1    0    0  501    0  0.00000000000E+00  0.00000000000E+00 -0.24974707877E+04  0.24974707877E+04  0.25500000920E-02 0. -1.
    10030    2    1    2    0    0  0.00000000000E+00  0.00000000000E+00 -0.10380050495E+04  0.39569365259E+04  0.38183625007E+04 0.  0.
        2    1    3    3  502    0  0.26835238040E+03 -0.18768067671E+04 -0.28599495933E+03  0.19173444547E+04  0.25500000920E-02 0.  1.
       -2    1    3    3    0  502 -0.26835238040E+03  0.18768067671E+04 -0.75201009013E+03  0.20395920712E+04  0.25500000920E-02 0. -1.
</event>
<event>
 5   0  0.1503228E-07  0.3930803E+04  0.7818609E-02  0.8018653E-01
        2   -1    0    0  501    0  0.00000000000E+00  0.00000000000E+00  0.22831265946E+04  0.22831265946E+04  0.25500000920E-02 0.  1.
       -2   -1    0    0    0  501  0.00000000000E+00  0.00000000000E+00 -0.16918919882E+04  0.16918919882E+04  0.25500000920E-02 0. -1.
    10030    2    1    2    0    0  0.00000000000E+00  0.00000000000E+00  0.59123460646E+03  0.39750185828E+04  0.39308032733E+04 0.  0.
        3    1    3    3  502    0  0.89733766901E+03  0.10576873080E+04  0.17037189927E+04  0.21969469156E+04  0.10100000352E+00 0.  1.
       -3    1    3    3    0  502 -0.89733766901E+03 -0.10576873080E+04 -0.11124843863E+04  0.17780716672E+04  0.10100000352E+00 0. -1.
</event>
<event>
 5   0  0.1546846E-07  0.3798927E+04  0.7818609E-02  0.8046385E-01
       -2   -1    0    0    0  501  0.00000000000E+00  0.00000000000E+00  0.18012282214E+04  0.18012282214E+04  0.25500000920E-02 0. -1.
        2   -1    0    0  501    0  0.00000000000E+00  0.00000000000E+00 -0.20030563721E+04  0.20030563721E+04  0.25500000920E-02 0.  1.
    10030    2    1    2    0    0  0.00000000000E+00  0.00000000000E+00 -0.20182815067E+03  0.38042845936E+04  0.37989270415E+04 0.  0.
        2    1    3    3  502    0 -0.90838747070E+02 -0.10323810645E+04 -0.16949816343E+04  0.19867121284E+04  0.25500000920E-02 0.  1.
       -2    1    3    3    0  502  0.90838747070E+02  0.10323810645E+04  0.14931534837E+04  0.18175724652E+04  0.25500000920E-02 0. -1.
</event>
<event>
 5   0  0.1503228E-07  0.3908305E+04  0.7818609E-02  0.8023304E-01
        2   -1    0    0  501    0  0.00000000000E+00  0.00000000000E+00  0.21607982694E+04  0.21607982694E+04  0.25500000920E-02 0. -1.
       -2   -1    0    0    0  501  0.00000000000E+00  0.00000000000E+00 -0.17672691488E+04  0.17672691488E+04  0.25500000920E-02 0.  1.
    10030    2    1    2    0    0  0.00000000000E+00  0.00000000000E+00  0.39352912060E+03  0.39280674182E+04  0.39083050640E+04 0.  0.
        3    1    3    3  502    0 -0.62595360554E+03 -0.17099664381E+04  0.90951118565E+03  0.20354394470E+04  0.10100000352E+00 0. -1.
       -3    1    3    3    0  502  0.62595360554E+03  0.17099664381E+04 -0.51598206505E+03  0.18926279712E+04  0.10100000352E+00 0.  1.
</event>
<event>
 5   0  0.1501585E-07  0.3750385E+04  0.7818609E-02  0.8056887E-01
        2   -1    0    0  501    0  0.00000000000E+00  0.00000000000E+00  0.22288230653E+04  0.22288230653E+04  0.25500000920E-02 0.  1.
       -2   -1    0    0    0  501  0.00000000000E+00  0.00000000000E+00 -0.15776694436E+04  0.15776694436E+04  0.25500000920E-02 0. -1.
    10030    2    1    2    0    0  0.00000000000E+00  0.00000000000E+00  0.65115362172E+03  0.38064925089E+04  0.37503845377E+04 0.  0.
        5    1    3    3  502    0  0.15292988378E+04 -0.32296038073E+03  0.13770610984E+04  0.20831173038E+04  0.46999998093E+01 0.  1.
       -5    1    3    3    0  502 -0.15292988378E+04  0.32296038073E+03 -0.72590747668E+03  0.17233752051E+04  0.46999998093E+01 0. -1.
</event>
<event>
 5   0  0.1520986E-07  0.3916725E+04  0.7818609E-02  0.8021560E-01
       -2   -1    0    0    0  501  0.00000000000E+00  0.00000000000E+00  0.15332768336E+04  0.15332768336E+04  0.25500000920E-02 0.  1.
        2   -1    0    0  501    0  0.00000000000E+00  0.00000000000E+00 -0.25012993557E+04  0.25012993557E+04  0.25500000920E-02 0. -1.
    10030    2    1    2    0    0  0.00000000000E+00  0.00000000000E+00 -0.96802252213E+03  0.40345761893E+04  0.39167253445E+04 0.  0.
        4    1    3    3  502    0 -0.46562077776E+03  0.10202869690E+04  0.11697212127E+04  0.16205053336E+04  0.12699999809E+01 0.  1.
       -4    1    3    3    0  502  0.46562077776E+03 -0.10202869690E+04 -0.21377437349E+04  0.24140708558E+04  0.12699999809E+01 0. -1.
</event>
<event>
 5   0  0.1520986E-07  0.3798969E+04  0.7818609E-02  0.8046376E-01
        2   -1    0    0  501    0  0.00000000000E+00  0.00000000000E+00  0.20474870819E+04  0.20474870819E+04  0.25500000920E-02 0.  1.
       -2   -1    0    0    0  501  0.00000000000E+00  0.00000000000E+00 -0.17621801232E+04  0.17621801232E+04  0.25500000920E-02 0. -1.
    10030    2    1    2    0    0  0.00000000000E+00  0.00000000000E+00  0.28530695871E+03  0.38096672051E+04  0.37989688275E+04 0.  0.
        4    1    3    3  502    0  0.37042090629E+03 -0.10709113608E+04 -0.13860990482E+04  0.17903449318E+04  0.12699999809E+01 0. -1.
       -4    1    3    3    0  502 -0.37042090629E+03  0.10709113608E+04  0.16714060069E+04  0.20193222733E+04  0.12699999809E+01 0.  1.
</event>
<event>
 5   0  0.4750125E-08  0.3895891E+04  0.7818609E-02  0.8025884E-01
        1   -1    0    0  501    0  0.00000000000E+00  0.00000000000E+00  0.29028276406E+04  0.29028276406E+04  0.50400001928E-02 0. -1.
       -1   -1    0    0    0  501  0.00000000000E+00  0.00000000000E+00 -0.13071711734E+04  0.13071711734E+04  0.50400001928E-02 0.  1.
    10030    2    1    2    0    0  0.00000000000E+00  0.00000000000E+00  0.15956564671E+04  0.42099988140E+04  0.38958914837E+04 0.  0.
        1    1    3    3  502    0 -0.11295620701E+04 -0.80627888022E+03 -0.67931043585E+03  0.15451403726E+04  0.50400001928E-02 0.  1.
       -1    1    3    3    0  502  0.11295620701E+04  0.80627888022E+03  0.22749669030E+04  0.26648584414E+04  0.50400001928E-02 0. -1.
</event>
<event>
 5   0  0.1546846E-07  0.3907826E+04  0.7818609E-02  0.8023404E-01
       -2   -1    0    0    0  501  0.00000000000E+00  0.00000000000E+00  0.22852772505E+04  0.22852772505E+04  0.25500000920E-02 0.  1.
        2   -1    0    0  501    0  0.00000000000E+00  0.00000000000E+00 -0.16705963306E+04  0.16705963306E+04  0.25500000920E-02 0. -1.
    10030    2    1    2    0    0  0.00000000000E+00  0.00000000000E+00  0.61468091988E+03  0.39558735811E+04  0.39078258862E+04 0.  0.
        2    1    3    3  502    0  0.16343783616E+04 -0.37474709597E+03 -0.70806170333E+03  0.18201591662E+04  0.25500000920E-02 0. -1.
       -2    1    3    3    0  502 -0.16343783616E+04  0.37474709597E+03  0.13227426232E+04  0.21357144149E+04  0.25500000920E-02 0.  1.
</event>
<event>
 5   0  0.4750125E-08  0.3845209E+04  0.7818609E-02  0.8036522E-01
       -1   -1    0    0    0  501  0.00000000000E+00  0.00000000000E+00  0.12354103622E+04  0.12354103623E+04  0.50400001928E-02 0.  1.
        1   -1    0    0  501    0  0.00000000000E+00  0.00000000000E+00 -0.29920481857E+04  0.29920481857E+04  0.50400001928E-02 0. -1.
    10030    2    1    2    0    0  0.00000000000E+00  0.00000000000E+00 -0.17566378234E+04  0.42274585480E+04  0.38452086201E+04 0.  0.
        5    1    3    3  502    0  0.86857763861E+03  0.10440605103E+04 -0.23744433661E+04  0.27354145668E+04  0.46999998093E+01 0. -1.
       -5    1    3    3    0  502 -0.86857763861E+03 -0.10440605103E+04  0.61780554261E+03  0.14920439812E+04  0.46999998093E+01 0.  1.
</event>
<event>
 5   0  0.4750125E-08  0.3921928E+04  0.7818609E-02  0.8020484E-01
       -1   -1    0    0    0  501  0.00000000000E+00  0.00000000000E+00  0.26659380180E+04  0.26659380180E+04  0.50400001928E-02 0.  1.
        1   -1    0    0  501    0  0.00000000000E+00  0.00000000000E+00 -0.14424117951E+04  0.14424117951E+04  0.50400001928E-02 0. -1.
    10030    2    1    2    0    0  0.00000000000E+00  0.00000000000E+00  0.12235262229E+04  0.41083498131E+04  0.39219283227E+04 0.  0.
        1    1    3    3  502    0  0.18442922178E+04  0.65524259743E+03  0.73844012688E+03  0.20919011609E+04  0.50400001928E-02 0.  1.
       -1    1    3    3    0  502 -0.18442922178E+04 -0.65524259743E+03  0.48508609601E+03  0.20164486521E+04  0.50400001928E-02 0. -1.
</event>
<event>
 5   0  0.4750125E-08  0.3873262E+04  0.7818609E-02  0.8030613E-01
        1   -1    0    0  501    0  0.00000000000E+00  0.00000000000E+00  0.23790938496E+04  0.23790938496E+04  0.50400001928E-02 0. -1.
       -1   -1    0    0    0  501  0.00000000000E+00  0.00000000000E+00 -0.15764571331E+04  0.15764571331E+04  0.50400001928E-02 0.  1.
    10030    2    1    2    0    0  0.00000000000E+00  0.00000000000E+00  0.80263671650E+03  0.39555509827E+04  0.38732619170E+04 0.  0.
        5    1    3    3  502    0  0.16093775665E+04 -0.48093139367E+03 -0.58307229020E+03  0.17780288363E+04  0.46999998093E+01 0.  1.
       -5    1    3    3    0  502 -0.16093775665E+04  0.48093139367E+03  0.13857090067E+04  0.21775221464E+04  0.46999998093E+01 0. -1.
</event>
<event>
 5   0  0.1538018E-07  0.3888405E+04  0.7818609E-02  0.8027445E-01
        2   -1    0    0  501    0  0.00000000000E+00  0.00000000000E+00  0.15161017351E+04  0.15161017351E+04  0.25500000920E-02 0.  1.
       -2   -1    0    0    0  501  0.00000000000E+00  0.00000000000E+00 -0.24931862427E+04  0.24931862427E+04  0.25500000920E-02 0. -1.
    10030    2    1    2    0    0  0.00000000000E+00  0.00000000000E+00 -0.97708450764E+03  0.40092879778E+04  0.38884053227E+04 0.  0.
        1    1    3    3  502    0 -0.61584876238E+03 -0.59047408228E+03  0.13127642067E+04  0.15656561572E+04  0.50400001928E-02 0.  1.
       -1    1    3    3    0  502  0.61584876238E+03  0.59047408228E+03 -0.22898487144E+04  0.24436318206E+04  0.50400001928E-02 0. -1.
</event>
<event>
 5   0  0.1503228E-07  0.3724516E+04  0.7818609E-02  0.8062550E-01
       -2   -1    0    0    0  501  0.00000000000E+00  0.00000000000E+00  0.15358412193E+04  0.15358412193E+04  0.25500000920E-02 0.  1.
        2   -1    0    0  501    0  0.00000000000E+00  0.00000000000E+00 -0.22580496161E+04  0.22580496161E+04  0.25500000920E-02 0. -1.
    10030    2    1    2    0    0  0.00000000000E+00  0.00000000000E+00 -0.72220839686E+03  0.37938908354E+04  0.37245164387E+04 0.  0.
        3    1    3    3  502    0  0.38873770922E+03  0.56919599463E+03 -0.21233292479E+04  0.22324041283E+04  0.10100000352E+00 0. -1.
       -3    1    3    3    0  502 -0.38873770922E+03 -0.56919599463E+03  0.14011208511E+04  0.15614867071E+04  0.10100000352E+00 0.  1.
</event>
<event>
 5   0  0.1501585E-07  0.3909760E+04  0.7818609E-02  0.8023002E-01
       -2   -1    0    0    0  501  0.00000000000E+00  0.00000000000E+00  0.16089525315E+04  0.16089525315E+04  0.25500000920E-02 0.  1.
        2   -1    0    0  501    0  0.00000000000E+00  0.00000000000E+00 -0.23751830505E+04  0.23751830505E+04  0.25500000920E-02 0. -1.
    10030    2    1    2    0    0  0.00000000000E+00  0.00000000000E+00 -0.76623051897E+03  0.39841355820E+04  0.39097604949E+04 0.  0.
        5    1    3    3  502    0 -0.76256072208E+03 -0.11799908225E+04 -0.17682585073E+04  0.22584590841E+04  0.46999998093E+01 0. -1.
       -5    1    3    3    0  502  0.76256072208E+03  0.11799908225E+04  0.10020279883E+04  0.17256764979E+04  0.46999998093E+01 0.  1.
</event>
<event>
 5   0  0.4750125E-08  0.3881529E+04  0.7818609E-02  0.8028882E-01
        3   -1    0    0  501    0  0.00000000000E+00  0.00000000000E+00  0.11665331498E+04  0.11665331541E+04  0.10100000352E+00 0. -1.
       -3   -1    0    0    0  501  0.00000000000E+00  0.00000000000E+00 -0.32288561895E+04  0.32288561911E+04  0.10100000352E+00 0.  1.
    10030    2    1    2    0    0  0.00000000000E+00  0.00000000000E+00 -0.20623230398E+04  0.43953893453E+04  0.38815294893E+04 0.  0.
        2    1    3    3  502    0 -0.16610846952E+04 -0.51451449598E+03 -0.55310081433E+02  0.17398237659E+04  0.25500000920E-02 0. -1.
       -2    1    3    3    0  502  0.16610846952E+04  0.51451449598E+03 -0.20070129583E+04  0.26555655794E+04  0.25500000920E-02 0.  1.
</event>
<event>
 5   0  0.1503228E-07  0.3914023E+04  0.7818609E-02  0.8022119E-01
       -2   -1    0    0    0  501  0.00000000000E+00  0.00000000000E+00  0.14687216128E+04  0.14687216128E+04  0.25500000920E-02 0.  1.
        2   -1    0    0  501    0  0.00000000000E+00  0.00000000000E+00 -0.26076383267E+04  0.26076383267E+04  0.25500000920E-02 0. -1.
    10030    2    1    2    0    0  0.00000000000E+00  0.00000000000E+00 -0.11389167139E+04  0.40763599394E+04  0.39140233871E+04 0.  0.
        3    1    3    3  502    0 -0.19271582668E+04 -0.33668456448E+03 -0.51636069347E+03  0.20233447203E+04  0.10100000352E+00 0.  1.
       -3    1    3    3    0  502  0.19271582668E+04  0.33668456448E+03 -0.62255602043E+03  0.20530152191E+04  0.10100000352E+00 0. -1.
</event>
<event>
 5   0  0.1520986E-07  0.3894827E+04  0.7818609E-02  0.8026106E-01
       -2   -1    0    0    0  501  0.00000000000E+00  0.00000000000E+00  0.14190639457E+04  0.14190639457E+04  0.25500000920E-02 0. -1.
        2   -1    0    0  501    0  0.00000000000E+00  0.00000000000E+00 -0.26724793908E+04  0.26724793908E+04  0.25500000920E-02 0.  1.
    10030    2    1    2    0    0  0.00000000000E+00  0.00000000000E+00 -0.12534154451E+04  0.40915433365E+04  0.38948269019E+04 0.  0.
        4    1    3    3  502    0  0.46207804105E+03 -0.15908432852E+04  0.44877714513E+03  0.17163044640E+04  0.12699999809E+01 0. -1.
       -4    1    3    3    0  502 -0.46207804105E+03  0.15908432852E+04 -0.17021925902E+04  0.23752388725E+04  0.12699999809E+01 0.  1.
</event>
<event>
 5   0  0.1501585E-07  0.3881864E+04  0.7818609E-02  0.8028812E-01
       -2   -1    0    0    0  501  0.00000000000E+00  0.00000000000E+00  0.20552140827E+04  0.20552140827E+04  0.25500000920E-02 0.  1.
        2   -1    0    0  501    0  0.00000000000E+00  0.00000000000E+00 -0.18330044272E+04  0.18330044272E+04  0.25500000920E-02 0. -1.
    10030    2    1    2    0    0  0.00000000000E+00  0.00000000000E+00  0.22220965551E+03  0.38882185099E+04  0.38818637340E+04 0.  0.
        5    1    3    3  502    0 -0.80041727985E+03 -0.75694579303E+03  0.17117069275E+04  0.20355828283E+04  0.46999998093E+01 0.  1.
       -5    1    3    3    0  502  0.80041727985E+03  0.75694579303E+03 -0.14894972720E+04  0.18526356816E+04  0.46999998093E+01 0. -1.
</event>
<event>
 5   0  0.4750125E-08  0.3909020E+04  0.7818609E-02  0.8023156E-01
        1   -1    0    0  501    0  0.00000000000E+00  0.00000000000E+00  0.18014273769E+04  0.18014273769E+04  0.50400001928E-02 0. -1.
       -1   -1    0    0    0  501  0.00000000000E+00  0.00000000000E+00 -0.21206009524E+04  0.21206009524E+04  0.50400001928E-02 0.  1.
    10030    2    1    2    0    0  0.00000000000E+00  0.00000000000E+00 -0.31917357545E+03  0.39220283293E+04  0.39090196270E+04 0.  0.
        5    1    3    3  502    0 -0.61725662142E+02  0.19079370780E+04  0.26139572903E+03  0.19267547244E+04  0.46999998093E+01 0.  1.
       -5    1    3    3    0  502  0.61725662142E+02 -0.19079370780E+04 -0.58056930448E+03  0.19952736049E+04  0.46999998093E+01 0. -1.
</event>
<event>
 5   0  0.1503228E-07  0.3886873E+04  0.7818609E-02  0.8027765E-01
        2   -1    0    0  501    0  0.00000000000E+00  0.00000000000E+00  0.28021034983E+04  0.28021034983E+04  0.25500000920E-02 0.  1.
       -2   -1    0    0    0  501  0.00000000000E+00  0.00000000000E+00 -0.13478963093E+04  0.13478963093E+04  0.25500000920E-02 0. -1.
    10030    2    1    2    0    0  0.00000000000E+00  0.00000000000E+00  0.14542071889E+04  0.41499998076E+04  0.38868727603E+04 0.  0.
        3    1    3    3  502    0  0.89966297219E+03  0.15812982425E+03 -0.11044069197E+04  0.14332177641E+04  0.10100000352E+00 0. -1.
       -3    1    3    3    0  502 -0.89966297219E+03 -0.15812982425E+03  0.25586141086E+04  0.27167820435E+04  0.10100000352E+00 0.  1.
</event>
<event>
 5   0  0.1538018E-07  0.3910569E+04  0.7818609E-02  0.8022835E-01
       -2   -1    0    0    0  501  0.00000000000E+00  0.00000000000E+00  0.17970849940E+04  0.17970849940E+04  0.25500000920E-02 0. -1.
        2   -1    0    0  501    0  0.00000000000E+00  0.00000000000E+00 -0.21274105074E+04  0.21274105074E+04  0.25500000920E-02 0.  1.
    10030    2    1    2    0    0  0.00000000000E+00  0.00000000000E+00 -0.33032551338E+03  0.39244955014E+04  0.39105690117E+04 0.  0.
        1    1    3    3  502    0  0.17707752640E+04  0.80630602577E+03  0.28820870687E+02  0.19459201128E+04  0.50400001928E-02 0. -1.
       -1    1    3    3    0  502 -0.17707752640E+04 -0.80630602577E+03 -0.35914638407E+03  0.19785753885E+04  0.50400001928E-02 0.  1.
</event>
<event>
 5   0  0.1520986E-07  0.3871514E+04  0.7818609E-02  0.8030980E-01
       -2   -1    0    0    0  501  0.00000000000E+00  0.00000000000E+00  0.25292552938E+04  0.25292552938E+04  0.25500000920E-02 0.  1.
        2   -1    0    0  501    0  0.00000000000E+00  0.00000000000E+00 -0.14815250057E+04  0.14815250057E+04  0.25500000920E-02 0. -1.
    10030    2    1    2    0    0  0.00000000000E+00  0.00000000000E+00  0.10477302881E+04  0.40107802996E+04  0.38715138970E+04 0.  0.
        4    1    3    3  502    0 -0.74695269892E+03  0.43236598484E+03  0.23189015525E+04  0.24743048928E+04  0.12699999809E+01 0.  1.
       -4    1    3    3    0  502  0.74695269892E+03 -0.43236598484E+03 -0.12711712644E+04  0.15364754068E+04  0.12699999809E+01 0. -1.
</event>
<event>
 5   0  0.1538018E-07  0.3856746E+04  0.7818609E-02  0.8034086E-01
       -2   -1    0    0    0  501  0.00000000000E+00  0.00000000000E+00  0.18477254690E+04  0.18477254690E+04  0.25500000920E-02 0.  1.
        2   -1    0    0  501    0  0.00000000000E+00  0.00000000000E+00 -0.20125404477E+04  0.20125404477E+04  0.25500000920E-02 0. -1.
    10030    2    1    2    0    0  0.00000000000E+00  0.00000000000E+00 -0.16481497863E+03  0.38602659167E+04  0.38567459043E+04 0.  0.
        1    1    3    3  502    0 -0.17924373511E+04 -0.71088584369E+03 -0.61606262463E+02  0.19292448450E+04  0.50400001928E-02 0. -1.
       -1    1    3    3    0  502  0.17924373511E+04  0.71088584369E+03 -0.10320871617E+03  0.19310210717E+04  0.50400001928E-02 0.  1.
</event>
<event>
 5   0  0.1503228E-07  0.3916987E+04  0.7818609E-02  0.8021506E-01
       -2   -1    0    0    0  501  0.00000000000E+00  0.00000000000E+00  0.21812911995E+04  0.21812911995E+04  0.25500000920E-02 0.  1.
        2   -1    0    0  501    0  0.00000000000E+00  0.00000000000E+00 -0.17584522174E+04  0.17584522174E+04  0.25500000920E-02 0. -1.
    10030    2    1    2    0    0  0.00000000000E+00  0.00000000000E+00  0.42283898216E+03  0.39397434169E+04  0.39169867738E+04 0.  0.
        3    1    3    3  502    0  0.25803122213E+03 -0.18553899117E+04  0.78626813155E+03  0.20315682172E+04  0.10100000352E+00 0.  1.
       -3    1    3    3    0  502 -0.25803122213E+03  0.18553899117E+04 -0.36342914939E+03  0.19081751997E+04  0.10100000352E+00 0. -1.
</event>
<event>
 5   0  0.1546846E-07  0.3916618E+04  0.7818609E-02  0.8021582E-01
       -2   -1    0    0    0  501  0.00000000000E+00  0.00000000000E+00  0.32089081062E+04  0.32089081062E+04  0.25500000920E-02 0.  1.
        2   -1    0    0  501    0  0.00000000000E+00  0.00000000000E+00 -0.11951022473E+04  0.11951022473E+04  0.25500000920E-02 0. -1.
    10030    2    1    2    0    0  0.00000000000E+00  0.00000000000E+00  0.20138058589E+04  0.44040103535E+04  0.39166175658E+04 0.  0.
        2    1    3    3  502    0 -0.18614285893E+04 -0.23245891782E+03  0.37479058033E+03  0.19129614530E+04  0.25500000920E-02 0. -1.
       -2    1    3    3    0  502  0.18614285893E+04  0.23245891782E+03  0.16390152786E+04  0.24910489005E+04  0.25500000920E-02 0.  1.
</event>
<event>
 5   0  0.1538018E-07  0.3944653E+04  0.7818609E-02  0.8015806E-01
       -2   -1    0    0    0  501  0.00000000000E+00  0.00000000000E+00  0.19672048203E+04  0.19672048203E+04  0.25500000920E-02 0.  1.
        2   -1    0    0  501    0  0.00000000000E+00  0.00000000000E+00 -0.19774616708E+04  0.19774616708E+04  0.25500000920E-02 0. -1.
    10030    2    1    2    0    0  0.00000000000E+00  0.00000000000E+00 -0.10256850524E+02  0.39446664912E+04  0.39446531563E+04 0.  0.
        1    1    3    3  502    0 -0.19486396465E+04  0.19514439654E+02  0.29900225557E+03  0.19715424505E+04  0.50400001928E-02 0.  1.
       -1    1    3    3    0  502  0.19486396465E+04 -0.19514439654E+02 -0.30925910609E+03  0.19731240407E+04  0.50400001928E-02 0. -1.
</event>
<event>
 5   0  0.1546846E-07  0.3709927E+04  0.7818609E-02  0.8065765E-01
        2   -1    0    0  501    0  0.00000000000E+00  0.00000000000E+00  0.20631639717E+04  0.20631639717E+04  0.25500000920E-02 0.  1.
       -2   -1    0    0    0  501  0.00000000000E+00  0.00000000000E+00 -0.16677731359E+04  0.16677731359E+04  0.25500000920E-02 0. -1.
    10030    2    1    2    0    0  0.00000000000E+00  0.00000000000E+00  0.39539083575E+03  0.37309371076E+04  0.37099269249E+04 0.  0.
        2    1    3    3  502    0 -0.11317368176E+04  0.29510652931E+03 -0.12502408061E+04  0.17120216591E+04  0.25500000920E-02 0. -1.
       -2    1    3    3    0  502  0.11317368176E+04 -0.29510652931E+03  0.16456316418E+04  0.20189154486E+04  0.25500000920E-02 0.  1.
</event>
<event>
 5   0  0.4750125E-08  0.3800502E+04  0.7818609E-02  0.8046047E-01
        1   -1    0    0  501    0  0.00000000000E+00  0.00000000000E+00  0.16255465602E+04  0.16255465602E+04  0.50400001928E-02 0.  1.
       -1   -1    0    0    0  501  0.00000000000E+00  0.00000000000E+00 -0.22213783939E+04  0.22213783939E+04  0.50400001928E-02 0. -1.
    10030    2    1    2    0    0  0.00000000000E+00  0.00000000000E+00 -0.59583183373E+03  0.38469249541E+04  0.38005020759E+04 0.  0.
        1    1    3    3  502    0  0.13174987114E+04 -0.10840803385E+04 -0.11447478832E+04  0.20546242360E+04  0.50400001928E-02 0.  1.
       -1    1    3    3    0  502 -0.13174987114E+04  0.10840803385E+04  0.54891604948E+03  0.17923007182E+04  0.50400001928E-02 0. -1.
</event>
<event>
 5   0  0.4762788E-08  0.3916128E+04  0.7818609E-02  0.8021683E-01
        1   -1    0    0  501    0  0.00000000000E+00  0.00000000000E+00  0.16006392924E+04  0.16006392924E+04  0.50400001928E-02 0. -1.
       -1   -1    0    0    0  501  0.00000000000E+00  0.00000000000E+00 -0.23953024266E+04  0.23953024266E+04  0.50400001928E-02 0.  1.
    10030    2    1    2    0    0  0.00000000000E+00  0.00000000000E+00 -0.79466313423E+03  0.39959417191E+04  0.39161282825E+04 0.  0.
        2    1    3    3  502    0 -0.37971524583E+03 -0.78154982540E+03 -0.21878050067E+04  0.23540379234E+04  0.25500000920E-02 0.  1.
       -2    1    3    3    0  502  0.37971524583E+03  0.78154982540E+03  0.13931418724E+04  0.16419037957E+04  0.25500000920E-02 0. -1.
</event>
<event>
 5   0  0.4750125E-08  0.3908690E+04  0.7818609E-02  0.8023224E-01
       -1   -1    0    0    0  501  0.00000000000E+00  0.00000000000E+00  0.26990877949E+04  0.26990877949E+04  0.50400001928E-02 0. -1.
        1   -1    0    0  501    0  0.00000000000E+00  0.00000000000E+00 -0.14150947122E+04  0.14150947122E+04  0.50400001928E-02 0.  1.
    10030    2    1    2    0    0  0.00000000000E+00  0.00000000000E+00  0.12839930827E+04  0.41141825070E+04  0.39086902493E+04 0.  0.
        4    1    3    3  502    0 -0.11499487162E+04  0.14891789875E+04  0.85597214336E+02  0.18834448764E+04  0.12699999809E+01 0.  1.
       -4    1    3    3    0  502  0.11499487162E+04 -0.14891789875E+04  0.11983958684E+04  0.22307376306E+04  0.12699999809E+01 0. -1.
</event>
<event>
 5   0  0.4750125E-08  0.3904567E+04  0.7818609E-02  0.8024080E-01
        3   -1    0    0  501    0  0.00000000000E+00  0.00000000000E+00  0.19266141328E+04  0.19266141354E+04  0.10100000352E+00 0.  1.
       -3   -1    0    0    0  501  0.00000000000E+00  0.00000000000E+00 -0.19782948521E+04  0.19782948547E+04  0.10100000352E+00 0. -1.
    10030    2    1    2    0    0  0.00000000000E+00  0.00000000000E+00 -0.51680719328E+02  0.39049089901E+04  0.39045669829E+04 0.  0.
        5    1    3    3  502    0 -0.19026651475E+04 -0.37321607652E+03 -0.25381610709E+03  0.19554717102E+04  0.46999998093E+01 0.  1.
       -5    1    3    3    0  502  0.19026651475E+04  0.37321607652E+03  0.20213538776E+03  0.19494372799E+04  0.46999998093E+01 0. -1.
</event>
<event>
 5   0  0.1503228E-07  0.3977417E+04  0.7818609E-02  0.8009118E-01
       -2   -1    0    0    0  501  0.00000000000E+00  0.00000000000E+00  0.16561491634E+04  0.16561491634E+04  0.25500000920E-02 0.  1.
        2   -1    0    0  501    0  0.00000000000E+00  0.00000000000E+00 -0.23880466394E+04  0.23880466394E+04  0.25500000920E-02 0. -1.
    10030    2    1    2    0    0  0.00000000000E+00  0.00000000000E+00 -0.73189747597E+03  0.40441958028E+04  0.39774169729E+04 0.  0.
        3    1    3    3  502    0  0.48478175714E+03 -0.67436578887E+03 -0.22032676264E+04  0.23546062968E+04  0.10100000352E+00 0. -1.
       -3    1    3    3    0  502 -0.48478175714E+03  0.67436578887E+03  0.14713701504E+04  0.16895895060E+04  0.10100000352E+00 0.  1.
</event>
<event>
 5   0  0.1503228E-07  0.3881780E+04  0.7818609E-02  0.8028829E-01
       -2   -1    0    0    0  501  0.00000000000E+00  0.00000000000E+00  0.18033964033E+04  0.18033964033E+04  0.25500000920E-02 0.  1.
        2   -1    0    0  501    0  0.00000000000E+00  0.00000000000E+00 -0.20888662640E+04  0.20888662640E+04  0.25500000920E-02 0. -1.
    10030    2    1    2    0    0  0.00000000000E+00  0.00000000000E+00 -0.28546986076E+03  0.38922626673E+04  0.38817799564E+04 0.  0.
        3    1    3    3  502    0  0.19875770706E+03 -0.44040371493E+02 -0.20781312298E+04  0.20880789254E+04  0.10100000352E+00 0. -1.
       -3    1    3    3    0  502 -0.19875770706E+03  0.44040371493E+02  0.17926613690E+04  0.18041837419E+04  0.10100000352E+00 0.  1.
</event>
<event>
 5   0  0.4750125E-08  0.3938602E+04  0.7818609E-02  0.8017048E-01
       -1   -1    0    0    0  501  0.00000000000E+00  0.00000000000E+00  0.23458457741E+04  0.23458457741E+04  0.50400001928E-02 0. -1.
        1   -1    0    0  501    0  0.00000000000E+00  0.00000000000E+00 -0.16531976643E+04  0.16531976643E+04  0.50400001928E-02 0.  1.
    10030    2    1    2    0    0  0.00000000000E+00  0.00000000000E+00  0.69264810983E+03  0.39990434384E+04  0.39386021655E+04 0.  0.
        3    1    3    3  502    0 -0.13716561272E+04  0.62783442765E+03  0.16316613526E+04  0.22221465702E+04  0.10100000352E+00 0. -1.
       -3    1    3    3    0  502  0.13716561272E+04 -0.62783442765E+03 -0.93901324274E+03  0.17768968682E+04  0.10100000352E+00 0.  1.
</event>
<event>
 5   0  0.4750125E-08  0.3901742E+04  0.7818609E-02  0.8024667E-01
        1   -1    0    0  501    0  0.00000000000E+00  0.00000000000E+00  0.26161270203E+04  0.26161270203E+04  0.50400001928E-02 0.  1.
       -1   -1    0    0    0  501  0.00000000000E+00  0.00000000000E+00 -0.14547834648E+04  0.14547834648E+04  0.50400001928E-02 0. -1.
    10030    2    1    2    0    0  0.00000000000E+00  0.00000000000E+00  0.11613435555E+04  0.40709104850E+04  0.39017423446E+04 0.  0.
        4    1    3    3  502    0 -0.15329153330E+04  0.48524783321E+03  0.17333815530E+04  0.23642986484E+04  0.12699999809E+01 0.  1.
       -4    1    3    3    0  502  0.15329153330E+04 -0.48524783321E+03 -0.57203799746E+03  0.17066118367E+04  0.12699999809E+01 0. -1.
</event>
<event>
 5   0  0.4750125E-08  0.3924565E+04  0.7818609E-02  0.8019940E-01
        3   -1    0    0  501    0  0.00000000000E+00  0.00000000000E+00  0.25812229227E+04  0.25812229247E+04  0.10100000352E+00 0.  1.
       -3   -1    0    0    0  501  0.00000000000E+00  0.00000000000E+00 -0.14917548556E+04  0.14917548591E+04  0.10100000352E+00 0. -1.
    10030    2    1    2    0    0  0.00000000000E+00  0.00000000000E+00  0.10894680671E+04  0.40729777837E+04  0.39245646074E+04 0.  0.
        3    1    3    3  502    0  0.90722697826E+03 -0.55043261811E+03 -0.11682967116E+04  0.15782756647E+04  0.10100000352E+00 0. -1.
       -3    1    3    3    0  502 -0.90722697826E+03  0.55043261811E+03  0.22577647786E+04  0.24947021191E+04  0.10100000352E+00 0.  1.
</event>
<event>
 5   0  0.1520986E-07  0.3844709E+04  0.7818609E-02  0.8036628E-01
        2   -1    0    0  501    0  0.00000000000E+00  0.00000000000E+00  0.21813849709E+04  0.21813849709E+04  0.25500000920E-02 0.  1.
       -2   -1    0    0    0  501  0.00000000000E+00  0.00000000000E+00 -0.16940827984E+04  0.16940827984E+04  0.25500000920E-02 0. -1.
    10030    2    1    2    0    0  0.00000000000E+00  0.00000000000E+00  0.48730217249E+03  0.38754677694E+04  0.38447089648E+04 0.  0.
        4    1    3    3  502    0 -0.33764374438E+03  0.13584799121E+04 -0.10844535383E+04  0.17707377161E+04  0.12699999809E+01 0. -1.
       -4    1    3    3    0  502  0.33764374438E+03 -0.13584799121E+04  0.15717557107E+04  0.21047300532E+04  0.12699999809E+01 0.  1.
</event>
<event>
 5   0  0.1520986E-07  0.3896417E+04  0.7818609E-02  0.8025775E-01
        2   -1    0    0  501    0  0.00000000000E+00  0.00000000000E+00  0.16252194177E+04  0.16252194177E+04  0.25500000920E-02 0. -1.
       -2   -1    0    0    0  501  0.00000000000E+00  0.00000000000E+00 -0.23353868240E+04  0.23353868240E+04  0.25500000920E-02 0.  1.
    10030    2    1    2    0    0  0.00000000000E+00  0.00000000000E+00 -0.71016740625E+03  0.39606062417E+04  0.38964168228E+04 0.  0.
        4    1    3    3  502    0 -0.23707066240E+03  0.15709762046E+03  0.16040053129E+04  0.16290232712E+04  0.12699999809E+01 0. -1.
       -4    1    3    3    0  502  0.23707066240E+03 -0.15709762046E+03 -0.23141727192E+04  0.23315829705E+04  0.12699999809E+01 0.  1.
</event>
<event>
 5   0  0.1503228E-07  0.3671280E+04  0.7818609E-02  0.8074356E-01
        2   -1    0    0  501    0  0.00000000000E+00  0.00000000000E+00  0.15435444093E+04  0.15435444093E+04  0.25500000920E-02 0. -1.
       -2   -1    0    0    0  501  0.00000000000E+00  0.00000000000E+00 -0.21830113229E+04  0.21830113229E+04  0.25500000920E-02 0.  1.
    10030    2    1    2    0    0  0.00000000000E+00  0.00000000000E+00 -0.63946691359E+03  0.37265557321E+04  0.36712803885E+04 0.  0.
        3    1    3    3  502    0 -0.49260435536E+03  0.37960830662E+03  0.14333520877E+04  0.15624531145E+04  0.10100000352E+00 0. -1.
       -3    1    3    3    0  502  0.49260435536E+03 -0.37960830662E+03 -0.20728190013E+04  0.21641026177E+04  0.10100000352E+00 0.  1.
</event>
<event>
 5   0  0.4750125E-08  0.3962500E+04  0.7818609E-02  0.8012154E-01
        1   -1    0    0  501    0  0.00000000000E+00  0.00000000000E+00  0.11432785144E+04  0.11432785144E+04  0.50400001928E-02 0.  1.
       -1   -1    0    0    0  501  0.00000000000E+00  0.00000000000E+00 -0.34334169796E+04  0.34334169796E+04  0.50400001928E-02 0. -1.
    10030    2    1    2    0    0  0.00000000000E+00  0.00000000000E+00 -0.22901384652E+04  0.45766954941E+04  0.39625001521E+04 0.  0.
        1    1    3    3  502    0 -0.40408526301E+03  0.18211929472E+04 -0.19158314067E+04  0.26740304093E+04  0.50400001928E-02 0. -1.
       -1    1    3    3    0  502  0.40408526301E+03 -0.18211929472E+04 -0.37430705845E+03  0.19026650848E+04  0.50400001928E-02 0.  1.
</event>
<event>
 5   0  0.1520986E-07  0.3904829E+04  0.7818609E-02  0.8024026E-01
        2   -1    0    0  501    0  0.00000000000E+00  0.00000000000E+00  0.13697046551E+04  0.13697046551E+04  0.25500000920E-02 0. -1.
       -2   -1    0    0    0  501  0.00000000000E+00  0.00000000000E+00 -0.27830256773E+04  0.27830256773E+04  0.25500000920E-02 0.  1.
    10030    2    1    2    0    0  0.00000000000E+00  0.00000000000E+00 -0.14133210221E+04  0.41527303324E+04  0.39048294332E+04 0.  0.
        4    1    3    3  502    0  0.16294865416E+04  0.89498277724E+03 -0.72390414363E+02  0.18605006170E+04  0.12699999809E+01 0. -1.
       -4    1    3    3    0  502 -0.16294865416E+04 -0.89498277724E+03 -0.13409306077E+04  0.22922297154E+04  0.12699999809E+01 0.  1.
</event>
<event>
 5   0  0.4750125E-08  0.3921284E+04  0.7818609E-02  0.8020617E-01
        1   -1    0    0  501    0  0.00000000000E+00  0.00000000000E+00  0.20577442153E+04  0.20577442153E+04  0.50400001928E-02 0. -1.
       -1   -1    0    0    0  501  0.00000000000E+00  0.00000000000E+00 -0.18681215250E+04  0.18681215250E+04  0.50400001928E-02 0.  1.
    10030    2    1    2    0    0  0.00000000000E+00  0.00000000000E+00  0.18962269032E+03  0.39258657403E+04  0.39212835968E+04 0.  0.
        4    1    3    3  502    0  0.12500036033E+04 -0.78145711819E+03 -0.11993438868E+04  0.19004240599E+04  0.12699999809E+01 0.  1.
       -4    1    3    3    0  502 -0.12500036033E+04  0.78145711819E+03  0.13889665771E+04  0.20254416804E+04  0.12699999809E+01 0. -1.
</event>
<event>
 5   0  0.1538018E-07  0.3895093E+04  0.7818609E-02  0.8026051E-01
       -2   -1    0    0    0  501  0.00000000000E+00  0.00000000000E+00  0.14325429383E+04  0.14325429383E+04  0.25500000920E-02 0.  1.
        2   -1    0    0  501    0  0.00000000000E+00  0.00000000000E+00 -0.26476951945E+04  0.26476951945E+04  0.25500000920E-02 0. -1.
    10030    2    1    2    0    0  0.00000000000E+00  0.00000000000E+00 -0.12151522562E+04  0.40802381329E+04  0.38950928378E+04 0.  0.
        1    1    3    3  502    0  0.11981993458E+04  0.13203783412E+03 -0.22099322745E+04  0.25173232450E+04  0.50400001928E-02 0. -1.
       -1    1    3    3    0  502 -0.11981993458E+04 -0.13203783412E+03  0.99478001835E+03  0.15629148879E+04  0.50400001928E-02 0.  1.
</event>
<event>
 5   0  0.1501585E-07  0.3903376E+04  0.7818609E-02  0.8024327E-01
       -2   -1    0    0    0  501  0.00000000000E+00  0.00000000000E+00  0.14746047853E+04  0.14746047854E+04  0.25500000920E-02 0.  1.
        2   -1    0    0  501    0  0.00000000000E+00  0.00000000000E+00 -0.25831236957E+04  0.25831236957E+04  0.25500000920E-02 0. -1.
    10030    2    1    2    0    0  0.00000000000E+00  0.00000000000E+00 -0.11085189103E+04  0.40577284810E+04  0.39033762631E+04 0.  0.
        5    1    3    3  502    0  0.13079193591E+04 -0.10866166774E+03 -0.20558882618E+04  0.24390897981E+04  0.46999998093E+01 0. -1.
       -5    1    3    3    0  502 -0.13079193591E+04  0.10866166774E+03  0.94736935151E+03  0.16186386830E+04  0.46999998093E+01 0.  1.
</event>
<event>
 5   0  0.4750125E-08  0.3801151E+04  0.7818609E-02  0.8045908E-01
       -1   -1    0    0    0  501  0.00000000000E+00  0.00000000000E+00  0.35310023789E+04  0.35310023789E+04  0.50400001928E-02 0. -1.
        1   -1    0    0  501    0  0.00000000000E+00  0.00000000000E+00 -0.10229920006E+04  0.10229920006E+04  0.50400001928E-02 0.  1.
    10030    2    1    2    0    0  0.00000000000E+00  0.00000000000E+00  0.25080103783E+04  0.45539943795E+04  0.38011509770E+04 0.  0.
        1    1    3    3  502    0  0.17163508256E+04 -0.80539026325E+03  0.14132771502E+04  0.23647126540E+04  0.50400001928E-02 0.  1.
       -1    1    3    3    0  502 -0.17163508256E+04  0.80539026325E+03  0.10947332281E+04  0.21892817255E+04  0.50400001928E-02 0. -1.
</event>
<event>
 5   0  0.4750125E-08  0.3890505E+04  0.7818609E-02  0.8027007E-01
       -1   -1    0    0    0  501  0.00000000000E+00  0.00000000000E+00  0.16853347700E+04  0.16853347700E+04  0.50400001928E-02 0. -1.
        1   -1    0    0  501    0  0.00000000000E+00  0.00000000000E+00 -0.22452557227E+04  0.22452557227E+04  0.50400001928E-02 0.  1.
    10030    2    1    2    0    0  0.00000000000E+00  0.00000000000E+00 -0.55992095265E+03  0.39305904927E+04  0.38905051277E+04 0.  0.
        1    1    3    3  502    0 -0.11208037740E+04 -0.55911984032E+03 -0.17836474577E+04  0.21794986463E+04  0.50400001928E-02 0.  1.
       -1    1    3    3    0  502  0.11208037740E+04  0.55911984032E+03  0.12237265050E+04  0.17510918465E+04  0.50400001928E-02 0. -1.
</event>
<event>
 5   0  0.4750125E-08  0.3899627E+04  0.7818609E-02  0.8025107E-01
       -1   -1    0    0    0  501  0.00000000000E+00  0.00000000000E+00  0.21142703858E+04  0.21142703858E+04  0.50400001928E-02 0. -1.
        1   -1    0    0  501    0  0.00000000000E+00  0.00000000000E+00 -0.17981486577E+04  0.17981486577E+04  0.50400001928E-02 0.  1.
    10030    2    1    2    0    0  0.00000000000E+00  0.00000000000E+00  0.31612172810E+03  0.39124190434E+04  0.38996268827E+04 0.  0.
        4    1    3    3  502    0  0.94393088401E+03  0.12732136765E+04  0.12974323743E+04  0.20482702358E+04  0.12699999809E+01 0.  1.
       -4    1    3    3    0  502 -0.94393088401E+03 -0.12732136765E+04 -0.98131064620E+03  0.18641488077E+04  0.12699999809E+01 0. -1.
</event>
<event>
 5   0  0.1520986E-07  0.3962827E+04  0.7818609E-02  0.8012088E-01
       -2   -1    0    0    0  501  0.00000000000E+00  0.00000000000E+00  0.14163577618E+04  0.14163577618E+04  0.25500000920E-02 0.  1.
        2   -1    0    0  501    0  0.00000000000E+00  0.00000000000E+00 -0.27718982081E+04  0.27718982081E+04  0.25500000920E-02 0. -1.
    10030    2    1    2    0    0  0.00000000000E+00  0.00000000000E+00 -0.13555404463E+04  0.41882559700E+04  0.39628270424E+04 0.  0.
        4    1    3    3  502    0 -0.18502533417E+04 -0.31580451399E+02 -0.14262686986E+04  0.23363815542E+04  0.12699999809E+01 0. -1.
       -4    1    3    3    0  502  0.18502533417E+04  0.31580451399E+02  0.70728252277E+02  0.18518744158E+04  0.12699999809E+01 0.  1.
</event>
<event>
 5   0  0.4750125E-08  0.3750896E+04  0.7818609E-02  0.8056775E-01
        1   -1    0    0  501    0  0.00000000000E+00  0.00000000000E+00  0.18395484951E+04  0.18395484951E+04  0.50400001928E-02 0.  1.
       -1   -1    0    0    0  501  0.00000000000E+00  0.00000000000E+00 -0.19120480605E+04  0.19120480605E+04  0.50400001928E-02 0. -1.
    10030    2    1    2    0    0  0.00000000000E+00  0.00000000000E+00 -0.72499565435E+02  0.37515965556E+04  0.37508959635E+04 0.  0.
        1    1    3    3  502    0 -0.29842055576E+03  0.61750788574E+03 -0.17821228119E+04  0.19095372564E+04  0.50400001928E-02 0. -1.
       -1    1    3    3    0  502  0.29842055576E+03 -0.61750788574E+03  0.17096232464E+04  0.18420592992E+04  0.50400001928E-02 0.  1.
</event>
<event>
 5   0  0.1538018E-07  0.3954324E+04  0.7818609E-02  0.8013825E-01
        2   -1    0    0  501    0  0.00000000000E+00  0.00000000000E+00  0.15825828486E+04  0.15825828486E+04  0.25500000920E-02 0. -1.
       -2   -1    0    0    0  501  0.00000000000E+00  0.00000000000E+00 -0.24701205912E+04  0.24701205912E+04  0.25500000920E-02 0.  1.
    10030    2    1    2    0    0  0.00000000000E+00  0.00000000000E+00 -0.88753774267E+03  0.40527034398E+04  0.39543244589E+04 0.  0.
        1    1    3    3  502    0 -0.80818469441E+03 -0.17554127442E+04 -0.87193533020E+03  0.21201197190E+04  0.50400001928E-02 0. -1.
       -1    1    3    3    0  502  0.80818469441E+03  0.17554127442E+04 -0.15602412462E+02  0.19325837208E+04  0.50400001928E-02 0.  1.
</event>
<event>
 5   0  0.1503228E-07  0.3839830E+04  0.7818609E-02  0.8037661E-01
       -2   -1    0    0    0  501  0.00000000000E+00  0.00000000000E+00  0.14586082662E+04  0.14586082662E+04  0.25500000920E-02 0. -1.
        2   -1    0    0  501    0  0.00000000000E+00  0.00000000000E+00 -0.25271163348E+04  0.25271163348E+04  0.25500000920E-02 0.  1.
    10030    2    1    2    0    0  0.00000000000E+00  0.00000000000E+00 -0.10685080687E+04  0.39857246010E+04  0.38398295668E+04 0.  0.
        3    1    3    3  502    0 -0.14123705877E+04  0.49760299901E+03 -0.17814359581E+04  0.23272115298E+04  0.10100000352E+00 0.  1.
       -3    1    3    3    0  502  0.14123705877E+04 -0.49760299901E+03  0.71292788939E+03  0.16585130712E+04  0.10100000352E+00 0. -1.
</event>
<event>
 5   0  0.4750125E-08  0.3898435E+04  0.7818609E-02  0.8025355E-01
       -1   -1    0    0    0  501  0.00000000000E+00  0.00000000000E+00  0.30400262934E+04  0.30400262934E+04  0.50400001928E-02 0. -1.
        1   -1    0    0  501    0  0.00000000000E+00  0.00000000000E+00 -0.12498081288E+04  0.12498081288E+04  0.50400001928E-02 0.  1.
    10030    2    1    2    0    0  0.00000000000E+00  0.00000000000E+00  0.17902181647E+04  0.42898344222E+04  0.38984353647E+04 0.  0.
        1    1    3    3  502    0 -0.89666484026E+03 -0.13608140879E+04  0.20718811338E+04  0.26360034617E+04  0.50400001928E-02 0. -1.
       -1    1    3    3    0  502  0.89666484026E+03  0.13608140879E+04 -0.28166296912E+03  0.16538309605E+04  0.50400001928E-02 0.  1.
</event>
<event>
 5   0  0.1501585E-07  0.3961933E+04  0.7818609E-02  0.8012270E-01
        2   -1    0    0  501    0  0.00000000000E+00  0.00000000000E+00  0.22303428208E+04  0.22303428208E+04  0.25500000920E-02 0.  1.
       -2   -1    0    0    0  501  0.00000000000E+00  0.00000000000E+00 -0.17594734485E+04  0.17594734485E+04  0.25500000920E-02 0. -1.
    10030    2    1    2    0    0  0.00000000000E+00  0.00000000000E+00  0.47086937237E+03  0.39898162693E+04  0.39619333534E+04 0.  0.
        5    1    3    3  502    0  0.20767314889E+03 -0.28488009885E+03  0.21984924390E+04  0.22265839086E+04  0.46999998093E+01 0.  1.
       -5    1    3    3    0  502 -0.20767314889E+03  0.28488009885E+03 -0.17276230667E+04  0.17632323607E+04  0.46999998093E+01 0. -1.
</event>
<event>
 5   0  0.4750125E-08  0.3851717E+04  0.7818609E-02  0.8035147E-01
       -1   -1    0    0    0  501  0.00000000000E+00  0.00000000000E+00  0.17665866000E+04  0.17665866000E+04  0.50400001928E-02 0.  1.
        1   -1    0    0  501    0  0.00000000000E+00  0.00000000000E+00 -0.20994902110E+04  0.20994902110E+04  0.50400001928E-02 0. -1.
    10030    2    1    2    0    0  0.00000000000E+00  0.00000000000E+00 -0.33290361100E+03  0.38660768111E+04  0.38517171619E+04 0.  0.
        1    1    3    3  502    0 -0.97773747500E+03  0.33296544060E+02 -0.18315069817E+04  0.20764144707E+04  0.50400001928E-02 0. -1.
       -1    1    3    3    0  502  0.97773747500E+03 -0.33296544060E+02  0.14986033707E+04  0.17896623404E+04  0.50400001928E-02 0.  1.
</event>
<event>
 5   0  0.4750125E-08  0.3887072E+04  0.7818609E-02  0.8027723E-01
       -3   -1    0    0    0  501  0.00000000000E+00  0.00000000000E+00  0.12470128747E+04  0.12470128787E+04  0.10100000352E+00 0. -1.
        3   -1    0    0  501    0  0.00000000000E+00  0.00000000000E+00 -0.30291045028E+04  0.30291045045E+04  0.10100000352E+00 0.  1.
    10030    2    1    2    0    0  0.00000000000E+00  0.00000000000E+00 -0.17820916282E+04  0.42761173833E+04  0.38870720734E+04 0.  0.
        4    1    3    3  502    0  0.12387906291E+04  0.62721018364E+03  0.60496565330E+03  0.15145890175E+04  0.12699999809E+01 0. -1.
       -4    1    3    3    0  502 -0.12387906291E+04 -0.62721018364E+03 -0.23870572815E+04  0.27615283658E+04  0.12699999809E+01 0.  1.
</event>
<event>
 5   0  0.4750125E-08  0.3921312E+04  0.7818609E-02  0.8020611E-01
        1   -1    0    0  501    0  0.00000000000E+00  0.00000000000E+00  0.15072439056E+04  0.15072439056E+04  0.50400001928E-02 0.  1.
       -1   -1    0    0    0  501  0.00000000000E+00  0.00000000000E+00 -0.25504638241E+04  0.25504638241E+04  0.50400001928E-02 0. -1.
    10030    2    1    2    0    0  0.00000000000E+00  0.00000000000E+00 -0.10432199185E+04  0.40577077297E+04  0.39213115435E+04 0.  0.
        3    1    3    3  502    0  0.15929793008E+04 -0.10366832564E+04 -0.23325727447E+02  0.19007470444E+04  0.10100000352E+00 0.  1.
       -3    1    3    3    0  502 -0.15929793008E+04  0.10366832564E+04 -0.10198941911E+04  0.21569606853E+04  0.10100000352E+00 0. -1.
</event>
<event>
 5   0  0.1520986E-07  0.3670829E+04  0.7818609E-02  0.8074457E-01
        2   -1    0    0  501    0  0.00000000000E+00  0.00000000000E+00  0.17091131356E+04  0.17091131356E+04  0.25500000920E-02 0.  1.
       -2   -1    0    0    0  501  0.00000000000E+00  0.00000000000E+00 -0.19710496048E+04  0.19710496048E+04  0.25500000920E-02 0. -1.
    10030    2    1    2    0    0  0.00000000000E+00  0.00000000000E+00 -0.26193646923E+03  0.36801627404E+04  0.36708292090E+04 0.  0.
        4    1    3    3  502    0 -0.11698123649E+04  0.37909184547E+03  0.12350576412E+04  0.17428541495E+04  0.12699999809E+01 0.  1.
       -4    1    3    3    0  502  0.11698123649E+04 -0.37909184547E+03 -0.14969941105E+04  0.19373085908E+04  0.12699999809E+01 0. -1.
</event>
<event>
 5   0  0.4762788E-08  0.3898401E+04  0.7818609E-02  0.8025362E-01
        1   -1    0    0  501    0  0.00000000000E+00  0.00000000000E+00  0.16167121060E+04  0.16167121060E+04  0.50400001928E-02 0.  1.
       -1   -1    0    0    0  501  0.00000000000E+00  0.00000000000E+00 -0.23500671433E+04  0.23500671433E+04  0.50400001928E-02 0. -1.
    10030    2    1    2    0    0  0.00000000000E+00  0.00000000000E+00 -0.73335503731E+03  0.39667792494E+04  0.38984006981E+04 0.  0.
        2    1    3    3  502    0  0.16899298309E+04 -0.63417582062E+03  0.38198604039E+03  0.18449810676E+04  0.25500000920E-02 0.  1.
       -2    1    3    3    0  502 -0.16899298309E+04  0.63417582062E+03 -0.11153410777E+04  0.21217981818E+04  0.25500000920E-02 0. -1.
</event>
<event>
 5   0  0.1538018E-07  0.3905079E+04  0.7818609E-02  0.8023974E-01
       -2   -1    0    0    0  501  0.00000000000E+00  0.00000000000E+00  0.20475973581E+04  0.20475973581E+04  0.25500000920E-02 0.  1.
        2   -1    0    0  501    0  0.00000000000E+00  0.00000000000E+00 -0.18618944840E+04  0.18618944840E+04  0.25500000920E-02 0. -1.
    10030    2    1    2    0    0  0.00000000000E+00  0.00000000000E+00  0.18570287409E+03  0.39094918421E+04  0.39050788605E+04 0.  0.
        1    1    3    3  502    0 -0.17239205431E+04 -0.63056697109E+03  0.75910592479E+03  0.19863933521E+04  0.50400001928E-02 0.  1.
       -1    1    3    3    0  502  0.17239205431E+04  0.63056697109E+03 -0.57340305071E+03  0.19230984901E+04  0.50400001928E-02 0. -1.
</event>
<event>
 5   0  0.1520986E-07  0.3883154E+04  0.7818609E-02  0.8028542E-01
        2   -1    0    0  501    0  0.00000000000E+00  0.00000000000E+00  0.18121140188E+04  0.18121140188E+04  0.25500000920E-02 0.  1.
       -2   -1    0    0    0  501  0.00000000000E+00  0.00000000000E+00 -0.20802893447E+04  0.20802893447E+04  0.25500000920E-02 0. -1.
    10030    2    1    2    0    0  0.00000000000E+00  0.00000000000E+00 -0.26817532591E+03  0.38924033635E+04  0.38831541225E+04 0.  0.
        4    1    3    3  502    0 -0.11788411958E+04 -0.20397734487E+03  0.13987527252E+04  0.18405934155E+04  0.12699999809E+01 0.  1.
       -4    1    3    3    0  502  0.11788411958E+04  0.20397734487E+03 -0.16669280511E+04  0.20518099480E+04  0.12699999809E+01 0. -1.
</event>
<event>
 5   0  0.1520986E-07  0.3826810E+04  0.7818609E-02  0.8040426E-01
       -2   -1    0    0    0  501  0.00000000000E+00  0.00000000000E+00  0.19887124104E+04  0.19887124104E+04  0.25500000920E-02 0.  1.
        2   -1    0    0  501    0  0.00000000000E+00  0.00000000000E+00 -0.18409495965E+04  0.18409495965E+04  0.25500000920E-02 0. -1.
    10030    2    1    2    0    0  0.00000000000E+00  0.00000000000E+00  0.14776281386E+03  0.38296620069E+04  0.38268103216E+04 0.  0.
        4    1    3    3  502    0  0.47867634838E+03 -0.33921950874E+03  0.18964790192E+04  0.19851536980E+04  0.12699999809E+01 0.  1.
       -4    1    3    3    0  502 -0.47867634838E+03  0.33921950874E+03 -0.17487162054E+04  0.18445083088E+04  0.12699999809E+01 0. -1.
</event>
<event>
 5   0  0.1546846E-07  0.3620946E+04  0.7818609E-02  0.8085711E-01
        2   -1    0    0  501    0  0.00000000000E+00  0.00000000000E+00  0.21671990796E+04  0.21671990796E+04  0.25500000920E-02 0. -1.
       -2   -1    0    0    0  501  0.00000000000E+00  0.00000000000E+00 -0.15124646899E+04  0.15124646899E+04  0.25500000920E-02 0.  1.
    10030    2    1    2    0    0  0.00000000000E+00  0.00000000000E+00  0.65473438970E+03  0.36796637695E+04  0.36209457792E+04 0.  0.
        2    1    3    3  502    0 -0.13569448284E+03  0.17428625948E+04  0.80599215288E+03  0.19249951604E+04  0.25500000920E-02 0. -1.
       -2    1    3    3    0  502  0.13569448284E+03 -0.17428625948E+04 -0.15125776318E+03  0.17546686091E+04  0.25500000920E-02 0.  1.
</event>
<event>
 5   0  0.1503228E-07  0.3793591E+04  0.7818609E-02  0.8047532E-01
       -2   -1    0    0    0  501  0.00000000000E+00  0.00000000000E+00  0.18907165418E+04  0.18907165418E+04  0.25500000920E-02 0. -1.
        2   -1    0    0  501    0  0.00000000000E+00  0.00000000000E+00 -0.19028938839E+04  0.19028938839E+04  0.25500000920E-02 0.  1.
    10030    2    1    2    0    0  0.00000000000E+00  0.00000000000E+00 -0.12177342147E+02  0.37936104257E+04  0.37935908813E+04 0.  0.
        3    1    3    3  502    0  0.74881753677E+02 -0.58990212711E+03 -0.18072756590E+04  0.19025869531E+04  0.10100000352E+00 0.  1.
       -3    1    3    3    0  502 -0.74881753677E+02  0.58990212711E+03  0.17950983168E+04  0.18910234726E+04  0.10100000352E+00 0. -1.
</event>
<event>
 5   0  0.4750125E-08  0.3935341E+04  0.7818609E-02  0.8017719E-01
        1   -1    0    0  501    0  0.00000000000E+00  0.00000000000E+00  0.19914034494E+04  0.19914034494E+04  0.50400001928E-02 0. -1.
       -1   -1    0    0    0  501  0.00000000000E+00  0.00000000000E+00 -0.19442203694E+04  0.19442203694E+04  0.50400001928E-02 0.  1.
    10030    2    1    2    0    0  0.00000000000E+00  0.00000000000E+00  0.47183079970E+02  0.39356238188E+04  0.39353409763E+04 0.  0.
        3    1    3    3  502    0  0.96485903125E+03  0.14012183098E+04  0.10122785145E+04  0.19796649977E+04  0.10100000352E+00 0. -1.
       -3    1    3    3    0  502 -0.96485903125E+03 -0.14012183098E+04 -0.96509543449E+03  0.19559588211E+04  0.10100000352E+00 0.  1.
</event>
<event>
 5   0  0.4750125E-08  0.3892890E+04  0.7818609E-02  0.8026510E-01
       -1   -1    0    0    0  501  0.00000000000E+00  0.00000000000E+00  0.22295718161E+04  0.22295718161E+04  0.50400001928E-02 0. -1.
        1   -1    0    0  501    0  0.00000000000E+00  0.00000000000E+00 -0.16992714055E+04  0.16992714055E+04  0.50400001928E-02 0.  1.
    10030    2    1    2    0    0  0.00000000000E+00  0.00000000000E+00  0.53030041056E+03  0.39288432216E+04  0.38928897408E+04 0.  0.
        4    1    3    3  502    0 -0.46287019083E+02 -0.49782034187E+03 -0.16333609163E+04  0.17081677543E+04  0.12699999809E+01 0.  1.
       -4    1    3    3    0  502  0.46287019083E+02  0.49782034187E+03  0.21636613268E+04  0.22206754673E+04  0.12699999809E+01 0. -1.
</event>
<event>
 5   0  0.1503228E-07  0.3886469E+04  0.7818609E-02  0.8027849E-01
        2   -1    0    0  501    0  0.00000000000E+00  0.00000000000E+00  0.27046919466E+04  0.27046919466E+04  0.25500000920E-02 0. -1.
       -2   -1    0    0    0  501  0.00000000000E+00  0.00000000000E+00 -0.13961517613E+04  0.13961517613E+04  0.25500000920E-02 0.  1.
    10030    2    1    2    0    0  0.00000000000E+00  0.00000000000E+00  0.13085401854E+04  0.41008437079E+04  0.38864690530E+04 0.  0.
        3    1    3    3  502    0  0.12581167109E+04  0.12857221264E+04 -0.12126933877E+03  0.18029546048E+04  0.10100000352E+00 0.  1.
       -3    1    3    3    0  502 -0.12581167109E+04 -0.12857221264E+04  0.14298095242E+04  0.22978891031E+04  0.10100000352E+00 0. -1.
</event>
<event>
 5   0  0.1546846E-07  0.3904655E+04  0.7818609E-02  0.8024062E-01
       -2   -1    0    0    0  501  0.00000000000E+00  0.00000000000E+00  0.21759084992E+04  0.21759084992E+04  0.25500000920E-02 0. -1.
        2   -1    0    0  501    0  0.00000000000E+00  0.00000000000E+00 -0.17517204538E+04  0.17517204538E+04  0.25500000920E-02 0.  1.
    10030    2    1    2    0    0  0.00000000000E+00  0.00000000000E+00  0.42418804538E+03  0.39276289530E+04  0.39046553874E+04 0.  0.
        2    1    3    3  502    0 -0.15908380794E+03 -0.19594462223E+03 -0.17352409618E+04  0.17535002562E+04  0.25500000920E-02 0.  1.
       -2    1    3    3    0  502  0.15908380794E+03  0.19594462223E+03  0.21594290072E+04  0.21741286968E+04  0.25500000920E-02 0. -1.
</event>
<event>
 5   0  0.4750125E-08  0.3894303E+04  0.7818609E-02  0.8026215E-01
        1   -1    0    0  501    0  0.00000000000E+00  0.00000000000E+00  0.11521610818E+04  0.11521610819E+04  0.50400001928E-02 0. -1.
       -1   -1    0    0    0  501  0.00000000000E+00  0.00000000000E+00 -0.32906846062E+04  0.32906846062E+04  0.50400001928E-02 0.  1.
    10030    2    1    2    0    0  0.00000000000E+00  0.00000000000E+00 -0.21385235244E+04  0.44428456881E+04  0.38943028829E+04 0.  0.
        1    1    3    3  502    0  0.19154702897E+02  0.23180972853E+03  0.11362544576E+04  0.11598175914E+04  0.50400001928E-02 0. -1.
       -1    1    3    3    0  502 -0.19154702897E+02 -0.23180972853E+03 -0.32747779819E+04  0.32830280967E+04  0.50400001928E-02 0.  1.
</event>
<event>
 5   0  0.1538018E-07  0.3933747E+04  0.7818609E-02  0.8018047E-01
        2   -1    0    0  501    0  0.00000000000E+00  0.00000000000E+00  0.27355779311E+04  0.27355779311E+04  0.25500000920E-02 0. -1.
       -2   -1    0    0    0  501  0.00000000000E+00  0.00000000000E+00 -0.14141767365E+04  0.14141767365E+04  0.25500000920E-02 0.  1.
    10030    2    1    2    0    0  0.00000000000E+00  0.00000000000E+00  0.13214011947E+04  0.41497546676E+04  0.39337466471E+04 0.  0.
        1    1    3    3  502    0 -0.69939766930E+00  0.19563768621E+04  0.87477163600E+03  0.21430437072E+04  0.50400001928E-02 0.  1.
       -1    1    3    3    0  502  0.69939766930E+00 -0.19563768621E+04  0.44662955868E+03  0.20067109604E+04  0.50400001928E-02 0. -1.
</event>
<event>
 5   0  0.4762788E-08  0.4007295E+04  0.7818609E-02  0.8003076E-01
       -1   -1    0    0    0  501  0.00000000000E+00  0.00000000000E+00  0.16488743423E+04  0.16488743423E+04  0.50400001928E-02 0.  1.
        1   -1    0    0  501    0  0.00000000000E+00  0.00000000000E+00 -0.24347544086E+04  0.24347544086E+04  0.50400001928E-02 0. -1.
    10030    2    1    2    0    0  0.00000000000E+00  0.00000000000E+00 -0.78588006635E+03  0.40836287509E+04  0.40072953843E+04 0.  0.
        2    1    3    3  502    0 -0.11932522833E+04  0.73687424891E+03  0.10653215056E+04  0.17611770441E+04  0.25500000920E-02 0.  1.
       -2    1    3    3    0  502  0.11932522833E+04 -0.73687424891E+03 -0.18512015720E+04  0.23224517068E+04  0.25500000920E-02 0. -1.
</event>
<event>
 5   0  0.1501585E-07  0.3897543E+04  0.7818609E-02  0.8025540E-01
       -2   -1    0    0    0  501  0.00000000000E+00  0.00000000000E+00  0.26800003434E+04  0.26800003434E+04  0.25500000920E-02 0. -1.
        2   -1    0    0  501    0  0.00000000000E+00  0.00000000000E+00 -0.14170562422E+04  0.14170562422E+04  0.25500000920E-02 0.  1.
    10030    2    1    2    0    0  0.00000000000E+00  0.00000000000E+00  0.12629441012E+04  0.40970565857E+04  0.38975434396E+04 0.  0.
        5    1    3    3  502    0 -0.15424383198E+04 -0.24735087019E+03  0.18561825273E+04  0.24260531915E+04  0.46999998093E+01 0. -1.
       -5    1    3    3    0  502  0.15424383198E+04  0.24735087019E+03 -0.59323842606E+03  0.16710033942E+04  0.46999998093E+01 0.  1.
</event>
<event>
 5   0  0.4762788E-08  0.3853722E+04  0.7818609E-02  0.8034724E-01
        1   -1    0    0  501    0  0.00000000000E+00  0.00000000000E+00  0.15055885092E+04  0.15055885092E+04  0.50400001928E-02 0.  1.
       -1   -1    0    0    0  501  0.00000000000E+00  0.00000000000E+00 -0.24660082791E+04  0.24660082791E+04  0.50400001928E-02 0. -1.
    10030    2    1    2    0    0  0.00000000000E+00  0.00000000000E+00 -0.96041976988E+03  0.39715967883E+04  0.38537222155E+04 0.  0.
        2    1    3    3  502    0  0.55892258793E+03  0.14131583043E+04 -0.17010894673E+04  0.22810340261E+04  0.25500000920E-02 0. -1.
       -2    1    3    3    0  502 -0.55892258793E+03 -0.14131583043E+04  0.74066969744E+03  0.16905627622E+04  0.25500000920E-02 0.  1.
</event>
<event>
 5   0  0.4750125E-08  0.3898533E+04  0.7818609E-02  0.8025334E-01
       -1   -1    0    0    0  501  0.00000000000E+00  0.00000000000E+00  0.26652031811E+04  0.26652031811E+04  0.50400001928E-02 0. -1.
        1   -1    0    0  501    0  0.00000000000E+00  0.00000000000E+00 -0.14256471444E+04  0.14256471444E+04  0.50400001928E-02 0.  1.
    10030    2    1    2    0    0  0.00000000000E+00  0.00000000000E+00  0.12395560367E+04  0.40908503254E+04  0.38985327005E+04 0.  0.
        3    1    3    3  502    0  0.65277307421E+03  0.16321885992E+04 -0.26408431204E+03  0.17776087431E+04  0.10100000352E+00 0.  1.
       -3    1    3    3    0  502 -0.65277307421E+03 -0.16321885992E+04  0.15036403487E+04  0.23132415823E+04  0.10100000352E+00 0. -1.
</event>
<event>
 5   0  0.4750125E-08  0.3879506E+04  0.7818609E-02  0.8029305E-01
       -3   -1    0    0    0  501  0.00000000000E+00  0.00000000000E+00  0.27269044306E+04  0.27269044325E+04  0.10100000352E+00 0. -1.
        3   -1    0    0  501    0  0.00000000000E+00  0.00000000000E+00 -0.13798218288E+04  0.13798218325E+04  0.10100000352E+00 0.  1.
    10030    2    1    2    0    0  0.00000000000E+00  0.00000000000E+00  0.13470826018E+04  0.41067262650E+04  0.38795062933E+04 0.  0.
        1    1    3    3  502    0  0.14464670890E+04 -0.33387029793E+03 -0.64814758823E+03  0.16198245929E+04  0.50400001928E-02 0.  1.
       -1    1    3    3    0  502 -0.14464670890E+04  0.33387029793E+03  0.19952301901E+04  0.24869016721E+04  0.50400001928E-02 0. -1.
</event>
<event>
 5   0  0.1538018E-07  0.3883148E+04  0.7818609E-02  0.8028543E-01
        2   -1    0    0  501    0  0.00000000000E+00  0.00000000000E+00  0.16401913468E+04  0.16401913468E+04  0.25500000920E-02 0. -1.
       -2   -1    0    0    0  501  0.00000000000E+00  0.00000000000E+00 -0.22983351940E+04  0.22983351940E+04  0.25500000920E-02 0.  1.
    10030    2    1    2    0    0  0.00000000000E+00  0.00000000000E+00 -0.65814384727E+03  0.39385265408E+04  0.38831479484E+04 0.  0.
        1    1    3    3  502    0 -0.12728164010E+04  0.96363220090E+03  0.79170324184E+03  0.17819771695E+04  0.50400001928E-02 0. -1.
       -1    1    3    3    0  502  0.12728164010E+04 -0.96363220090E+03 -0.14498470891E+04  0.21565493714E+04  0.50400001928E-02 0.  1.
</event>
<event>
 5   0  0.4750125E-08  0.3892694E+04  0.7818609E-02  0.8026550E-01
        1   -1    0    0  501    0  0.00000000000E+00  0.00000000000E+00  0.16208145750E+04  0.16208145750E+04  0.50400001928E-02 0. -1.
       -1   -1    0    0    0  501  0.00000000000E+00  0.00000000000E+00 -0.23372612466E+04  0.23372612466E+04  0.50400001928E-02 0.  1.
    10030    2    1    2    0    0  0.00000000000E+00  0.00000000000E+00 -0.71644667155E+03  0.39580758216E+04  0.38926942311E+04 0.  0.
        3    1    3    3  502    0 -0.15794784396E+03 -0.19393712477E+04 -0.40546580328E+03  0.19875892146E+04  0.10100000352E+00 0. -1.
       -3    1    3    3    0  502  0.15794784396E+03  0.19393712477E+04 -0.31098086827E+03  0.19704866071E+04  0.10100000352E+00 0.  1.
</event>
<event>
 5   0  0.1546846E-07  0.3857936E+04  0.7818609E-02  0.8033835E-01
        2   -1    0    0  501    0  0.00000000000E+00  0.00000000000E+00  0.17697121697E+04  0.17697121697E+04  0.25500000920E-02 0. -1.
       -2   -1    0    0    0  501  0.00000000000E+00  0.00000000000E+00 -0.21025554818E+04  0.21025554818E+04  0.25500000920E-02 0.  1.
    10030    2    1    2    0    0  0.00000000000E+00  0.00000000000E+00 -0.33284331212E+03  0.38722676515E+04  0.38579362481E+04 0.  0.
        2    1    3    3  502    0  0.14196574669E+04 -0.69665378628E+03 -0.12751354764E+04  0.20314340512E+04  0.25500000920E-02 0.  1.
       -2    1    3    3    0  502 -0.14196574669E+04  0.69665378628E+03  0.94229216430E+03  0.18408336003E+04  0.25500000920E-02 0. -1.
</event>
<event>
 5   0  0.4750125E-08  0.3995397E+04  0.7818609E-02  0.8005476E-01
       -1   -1    0    0    0  501  0.00000000000E+00  0.00000000000E+00  0.23157592977E+04  0.23157592977E+04  0.50400001928E-02 0. -1.
        1   -1    0    0  501    0  0.00000000000E+00  0.00000000000E+00 -0.17233217653E+04  0.17233217653E+04  0.50400001928E-02 0.  1.
    10030    2    1    2    0    0  0.00000000000E+00  0.00000000000E+00  0.59243753232E+03  0.40390810630E+04  0.39953965515E+04 0.  0.
        4    1    3    3  502    0  0.55475567900E+03 -0.36782263397E+03 -0.16079224283E+04  0.17402481150E+04  0.12699999809E+01 0.  1.
       -4    1    3    3    0  502 -0.55475567900E+03  0.36782263397E+03  0.22003599606E+04  0.22988329480E+04  0.12699999809E+01 0. -1.
</event>
<event>
 5   0  0.4750125E-08  0.3908861E+04  0.7818609E-02  0.8023189E-01
        1   -1    0    0  501    0  0.00000000000E+00  0.00000000000E+00  0.31783247313E+04  0.31783247313E+04  0.50400001928E-02 0. -1.
       -1   -1    0    0    0  501  0.00000000000E+00  0.00000000000E+00 -0.12018278362E+04  0.12018278362E+04  0.50400001928E-02 0.  1.
    10030    2    1    2    0    0  0.00000000000E+00  0.00000000000E+00  0.19764968950E+04  0.43801525675E+04  0.39088612841E+04 0.  0.
        5    1    3    3  502    0 -0.59009954094E+03  0.17750982716E+04  0.35377850266E+03  0.19037785220E+04  0.46999998093E+01 0.  1.
       -5    1    3    3    0  502  0.59009954094E+03 -0.17750982716E+04  0.16227183924E+04  0.24763740455E+04  0.46999998093E+01 0. -1.
</event>
<event>
 5   0  0.1501585E-07  0.3890856E+04  0.7818609E-02  0.8026934E-01
        2   -1    0    0  501    0  0.00000000000E+00  0.00000000000E+00  0.20951707896E+04  0.20951707896E+04  0.25500000920E-02 0.  1.
       -2   -1    0    0    0  501  0.00000000000E+00  0.00000000000E+00 -0.18063877438E+04  0.18063877438E+04  0.25500000920E-02 0. -1.
    10030    2    1    2    0    0  0.00000000000E+00  0.00000000000E+00  0.28878304582E+03  0.39015585334E+04  0.38908563764E+04 0.  0.
        5    1    3    3  502    0  0.87080530849E+02 -0.11884226442E+04 -0.13976085062E+04  0.18366445020E+04  0.46999998093E+01 0. -1.
       -5    1    3    3    0  502 -0.87080530849E+02  0.11884226442E+04  0.16863915521E+04  0.20649140314E+04  0.46999998093E+01 0.  1.
</event>
<event>
 5   0  0.4750125E-08  0.3897176E+04  0.7818609E-02  0.8025617E-01
       -3   -1    0    0    0  501  0.00000000000E+00  0.00000000000E+00  0.27110824124E+04  0.27110824143E+04  0.10100000352E+00 0.  1.
        3   -1    0    0  501    0  0.00000000000E+00  0.00000000000E+00 -0.14005460219E+04  0.14005460255E+04  0.10100000352E+00 0. -1.
    10030    2    1    2    0    0  0.00000000000E+00  0.00000000000E+00  0.13105363905E+04  0.41116284398E+04  0.38971762593E+04 0.  0.
        4    1    3    3  502    0  0.13999577416E+04 -0.12418999982E+04  0.82438930269E+02  0.18732311854E+04  0.12699999809E+01 0.  1.
       -4    1    3    3    0  502 -0.13999577416E+04  0.12418999982E+04  0.12280974602E+04  0.22383972544E+04  0.12699999809E+01 0. -1.
</event>
<event>
 5   0  0.4762788E-08  0.3882107E+04  0.7818609E-02  0.8028761E-01
       -1   -1    0    0    0  501  0.00000000000E+00  0.00000000000E+00  0.24031642265E+04  0.24031642265E+04  0.50400001928E-02 0.  1.
        1   -1    0    0  501    0  0.00000000000E+00  0.00000000000E+00 -0.15678029236E+04  0.15678029236E+04  0.50400001928E-02 0. -1.
    10030    2    1    2    0    0  0.00000000000E+00  0.00000000000E+00  0.83536130291E+03  0.39709671502E+04  0.38821065933E+04 0.  0.
        2    1    3    3  502    0 -0.90618027234E+02 -0.14822191823E+04  0.16962939248E+04  0.22544618893E+04  0.25500000920E-02 0.  1.
       -2    1    3    3    0  502  0.90618027234E+02  0.14822191823E+04 -0.86093262186E+03  0.17165052609E+04  0.25500000920E-02 0. -1.
</event>
<event>
 5   0  0.1538018E-07  0.3910664E+04  0.7818609E-02  0.8022815E-01
       -2   -1    0    0    0  501  0.00000000000E+00  0.00000000000E+00  0.28131291510E+04  0.28131291510E+04  0.25500000920E-02 0. -1.
        2   -1    0    0  501    0  0.00000000000E+00  0.00000000000E+00 -0.13591000601E+04  0.13591000601E+04  0.25500000920E-02 0.  1.
    10030    2    1    2    0    0  0.00000000000E+00  0.00000000000E+00  0.14540290909E+04  0.41722292112E+04  0.39106643928E+04 0.  0.
        1    1    3    3  502    0  0.85258616918E+03  0.12854530915E+04 -0.55503821021E+03  0.16393170045E+04  0.50400001928E-02 0.  1.
       -1    1    3    3    0  502 -0.85258616918E+03 -0.12854530915E+04  0.20090673011E+04  0.25329122067E+04  0.50400001928E-02 0. -1.
</event>
<event>
 5   0  0.4750125E-08  0.3819223E+04  0.7818609E-02  0.8042042E-01
        1   -1    0    0  501    0  0.00000000000E+00  0.00000000000E+00  0.15006236063E+04  0.15006236064E+04  0.50400001928E-02 0.  1.
       -1   -1    0    0    0  501  0.00000000000E+00  0.00000000000E+00 -0.24300670889E+04  0.24300670889E+04  0.50400001928E-02 0. -1.
    10030    2    1    2    0    0  0.00000000000E+00  0.00000000000E+00 -0.92944348253E+03  0.39306906952E+04  0.38192229778E+04 0.  0.
        1    1    3    3  502    0  0.12715009794E+04 -0.12571980844E+04 -0.11546251563E+04  0.21284785683E+04  0.50400001928E-02 0. -1.
       -1    1    3    3    0  502 -0.12715009794E+04  0.12571980844E+04  0.22518167380E+03  0.18022121269E+04  0.50400001928E-02 0.  1.
</event>
<event>
 5   0  0.1538018E-07  0.3591419E+04  0.7818609E-02  0.8092460E-01
       -2   -1    0    0    0  501  0.00000000000E+00  0.00000000000E+00  0.24507717147E+04  0.24507717147E+04  0.25500000920E-02 0. -1.
        2   -1    0    0  501    0  0.00000000000E+00  0.00000000000E+00 -0.13157378803E+04  0.13157378803E+04  0.25500000920E-02 0.  1.
    10030    2    1    2    0    0  0.00000000000E+00  0.00000000000E+00  0.11350338345E+04  0.37665095950E+04  0.35914193189E+04 0.  0.
        1    1    3    3  502    0 -0.16368816376E+04 -0.44193442634E+03 -0.52831999222E+02  0.16963132827E+04  0.50400001928E-02 0.  1.
       -1    1    3    3    0  502  0.16368816376E+04  0.44193442634E+03  0.11878658337E+04  0.20701963124E+04  0.50400001928E-02 0. -1.
</event>
<event>
 5   0  0.1538018E-07  0.3923468E+04  0.7818609E-02  0.8020166E-01
        2   -1    0    0  501    0  0.00000000000E+00  0.00000000000E+00  0.23634939263E+04  0.23634939263E+04  0.25500000920E-02 0. -1.
       -2   -1    0    0    0  501  0.00000000000E+00  0.00000000000E+00 -0.16282675185E+04  0.16282675185E+04  0.25500000920E-02 0.  1.
    10030    2    1    2    0    0  0.00000000000E+00  0.00000000000E+00  0.73522640786E+03  0.39917614448E+04  0.39234680528E+04 0.  0.
        1    1    3    3  502    0  0.48612911449E+03  0.23317817382E+03 -0.15514069518E+04  0.16424241556E+04  0.50400001928E-02 0.  1.
       -1    1    3    3    0  502 -0.48612911449E+03 -0.23317817382E+03  0.22866333597E+04  0.23493372892E+04  0.50400001928E-02 0. -1.
</event>
<event>
 5   0  0.4750125E-08  0.3887773E+04  0.7818609E-02  0.8027577E-01
       -1   -1    0    0    0  501  0.00000000000E+00  0.00000000000E+00  0.23232278747E+04  0.23232278747E+04  0.50400001928E-02 0.  1.
        1   -1    0    0  501    0  0.00000000000E+00  0.00000000000E+00 -0.16264846398E+04  0.16264846398E+04  0.50400001928E-02 0. -1.
    10030    2    1    2    0    0  0.00000000000E+00  0.00000000000E+00  0.69674323489E+03  0.39497125145E+04  0.38877728601E+04 0.  0.
        4    1    3    3  502    0 -0.66093915834E+03 -0.17441848137E+04 -0.20777256549E+03  0.18767504595E+04  0.12699999809E+01 0. -1.
       -4    1    3    3    0  502  0.66093915834E+03  0.17441848137E+04  0.90451580039E+03  0.20729620550E+04  0.12699999809E+01 0.  1.
</event>
<event>
 5   0  0.4750125E-08  0.4350653E+04  0.7818609E-02  0.7937318E-01
        1   -1    0    0  501    0  0.00000000000E+00  0.00000000000E+00  0.25102076653E+04  0.25102076653E+04  0.50400001928E-02 0.  1.
       -1   -1    0    0    0  501  0.00000000000E+00  0.00000000000E+00 -0.18851206989E+04  0.18851206989E+04  0.50400001928E-02 0. -1.
    10030    2    1    2    0    0  0.00000000000E+00  0.00000000000E+00  0.62508696642E+03  0.43953283642E+04  0.43506525618E+04 0.  0.
        5    1    3    3  502    0  0.23871168375E+03  0.10658760761E+04 -0.15879831876E+04  0.19273784713E+04  0.46999998093E+01 0. -1.
       -5    1    3    3    0  502 -0.23871168375E+03 -0.10658760761E+04  0.22130701540E+04  0.24679498930E+04  0.46999998093E+01 0.  1.
</event>
<event>
 5   0  0.1520986E-07  0.3885017E+04  0.7818609E-02  0.8028153E-01
       -2   -1    0    0    0  501  0.00000000000E+00  0.00000000000E+00  0.33823752844E+04  0.33823752844E+04  0.25500000920E-02 0. -1.
        2   -1    0    0  501    0  0.00000000000E+00  0.00000000000E+00 -0.11155886524E+04  0.11155886524E+04  0.25500000920E-02 0.  1.
    10030    2    1    2    0    0  0.00000000000E+00  0.00000000000E+00  0.22667866321E+04  0.44979639368E+04  0.38850171095E+04 0.  0.
        4    1    3    3  502    0  0.19267367853E+04 -0.16207934674E+03  0.91755804351E+03  0.21402099735E+04  0.12699999809E+01 0. -1.
       -4    1    3    3    0  502 -0.19267367853E+04  0.16207934674E+03  0.13492285886E+04  0.23577539633E+04  0.12699999809E+01 0.  1.
</event>
<event>
 5   0  0.4750125E-08  0.3882892E+04  0.7818609E-02  0.8028597E-01
        1   -1    0    0  501    0  0.00000000000E+00  0.00000000000E+00  0.24148365677E+04  0.24148365677E+04  0.50400001928E-02 0.  1.
       -1   -1    0    0    0  501  0.00000000000E+00  0.00000000000E+00 -0.15608558112E+04  0.15608558112E+04  0.50400001928E-02 0. -1.
    10030    2    1    2    0    0  0.00000000000E+00  0.00000000000E+00  0.85398075652E+03  0.39756923789E+04  0.38828915462E+04 0.  0.
        4    1    3    3  502    0 -0.47989429267E+03  0.54340834363E+03 -0.14170584871E+04  0.15917435500E+04  0.12699999809E+01 0. -1.
       -4    1    3    3    0  502  0.47989429267E+03 -0.54340834363E+03  0.22710392436E+04  0.23839488290E+04  0.12699999809E+01 0.  1.
</event>
<event>
 5   0  0.4750125E-08  0.3882677E+04  0.7818609E-02  0.8028642E-01
       -1   -1    0    0    0  501  0.00000000000E+00  0.00000000000E+00  0.16084217315E+04  0.16084217315E+04  0.50400001928E-02 0. -1.
        1   -1    0    0  501    0  0.00000000000E+00  0.00000000000E+00 -0.23431637066E+04  0.23431637066E+04  0.50400001928E-02 0.  1.
    10030    2    1    2    0    0  0.00000000000E+00  0.00000000000E+00 -0.73474197505E+03  0.39515854381E+04  0.38826771311E+04 0.  0.
        1    1    3    3  502    0 -0.12036470427E+04 -0.73491249298E+03 -0.17251900699E+04  0.22282601628E+04  0.50400001928E-02 0.  1.
       -1    1    3    3    0  502  0.12036470427E+04  0.73491249298E+03  0.99044809489E+03  0.17233252753E+04  0.50400001928E-02 0. -1.
</event>
<event>
 5   0  0.4750125E-08  0.3926118E+04  0.7818609E-02  0.8019619E-01
        3   -1    0    0  501    0  0.00000000000E+00  0.00000000000E+00  0.11777403226E+04  0.11777403269E+04  0.10100000352E+00 0. -1.
       -3   -1    0    0    0  501  0.00000000000E+00  0.00000000000E+00 -0.32720292247E+04  0.32720292262E+04  0.10100000352E+00 0.  1.
    10030    2    1    2    0    0  0.00000000000E+00  0.00000000000E+00 -0.20942889021E+04  0.44497695532E+04  0.39261180663E+04 0.  0.
        4    1    3    3  502    0 -0.71468782326E+03  0.17959764499E+04 -0.65899147521E+03  0.20422001544E+04  0.12699999809E+01 0. -1.
       -4    1    3    3    0  502  0.71468782326E+03 -0.17959764499E+04 -0.14352974269E+04  0.24075693988E+04  0.12699999809E+01 0.  1.
</event>
<event>
 5   0  0.1520986E-07  0.3899462E+04  0.7818609E-02  0.8025141E-01
       -2   -1    0    0    0  501  0.00000000000E+00  0.00000000000E+00  0.17433285055E+04  0.17433285055E+04  0.25500000920E-02 0. -1.
        2   -1    0    0  501    0  0.00000000000E+00  0.00000000000E+00 -0.21805707494E+04  0.21805707494E+04  0.25500000920E-02 0.  1.
    10030    2    1    2    0    0  0.00000000000E+00  0.00000000000E+00 -0.43724224390E+03  0.39238992549E+04  0.38994620889E+04 0.  0.
        4    1    3    3  502    0 -0.12276550561E+04  0.45648347345E+03 -0.16719489080E+04  0.21238947389E+04  0.12699999809E+01 0.  1.
       -4    1    3    3    0  502  0.12276550561E+04 -0.45648347345E+03  0.12347066641E+04  0.18000045160E+04  0.12699999809E+01 0. -1.
</event>
<event>
 5   0  0.1546846E-07  0.3892462E+04  0.7818609E-02  0.8026599E-01
       -2   -1    0    0    0  501  0.00000000000E+00  0.00000000000E+00  0.13227791916E+04  0.13227791917E+04  0.25500000920E-02 0. -1.
        2   -1    0    0  501    0  0.00000000000E+00  0.00000000000E+00 -0.28635279664E+04  0.28635279664E+04  0.25500000920E-02 0.  1.
    10030    2    1    2    0    0  0.00000000000E+00  0.00000000000E+00 -0.15407487747E+04  0.41863071581E+04  0.38924620531E+04 0.  0.
        2    1    3    3  502    0 -0.17920430455E+04  0.19883200527E+03 -0.15583963921E+04  0.23831810167E+04  0.25500000920E-02 0.  1.
       -2    1    3    3    0  502  0.17920430455E+04 -0.19883200527E+03  0.17647617352E+02  0.18031261414E+04  0.25500000920E-02 0. -1.
</event>
<event>
 5   0  0.4750125E-08  0.3892529E+04  0.7818609E-02  0.8026585E-01
       -1   -1    0    0    0  501  0.00000000000E+00  0.00000000000E+00  0.13436998130E+04  0.13436998130E+04  0.50400001928E-02 0. -1.
        1   -1    0    0  501    0  0.00000000000E+00  0.00000000000E+00 -0.28190418959E+04  0.28190418959E+04  0.50400001928E-02 0.  1.
    10030    2    1    2    0    0  0.00000000000E+00  0.00000000000E+00 -0.14753420829E+04  0.41627417090E+04  0.38925292901E+04 0.  0.
        5    1    3    3  502    0 -0.14054726014E+04 -0.35162514728E+02  0.70161424599E+03  0.15712651832E+04  0.46999998093E+01 0. -1.
       -5    1    3    3    0  502  0.14054726014E+04  0.35162514728E+02 -0.21769563289E+04  0.25914765258E+04  0.46999998093E+01 0.  1.
</event>
<event>
 5   0  0.4750125E-08  0.3916067E+04  0.7818609E-02  0.8021696E-01
       -1   -1    0    0    0  501  0.00000000000E+00  0.00000000000E+00  0.17791073546E+04  0.17791073546E+04  0.50400001928E-02 0. -1.
        1   -1    0    0  501    0  0.00000000000E+00  0.00000000000E+00 -0.21549547299E+04  0.21549547299E+04  0.50400001928E-02 0.  1.
    10030    2    1    2    0    0  0.00000000000E+00  0.00000000000E+00 -0.37584737536E+03  0.39340620845E+04  0.39160673175E+04 0.  0.
        1    1    3    3  502    0  0.16082948954E+04  0.11168180069E+04 -0.18698247280E+03  0.19669411217E+04  0.50400001928E-02 0. -1.
       -1    1    3    3    0  502 -0.16082948954E+04 -0.11168180069E+04 -0.18886490256E+03  0.19671209628E+04  0.50400001928E-02 0.  1.
</event>
<event>
 5   0  0.1503228E-07  0.3878082E+04  0.7818609E-02  0.8029603E-01
        2   -1    0    0  501    0  0.00000000000E+00  0.00000000000E+00  0.18516339411E+04  0.18516339411E+04  0.25500000920E-02 0.  1.
       -2   -1    0    0    0  501  0.00000000000E+00  0.00000000000E+00 -0.20305740825E+04  0.20305740825E+04  0.25500000920E-02 0. -1.
    10030    2    1    2    0    0  0.00000000000E+00  0.00000000000E+00 -0.17894014138E+03  0.38822080236E+04  0.38780819440E+04 0.  0.
        3    1    3    3  502    0  0.82498543680E+03 -0.13457625931E+04 -0.12168129608E+04  0.19930659095E+04  0.10100000352E+00 0. -1.
       -3    1    3    3    0  502 -0.82498543680E+03  0.13457625931E+04  0.10378728194E+04  0.18891421141E+04  0.10100000352E+00 0.  1.
</event>
<event>
 5   0  0.1520986E-07  0.3757027E+04  0.7818609E-02  0.8055440E-01
       -2   -1    0    0    0  501  0.00000000000E+00  0.00000000000E+00  0.26661566166E+04  0.26661566166E+04  0.25500000920E-02 0. -1.
        2   -1    0    0  501    0  0.00000000000E+00  0.00000000000E+00 -0.13235580004E+04  0.13235580004E+04  0.25500000920E-02 0.  1.
    10030    2    1    2    0    0  0.00000000000E+00  0.00000000000E+00  0.13425986162E+04  0.39897146170E+04  0.37570269736E+04 0.  0.
        4    1    3    3  502    0 -0.11219387277E+04  0.13251034076E+04  0.14327628136E+04  0.22511011622E+04  0.12699999809E+01 0. -1.
       -4    1    3    3    0  502  0.11219387277E+04 -0.13251034076E+04 -0.90164197417E+02  0.17386134547E+04  0.12699999809E+01 0.  1.
</event>
<event>
 5   0  0.1520986E-07  0.3937727E+04  0.7818609E-02  0.8017228E-01
        2   -1    0    0  501    0  0.00000000000E+00  0.00000000000E+00  0.24331353566E+04  0.24331353566E+04  0.25500000920E-02 0.  1.
       -2   -1    0    0    0  501  0.00000000000E+00  0.00000000000E+00 -0.15931800607E+04  0.15931800607E+04  0.25500000920E-02 0. -1.
    10030    2    1    2    0    0  0.00000000000E+00  0.00000000000E+00  0.83995529588E+03  0.40263154173E+04  0.39377266208E+04 0.  0.
        4    1    3    3  502    0 -0.46371160071E+03 -0.83188983326E+03  0.21819255900E+04  0.23807288877E+04  0.12699999809E+01 0.  1.
       -4    1    3    3    0  502  0.46371160071E+03  0.83188983326E+03 -0.13419702941E+04  0.16455865296E+04  0.12699999809E+01 0. -1.
</event>
<event>
 5   0  0.4750125E-08  0.3907155E+04  0.7818609E-02  0.8023543E-01
       -1   -1    0    0    0  501  0.00000000000E+00  0.00000000000E+00  0.18395724663E+04  0.18395724663E+04  0.50400001928E-02 0. -1.
        1   -1    0    0  501    0  0.00000000000E+00  0.00000000000E+00 -0.20746475093E+04  0.20746475093E+04  0.50400001928E-02 0.  1.
    10030    2    1    2    0    0  0.00000000000E+00  0.00000000000E+00 -0.23507504298E+03  0.39142199756E+04  0.39071546861E+04 0.  0.
        3    1    3    3  502    0 -0.17849023664E+04 -0.45730995362E+03  0.53283251488E+03  0.19180509249E+04  0.10100000352E+00 0. -1.
       -3    1    3    3    0  502  0.17849023664E+04  0.45730995362E+03 -0.76790755786E+03  0.19961690507E+04  0.10100000352E+00 0.  1.
</event>
<event>
 5   0  0.4750125E-08  0.3901157E+04  0.7818609E-02  0.8024789E-01
        1   -1    0    0  501    0  0.00000000000E+00  0.00000000000E+00  0.27495982826E+04  0.27495982826E+04  0.50400001928E-02 0.  1.
       -1   -1    0    0    0  501  0.00000000000E+00  0.00000000000E+00 -0.13837496290E+04  0.13837496290E+04  0.50400001928E-02 0. -1.
    10030    2    1    2    0    0  0.00000000000E+00  0.00000000000E+00  0.13658486536E+04  0.41333479116E+04  0.39011565482E+04 0.  0.
        5    1    3    3  502    0 -0.81410947846E+03 -0.30655963037E+03 -0.11668326472E+04  0.14554289974E+04  0.46999998093E+01 0. -1.
       -5    1    3    3    0  502  0.81410947846E+03  0.30655963037E+03  0.25326813008E+04  0.26779189142E+04  0.46999998093E+01 0.  1.
</event>
<event>
 5   0  0.4750125E-08  0.3840793E+04  0.7818609E-02  0.8037457E-01
       -1   -1    0    0    0  501  0.00000000000E+00  0.00000000000E+00  0.33260845634E+04  0.33260845634E+04  0.50400001928E-02 0. -1.
        1   -1    0    0  501    0  0.00000000000E+00  0.00000000000E+00 -0.11087882917E+04  0.11087882917E+04  0.50400001928E-02 0.  1.
    10030    2    1    2    0    0  0.00000000000E+00  0.00000000000E+00  0.22172962717E+04  0.44348728551E+04  0.38407934707E+04 0.  0.
        3    1    3    3  502    0 -0.18652698768E+04 -0.30137104479E+03  0.71222676975E+03  0.20192382727E+04  0.10100000352E+00 0.  1.
       -3    1    3    3    0  502  0.18652698768E+04  0.30137104479E+03  0.15050695020E+04  0.24156345825E+04  0.10100000352E+00 0. -1.
</event>
<event>
 5   0  0.4762788E-08  0.3528286E+04  0.7818609E-02  0.8107119E-01
       -1   -1    0    0    0  501  0.00000000000E+00  0.00000000000E+00  0.12398013566E+04  0.12398013566E+04  0.50400001928E-02 0. -1.
        1   -1    0    0  501    0  0.00000000000E+00  0.00000000000E+00 -0.25102407341E+04  0.25102407341E+04  0.50400001928E-02 0.  1.
    10030    2    1    2    0    0  0.00000000000E+00  0.00000000000E+00 -0.12704393775E+04  0.37500420907E+04  0.35282856277E+04 0.  0.
        2    1    3    3  502    0  0.55036982826E+03 -0.14473735035E+04 -0.15335664353E+04  0.21793629844E+04  0.25500000920E-02 0.  1.
       -2    1    3    3    0  502 -0.55036982826E+03  0.14473735035E+04  0.26312705778E+03  0.15706791063E+04  0.25500000920E-02 0. -1.
</event>
<event>
 5   0  0.1503228E-07  0.3910658E+04  0.7818609E-02  0.8022816E-01
       -2   -1    0    0    0  501  0.00000000000E+00  0.00000000000E+00  0.16641256137E+04  0.16641256137E+04  0.25500000920E-02 0.  1.
        2   -1    0    0  501    0  0.00000000000E+00  0.00000000000E+00 -0.22974898940E+04  0.22974898940E+04  0.25500000920E-02 0. -1.
    10030    2    1    2    0    0  0.00000000000E+00  0.00000000000E+00 -0.63336428032E+03  0.39616155077E+04  0.39106581440E+04 0.  0.
        3    1    3    3  502    0 -0.31671519446E+03 -0.15825834225E+03  0.16313828022E+04  0.16693603789E+04  0.10100000352E+00 0.  1.
       -3    1    3    3    0  502  0.31671519446E+03  0.15825834225E+03 -0.22647470825E+04  0.22922551287E+04  0.10100000352E+00 0. -1.
</event>
<event>
 5   0  0.1503228E-07  0.3892391E+04  0.7818609E-02  0.8026614E-01
       -2   -1    0    0    0  501  0.00000000000E+00  0.00000000000E+00  0.19489016196E+04  0.19489016196E+04  0.25500000920E-02 0. -1.
        2   -1    0    0  501    0  0.00000000000E+00  0.00000000000E+00 -0.19434929457E+04  0.19434929457E+04  0.25500000920E-02 0.  1.
    10030    2    1    2    0    0  0.00000000000E+00  0.00000000000E+00  0.54086739462E+01  0.38923945653E+04  0.38923908074E+04 0.  0.
        3    1    3    3  502    0  0.74300842440E+03 -0.26210739259E+03 -0.17768801230E+04  0.19437244624E+04  0.10100000352E+00 0.  1.
       -3    1    3    3    0  502 -0.74300842440E+03  0.26210739259E+03  0.17822887969E+04  0.19486701029E+04  0.10100000352E+00 0. -1.
</event>
<event>
 5   0  0.4750125E-08  0.3930624E+04  0.7818609E-02  0.8018690E-01
        1   -1    0    0  501    0  0.00000000000E+00  0.00000000000E+00  0.29758361347E+04  0.29758361347E+04  0.50400001928E-02 0.  1.
       -1   -1    0    0    0  501  0.00000000000E+00  0.00000000000E+00 -0.12979384028E+04  0.12979384028E+04  0.50400001928E-02 0. -1.
    10030    2    1    2    0    0  0.00000000000E+00  0.00000000000E+00  0.16778977318E+04  0.42737745375E+04  0.39306243777E+04 0.  0.
        5    1    3    3  502    0 -0.19740235816E+03  0.10896220501E+04 -0.92643067468E+03  0.14437935407E+04  0.46999998093E+01 0. -1.
       -5    1    3    3    0  502  0.19740235816E+03 -0.10896220501E+04  0.26043284065E+04  0.28299809968E+04  0.46999998093E+01 0.  1.
</event>
<event>
 5   0  0.1546846E-07  0.3864178E+04  0.7818609E-02  0.8032521E-01
        2   -1    0    0  501    0  0.00000000000E+00  0.00000000000E+00  0.13364380132E+04  0.13364380132E+04  0.25500000920E-02 0. -1.
       -2   -1    0    0    0  501  0.00000000000E+00  0.00000000000E+00 -0.27932222245E+04  0.27932222245E+04  0.25500000920E-02 0.  1.
    10030    2    1    2    0    0  0.00000000000E+00  0.00000000000E+00 -0.14567842113E+04  0.41296602378E+04  0.38641782362E+04 0.  0.
        2    1    3    3  502    0  0.87416253724E+03  0.48217602038E+03  0.10394365862E+04  0.14412086154E+04  0.25500000920E-02 0. -1.
       -2    1    3    3    0  502 -0.87416253724E+03 -0.48217602038E+03 -0.24962207975E+04  0.26884516224E+04  0.25500000920E-02 0.  1.
</event>
<event>
 5   0  0.1538018E-07  0.3903037E+04  0.7818609E-02  0.8024398E-01
       -2   -1    0    0    0  501  0.00000000000E+00  0.00000000000E+00  0.12859669814E+04  0.12859669814E+04  0.25500000920E-02 0.  1.
        2   -1    0    0  501    0  0.00000000000E+00  0.00000000000E+00 -0.29615265555E+04  0.29615265555E+04  0.25500000920E-02 0. -1.
    10030    2    1    2    0    0  0.00000000000E+00  0.00000000000E+00 -0.16755595741E+04  0.42474935369E+04  0.39030374658E+04 0.  0.
        1    1    3    3  502    0  0.11593628789E+04 -0.15615220699E+04 -0.10130929927E+04  0.21929046654E+04  0.50400001928E-02 0.  1.
       -1    1    3    3    0  502 -0.11593628789E+04  0.15615220699E+04 -0.66246658139E+03  0.20545888715E+04  0.50400001928E-02 0. -1.
</event>
<event>
 5   0  0.1520986E-07  0.3888746E+04  0.7818609E-02  0.8027374E-01
       -2   -1    0    0    0  501  0.00000000000E+00  0.00000000000E+00  0.17594670930E+04  0.17594670930E+04  0.25500000920E-02 0.  1.
        2   -1    0    0  501    0  0.00000000000E+00  0.00000000000E+00 -0.21487114177E+04  0.21487114177E+04  0.25500000920E-02 0. -1.
    10030    2    1    2    0    0  0.00000000000E+00  0.00000000000E+00 -0.38924432468E+03  0.39081785107E+04  0.38887463439E+04 0.  0.
        4    1    3    3  502    0  0.78104326563E+03 -0.17239415447E+04  0.25323047848E+03  0.19094843075E+04  0.12699999809E+01 0.  1.
       -4    1    3    3    0  502 -0.78104326563E+03  0.17239415447E+04 -0.64247480317E+03  0.19986942032E+04  0.12699999809E+01 0. -1.
</event>
<event>
 5   0  0.4750125E-08  0.3906146E+04  0.7818609E-02  0.8023752E-01
        1   -1    0    0  501    0  0.00000000000E+00  0.00000000000E+00  0.17182768812E+04  0.17182768812E+04  0.50400001928E-02 0. -1.
       -1   -1    0    0    0  501  0.00000000000E+00  0.00000000000E+00 -0.22199528833E+04  0.22199528833E+04  0.50400001928E-02 0.  1.
    10030    2    1    2    0    0  0.00000000000E+00  0.00000000000E+00 -0.50167600209E+03  0.39382297645E+04  0.39061457816E+04 0.  0.
        5    1    3    3  502    0  0.31244267811E+03  0.17950623689E+04 -0.95989421036E+03  0.20594388363E+04  0.46999998093E+01 0.  1.
       -5    1    3    3    0  502 -0.31244267811E+03 -0.17950623689E+04  0.45821820827E+03  0.18787909282E+04  0.46999998093E+01 0. -1.
</event>
<event>
 5   0  0.1538018E-07  0.3917395E+04  0.7818609E-02  0.8021421E-01
       -2   -1    0    0    0  501  0.00000000000E+00  0.00000000000E+00  0.20200922219E+04  0.20200922219E+04  0.25500000920E-02 0.  1.
        2   -1    0    0  501    0  0.00000000000E+00  0.00000000000E+00 -0.18991687900E+04  0.18991687900E+04  0.25500000920E-02 0. -1.
    10030    2    1    2    0    0  0.00000000000E+00  0.00000000000E+00  0.12092343183E+03  0.39192610119E+04  0.39173951043E+04 0.  0.
        1    1    3    3  502    0  0.17429416516E+04  0.89366947999E+03  0.58145358752E+02  0.19595590379E+04  0.50400001928E-02 0.  1.
       -1    1    3    3    0  502 -0.17429416516E+04 -0.89366947999E+03  0.62778073079E+02  0.19597019740E+04  0.50400001928E-02 0. -1.
</event>
<event>
 5   0  0.1503228E-07  0.3873900E+04  0.7818609E-02  0.8030480E-01
       -2   -1    0    0    0  501  0.00000000000E+00  0.00000000000E+00  0.33057672424E+04  0.33057672424E+04  0.25500000920E-02 0. -1.
        2   -1    0    0  501    0  0.00000000000E+00  0.00000000000E+00 -0.11349179726E+04  0.11349179726E+04  0.25500000920E-02 0.  1.
    10030    2    1    2    0    0  0.00000000000E+00  0.00000000000E+00  0.21708492698E+04  0.44406852150E+04  0.38738996666E+04 0.  0.
        3    1    3    3  502    0 -0.83699283625E+03 -0.13952870482E+04 -0.11923174682E+03  0.16314408277E+04  0.10100000352E+00 0.  1.
       -3    1    3    3    0  502  0.83699283625E+03  0.13952870482E+04  0.22900810166E+04  0.28092443873E+04  0.10100000352E+00 0. -1.
</event>
<event>
 5   0  0.4750125E-08  0.3544237E+04  0.7818609E-02  0.8103386E-01
       -1   -1    0    0    0  501  0.00000000000E+00  0.00000000000E+00  0.17844808471E+04  0.17844808471E+04  0.50400001928E-02 0. -1.
        1   -1    0    0  501    0  0.00000000000E+00  0.00000000000E+00 -0.17598413558E+04  0.17598413558E+04  0.50400001928E-02 0.  1.
    10030    2    1    2    0    0  0.00000000000E+00  0.00000000000E+00  0.24639491277E+02  0.35443222030E+04  0.35442365573E+04 0.  0.
        4    1    3    3  502    0 -0.11542344278E+04 -0.25911405033E+03 -0.13071833874E+04  0.17629881527E+04  0.12699999809E+01 0.  1.
       -4    1    3    3    0  502  0.11542344278E+04  0.25911405033E+03  0.13318228787E+04  0.17813340502E+04  0.12699999809E+01 0. -1.
</event>
<event>
 5   0  0.1501585E-07  0.3894862E+04  0.7818609E-02  0.8026099E-01
        2   -1    0    0  501    0  0.00000000000E+00  0.00000000000E+00  0.27625348001E+04  0.27625348001E+04  0.25500000920E-02 0.  1.
       -2   -1    0    0    0  501  0.00000000000E+00  0.00000000000E+00 -0.13728291244E+04  0.13728291244E+04  0.25500000920E-02 0. -1.
    10030    2    1    2    0    0  0.00000000000E+00  0.00000000000E+00  0.13897056757E+04  0.41353639245E+04  0.38948623754E+04 0.  0.
        5    1    3    3  502    0  0.11575336878E+04  0.70503301298E+03  0.21795971767E+04  0.25666362677E+04  0.46999998093E+01 0.  1.
       -5    1    3    3    0  502 -0.11575336878E+04 -0.70503301298E+03 -0.78989150107E+03  0.15687276568E+04  0.46999998093E+01 0. -1.
</event>
<event>
 5   0  0.1546846E-07  0.3903129E+04  0.7818609E-02  0.8024379E-01
       -2   -1    0    0    0  501  0.00000000000E+00  0.00000000000E+00  0.28509825642E+04  0.28509825642E+04  0.25500000920E-02 0.  1.
        2   -1    0    0  501    0  0.00000000000E+00  0.00000000000E+00 -0.13358914070E+04  0.13358914070E+04  0.25500000920E-02 0. -1.
    10030    2    1    2    0    0  0.00000000000E+00  0.00000000000E+00  0.15150911571E+04  0.41868739712E+04  0.39031285447E+04 0.  0.
        2    1    3    3  502    0 -0.73763668048E+03 -0.11526538478E+04 -0.73496266219E+03  0.15533476366E+04  0.25500000920E-02 0. -1.
       -2    1    3    3    0  502  0.73763668048E+03  0.11526538478E+04  0.22500538193E+04  0.26335263346E+04  0.25500000920E-02 0.  1.
</event>
<event>
 5   0  0.1546846E-07  0.3910715E+04  0.7818609E-02  0.8022804E-01
       -2   -1    0    0    0  501  0.00000000000E+00  0.00000000000E+00  0.15418706020E+04  0.15418706020E+04  0.25500000920E-02 0.  1.
        2   -1    0    0  501    0  0.00000000000E+00  0.00000000000E+00 -0.24797297617E+04  0.24797297617E+04  0.25500000920E-02 0. -1.
    10030    2    1    2    0    0  0.00000000000E+00  0.00000000000E+00 -0.93785915965E+03  0.40216003637E+04  0.39107147278E+04 0.  0.
        2    1    3    3  502    0 -0.15579254760E+04  0.81563977411E+03  0.41031179005E+03  0.18057562944E+04  0.25500000920E-02 0. -1.
       -2    1    3    3    0  502  0.15579254760E+04 -0.81563977411E+03 -0.13481709497E+04  0.22158440693E+04  0.25500000920E-02 0.  1.
</event>
<event>
 5   0  0.4750125E-08  0.3925460E+04  0.7818609E-02  0.8019755E-01
        1   -1    0    0  501    0  0.00000000000E+00  0.00000000000E+00  0.23464529005E+04  0.23464529005E+04  0.50400001928E-02 0.  1.
       -1   -1    0    0    0  501  0.00000000000E+00  0.00000000000E+00 -0.16417586233E+04  0.16417586233E+04  0.50400001928E-02 0. -1.
    10030    2    1    2    0    0  0.00000000000E+00  0.00000000000E+00  0.70469427722E+03  0.39882115238E+04  0.39254601175E+04 0.  0.
        3    1    3    3  502    0 -0.59323981095E+03  0.13915271981E+04 -0.91825580390E+03  0.17695974536E+04  0.10100000352E+00 0. -1.
       -3    1    3    3    0  502  0.59323981095E+03 -0.13915271981E+04  0.16229500811E+04  0.22186140702E+04  0.10100000352E+00 0.  1.
</event>
<event>
 5   0  0.4762788E-08  0.3938437E+04  0.7818609E-02  0.8017082E-01
        1   -1    0    0  501    0  0.00000000000E+00  0.00000000000E+00  0.26562387584E+04  0.26562387584E+04  0.50400001928E-02 0.  1.
       -1   -1    0    0    0  501  0.00000000000E+00  0.00000000000E+00 -0.14598916040E+04  0.14598916040E+04  0.50400001928E-02 0. -1.
    10030    2    1    2    0    0  0.00000000000E+00  0.00000000000E+00  0.11963471544E+04  0.41161303624E+04  0.39384365738E+04 0.  0.
        2    1    3    3  502    0  0.26490721933E+03  0.14853283396E+04  0.19207513449E+04  0.24424704380E+04  0.25500000920E-02 0.  1.
       -2    1    3    3    0  502 -0.26490721933E+03 -0.14853283396E+04 -0.72440419050E+03  0.16736599244E+04  0.25500000920E-02 0. -1.
</event>
<event>
 5   0  0.1538018E-07  0.3857618E+04  0.7818609E-02  0.8033902E-01
        2   -1    0    0  501    0  0.00000000000E+00  0.00000000000E+00  0.15160868996E+04  0.15160868996E+04  0.25500000920E-02 0.  1.
       -2   -1    0    0    0  501  0.00000000000E+00  0.00000000000E+00 -0.24538855339E+04  0.24538855339E+04  0.25500000920E-02 0. -1.
    10030    2    1    2    0    0  0.00000000000E+00  0.00000000000E+00 -0.93779863429E+03  0.39699724335E+04  0.38576177681E+04 0.  0.
        1    1    3    3  502    0  0.17855720252E+04  0.46586737488E+03 -0.10464980392E+04  0.21214282958E+04  0.50400001928E-02 0. -1.
       -1    1    3    3    0  502 -0.17855720252E+04 -0.46586737488E+03  0.10869940490E+03  0.18485441377E+04  0.50400001928E-02 0.  1.
</event>
<event>
 5   0  0.4762788E-08  0.3958467E+04  0.7818609E-02  0.8012978E-01
        1   -1    0    0  501    0  0.00000000000E+00  0.00000000000E+00  0.23036147234E+04  0.23036147234E+04  0.50400001928E-02 0.  1.
       -1   -1    0    0    0  501  0.00000000000E+00  0.00000000000E+00 -0.17005296472E+04  0.17005296472E+04  0.50400001928E-02 0. -1.
    10030    2    1    2    0    0  0.00000000000E+00  0.00000000000E+00  0.60308507627E+03  0.40041443706E+04  0.39584669420E+04 0.  0.
        2    1    3    3  502    0 -0.86530060480E+02 -0.18369495339E+04  0.10417612289E+04  0.21135603846E+04  0.25500000920E-02 0.  1.
       -2    1    3    3    0  502  0.86530060480E+02  0.18369495339E+04 -0.43867615259E+03  0.18905839860E+04  0.25500000920E-02 0. -1.
</event>
<event>
 5   0  0.4750125E-08  0.3900407E+04  0.7818609E-02  0.8024945E-01
        1   -1    0    0  501    0  0.00000000000E+00  0.00000000000E+00  0.24217408245E+04  0.24217408245E+04  0.50400001928E-02 0. -1.
       -1   -1    0    0    0  501  0.00000000000E+00  0.00000000000E+00 -0.15704789486E+04  0.15704789486E+04  0.50400001928E-02 0.  1.
    10030    2    1    2    0    0  0.00000000000E+00  0.00000000000E+00  0.85126187582E+03  0.39922197731E+04  0.39004066372E+04 0.  0.
        5    1    3    3  502    0 -0.18809391302E+04  0.51203590863E+03  0.36811102434E+03  0.19838449031E+04  0.46999998093E+01 0.  1.
       -5    1    3    3    0  502  0.18809391302E+04 -0.51203590863E+03  0.48315085148E+03  0.20083748700E+04  0.46999998093E+01 0. -1.
</event>
<event>
 5   0  0.1501585E-07  0.3914404E+04  0.7818609E-02  0.8022040E-01
       -2   -1    0    0    0  501  0.00000000000E+00  0.00000000000E+00  0.17956655888E+04  0.17956655888E+04  0.25500000920E-02 0.  1.
        2   -1    0    0  501    0  0.00000000000E+00  0.00000000000E+00 -0.21332700660E+04  0.21332700660E+04  0.25500000920E-02 0. -1.
    10030    2    1    2    0    0  0.00000000000E+00  0.00000000000E+00 -0.33760447715E+03  0.39289356548E+04  0.39144039900E+04 0.  0.
        5    1    3    3  502    0  0.82584475944E+03 -0.16740819214E+04 -0.75924426568E+03  0.20152031637E+04  0.46999998093E+01 0. -1.
       -5    1    3    3    0  502 -0.82584475944E+03  0.16740819214E+04  0.42163978853E+03  0.19137324911E+04  0.46999998093E+01 0.  1.
</event>
<event>
 5   0  0.4762788E-08  0.3908761E+04  0.7818609E-02  0.8023210E-01
       -1   -1    0    0    0  501  0.00000000000E+00  0.00000000000E+00  0.17479456854E+04  0.17479456854E+04  0.50400001928E-02 0. -1.
        1   -1    0    0  501    0  0.00000000000E+00  0.00000000000E+00 -0.21851955292E+04  0.21851955292E+04  0.50400001928E-02 0.  1.
    10030    2    1    2    0    0  0.00000000000E+00  0.00000000000E+00 -0.43724984382E+03  0.39331412146E+04  0.39087609786E+04 0.  0.
        2    1    3    3  502    0 -0.46114024738E+03  0.11399445509E+04  0.13098887299E+04  0.17966447595E+04  0.25500000920E-02 0.  1.
       -2    1    3    3    0  502  0.46114024738E+03 -0.11399445509E+04 -0.17471385738E+04  0.21364964551E+04  0.25500000920E-02 0. -1.
</event>
<event>
 5   0  0.4750125E-08  0.3888595E+04  0.7818609E-02  0.8027405E-01
        1   -1    0    0  501    0  0.00000000000E+00  0.00000000000E+00  0.16373208554E+04  0.16373208554E+04  0.50400001928E-02 0. -1.
       -1   -1    0    0    0  501  0.00000000000E+00  0.00000000000E+00 -0.23088282882E+04  0.23088282882E+04  0.50400001928E-02 0.  1.
    10030    2    1    2    0    0  0.00000000000E+00  0.00000000000E+00 -0.67150743281E+03  0.39461491437E+04  0.38885949689E+04 0.  0.
        3    1    3    3  502    0 -0.11686802988E+04  0.13589319501E+04  0.42891263979E+03  0.18429529968E+04  0.10100000352E+00 0. -1.
       -3    1    3    3    0  502  0.11686802988E+04 -0.13589319501E+04 -0.11004200726E+04  0.21031961469E+04  0.10100000352E+00 0.  1.
</event>
<event>
 5   0  0.4750125E-08  0.3938042E+04  0.7818609E-02  0.8017163E-01
       -1   -1    0    0    0  501  0.00000000000E+00  0.00000000000E+00  0.20400632202E+04  0.20400632202E+04  0.50400001928E-02 0.  1.
        1   -1    0    0  501    0  0.00000000000E+00  0.00000000000E+00 -0.19004529944E+04  0.19004529944E+04  0.50400001928E-02 0. -1.
    10030    2    1    2    0    0  0.00000000000E+00  0.00000000000E+00  0.13961022577E+03  0.39405162146E+04  0.39380422830E+04 0.  0.
        5    1    3    3  502    0  0.16800187542E+04  0.41203804143E+03 -0.87141527527E+03  0.19369112097E+04  0.46999998093E+01 0. -1.
       -5    1    3    3    0  502 -0.16800187542E+04 -0.41203804143E+03  0.10110255010E+04  0.20036050050E+04  0.46999998093E+01 0.  1.
</event>
<event>
 5   0  0.1546846E-07  0.3885314E+04  0.7818609E-02  0.8028091E-01
       -2   -1    0    0    0  501  0.00000000000E+00  0.00000000000E+00  0.27546536265E+04  0.27546536265E+04  0.25500000920E-02 0. -1.
        2   -1    0    0  501    0  0.00000000000E+00  0.00000000000E+00 -0.13700146132E+04  0.13700146132E+04  0.25500000920E-02 0.  1.
    10030    2    1    2    0    0  0.00000000000E+00  0.00000000000E+00  0.13846390133E+04  0.41246682397E+04  0.38853137441E+04 0.  0.
        2    1    3    3  502    0 -0.74198007739E+03  0.57032304348E+03 -0.11149402550E+04  0.14556423260E+04  0.25500000920E-02 0.  1.
       -2    1    3    3    0  502  0.74198007739E+03 -0.57032304348E+03  0.24995792683E+04  0.26690259136E+04  0.25500000920E-02 0. -1.
</event>
<event>
 5   0  0.1503228E-07  0.3905674E+04  0.7818609E-02  0.8023850E-01
        2   -1    0    0  501    0  0.00000000000E+00  0.00000000000E+00  0.23114957173E+04  0.23114957173E+04  0.25500000920E-02 0.  1.
       -2   -1    0    0    0  501  0.00000000000E+00  0.00000000000E+00 -0.16498290875E+04  0.16498290875E+04  0.25500000920E-02 0. -1.
    10030    2    1    2    0    0  0.00000000000E+00  0.00000000000E+00  0.66166662980E+03  0.39613248048E+04  0.39056742671E+04 0.  0.
        3    1    3    3  502    0  0.92835917578E+03 -0.10685423496E+04  0.16953424386E+04  0.22085786167E+04  0.10100000352E+00 0.  1.
       -3    1    3    3    0  502 -0.92835917578E+03  0.10685423496E+04 -0.10336758088E+04  0.17527461881E+04  0.10100000352E+00 0. -1.
</event>
<event>
 5   0  0.4750125E-08  0.3678948E+04  0.7818609E-02  0.8072643E-01
       -1   -1    0    0    0  501  0.00000000000E+00  0.00000000000E+00  0.28707429862E+04  0.28707429862E+04  0.50400001928E-02 0.  1.
        1   -1    0    0  501    0  0.00000000000E+00  0.00000000000E+00 -0.11786721521E+04  0.11786721522E+04  0.50400001928E-02 0. -1.
    10030    2    1    2    0    0  0.00000000000E+00  0.00000000000E+00  0.16920708340E+04  0.40494151383E+04  0.36789481180E+04 0.  0.
        3    1    3    3  502    0  0.16068593152E+04  0.84792396859E+03  0.11625565556E+04  0.21569677027E+04  0.10100000352E+00 0. -1.
       -3    1    3    3    0  502 -0.16068593152E+04 -0.84792396859E+03  0.52951427839E+03  0.18924474356E+04  0.10100000352E+00 0.  1.
</event>
<event>
 5   0  0.1538018E-07  0.3885881E+04  0.7818609E-02  0.8027972E-01
        2   -1    0    0  501    0  0.00000000000E+00  0.00000000000E+00  0.15427847808E+04  0.15427847808E+04  0.25500000920E-02 0. -1.
       -2   -1    0    0    0  501  0.00000000000E+00  0.00000000000E+00 -0.24468850310E+04  0.24468850310E+04  0.25500000920E-02 0.  1.
    10030    2    1    2    0    0  0.00000000000E+00  0.00000000000E+00 -0.90410025021E+03  0.39896698117E+04  0.38858805880E+04 0.  0.
        1    1    3    3  502    0 -0.96476088420E+03  0.16843882498E+04 -0.53849908757E+03  0.20144251307E+04  0.50400001928E-02 0.  1.
       -1    1    3    3    0  502  0.96476088420E+03 -0.16843882498E+04 -0.36560116265E+03  0.19752446810E+04  0.50400001928E-02 0. -1.
</event>
<event>
 5   0  0.1538018E-07  0.3904505E+04  0.7818609E-02  0.8024093E-01
       -2   -1    0    0    0  501  0.00000000000E+00  0.00000000000E+00  0.13503866317E+04  0.13503866317E+04  0.25500000920E-02 0.  1.
        2   -1    0    0  501    0  0.00000000000E+00  0.00000000000E+00 -0.28223697035E+04  0.28223697035E+04  0.25500000920E-02 0. -1.
    10030    2    1    2    0    0  0.00000000000E+00  0.00000000000E+00 -0.14719830718E+04  0.41727563352E+04  0.39045052528E+04 0.  0.
        1    1    3    3  502    0 -0.32512749114E+02  0.93761791868E+03  0.10936784624E+04  0.14409431007E+04  0.50400001928E-02 0.  1.
       -1    1    3    3    0  502  0.32512749114E+02 -0.93761791868E+03 -0.25656615341E+04  0.27318132345E+04  0.50400001928E-02 0. -1.
</event>
<event>
 5   0  0.1501585E-07  0.3915004E+04  0.7818609E-02  0.8021916E-01
       -2   -1    0    0    0  501  0.00000000000E+00  0.00000000000E+00  0.16769632441E+04  0.16769632441E+04  0.25500000920E-02 0. -1.
        2   -1    0    0  501    0  0.00000000000E+00  0.00000000000E+00 -0.22849714970E+04  0.22849714971E+04  0.25500000920E-02 0.  1.
    10030    2    1    2    0    0  0.00000000000E+00  0.00000000000E+00 -0.60800825299E+03  0.39619347411E+04  0.39150035577E+04 0.  0.
        5    1    3    3  502    0  0.17527349185E+03  0.17743900910E+04 -0.11215310477E+04  0.21064270633E+04  0.46999998093E+01 0.  1.
       -5    1    3    3    0  502 -0.17527349185E+03 -0.17743900910E+04  0.51352279471E+03  0.18555076778E+04  0.46999998093E+01 0. -1.
</event>
<event>
 5   0  0.1503228E-07  0.3871991E+04  0.7818609E-02  0.8030880E-01
       -2   -1    0    0    0  501  0.00000000000E+00  0.00000000000E+00  0.13788424526E+04  0.13788424526E+04  0.25500000920E-02 0.  1.
        2   -1    0    0  501    0  0.00000000000E+00  0.00000000000E+00 -0.27182784207E+04  0.27182784207E+04  0.25500000920E-02 0. -1.
    10030    2    1    2    0    0  0.00000000000E+00  0.00000000000E+00 -0.13394359681E+04  0.40971208734E+04  0.38719905395E+04 0.  0.
        3    1    3    3  502    0 -0.73382330250E+03  0.28884646033E+03  0.12011765631E+04  0.14369252113E+04  0.10100000352E+00 0.  1.
       -3    1    3    3    0  502  0.73382330250E+03 -0.28884646033E+03 -0.25406125312E+04  0.26601956621E+04  0.10100000352E+00 0. -1.
</event>
<event>
 5   0  0.4750125E-08  0.3903754E+04  0.7818609E-02  0.8024249E-01
        1   -1    0    0  501    0  0.00000000000E+00  0.00000000000E+00  0.14529854385E+04  0.14529854385E+04  0.50400001928E-02 0. -1.
       -1   -1    0    0    0  501  0.00000000000E+00  0.00000000000E+00 -0.26220660493E+04  0.26220660493E+04  0.50400001928E-02 0.  1.
    10030    2    1    2    0    0  0.00000000000E+00  0.00000000000E+00 -0.11690806108E+04  0.40750514878E+04  0.39037539822E+04 0.  0.
        1    1    3    3  502    0  0.86561381080E+03  0.17492220130E+04 -0.55578394674E+03  0.20292759092E+04  0.50400001928E-02 0.  1.
       -1    1    3    3    0  502 -0.86561381080E+03 -0.17492220130E+04 -0.61329666405E+03  0.20457755787E+04  0.50400001928E-02 0. -1.
</event>
<event>
 5   0  0.4750125E-08  0.3899164E+04  0.7818609E-02  0.8025203E-01
       -1   -1    0    0    0  501  0.00000000000E+00  0.00000000000E+00  0.24504396914E+04  0.24504396914E+04  0.50400001928E-02 0. -1.
        1   -1    0    0  501    0  0.00000000000E+00  0.00000000000E+00 -0.15510970749E+04  0.15510970749E+04  0.50400001928E-02 0.  1.
    10030    2    1    2    0    0  0.00000000000E+00  0.00000000000E+00  0.89934261654E+03  0.40015367663E+04  0.38991639297E+04 0.  0.
        3    1    3    3  502    0  0.12285737114E+04  0.13088972677E+04  0.12300736208E+04  0.21761632624E+04  0.10100000352E+00 0. -1.
       -3    1    3    3    0  502 -0.12285737114E+04 -0.13088972677E+04 -0.33073100423E+03  0.18253735040E+04  0.10100000352E+00 0.  1.
</event>
<event>
 5   0  0.4750125E-08  0.3872738E+04  0.7818609E-02  0.8030723E-01
        1   -1    0    0  501    0  0.00000000000E+00  0.00000000000E+00  0.27875040901E+04  0.27875040901E+04  0.50400001928E-02 0. -1.
       -1   -1    0    0    0  501  0.00000000000E+00  0.00000000000E+00 -0.13451193992E+04  0.13451193993E+04  0.50400001928E-02 0.  1.
    10030    2    1    2    0    0  0.00000000000E+00  0.00000000000E+00  0.14423846909E+04  0.41326234894E+04  0.38727384767E+04 0.  0.
        3    1    3    3  502    0 -0.34361859456E+03  0.18959363055E+04  0.51627014212E+03  0.19947889821E+04  0.10100000352E+00 0. -1.
       -3    1    3    3    0  502  0.34361859456E+03 -0.18959363055E+04  0.92611454877E+03  0.21378345073E+04  0.10100000352E+00 0.  1.
</event>
<event>
 5   0  0.1501585E-07  0.3884643E+04  0.7818609E-02  0.8028231E-01
       -2   -1    0    0    0  501  0.00000000000E+00  0.00000000000E+00  0.20146436265E+04  0.20146436265E+04  0.25500000920E-02 0.  1.
        2   -1    0    0  501    0  0.00000000000E+00  0.00000000000E+00 -0.18725960626E+04  0.18725960626E+04  0.25500000920E-02 0. -1.
    10030    2    1    2    0    0  0.00000000000E+00  0.00000000000E+00  0.14204756388E+03  0.38872396891E+04  0.38846434702E+04 0.  0.
        5    1    3    3  502    0 -0.18841943353E+04 -0.45449967056E+03 -0.54891108991E+02  0.19390186610E+04  0.46999998093E+01 0.  1.
       -5    1    3    3    0  502  0.18841943353E+04  0.45449967056E+03  0.19693867287E+03  0.19482210282E+04  0.46999998093E+01 0. -1.
</event>
<event>
 5   0  0.1538018E-07  0.3895031E+04  0.7818609E-02  0.8026064E-01
        2   -1    0    0  501    0  0.00000000000E+00  0.00000000000E+00  0.29458566349E+04  0.29458566349E+04  0.25500000920E-02 0. -1.
       -2   -1    0    0    0  501  0.00000000000E+00  0.00000000000E+00 -0.12875086202E+04  0.12875086202E+04  0.25500000920E-02 0.  1.
    10030    2    1    2    0    0  0.00000000000E+00  0.00000000000E+00  0.16583480146E+04  0.42333652551E+04  0.38950305834E+04 0.  0.
        1    1    3    3  502    0 -0.47665753404E+03  0.35015683939E+03 -0.11875367137E+04  0.13266708949E+04  0.50400001928E-02 0.  1.
       -1    1    3    3    0  502  0.47665753404E+03 -0.35015683939E+03  0.28458847283E+04  0.29066943602E+04  0.50400001928E-02 0. -1.
</event>
<event>
 5   0  0.4750125E-08  0.3911369E+04  0.7818609E-02  0.8022669E-01
       -1   -1    0    0    0  501  0.00000000000E+00  0.00000000000E+00  0.19522482596E+04  0.19522482596E+04  0.50400001928E-02 0. -1.
        1   -1    0    0  501    0  0.00000000000E+00  0.00000000000E+00 -0.19591271599E+04  0.19591271599E+04  0.50400001928E-02 0.  1.
    10030    2    1    2    0    0  0.00000000000E+00  0.00000000000E+00 -0.68789003030E+01  0.39113754195E+04  0.39113693706E+04 0.  0.
        5    1    3    3  502    0 -0.10300728143E+04  0.51200945898E+03 -0.15850476654E+04  0.19584692697E+04  0.46999998093E+01 0.  1.
       -5    1    3    3    0  502  0.10300728143E+04 -0.51200945898E+03  0.15781687651E+04  0.19529061498E+04  0.46999998093E+01 0. -1.
</event>
<event>
 5   0  0.4750125E-08  0.3857017E+04  0.7818609E-02  0.8034029E-01
       -1   -1    0    0    0  501  0.00000000000E+00  0.00000000000E+00  0.12455636755E+04  0.12455636756E+04  0.50400001928E-02 0.  1.
        1   -1    0    0  501    0  0.00000000000E+00  0.00000000000E+00 -0.29859134612E+04  0.29859134612E+04  0.50400001928E-02 0. -1.
    10030    2    1    2    0    0  0.00000000000E+00  0.00000000000E+00 -0.17403497856E+04  0.42314771367E+04  0.38570171613E+04 0.  0.
        5    1    3    3  502    0 -0.35703645484E+03 -0.16791201558E+04  0.93890236313E+02  0.17192315127E+04  0.46999998093E+01 0.  1.
       -5    1    3    3    0  502  0.35703645484E+03  0.16791201558E+04 -0.18342400220E+04  0.25122456241E+04  0.46999998093E+01 0. -1.
</event>
<event>
 5   0  0.1538018E-07  0.3910367E+04  0.7818609E-02  0.8022877E-01
       -2   -1    0    0    0  501  0.00000000000E+00  0.00000000000E+00  0.22161895498E+04  0.22161895498E+04  0.25500000920E-02 0. -1.
        2   -1    0    0  501    0  0.00000000000E+00  0.00000000000E+00 -0.17249163414E+04  0.17249163414E+04  0.25500000920E-02 0.  1.
    10030    2    1    2    0    0  0.00000000000E+00  0.00000000000E+00  0.49127320840E+03  0.39411058913E+04  0.39103665149E+04 0.  0.
        1    1    3    3  502    0  0.88513666999E+03  0.82588422709E+03  0.17930199678E+04  0.21634399197E+04  0.50400001928E-02 0. -1.
       -1    1    3    3    0  502 -0.88513666999E+03 -0.82588422709E+03 -0.13017467594E+04  0.17776659716E+04  0.50400001928E-02 0.  1.
</event>
<event>
 5   0  0.4750125E-08  0.3922170E+04  0.7818609E-02  0.8020434E-01
       -1   -1    0    0    0  501  0.00000000000E+00  0.00000000000E+00  0.32129739274E+04  0.32129739274E+04  0.50400001928E-02 0. -1.
        1   -1    0    0  501    0  0.00000000000E+00  0.00000000000E+00 -0.11969764894E+04  0.11969764894E+04  0.50400001928E-02 0.  1.
    10030    2    1    2    0    0  0.00000000000E+00  0.00000000000E+00  0.20159974380E+04  0.44099504169E+04  0.39221699363E+04 0.  0.
        3    1    3    3  502    0  0.87428663555E+03 -0.10008140542E+03  0.29785139264E+04  0.31057911438E+04  0.10100000352E+00 0. -1.
       -3    1    3    3    0  502 -0.87428663555E+03  0.10008140542E+03 -0.96251648843E+03  0.13041592731E+04  0.10100000352E+00 0.  1.
</event>
<event>
 5   0  0.4762788E-08  0.4094548E+04  0.7818609E-02  0.7985740E-01
        1   -1    0    0  501    0  0.00000000000E+00  0.00000000000E+00  0.16236700608E+04  0.16236700608E+04  0.50400001928E-02 0. -1.
       -1   -1    0    0    0  501  0.00000000000E+00  0.00000000000E+00 -0.25813935869E+04  0.25813935869E+04  0.50400001928E-02 0.  1.
    10030    2    1    2    0    0  0.00000000000E+00  0.00000000000E+00 -0.95772352603E+03  0.42050636477E+04  0.40945483181E+04 0.  0.
        2    1    3    3  502    0  0.12154307214E+04  0.14035558827E+04 -0.13647510734E+04  0.23042973868E+04  0.25500000920E-02 0.  1.
       -2    1    3    3    0  502 -0.12154307214E+04 -0.14035558827E+04  0.40702754732E+03  0.19007662609E+04  0.25500000920E-02 0. -1.
</event>
<event>
 5   0  0.4750125E-08  0.3879754E+04  0.7818609E-02  0.8029253E-01
        1   -1    0    0  501    0  0.00000000000E+00  0.00000000000E+00  0.12287023430E+04  0.12287023430E+04  0.50400001928E-02 0. -1.
       -1   -1    0    0    0  501  0.00000000000E+00  0.00000000000E+00 -0.30626810656E+04  0.30626810656E+04  0.50400001928E-02 0.  1.
    10030    2    1    2    0    0  0.00000000000E+00  0.00000000000E+00 -0.18339787225E+04  0.42913834086E+04  0.38797543228E+04 0.  0.
        4    1    3    3  502    0  0.13230033003E+03 -0.12584853410E+04 -0.25433024936E+04  0.28407178525E+04  0.12699999809E+01 0.  1.
       -4    1    3    3    0  502 -0.13230033003E+03  0.12584853410E+04  0.70932377103E+03  0.14506655561E+04  0.12699999809E+01 0. -1.
</event>
<event>
 5   0  0.4750125E-08  0.3894249E+04  0.7818609E-02  0.8026226E-01
        1   -1    0    0  501    0  0.00000000000E+00  0.00000000000E+00  0.18286100365E+04  0.18286100365E+04  0.50400001928E-02 0.  1.
       -1   -1    0    0    0  501  0.00000000000E+00  0.00000000000E+00 -0.20733196074E+04  0.20733196074E+04  0.50400001928E-02 0. -1.
    10030    2    1    2    0    0  0.00000000000E+00  0.00000000000E+00 -0.24470957092E+03  0.39019296439E+04  0.38942486017E+04 0.  0.
        4    1    3    3  502    0 -0.24721920994E+03 -0.84059053670E+02  0.18109867828E+04  0.18297152791E+04  0.12699999809E+01 0.  1.
       -4    1    3    3    0  502  0.24721920994E+03  0.84059053670E+02 -0.20556963537E+04  0.20722143648E+04  0.12699999809E+01 0. -1.
</event>
<event>
 5   0  0.4750125E-08  0.3916572E+04  0.7818609E-02  0.8021591E-01
        1   -1    0    0  501    0  0.00000000000E+00  0.00000000000E+00  0.22818587946E+04  0.22818587946E+04  0.50400001928E-02 0. -1.
       -1   -1    0    0    0  501  0.00000000000E+00  0.00000000000E+00 -0.16805961789E+04  0.16805961789E+04  0.50400001928E-02 0.  1.
    10030    2    1    2    0    0  0.00000000000E+00  0.00000000000E+00  0.60126261577E+03  0.39624549735E+04  0.39165715471E+04 0.  0.
        1    1    3    3  502    0 -0.41147828840E+03  0.14582986164E+04 -0.95443960266E+03  0.17907831224E+04  0.50400001928E-02 0. -1.
       -1    1    3    3    0  502  0.41147828840E+03 -0.14582986164E+04  0.15557022184E+04  0.21716718511E+04  0.50400001928E-02 0.  1.
</event>
<event>
 5   0  0.4750125E-08  0.3871702E+04  0.7818609E-02  0.8030941E-01
        1   -1    0    0  501    0  0.00000000000E+00  0.00000000000E+00  0.17292026689E+04  0.17292026689E+04  0.50400001928E-02 0. -1.
       -1   -1    0    0    0  501  0.00000000000E+00  0.00000000000E+00 -0.21671942993E+04  0.21671942993E+04  0.50400001928E-02 0.  1.
    10030    2    1    2    0    0  0.00000000000E+00  0.00000000000E+00 -0.43799163041E+03  0.38963969681E+04  0.38717015206E+04 0.  0.
        3    1    3    3  502    0  0.89648021164E+03  0.15499249180E+04 -0.95960703137E+03  0.20314501437E+04  0.10100000352E+00 0.  1.
       -3    1    3    3    0  502 -0.89648021164E+03 -0.15499249180E+04  0.52161540096E+03  0.18649468245E+04  0.10100000352E+00 0. -1.
</event>
<event>
 5   0  0.4750125E-08  0.3824162E+04  0.7818609E-02  0.8040990E-01
        1   -1    0    0  501    0  0.00000000000E+00  0.00000000000E+00  0.11596900751E+04  0.11596900751E+04  0.50400001928E-02 0. -1.
       -1   -1    0    0    0  501  0.00000000000E+00  0.00000000000E+00 -0.31526119954E+04  0.31526119954E+04  0.50400001928E-02 0.  1.
    10030    2    1    2    0    0  0.00000000000E+00  0.00000000000E+00 -0.19929219203E+04  0.43123020705E+04  0.38241615246E+04 0.  0.
        4    1    3    3  502    0 -0.10919288766E+04 -0.42633594076E+03  0.70698705813E+03  0.13689058840E+04  0.12699999809E+01 0. -1.
       -4    1    3    3    0  502  0.10919288766E+04  0.42633594076E+03 -0.26999089784E+04  0.29433961865E+04  0.12699999809E+01 0.  1.
</event>
<event>
 5   0  0.1503228E-07  0.3871649E+04  0.7818609E-02  0.8030952E-01
       -2   -1    0    0    0  501  0.00000000000E+00  0.00000000000E+00  0.18409582694E+04  0.18409582694E+04  0.25500000920E-02 0. -1.
        2   -1    0    0  501    0  0.00000000000E+00  0.00000000000E+00 -0.20355788989E+04  0.20355788989E+04  0.25500000920E-02 0.  1.
    10030    2    1    2    0    0  0.00000000000E+00  0.00000000000E+00 -0.19462062949E+03  0.38765371684E+04  0.38716486448E+04 0.  0.
        3    1    3    3  502    0 -0.14780357053E+04 -0.82978192127E+03  0.83890410606E+03  0.18912661612E+04  0.10100000352E+00 0. -1.
       -3    1    3    3    0  502  0.14780357053E+04  0.82978192127E+03 -0.10335247356E+04  0.19852710072E+04  0.10100000352E+00 0.  1.
</event>
<event>
 5   0  0.4762788E-08  0.3897021E+04  0.7818609E-02  0.8025649E-01
        1   -1    0    0  501    0  0.00000000000E+00  0.00000000000E+00  0.20215234661E+04  0.20215234661E+04  0.50400001928E-02 0.  1.
       -1   -1    0    0    0  501  0.00000000000E+00  0.00000000000E+00 -0.18781346502E+04  0.18781346502E+04  0.50400001928E-02 0. -1.
    10030    2    1    2    0    0  0.00000000000E+00  0.00000000000E+00  0.14338881584E+03  0.38996581163E+04  0.38970210510E+04 0.  0.
        2    1    3    3  502    0  0.12913260502E+04  0.12687622124E+04  0.79288505280E+03  0.19763469399E+04  0.25500000920E-02 0.  1.
       -2    1    3    3    0  502 -0.12913260502E+04 -0.12687622124E+04 -0.64949623696E+03  0.19233111765E+04  0.25500000920E-02 0. -1.
</event>
<event>
 5   0  0.4750125E-08  0.3911027E+04  0.7818609E-02  0.8022740E-01
        1   -1    0    0  501    0  0.00000000000E+00  0.00000000000E+00  0.21592132688E+04  0.21592132688E+04  0.50400001928E-02 0. -1.
       -1   -1    0    0    0  501  0.00000000000E+00  0.00000000000E+00 -0.17710305005E+04  0.17710305005E+04  0.50400001928E-02 0.  1.
    10030    2    1    2    0    0  0.00000000000E+00  0.00000000000E+00  0.38818276830E+03  0.39302437692E+04  0.39110267481E+04 0.  0.
        3    1    3    3  502    0 -0.14510389435E+04 -0.23374661994E+03  0.14903445773E+04  0.20931503690E+04  0.10100000352E+00 0. -1.
       -3    1    3    3    0  502  0.14510389435E+04  0.23374661994E+03 -0.11021618090E+04  0.18370934003E+04  0.10100000352E+00 0.  1.
</event>
<event>
 5   0  0.4762788E-08  0.3930568E+04  0.7818609E-02  0.8018701E-01
        1   -1    0    0  501    0  0.00000000000E+00  0.00000000000E+00  0.19756090635E+04  0.19756090636E+04  0.50400001928E-02 0.  1.
       -1   -1    0    0    0  501  0.00000000000E+00  0.00000000000E+00 -0.19550130965E+04  0.19550130965E+04  0.50400001928E-02 0. -1.
    10030    2    1    2    0    0  0.00000000000E+00  0.00000000000E+00  0.20595967067E+02  0.39306221600E+04  0.39305681995E+04 0.  0.
        2    1    3    3  502    0 -0.13467800038E+04  0.96193926845E+03 -0.10495269537E+04  0.19597577303E+04  0.25500000920E-02 0. -1.
       -2    1    3    3    0  502  0.13467800038E+04 -0.96193926845E+03  0.10701229208E+04  0.19708644297E+04  0.25500000920E-02 0.  1.
</event>
<event>
 5   0  0.1538018E-07  0.3875543E+04  0.7818609E-02  0.8030135E-01
        2   -1    0    0  501    0  0.00000000000E+00  0.00000000000E+00  0.19804320721E+04  0.19804320721E+04  0.25500000920E-02 0.  1.
       -2   -1    0    0    0  501  0.00000000000E+00  0.00000000000E+00 -0.18960296271E+04  0.18960296271E+04  0.25500000920E-02 0. -1.
    10030    2    1    2    0    0  0.00000000000E+00  0.00000000000E+00  0.84402445035E+02  0.38764616992E+04  0.38755427404E+04 0.  0.
        1    1    3    3  502    0  0.24440337888E+03  0.71078239704E+03  0.18286855495E+04  0.19771280855E+04  0.50400001928E-02 0.  1.
       -1    1    3    3    0  502 -0.24440337888E+03 -0.71078239704E+03 -0.17442831045E+04  0.18993336137E+04  0.50400001928E-02 0. -1.
</event>
<event>
 5   0  0.4750125E-08  0.3889206E+04  0.7818609E-02  0.8027278E-01
       -1   -1    0    0    0  501  0.00000000000E+00  0.00000000000E+00  0.11042469142E+04  0.11042469142E+04  0.50400001928E-02 0.  1.
        1   -1    0    0  501    0  0.00000000000E+00  0.00000000000E+00 -0.34244881965E+04  0.34244881965E+04  0.50400001928E-02 0. -1.
    10030    2    1    2    0    0  0.00000000000E+00  0.00000000000E+00 -0.23202412824E+04  0.45287351107E+04  0.38892058437E+04 0.  0.
        1    1    3    3  502    0 -0.90783448407E+03 -0.10294703998E+04  0.44389194211E+03  0.14425715964E+04  0.50400001928E-02 0.  1.
       -1    1    3    3    0  502  0.90783448407E+03  0.10294703998E+04 -0.27641332245E+04  0.30861635143E+04  0.50400001928E-02 0. -1.
</event>
<event>
 5   0  0.1546846E-07  0.3880936E+04  0.7818609E-02  0.8029006E-01
        2   -1    0    0  501    0  0.00000000000E+00  0.00000000000E+00  0.20871823743E+04  0.20871823743E+04  0.25500000920E-02 0.  1.
       -2   -1    0    0    0  501  0.00000000000E+00  0.00000000000E+00 -0.18040668216E+04  0.18040668216E+04  0.25500000920E-02 0. -1.
    10030    2    1    2    0    0  0.00000000000E+00  0.00000000000E+00  0.28311555273E+03  0.38912491959E+04  0.38809362129E+04 0.  0.
        2    1    3    3  502    0  0.79729876033E+03  0.67576206913E+03  0.17808570872E+04  0.20648950705E+04  0.25500000920E-02 0.  1.
       -2    1    3    3    0  502 -0.79729876033E+03 -0.67576206913E+03 -0.14977415345E+04  0.18263541254E+04  0.25500000920E-02 0. -1.
</event>
<event>
 5   0  0.4750125E-08  0.3828330E+04  0.7818609E-02  0.8040103E-01
       -1   -1    0    0    0  501  0.00000000000E+00  0.00000000000E+00  0.34054819935E+04  0.34054819935E+04  0.50400001928E-02 0.  1.
        1   -1    0    0  501    0  0.00000000000E+00  0.00000000000E+00 -0.10759204053E+04  0.10759204053E+04  0.50400001928E-02 0. -1.
    10030    2    1    2    0    0  0.00000000000E+00  0.00000000000E+00  0.23295615882E+04  0.44814023989E+04  0.38283299580E+04 0.  0.
        1    1    3    3  502    0 -0.64378882006E+03 -0.19353403746E+03  0.32627526436E+04  0.33312871810E+04  0.50400001928E-02 0.  1.
       -1    1    3    3    0  502  0.64378882006E+03  0.19353403746E+03 -0.93319105543E+03  0.11501152179E+04  0.50400001928E-02 0. -1.
</event>
<event>
 5   0  0.4750125E-08  0.3923282E+04  0.7818609E-02  0.8020204E-01
        1   -1    0    0  501    0  0.00000000000E+00  0.00000000000E+00  0.19858115707E+04  0.19858115707E+04  0.50400001928E-02 0. -1.
       -1   -1    0    0    0  501  0.00000000000E+00  0.00000000000E+00 -0.19377642801E+04  0.19377642801E+04  0.50400001928E-02 0.  1.
    10030    2    1    2    0    0  0.00000000000E+00  0.00000000000E+00  0.48047290585E+02  0.39235758508E+04  0.39232816513E+04 0.  0.
        3    1    3    3  502    0 -0.23701175319E+03  0.61632429542E+03 -0.18232760730E+04  0.19391662788E+04  0.10100000352E+00 0.  1.
       -3    1    3    3    0  502  0.23701175319E+03 -0.61632429542E+03  0.18713233636E+04  0.19844095720E+04  0.10100000352E+00 0. -1.
</event>
<event>
 5   0  0.1503228E-07  0.3924647E+04  0.7818609E-02  0.8019922E-01
       -2   -1    0    0    0  501  0.00000000000E+00  0.00000000000E+00  0.21525594512E+04  0.21525594512E+04  0.25500000920E-02 0. -1.
        2   -1    0    0  501    0  0.00000000000E+00  0.00000000000E+00 -0.17889003838E+04  0.17889003838E+04  0.25500000920E-02 0.  1.
    10030    2    1    2    0    0  0.00000000000E+00  0.00000000000E+00  0.36365906735E+03  0.39414598350E+04  0.39246474636E+04 0.  0.
        3    1    3    3  502    0 -0.15012999219E+04  0.11828421256E+04 -0.26470701128E+03  0.19295301919E+04  0.10100000352E+00 0.  1.
       -3    1    3    3    0  502  0.15012999219E+04 -0.11828421256E+04  0.62836607862E+03  0.20119296430E+04  0.10100000352E+00 0. -1.
</event>
<event>
 5   0  0.1520986E-07  0.3886904E+04  0.7818609E-02  0.8027759E-01
        2   -1    0    0  501    0  0.00000000000E+00  0.00000000000E+00  0.13479575065E+04  0.13479575065E+04  0.25500000920E-02 0.  1.
       -2   -1    0    0    0  501  0.00000000000E+00  0.00000000000E+00 -0.28020207972E+04  0.28020207972E+04  0.25500000920E-02 0. -1.
    10030    2    1    2    0    0  0.00000000000E+00  0.00000000000E+00 -0.14540632908E+04  0.41499783037E+04  0.38869036350E+04 0.  0.
        4    1    3    3  502    0 -0.12709544168E+04 -0.74342095895E+03  0.62728603234E+03  0.16004653170E+04  0.12699999809E+01 0.  1.
       -4    1    3    3    0  502  0.12709544168E+04  0.74342095895E+03 -0.20813493231E+04  0.25495129867E+04  0.12699999809E+01 0. -1.
</event>
<event>
 5   0  0.4750125E-08  0.3888552E+04  0.7818609E-02  0.8027414E-01
        1   -1    0    0  501    0  0.00000000000E+00  0.00000000000E+00  0.19224316224E+04  0.19224316224E+04  0.50400001928E-02 0.  1.
       -1   -1    0    0    0  501  0.00000000000E+00  0.00000000000E+00 -0.19663685687E+04  0.19663685687E+04  0.50400001928E-02 0. -1.
    10030    2    1    2    0    0  0.00000000000E+00  0.00000000000E+00 -0.43936946293E+02  0.38888001911E+04  0.38885519761E+04 0.  0.
        1    1    3    3  502    0 -0.68649269501E+03  0.11665486115E+04 -0.14178015383E+04  0.19601706776E+04  0.50400001928E-02 0. -1.
       -1    1    3    3    0  502  0.68649269501E+03 -0.11665486115E+04  0.13738645920E+04  0.19286295135E+04  0.50400001928E-02 0.  1.
</event>
<event>
 5   0  0.4750125E-08  0.3779799E+04  0.7818609E-02  0.8050504E-01
       -1   -1    0    0    0  501  0.00000000000E+00  0.00000000000E+00  0.14472435410E+04  0.14472435411E+04  0.50400001928E-02 0.  1.
        1   -1    0    0  501    0  0.00000000000E+00  0.00000000000E+00 -0.24679471572E+04  0.24679471572E+04  0.50400001928E-02 0. -1.
    10030    2    1    2    0    0  0.00000000000E+00  0.00000000000E+00 -0.10207036161E+04  0.39151906982E+04  0.37797992449E+04 0.  0.
        5    1    3    3  502    0 -0.18086475171E+04 -0.52604367850E+03 -0.35065171363E+03  0.19159609879E+04  0.46999998093E+01 0.  1.
       -5    1    3    3    0  502  0.18086475171E+04  0.52604367850E+03 -0.67005190247E+03  0.19992297104E+04  0.46999998093E+01 0. -1.
</event>
<event>
 5   0  0.1503228E-07  0.3914460E+04  0.7818609E-02  0.8022028E-01
        2   -1    0    0  501    0  0.00000000000E+00  0.00000000000E+00  0.20199992339E+04  0.20199992339E+04  0.25500000920E-02 0. -1.
       -2   -1    0    0    0  501  0.00000000000E+00  0.00000000000E+00 -0.18964113515E+04  0.18964113515E+04  0.25500000920E-02 0.  1.
    10030    2    1    2    0    0  0.00000000000E+00  0.00000000000E+00  0.12358788243E+03  0.39164105854E+04  0.39144601044E+04 0.  0.
        3    1    3    3  502    0  0.54444747284E+03  0.13118095045E+04 -0.12855330122E+04  0.19156884826E+04  0.10100000352E+00 0.  1.
       -3    1    3    3    0  502 -0.54444747284E+03 -0.13118095045E+04  0.14091208946E+04  0.20007221028E+04  0.10100000352E+00 0. -1.
</event>
<event>
 5   0  0.4750125E-08  0.3930463E+04  0.7818609E-02  0.8018723E-01
       -1   -1    0    0    0  501  0.00000000000E+00  0.00000000000E+00  0.18069011702E+04  0.18069011702E+04  0.50400001928E-02 0.  1.
        1   -1    0    0  501    0  0.00000000000E+00  0.00000000000E+00 -0.21374356993E+04  0.21374356993E+04  0.50400001928E-02 0. -1.
    10030    2    1    2    0    0  0.00000000000E+00  0.00000000000E+00 -0.33053452904E+03  0.39443368695E+04  0.39304631108E+04 0.  0.
        4    1    3    3  502    0  0.15319975875E+04 -0.10561538542E+04 -0.79968217124E+03  0.20253322591E+04  0.12699999809E+01 0. -1.
       -4    1    3    3    0  502 -0.15319975875E+04  0.10561538542E+04  0.46914764220E+03  0.19190046104E+04  0.12699999809E+01 0.  1.
</event>
<event>
 5   0  0.1503228E-07  0.3900686E+04  0.7818609E-02  0.8024887E-01
       -2   -1    0    0    0  501  0.00000000000E+00  0.00000000000E+00  0.14075428371E+04  0.14075428371E+04  0.25500000920E-02 0. -1.
        2   -1    0    0  501    0  0.00000000000E+00  0.00000000000E+00 -0.27024669218E+04  0.27024669218E+04  0.25500000920E-02 0.  1.
    10030    2    1    2    0    0  0.00000000000E+00  0.00000000000E+00 -0.12949240846E+04  0.41100097589E+04  0.39006860721E+04 0.  0.
        3    1    3    3  502    0 -0.98016264640E+03  0.13726525323E+04 -0.16792691443E+04  0.23800921530E+04  0.10100000352E+00 0.  1.
       -3    1    3    3    0  502  0.98016264640E+03 -0.13726525323E+04  0.38434505963E+03  0.17299176058E+04  0.10100000352E+00 0. -1.
</event>
<event>
 5   0  0.4762788E-08  0.3892396E+04  0.7818609E-02  0.8026613E-01
       -1   -1    0    0    0  501  0.00000000000E+00  0.00000000000E+00  0.20876990747E+04  0.20876990747E+04  0.50400001928E-02 0.  1.
        1   -1    0    0  501    0  0.00000000000E+00  0.00000000000E+00 -0.18142873063E+04  0.18142873063E+04  0.50400001928E-02 0. -1.
    10030    2    1    2    0    0  0.00000000000E+00  0.00000000000E+00  0.27341176842E+03  0.39019863810E+04  0.38923956277E+04 0.  0.
        2    1    3    3  502    0 -0.27095221880E+03 -0.66339779859E+02  0.20675539913E+04  0.20862875109E+04  0.25500000920E-02 0.  1.
       -2    1    3    3    0  502  0.27095221880E+03  0.66339779859E+02 -0.17941422228E+04  0.18156988701E+04  0.25500000920E-02 0. -1.
</event>
<event>
 5   0  0.1501585E-07  0.3905260E+04  0.7818609E-02  0.8023936E-01
        2   -1    0    0  501    0  0.00000000000E+00  0.00000000000E+00  0.23537038604E+04  0.23537038604E+04  0.25500000920E-02 0. -1.
       -2   -1    0    0    0  501  0.00000000000E+00  0.00000000000E+00 -0.16198999977E+04  0.16198999977E+04  0.25500000920E-02 0.  1.
    10030    2    1    2    0    0  0.00000000000E+00  0.00000000000E+00  0.73380386266E+03  0.39736038581E+04  0.39052604923E+04 0.  0.
        5    1    3    3  502    0 -0.49225984931E+03 -0.18853420450E+04  0.49523773799E+03  0.20105016520E+04  0.46999998093E+01 0. -1.
       -5    1    3    3    0  502  0.49225984931E+03  0.18853420450E+04  0.23856612467E+03  0.19631022061E+04  0.46999998093E+01 0.  1.
</event>
<event>
 5   0  0.4750125E-08  0.3925607E+04  0.7818609E-02  0.8019724E-01
       -1   -1    0    0    0  501  0.00000000000E+00  0.00000000000E+00  0.17007304518E+04  0.17007304518E+04  0.50400001928E-02 0. -1.
        1   -1    0    0  501    0  0.00000000000E+00  0.00000000000E+00 -0.22652608217E+04  0.22652608217E+04  0.50400001928E-02 0.  1.
    10030    2    1    2    0    0  0.00000000000E+00  0.00000000000E+00 -0.56453036987E+03  0.39659912735E+04  0.39256072451E+04 0.  0.
        1    1    3    3  502    0  0.18948654630E+04  0.43399619790E+03 -0.79387083102E+01  0.19439472333E+04  0.50400001928E-02 0. -1.
       -1    1    3    3    0  502 -0.18948654630E+04 -0.43399619790E+03 -0.55659166156E+03  0.20220440402E+04  0.50400001928E-02 0.  1.
</event>
<event>
 5   0  0.4750125E-08  0.3898880E+04  0.7818609E-02  0.8025262E-01
        1   -1    0    0  501    0  0.00000000000E+00  0.00000000000E+00  0.23184872806E+04  0.23184872806E+04  0.50400001928E-02 0.  1.
       -1   -1    0    0    0  501  0.00000000000E+00  0.00000000000E+00 -0.16391360001E+04  0.16391360001E+04  0.50400001928E-02 0. -1.
    10030    2    1    2    0    0  0.00000000000E+00  0.00000000000E+00  0.67935128057E+03  0.39576232807E+04  0.38988798224E+04 0.  0.
        1    1    3    3  502    0 -0.95747027973E+03  0.15441121768E+04  0.10569222792E+04  0.21019316010E+04  0.50400001928E-02 0.  1.
       -1    1    3    3    0  502  0.95747027973E+03 -0.15441121768E+04 -0.37757099859E+03  0.18556916797E+04  0.50400001928E-02 0. -1.
</event>
<event>
 5   0  0.1503228E-07  0.3957387E+04  0.7818609E-02  0.8013198E-01
       -2   -1    0    0    0  501  0.00000000000E+00  0.00000000000E+00  0.24610628528E+04  0.24610628528E+04  0.25500000920E-02 0. -1.
        2   -1    0    0  501    0  0.00000000000E+00  0.00000000000E+00 -0.15908689252E+04  0.15908689252E+04  0.25500000920E-02 0.  1.
    10030    2    1    2    0    0  0.00000000000E+00  0.00000000000E+00  0.87019392764E+03  0.40519317780E+04  0.39573872267E+04 0.  0.
        3    1    3    3  502    0 -0.10011401258E+04 -0.47905227339E+03 -0.12421646120E+04  0.16657567546E+04  0.10100000352E+00 0.  1.
       -3    1    3    3    0  502  0.10011401258E+04  0.47905227339E+03  0.21123585396E+04  0.23861750234E+04  0.10100000352E+00 0. -1.
</event>
<event>
 5   0  0.4750125E-08  0.3669597E+04  0.7818609E-02  0.8074733E-01
        1   -1    0    0  501    0  0.00000000000E+00  0.00000000000E+00  0.20659482166E+04  0.20659482166E+04  0.50400001928E-02 0.  1.
       -1   -1    0    0    0  501  0.00000000000E+00  0.00000000000E+00 -0.16295112328E+04  0.16295112328E+04  0.50400001928E-02 0. -1.
    10030    2    1    2    0    0  0.00000000000E+00  0.00000000000E+00  0.43643698378E+03  0.36954594494E+04  0.36695971580E+04 0.  0.
        4    1    3    3  502    0 -0.47659364743E+03 -0.95912378341E+03 -0.12820542416E+04  0.16705462065E+04  0.12699999809E+01 0. -1.
       -4    1    3    3    0  502  0.47659364743E+03  0.95912378341E+03  0.17184912254E+04  0.20249132429E+04  0.12699999809E+01 0.  1.
</event>
<event>
 5   0  0.4750125E-08  0.3891484E+04  0.7818609E-02  0.8026803E-01
       -1   -1    0    0    0  501  0.00000000000E+00  0.00000000000E+00  0.14196455241E+04  0.14196455241E+04  0.50400001928E-02 0.  1.
        1   -1    0    0  501    0  0.00000000000E+00  0.00000000000E+00 -0.26668003767E+04  0.26668003767E+04  0.50400001928E-02 0. -1.
    10030    2    1    2    0    0  0.00000000000E+00  0.00000000000E+00 -0.12471548526E+04  0.40864459008E+04  0.38914836340E+04 0.  0.
        1    1    3    3  502    0 -0.12148573208E+04  0.11157556872E+04 -0.17073302814E+04  0.23739767803E+04  0.50400001928E-02 0. -1.
       -1    1    3    3    0  502  0.12148573208E+04 -0.11157556872E+04  0.46017542882E+03  0.17124691205E+04  0.50400001928E-02 0.  1.
</event>
<event>
 5   0  0.1501585E-07  0.3893210E+04  0.7818609E-02  0.8026443E-01
       -2   -1    0    0    0  501  0.00000000000E+00  0.00000000000E+00  0.13739185112E+04  0.13739185113E+04  0.25500000920E-02 0.  1.
        2   -1    0    0  501    0  0.00000000000E+00  0.00000000000E+00 -0.27580033972E+04  0.27580033972E+04  0.25500000920E-02 0. -1.
    10030    2    1    2    0    0  0.00000000000E+00  0.00000000000E+00 -0.13840848859E+04  0.41319219084E+04  0.38932104600E+04 0.  0.
        5    1    3    3  502    0  0.74710451835E+03  0.91541145445E+03  0.94977641681E+03  0.15159949288E+04  0.46999998093E+01 0.  1.
       -5    1    3    3    0  502 -0.74710451835E+03 -0.91541145445E+03 -0.23338613027E+04  0.26159269796E+04  0.46999998093E+01 0. -1.
</event>
<event>
 5   0  0.4750125E-08  0.3880939E+04  0.7818609E-02  0.8029005E-01
       -1   -1    0    0    0  501  0.00000000000E+00  0.00000000000E+00  0.25766767381E+04  0.25766767381E+04  0.50400001928E-02 0. -1.
        1   -1    0    0  501    0  0.00000000000E+00  0.00000000000E+00 -0.14613482975E+04  0.14613482975E+04  0.50400001928E-02 0.  1.
    10030    2    1    2    0    0  0.00000000000E+00  0.00000000000E+00  0.11153284405E+04  0.40380250356E+04  0.38809391464E+04 0.  0.
        5    1    3    3  502    0 -0.10958999661E+04 -0.13432142507E+04  0.14648370941E+04  0.22695794900E+04  0.46999998093E+01 0.  1.
       -5    1    3    3    0  502  0.10958999661E+04  0.13432142507E+04 -0.34950865354E+03  0.17684455456E+04  0.46999998093E+01 0. -1.
</event>
<event>
 5   0  0.1503228E-07  0.3934259E+04  0.7818609E-02  0.8017942E-01
        2   -1    0    0  501    0  0.00000000000E+00  0.00000000000E+00  0.21492823770E+04  0.21492823770E+04  0.25500000920E-02 0.  1.
       -2   -1    0    0    0  501  0.00000000000E+00  0.00000000000E+00 -0.18004139663E+04  0.18004139663E+04  0.25500000920E-02 0. -1.
    10030    2    1    2    0    0  0.00000000000E+00  0.00000000000E+00  0.34886841078E+03  0.39496963433E+04  0.39342587658E+04 0.  0.
        3    1    3    3  502    0 -0.13851599616E+04 -0.10216340693E+04 -0.78177033490E+03  0.18903886261E+04  0.10100000352E+00 0. -1.
       -3    1    3    3    0  502  0.13851599616E+04  0.10216340693E+04  0.11306387457E+04  0.20593077172E+04  0.10100000352E+00 0.  1.
</event>
<event>
 5   0  0.4762788E-08  0.3912000E+04  0.7818609E-02  0.8022538E-01
        1   -1    0    0  501    0  0.00000000000E+00  0.00000000000E+00  0.13157445916E+04  0.13157445916E+04  0.50400001928E-02 0. -1.
       -1   -1    0    0    0  501  0.00000000000E+00  0.00000000000E+00 -0.29078101562E+04  0.29078101562E+04  0.50400001928E-02 0.  1.
    10030    2    1    2    0    0  0.00000000000E+00  0.00000000000E+00 -0.15920655646E+04  0.42235547478E+04  0.39119997374E+04 0.  0.
        2    1    3    3  502    0  0.18811233928E+03  0.91626301014E+03  0.10586291143E+04  0.14126640639E+04  0.25500000920E-02 0. -1.
       -2    1    3    3    0  502 -0.18811233928E+03 -0.91626301014E+03 -0.26506946789E+04  0.28108906839E+04  0.25500000920E-02 0.  1.
</event>
<event>
 5   0  0.4750125E-08  0.3908523E+04  0.7818609E-02  0.8023259E-01
       -1   -1    0    0    0  501  0.00000000000E+00  0.00000000000E+00  0.13617458803E+04  0.13617458803E+04  0.50400001928E-02 0.  1.
        1   -1    0    0  501    0  0.00000000000E+00  0.00000000000E+00 -0.28045897107E+04  0.28045897107E+04  0.50400001928E-02 0. -1.
    10030    2    1    2    0    0  0.00000000000E+00  0.00000000000E+00 -0.14428438305E+04  0.41663355910E+04  0.39085232426E+04 0.  0.
        4    1    3    3  502    0  0.63504281062E+03 -0.17512514783E+04 -0.91713958988E+02  0.18650936102E+04  0.12699999809E+01 0.  1.
       -4    1    3    3    0  502 -0.63504281062E+03  0.17512514783E+04 -0.13511298715E+04  0.23012419808E+04  0.12699999809E+01 0. -1.
</event>
<event>
 5   0  0.4750125E-08  0.3886084E+04  0.7818609E-02  0.8027930E-01
       -1   -1    0    0    0  501  0.00000000000E+00  0.00000000000E+00  0.14369808464E+04  0.14369808464E+04  0.50400001928E-02 0. -1.
        1   -1    0    0  501    0  0.00000000000E+00  0.00000000000E+00 -0.26273224879E+04  0.26273224879E+04  0.50400001928E-02 0.  1.
    10030    2    1    2    0    0  0.00000000000E+00  0.00000000000E+00 -0.11903416415E+04  0.40643033343E+04  0.38860839376E+04 0.  0.
        1    1    3    3  502    0  0.76390520724E+03 -0.17845850395E+04 -0.68340308198E+03  0.20579928817E+04  0.50400001928E-02 0. -1.
       -1    1    3    3    0  502 -0.76390520724E+03  0.17845850395E+04 -0.50693855950E+03  0.20063104525E+04  0.50400001928E-02 0.  1.
</event>
<event>
 5   0  0.4750125E-08  0.3813673E+04  0.7818609E-02  0.8043227E-01
       -1   -1    0    0    0  501  0.00000000000E+00  0.00000000000E+00  0.18202189562E+04  0.18202189562E+04  0.50400001928E-02 0. -1.
        1   -1    0    0  501    0  0.00000000000E+00  0.00000000000E+00 -0.19975758979E+04  0.19975758979E+04  0.50400001928E-02 0.  1.
    10030    2    1    2    0    0  0.00000000000E+00  0.00000000000E+00 -0.17735694174E+03  0.38177948541E+04  0.38136730410E+04 0.  0.
        4    1    3    3  502    0  0.14159068404E+04 -0.11855141181E+04 -0.56436358146E+03  0.19309955386E+04  0.12699999809E+01 0. -1.
       -4    1    3    3    0  502 -0.14159068404E+04  0.11855141181E+04  0.38700663972E+03  0.18867993155E+04  0.12699999809E+01 0.  1.
</event>
<event>
 5   0  0.1546846E-07  0.3874610E+04  0.7818609E-02  0.8030331E-01
       -2   -1    0    0    0  501  0.00000000000E+00  0.00000000000E+00  0.13646316830E+04  0.13646316830E+04  0.25500000920E-02 0. -1.
        2   -1    0    0  501    0  0.00000000000E+00  0.00000000000E+00 -0.27503031162E+04  0.27503031162E+04  0.25500000920E-02 0.  1.
    10030    2    1    2    0    0  0.00000000000E+00  0.00000000000E+00 -0.13856714333E+04  0.41149347992E+04  0.38746100553E+04 0.  0.
        2    1    3    3  502    0 -0.32549744049E+03  0.54402454470E+03 -0.26370211682E+04  0.27121563249E+04  0.25500000920E-02 0.  1.
       -2    1    3    3    0  502  0.32549744049E+03 -0.54402454470E+03  0.12513497349E+04  0.14027784743E+04  0.25500000920E-02 0. -1.
</event>
<event>
 5   0  0.1538018E-07  0.3417947E+04  0.7818609E-02  0.8133515E-01
        2   -1    0    0  501    0  0.00000000000E+00  0.00000000000E+00  0.23394664819E+04  0.23394664819E+04  0.25500000920E-02 0.  1.
       -2   -1    0    0    0  501  0.00000000000E+00  0.00000000000E+00 -0.12484004190E+04  0.12484004190E+04  0.25500000920E-02 0. -1.
    10030    2    1    2    0    0  0.00000000000E+00  0.00000000000E+00  0.10910660629E+04  0.35878669008E+04  0.34179472999E+04 0.  0.
        1    1    3    3  502    0 -0.72244183475E+03 -0.77724348453E+03 -0.86067673555E+03  0.13663067306E+04  0.50400001928E-02 0. -1.
       -1    1    3    3    0  502  0.72244183475E+03  0.77724348453E+03  0.19517427985E+04  0.22215601703E+04  0.50400001928E-02 0.  1.
</event>
<event>
 5   0  0.1503228E-07  0.3853471E+04  0.7818609E-02  0.8034776E-01
        2   -1    0    0  501    0  0.00000000000E+00  0.00000000000E+00  0.20937847567E+04  0.20937847567E+04  0.25500000920E-02 0.  1.
       -2   -1    0    0    0  501  0.00000000000E+00  0.00000000000E+00 -0.17730143886E+04  0.17730143886E+04  0.25500000920E-02 0. -1.
    10030    2    1    2    0    0  0.00000000000E+00  0.00000000000E+00  0.32077036809E+03  0.38667991454E+04  0.38534714222E+04 0.  0.
        3    1    3    3  502    0 -0.36283115166E+03  0.15043875078E+04 -0.99140099114E+03  0.18378531371E+04  0.10100000352E+00 0. -1.
       -3    1    3    3    0  502  0.36283115166E+03 -0.15043875078E+04  0.13121713592E+04  0.20289460083E+04  0.10100000352E+00 0.  1.
</event>
<event>
 5   0  0.1538018E-07  0.3949641E+04  0.7818609E-02  0.8014783E-01
        2   -1    0    0  501    0  0.00000000000E+00  0.00000000000E+00  0.26793462409E+04  0.26793462409E+04  0.25500000920E-02 0.  1.
       -2   -1    0    0    0  501  0.00000000000E+00  0.00000000000E+00 -0.14555472672E+04  0.14555472672E+04  0.25500000920E-02 0. -1.
    10030    2    1    2    0    0  0.00000000000E+00  0.00000000000E+00  0.12237989737E+04  0.41348935082E+04  0.39496405401E+04 0.  0.
        1    1    3    3  502    0 -0.12478807656E+04  0.12690960288E+04  0.15076625207E+04  0.23325645568E+04  0.50400001928E-02 0.  1.
       -1    1    3    3    0  502  0.12478807656E+04 -0.12690960288E+04 -0.28386354700E+03  0.18023289513E+04  0.50400001928E-02 0. -1.
</event>
<event>
 5   0  0.1520986E-07  0.3936763E+04  0.7818609E-02  0.8017426E-01
        2   -1    0    0  501    0  0.00000000000E+00  0.00000000000E+00  0.14139185088E+04  0.14139185088E+04  0.25500000920E-02 0.  1.
       -2   -1    0    0    0  501  0.00000000000E+00  0.00000000000E+00 -0.27402747171E+04  0.27402747171E+04  0.25500000920E-02 0. -1.
    10030    2    1    2    0    0  0.00000000000E+00  0.00000000000E+00 -0.13263562083E+04  0.41541932259E+04  0.39367627014E+04 0.  0.
        4    1    3    3  502    0  0.89864918855E+03 -0.13478127902E+03  0.11793368021E+04  0.14888160608E+04  0.12699999809E+01 0.  1.
       -4    1    3    3    0  502 -0.89864918855E+03  0.13478127902E+03 -0.25056930104E+04  0.26653771651E+04  0.12699999809E+01 0. -1.
</event>
<event>
 5   0  0.4750125E-08  0.3791389E+04  0.7818609E-02  0.8048005E-01
        1   -1    0    0  501    0  0.00000000000E+00  0.00000000000E+00  0.28251839976E+04  0.28251839976E+04  0.50400001928E-02 0. -1.
       -1   -1    0    0    0  501  0.00000000000E+00  0.00000000000E+00 -0.12720080763E+04  0.12720080763E+04  0.50400001928E-02 0.  1.
    10030    2    1    2    0    0  0.00000000000E+00  0.00000000000E+00  0.15531759213E+04  0.40971920739E+04  0.37913885910E+04 0.  0.
        3    1    3    3  502    0 -0.67353633040E+03 -0.61631321369E+03 -0.10187881573E+04  0.13679994465E+04  0.10100000352E+00 0.  1.
       -3    1    3    3    0  502  0.67353633040E+03  0.61631321369E+03  0.25719640786E+04  0.27291926275E+04  0.10100000352E+00 0. -1.
</event>
<event>
 5   0  0.4750125E-08  0.3927176E+04  0.7818609E-02  0.8019401E-01
        1   -1    0    0  501    0  0.00000000000E+00  0.00000000000E+00  0.18088137089E+04  0.18088137089E+04  0.50400001928E-02 0. -1.
       -1   -1    0    0    0  501  0.00000000000E+00  0.00000000000E+00 -0.21316055763E+04  0.21316055763E+04  0.50400001928E-02 0.  1.
    10030    2    1    2    0    0  0.00000000000E+00  0.00000000000E+00 -0.32279186742E+03  0.39404192852E+04  0.39271757732E+04 0.  0.
        1    1    3    3  502    0 -0.66126312031E+03 -0.18472327886E+04 -0.24001512191E+03  0.19766499812E+04  0.50400001928E-02 0. -1.
       -1    1    3    3    0  502  0.66126312031E+03  0.18472327886E+04 -0.82776745508E+02  0.19637693039E+04  0.50400001928E-02 0.  1.
</event>
<event>
 5   0  0.4750125E-08  0.3893158E+04  0.7818609E-02  0.8026454E-01
       -1   -1    0    0    0  501  0.00000000000E+00  0.00000000000E+00  0.15867595211E+04  0.15867595211E+04  0.50400001928E-02 0. -1.
        1   -1    0    0  501    0  0.00000000000E+00  0.00000000000E+00 -0.23879921068E+04  0.23879921068E+04  0.50400001928E-02 0.  1.
    10030    2    1    2    0    0  0.00000000000E+00  0.00000000000E+00 -0.80123258575E+03  0.39747516279E+04  0.38931576962E+04 0.  0.
        1    1    3    3  502    0 -0.17343977283E+04  0.73833354532E+03 -0.89648818619E+03  0.20873339388E+04  0.50400001928E-02 0.  1.
       -1    1    3    3    0  502  0.17343977283E+04 -0.73833354532E+03  0.95255600442E+02  0.18874176892E+04  0.50400001928E-02 0. -1.
</event>
<event>
 5   0  0.4750125E-08  0.3522430E+04  0.7818609E-02  0.8108495E-01
        1   -1    0    0  501    0  0.00000000000E+00  0.00000000000E+00  0.16554040495E+04  0.16554040495E+04  0.50400001928E-02 0.  1.
       -1   -1    0    0    0  501  0.00000000000E+00  0.00000000000E+00 -0.18737892893E+04  0.18737892893E+04  0.50400001928E-02 0. -1.
    10030    2    1    2    0    0  0.00000000000E+00  0.00000000000E+00 -0.21838523978E+03  0.35291933388E+04  0.35224300575E+04 0.  0.
        4    1    3    3  502    0  0.20962660033E+03 -0.35886704605E+03 -0.18239541140E+04  0.18707055062E+04  0.12699999809E+01 0. -1.
       -4    1    3    3    0  502 -0.20962660033E+03  0.35886704605E+03  0.16055688742E+04  0.16584878326E+04  0.12699999809E+01 0.  1.
</event>
<event>
 5   0  0.4750125E-08  0.3895880E+04  0.7818609E-02  0.8025887E-01
       -1   -1    0    0    0  501  0.00000000000E+00  0.00000000000E+00  0.17320047497E+04  0.17320047498E+04  0.50400001928E-02 0.  1.
        1   -1    0    0  501    0  0.00000000000E+00  0.00000000000E+00 -0.21907965861E+04  0.21907965861E+04  0.50400001928E-02 0. -1.
    10030    2    1    2    0    0  0.00000000000E+00  0.00000000000E+00 -0.45879183631E+03  0.39228013358E+04  0.38958799226E+04 0.  0.
        3    1    3    3  502    0 -0.10303401453E+04 -0.16442949754E+04 -0.40134865619E+03  0.19815114270E+04  0.10100000352E+00 0. -1.
       -3    1    3    3    0  502  0.10303401453E+04  0.16442949754E+04 -0.57443180117E+02  0.19412899089E+04  0.10100000352E+00 0.  1.
</event>
<event>
 5   0  0.1520986E-07  0.3876151E+04  0.7818609E-02  0.8030008E-01
       -2   -1    0    0    0  501  0.00000000000E+00  0.00000000000E+00  0.16480174444E+04  0.16480174444E+04  0.25500000920E-02 0.  1.
        2   -1    0    0  501    0  0.00000000000E+00  0.00000000000E+00 -0.22791853726E+04  0.22791853726E+04  0.25500000920E-02 0. -1.
    10030    2    1    2    0    0  0.00000000000E+00  0.00000000000E+00 -0.63116792820E+03  0.39272028169E+04  0.38761513143E+04 0.  0.
        4    1    3    3  502    0 -0.72034993602E+03 -0.17841939712E+04 -0.80398520941E+02  0.19258031292E+04  0.12699999809E+01 0.  1.
       -4    1    3    3    0  502  0.72034993602E+03  0.17841939712E+04 -0.55076940726E+03  0.20013996878E+04  0.12699999809E+01 0. -1.
</event>
<event>
 5   0  0.4762788E-08  0.3907117E+04  0.7818609E-02  0.8023551E-01
        1   -1    0    0  501    0  0.00000000000E+00  0.00000000000E+00  0.24853532616E+04  0.24853532616E+04  0.50400001928E-02 0.  1.
       -1   -1    0    0    0  501  0.00000000000E+00  0.00000000000E+00 -0.15355527099E+04  0.15355527099E+04  0.50400001928E-02 0. -1.
    10030    2    1    2    0    0  0.00000000000E+00  0.00000000000E+00  0.94980055171E+03  0.40209059716E+04  0.39071170630E+04 0.  0.
        2    1    3    3  502    0 -0.15772609066E+04  0.27577192909E+03  0.16266861764E+04  0.22825227361E+04  0.25500000920E-02 0.  1.
       -2    1    3    3    0  502  0.15772609066E+04 -0.27577192909E+03 -0.67688562467E+03  0.17383832354E+04  0.25500000920E-02 0. -1.
</event>
<event>
 5   0  0.4750125E-08  0.4039282E+04  0.7818609E-02  0.7996669E-01
        1   -1    0    0  501    0  0.00000000000E+00  0.00000000000E+00  0.11893137736E+04  0.11893137736E+04  0.50400001928E-02 0. -1.
       -1   -1    0    0    0  501  0.00000000000E+00  0.00000000000E+00 -0.34296660395E+04  0.34296660395E+04  0.50400001928E-02 0.  1.
    10030    2    1    2    0    0  0.00000000000E+00  0.00000000000E+00 -0.22403522659E+04  0.46189798131E+04  0.40392816489E+04 0.  0.
        3    1    3    3  502    0  0.10124982350E+04  0.35067064484E+02  0.87772736406E+03  0.13404431024E+04  0.10100000352E+00 0. -1.
       -3    1    3    3    0  502 -0.10124982350E+04 -0.35067064484E+02 -0.31180796299E+04  0.32785367107E+04  0.10100000352E+00 0.  1.
</event>
<event>
 5   0  0.1501585E-07  0.3965205E+04  0.7818609E-02  0.8011603E-01
       -2   -1    0    0    0  501  0.00000000000E+00  0.00000000000E+00  0.12741066771E+04  0.12741066771E+04  0.25500000920E-02 0. -1.
        2   -1    0    0  501    0  0.00000000000E+00  0.00000000000E+00 -0.30850736960E+04  0.30850736960E+04  0.25500000920E-02 0.  1.
    10030    2    1    2    0    0  0.00000000000E+00  0.00000000000E+00 -0.18109670189E+04  0.43591803732E+04  0.39652051627E+04 0.  0.
        5    1    3    3  502    0  0.18149933750E+04  0.73050453906E+03 -0.55291151534E+03  0.20331185569E+04  0.46999998093E+01 0. -1.
       -5    1    3    3    0  502 -0.18149933750E+04 -0.73050453906E+03 -0.12580555036E+04  0.23260618162E+04  0.46999998093E+01 0.  1.
</event>
<event>
 5   0  0.4762788E-08  0.3925253E+04  0.7818609E-02  0.8019797E-01
        1   -1    0    0  501    0  0.00000000000E+00  0.00000000000E+00  0.17626127247E+04  0.17626127248E+04  0.50400001928E-02 0. -1.
       -1   -1    0    0    0  501  0.00000000000E+00  0.00000000000E+00 -0.21853375020E+04  0.21853375020E+04  0.50400001928E-02 0.  1.
    10030    2    1    2    0    0  0.00000000000E+00  0.00000000000E+00 -0.42272477725E+03  0.39479502268E+04  0.39252534639E+04 0.  0.
        2    1    3    3  502    0 -0.10952892970E+04 -0.97580161003E+03 -0.15227636903E+04  0.21143927456E+04  0.25500000920E-02 0.  1.
       -2    1    3    3    0  502  0.10952892970E+04  0.97580161003E+03  0.11000389131E+04  0.18335574811E+04  0.25500000920E-02 0. -1.
</event>
<event>
 5   0  0.4750125E-08  0.3973002E+04  0.7818609E-02  0.8010015E-01
       -1   -1    0    0    0  501  0.00000000000E+00  0.00000000000E+00  0.18745159790E+04  0.18745159790E+04  0.50400001928E-02 0. -1.
        1   -1    0    0  501    0  0.00000000000E+00  0.00000000000E+00 -0.21051757037E+04  0.21051757037E+04  0.50400001928E-02 0.  1.
    10030    2    1    2    0    0  0.00000000000E+00  0.00000000000E+00 -0.23065972471E+03  0.39796916826E+04  0.39730016336E+04 0.  0.
        5    1    3    3  502    0  0.60363028811E+03 -0.23614140484E+03 -0.19962647166E+04  0.20988633106E+04  0.46999998093E+01 0.  1.
       -5    1    3    3    0  502 -0.60363028811E+03  0.23614140484E+03  0.17656049919E+04  0.18808283721E+04  0.46999998093E+01 0. -1.
</event>
<event>
 5   0  0.4750125E-08  0.3877024E+04  0.7818609E-02  0.8029825E-01
       -1   -1    0    0    0  501  0.00000000000E+00  0.00000000000E+00  0.30815015213E+04  0.30815015213E+04  0.50400001928E-02 0. -1.
        1   -1    0    0  501    0  0.00000000000E+00  0.00000000000E+00 -0.12194797366E+04  0.12194797366E+04  0.50400001928E-02 0.  1.
    10030    2    1    2    0    0  0.00000000000E+00  0.00000000000E+00  0.18620217847E+04  0.43009812579E+04  0.38770239429E+04 0.  0.
        5    1    3    3  502    0 -0.11400522260E+04 -0.43767604247E+03 -0.73911624381E+03  0.14274432766E+04  0.46999998093E+01 0.  1.
       -5    1    3    3    0  502  0.11400522260E+04  0.43767604247E+03  0.26011380285E+04  0.28735379812E+04  0.46999998093E+01 0. -1.
</event>
<event>
 5   0  0.1546846E-07  0.3911261E+04  0.7818609E-02  0.8022691E-01
       -2   -1    0    0    0  501  0.00000000000E+00  0.00000000000E+00  0.18027407975E+04  0.18027407975E+04  0.25500000920E-02 0. -1.
        2   -1    0    0  501    0  0.00000000000E+00  0.00000000000E+00 -0.21214863236E+04  0.21214863236E+04  0.25500000920E-02 0.  1.
    10030    2    1    2    0    0  0.00000000000E+00  0.00000000000E+00 -0.31874552607E+03  0.39242271211E+04  0.39112606392E+04 0.  0.
        2    1    3    3  502    0  0.97894727533E+03 -0.53716565217E+03  0.14514419232E+04  0.18312750646E+04  0.25500000920E-02 0. -1.
       -2    1    3    3    0  502 -0.97894727533E+03  0.53716565217E+03 -0.17701874492E+04  0.20929520566E+04  0.25500000920E-02 0.  1.
</event>
<event>
 5   0  0.1546846E-07  0.3956852E+04  0.7818609E-02  0.8013308E-01
        2   -1    0    0  501    0  0.00000000000E+00  0.00000000000E+00  0.28716880292E+04  0.28716880292E+04  0.25500000920E-02 0. -1.
       -2   -1    0    0    0  501  0.00000000000E+00  0.00000000000E+00 -0.13630206285E+04  0.13630206286E+04  0.25500000920E-02 0.  1.
    10030    2    1    2    0    0  0.00000000000E+00  0.00000000000E+00  0.15086674007E+04  0.42347086578E+04  0.39568522958E+04 0.  0.
        2    1    3    3  502    0 -0.45007582783E+03 -0.31600117251E+03 -0.12795786801E+04  0.13927478560E+04  0.25500000920E-02 0.  1.
       -2    1    3    3    0  502  0.45007582783E+03  0.31600117251E+03  0.27882460808E+04  0.28419608018E+04  0.25500000920E-02 0. -1.
</event>
<event>
 5   0  0.1501585E-07  0.3903580E+04  0.7818609E-02  0.8024285E-01
       -2   -1    0    0    0  501  0.00000000000E+00  0.00000000000E+00  0.22535680242E+04  0.22535680242E+04  0.25500000920E-02 0.  1.
        2   -1    0    0  501    0  0.00000000000E+00  0.00000000000E+00 -0.16904233241E+04  0.16904233241E+04  0.25500000920E-02 0. -1.
    10030    2    1    2    0    0  0.00000000000E+00  0.00000000000E+00  0.56314470019E+03  0.39439913483E+04  0.39035798701E+04 0.  0.
        5    1    3    3  502    0  0.45241843255E+03 -0.76469770707E+03 -0.14742378436E+04  0.17212914718E+04  0.46999998093E+01 0. -1.
       -5    1    3    3    0  502 -0.45241843255E+03  0.76469770707E+03  0.20373825438E+04  0.22226998765E+04  0.46999998093E+01 0.  1.
</event>
<event>
 5   0  0.1520986E-07  0.3908412E+04  0.7818609E-02  0.8023282E-01
        2   -1    0    0  501    0  0.00000000000E+00  0.00000000000E+00  0.14568087476E+04  0.14568087476E+04  0.25500000920E-02 0. -1.
       -2   -1    0    0    0  501  0.00000000000E+00  0.00000000000E+00 -0.26214291395E+04  0.26214291395E+04  0.25500000920E-02 0.  1.
    10030    2    1    2    0    0  0.00000000000E+00  0.00000000000E+00 -0.11646203919E+04  0.40782378871E+04  0.39084119033E+04 0.  0.
        4    1    3    3  502    0  0.14795213202E+04  0.11498744616E+04 -0.34770558780E+01  0.18738218478E+04  0.12699999809E+01 0.  1.
       -4    1    3    3    0  502 -0.14795213202E+04 -0.11498744616E+04 -0.11611433361E+04  0.22044160393E+04  0.12699999809E+01 0. -1.
</event>
<event>
 5   0  0.4750125E-08  0.3912079E+04  0.7818609E-02  0.8022522E-01
        1   -1    0    0  501    0  0.00000000000E+00  0.00000000000E+00  0.19148264563E+04  0.19148264563E+04  0.50400001928E-02 0.  1.
       -1   -1    0    0    0  501  0.00000000000E+00  0.00000000000E+00 -0.19981399647E+04  0.19981399647E+04  0.50400001928E-02 0. -1.
    10030    2    1    2    0    0  0.00000000000E+00  0.00000000000E+00 -0.83313508436E+02  0.39129664210E+04  0.39120793794E+04 0.  0.
        3    1    3    3  502    0  0.14871593670E+04  0.76767718445E+03  0.97105492640E+03  0.19349209086E+04  0.10100000352E+00 0.  1.
       -3    1    3    3    0  502 -0.14871593670E+04 -0.76767718445E+03 -0.10543684348E+04  0.19780455124E+04  0.10100000352E+00 0. -1.
</event>
<event>
 5   0  0.1520986E-07  0.3893068E+04  0.7818609E-02  0.8026473E-01
       -2   -1    0    0    0  501  0.00000000000E+00  0.00000000000E+00  0.14804302776E+04  0.14804302776E+04  0.25500000920E-02 0.  1.
        2   -1    0    0  501    0  0.00000000000E+00  0.00000000000E+00 -0.25593871563E+04  0.25593871563E+04  0.25500000920E-02 0. -1.
    10030    2    1    2    0    0  0.00000000000E+00  0.00000000000E+00 -0.10789568787E+04  0.40398174339E+04  0.38930678074E+04 0.  0.
        4    1    3    3  502    0  0.16481263985E+04 -0.10136027959E+04 -0.76029394148E+03  0.20788842545E+04  0.12699999809E+01 0. -1.
       -4    1    3    3    0  502 -0.16481263985E+04  0.10136027959E+04 -0.31866293726E+03  0.19609331793E+04  0.12699999809E+01 0.  1.
</event>
<event>
 5   0  0.4750125E-08  0.3881596E+04  0.7818609E-02  0.8028868E-01
        1   -1    0    0  501    0  0.00000000000E+00  0.00000000000E+00  0.25677386578E+04  0.25677386578E+04  0.50400001928E-02 0. -1.
       -1   -1    0    0    0  501  0.00000000000E+00  0.00000000000E+00 -0.14669319257E+04  0.14669319257E+04  0.50400001928E-02 0.  1.
    10030    2    1    2    0    0  0.00000000000E+00  0.00000000000E+00  0.11008067321E+04  0.40346705835E+04  0.38815964829E+04 0.  0.
        4    1    3    3  502    0  0.60443891281E+03 -0.15435904306E+04 -0.49869507498E+03  0.17311025987E+04  0.12699999809E+01 0.  1.
       -4    1    3    3    0  502 -0.60443891281E+03  0.15435904306E+04  0.15995018071E+04  0.23035679847E+04  0.12699999809E+01 0. -1.
</event>
<event>
 5   0  0.1538018E-07  0.3841762E+04  0.7818609E-02  0.8037252E-01
        2   -1    0    0  501    0  0.00000000000E+00  0.00000000000E+00  0.28030941109E+04  0.28030941109E+04  0.25500000920E-02 0.  1.
       -2   -1    0    0    0  501  0.00000000000E+00  0.00000000000E+00 -0.13163254751E+04  0.13163254751E+04  0.25500000920E-02 0. -1.
    10030    2    1    2    0    0  0.00000000000E+00  0.00000000000E+00  0.14867686358E+04  0.41194195860E+04  0.38417621932E+04 0.  0.
        1    1    3    3  502    0 -0.89124405748E+02 -0.38989063850E+03 -0.12711850199E+04  0.13326174336E+04  0.50400001928E-02 0. -1.
       -1    1    3    3    0  502  0.89124405748E+02  0.38989063850E+03  0.27579536556E+04  0.27868021523E+04  0.50400001928E-02 0.  1.
</event>
<event>
 5   0  0.4750125E-08  0.3889377E+04  0.7818609E-02  0.8027242E-01
        1   -1    0    0  501    0  0.00000000000E+00  0.00000000000E+00  0.22889312601E+04  0.22889312601E+04  0.50400001928E-02 0.  1.
       -1   -1    0    0    0  501  0.00000000000E+00  0.00000000000E+00 -0.16522178010E+04  0.16522178010E+04  0.50400001928E-02 0. -1.
    10030    2    1    2    0    0  0.00000000000E+00  0.00000000000E+00  0.63671345911E+03  0.39411490611E+04  0.38893768001E+04 0.  0.
        3    1    3    3  502    0 -0.13184310393E+04 -0.51610268581E+02 -0.11292564469E+04  0.17367049715E+04  0.10100000352E+00 0. -1.
       -3    1    3    3    0  502  0.13184310393E+04  0.51610268581E+02  0.17659699060E+04  0.22044440896E+04  0.10100000352E+00 0.  1.
</event>
<event>
 5   0  0.1503228E-07  0.3894552E+04  0.7818609E-02  0.8026163E-01
        2   -1    0    0  501    0  0.00000000000E+00  0.00000000000E+00  0.34392536238E+04  0.34392536238E+04  0.25500000920E-02 0.  1.
       -2   -1    0    0    0  501  0.00000000000E+00  0.00000000000E+00 -0.11025309895E+04  0.11025309895E+04  0.25500000920E-02 0. -1.
    10030    2    1    2    0    0  0.00000000000E+00  0.00000000000E+00  0.23367226343E+04  0.45417846132E+04  0.38945519387E+04 0.  0.
        3    1    3    3  502    0 -0.11048182281E+04 -0.66633150550E+03 -0.53254187796E+03  0.13957871809E+04  0.10100000352E+00 0. -1.
       -3    1    3    3    0  502  0.11048182281E+04  0.66633150550E+03  0.28692645123E+04  0.31459974323E+04  0.10100000352E+00 0.  1.
</event>
<event>
 5   0  0.4750125E-08  0.3907818E+04  0.7818609E-02  0.8023405E-01
       -1   -1    0    0    0  501  0.00000000000E+00  0.00000000000E+00  0.14392222327E+04  0.14392222327E+04  0.50400001928E-02 0. -1.
        1   -1    0    0  501    0  0.00000000000E+00  0.00000000000E+00 -0.26526549259E+04  0.26526549259E+04  0.50400001928E-02 0.  1.
    10030    2    1    2    0    0  0.00000000000E+00  0.00000000000E+00 -0.12134326932E+04  0.40918771586E+04  0.39078177772E+04 0.  0.
        5    1    3    3  502    0  0.10334869447E+04  0.19092166923E+03 -0.23314756950E+04  0.25574102829E+04  0.46999998093E+01 0.  1.
       -5    1    3    3    0  502 -0.10334869447E+04 -0.19092166923E+03  0.11180430018E+04  0.15344668757E+04  0.46999998093E+01 0. -1.
</event>
<event>
 5   0  0.1538018E-07  0.3906836E+04  0.7818609E-02  0.8023609E-01
       -2   -1    0    0    0  501  0.00000000000E+00  0.00000000000E+00  0.35061741666E+04  0.35061741666E+04  0.25500000920E-02 0.  1.
        2   -1    0    0  501    0  0.00000000000E+00  0.00000000000E+00 -0.10883205756E+04  0.10883205756E+04  0.25500000920E-02 0. -1.
    10030    2    1    2    0    0  0.00000000000E+00  0.00000000000E+00  0.24178535909E+04  0.45944947422E+04  0.39068357976E+04 0.  0.
        1    1    3    3  502    0  0.10305916294E+04  0.15735486342E+04  0.58923635831E+03  0.19711351797E+04  0.50400001928E-02 0. -1.
       -1    1    3    3    0  502 -0.10305916294E+04 -0.15735486342E+04  0.18286172326E+04  0.26233595625E+04  0.50400001928E-02 0.  1.
</event>
<event>
 5   0  0.1503228E-07  0.3893978E+04  0.7818609E-02  0.8026283E-01
        2   -1    0    0  501    0  0.00000000000E+00  0.00000000000E+00  0.26684843632E+04  0.26684843632E+04  0.25500000920E-02 0. -1.
       -2   -1    0    0    0  501  0.00000000000E+00  0.00000000000E+00 -0.14205692410E+04  0.14205692410E+04  0.25500000920E-02 0.  1.
    10030    2    1    2    0    0  0.00000000000E+00  0.00000000000E+00  0.12479151222E+04  0.40890536042E+04  0.38939783289E+04 0.  0.
        3    1    3    3  502    0 -0.26323758797E+03 -0.15477277174E+04 -0.58525583159E+03  0.16754938119E+04  0.10100000352E+00 0.  1.
       -3    1    3    3    0  502  0.26323758797E+03  0.15477277174E+04  0.18331709538E+04  0.24135597923E+04  0.10100000352E+00 0. -1.
</event>
<event>
 5   0  0.4750125E-08  0.3898691E+04  0.7818609E-02  0.8025302E-01
        1   -1    0    0  501    0  0.00000000000E+00  0.00000000000E+00  0.22895214349E+04  0.22895214349E+04  0.50400001928E-02 0.  1.
       -1   -1    0    0    0  501  0.00000000000E+00  0.00000000000E+00 -0.16597125194E+04  0.16597125194E+04  0.50400001928E-02 0. -1.
    10030    2    1    2    0    0  0.00000000000E+00  0.00000000000E+00  0.62980891558E+03  0.39492339543E+04  0.38986907489E+04 0.  0.
        4    1    3    3  502    0 -0.53059972451E+03 -0.47698990805E+03  0.21525036019E+04  0.22676703484E+04  0.12699999809E+01 0.  1.
       -4    1    3    3    0  502  0.53059972451E+03  0.47698990805E+03 -0.15226946863E+04  0.16815636059E+04  0.12699999809E+01 0. -1.
</event>
<event>
 5   0  0.4762788E-08  0.3957509E+04  0.7818609E-02  0.8013174E-01
        1   -1    0    0  501    0  0.00000000000E+00  0.00000000000E+00  0.16990897117E+04  0.16990897117E+04  0.50400001928E-02 0.  1.
       -1   -1    0    0    0  501  0.00000000000E+00  0.00000000000E+00 -0.23044515826E+04  0.23044515826E+04  0.50400001928E-02 0. -1.
    10030    2    1    2    0    0  0.00000000000E+00  0.00000000000E+00 -0.60536187093E+03  0.40035412943E+04  0.39575093052E+04 0.  0.
        2    1    3    3  502    0 -0.16695047785E+04 -0.29135767833E+02 -0.13768101874E+04  0.21641860803E+04  0.25500000920E-02 0. -1.
       -2    1    3    3    0  502  0.16695047785E+04  0.29135767833E+02  0.77144831644E+03  0.18393552140E+04  0.25500000920E-02 0.  1.
</event>
<event>
 5   0  0.1520986E-07  0.3907723E+04  0.7818609E-02  0.8023425E-01
        2   -1    0    0  501    0  0.00000000000E+00  0.00000000000E+00  0.17513407418E+04  0.17513407418E+04  0.25500000920E-02 0.  1.
       -2   -1    0    0    0  501  0.00000000000E+00  0.00000000000E+00 -0.21798017987E+04  0.21798017987E+04  0.25500000920E-02 0. -1.
    10030    2    1    2    0    0  0.00000000000E+00  0.00000000000E+00 -0.42846105694E+03  0.39311425405E+04  0.39077234800E+04 0.  0.
        4    1    3    3  502    0 -0.34945232911E+03  0.11857039588E+04  0.13079679810E+04  0.17996645967E+04  0.12699999809E+01 0.  1.
       -4    1    3    3    0  502  0.34945232911E+03 -0.11857039588E+04 -0.17364290380E+04  0.21314779438E+04  0.12699999809E+01 0. -1.
</event>
<event>
 5   0  0.1538018E-07  0.3912805E+04  0.7818609E-02  0.8022371E-01
       -2   -1    0    0    0  501  0.00000000000E+00  0.00000000000E+00  0.23773464094E+04  0.23773464094E+04  0.25500000920E-02 0. -1.
        2   -1    0    0  501    0  0.00000000000E+00  0.00000000000E+00 -0.16099929755E+04  0.16099929755E+04  0.25500000920E-02 0.  1.
    10030    2    1    2    0    0  0.00000000000E+00  0.00000000000E+00  0.76735343395E+03  0.39873393849E+04  0.39128051418E+04 0.  0.
        1    1    3    3  502    0 -0.18864331770E+04 -0.35666531064E+03  0.76723827115E+03  0.20674851487E+04  0.50400001928E-02 0. -1.
       -1    1    3    3    0  502  0.18864331770E+04  0.35666531064E+03  0.11516280146E+00  0.19198542362E+04  0.50400001928E-02 0.  1.
</event>
<event>
 5   0  0.4750125E-08  0.3908760E+04  0.7818609E-02  0.8023210E-01
       -1   -1    0    0    0  501  0.00000000000E+00  0.00000000000E+00  0.17643508483E+04  0.17643508483E+04  0.50400001928E-02 0. -1.
        1   -1    0    0  501    0  0.00000000000E+00  0.00000000000E+00 -0.21648761120E+04  0.21648761120E+04  0.50400001928E-02 0.  1.
    10030    2    1    2    0    0  0.00000000000E+00  0.00000000000E+00 -0.40052526367E+03  0.39292269603E+04  0.39087599080E+04 0.  0.
        1    1    3    3  502    0  0.57271056745E+03 -0.26239718503E+03 -0.20600178844E+04  0.21541874015E+04  0.50400001928E-02 0.  1.
       -1    1    3    3    0  502 -0.57271056745E+03  0.26239718503E+03  0.16594926207E+04  0.17750395587E+04  0.50400001928E-02 0. -1.
</event>
<event>
 5   0  0.1501585E-07  0.3930211E+04  0.7818609E-02  0.8018775E-01
       -2   -1    0    0    0  501  0.00000000000E+00  0.00000000000E+00  0.15219927238E+04  0.15219927238E+04  0.25500000920E-02 0. -1.
        2   -1    0    0  501    0  0.00000000000E+00  0.00000000000E+00 -0.25372264520E+04  0.25372264520E+04  0.25500000920E-02 0.  1.
    10030    2    1    2    0    0  0.00000000000E+00  0.00000000000E+00 -0.10152337282E+04  0.40592191759E+04  0.39302112914E+04 0.  0.
        5    1    3    3  502    0 -0.27292981842E+03 -0.96643637656E+03 -0.22521822127E+04  0.24659352718E+04  0.46999998093E+01 0.  1.
       -5    1    3    3    0  502  0.27292981842E+03  0.96643637656E+03  0.12369484845E+04  0.15932839041E+04  0.46999998093E+01 0. -1.
</event>
<event>
 5   0  0.4750125E-08  0.3902086E+04  0.7818609E-02  0.8024595E-01
       -1   -1    0    0    0  501  0.00000000000E+00  0.00000000000E+00  0.12161917790E+04  0.12161917790E+04  0.50400001928E-02 0.  1.
        1   -1    0    0  501    0  0.00000000000E+00  0.00000000000E+00 -0.31299089945E+04  0.31299089945E+04  0.50400001928E-02 0. -1.
    10030    2    1    2    0    0  0.00000000000E+00  0.00000000000E+00 -0.19137172155E+04  0.43461007735E+04  0.39020864102E+04 0.  0.
        4    1    3    3  502    0  0.12834602187E+04 -0.57138735383E+03  0.55100530006E+03  0.15090931365E+04  0.12699999809E+01 0.  1.
       -4    1    3    3    0  502 -0.12834602187E+04  0.57138735383E+03 -0.24647225155E+04  0.28370076370E+04  0.12699999809E+01 0. -1.
</event>
<event>
 5   0  0.4750125E-08  0.3906276E+04  0.7818609E-02  0.8023725E-01
        1   -1    0    0  501    0  0.00000000000E+00  0.00000000000E+00  0.20801291185E+04  0.20801291185E+04  0.50400001928E-02 0.  1.
       -1   -1    0    0    0  501  0.00000000000E+00  0.00000000000E+00 -0.18339000622E+04  0.18339000622E+04  0.50400001928E-02 0. -1.
    10030    2    1    2    0    0  0.00000000000E+00  0.00000000000E+00  0.24622905627E+03  0.39140291807E+04  0.39062764469E+04 0.  0.
        5    1    3    3  502    0 -0.11425610873E+04 -0.15664891905E+04  0.35893797880E+03  0.19718500918E+04  0.46999998093E+01 0.  1.
       -5    1    3    3    0  502  0.11425610873E+04  0.15664891905E+04 -0.11270892253E+03  0.19421790889E+04  0.46999998093E+01 0. -1.
</event>
<event>
 5   0  0.4762788E-08  0.3654994E+04  0.7818609E-02  0.8078010E-01
       -1   -1    0    0    0  501  0.00000000000E+00  0.00000000000E+00  0.21375554128E+04  0.21375554128E+04  0.50400001928E-02 0. -1.
        1   -1    0    0  501    0  0.00000000000E+00  0.00000000000E+00 -0.15624132854E+04  0.15624132854E+04  0.50400001928E-02 0.  1.
    10030    2    1    2    0    0  0.00000000000E+00  0.00000000000E+00  0.57514212748E+03  0.36999686982E+04  0.36549938305E+04 0.  0.
        2    1    3    3  502    0  0.16790382771E+04  0.66787130523E+03  0.56391988234E+03  0.18929414280E+04  0.25500000920E-02 0. -1.
       -2    1    3    3    0  502 -0.16790382771E+04 -0.66787130523E+03  0.11222245138E+02  0.18070272702E+04  0.25500000920E-02 0.  1.
</event>
<event>
 5   0  0.1520986E-07  0.3895177E+04  0.7818609E-02  0.8026033E-01
        2   -1    0    0  501    0  0.00000000000E+00  0.00000000000E+00  0.18824650262E+04  0.18824650262E+04  0.25500000920E-02 0.  1.
       -2   -1    0    0    0  501  0.00000000000E+00  0.00000000000E+00 -0.20149650100E+04  0.20149650100E+04  0.25500000920E-02 0. -1.
    10030    2    1    2    0    0  0.00000000000E+00  0.00000000000E+00 -0.13249998383E+03  0.38974300362E+04  0.38951771002E+04 0.  0.
        4    1    3    3  502    0  0.92593656047E+02 -0.72555053781E+03  0.17398154512E+04  0.18873146492E+04  0.12699999809E+01 0.  1.
       -4    1    3    3    0  502 -0.92593656047E+02  0.72555053781E+03 -0.18723154350E+04  0.20101153870E+04  0.12699999809E+01 0. -1.
</event>
<event>
 5   0  0.4750125E-08  0.3950541E+04  0.7818609E-02  0.8014599E-01
       -1   -1    0    0    0  501  0.00000000000E+00  0.00000000000E+00  0.14951575913E+04  0.14951575913E+04  0.50400001928E-02 0.  1.
        1   -1    0    0  501    0  0.00000000000E+00  0.00000000000E+00 -0.26095533429E+04  0.26095533430E+04  0.50400001928E-02 0. -1.
    10030    2    1    2    0    0  0.00000000000E+00  0.00000000000E+00 -0.11143957517E+04  0.41047109342E+04  0.39505409708E+04 0.  0.
        1    1    3    3  502    0  0.86432722052E+03 -0.34120026070E+03  0.12538720207E+04  0.15606646682E+04  0.50400001928E-02 0.  1.
       -1    1    3    3    0  502 -0.86432722052E+03  0.34120026070E+03 -0.23682677724E+04  0.25440462661E+04  0.50400001928E-02 0. -1.
</event>
<event>
 5   0  0.4750125E-08  0.3896377E+04  0.7818609E-02  0.8025783E-01
        1   -1    0    0  501    0  0.00000000000E+00  0.00000000000E+00  0.17900342490E+04  0.17900342490E+04  0.50400001928E-02 0.  1.
       -1   -1    0    0    0  501  0.00000000000E+00  0.00000000000E+00 -0.21203157642E+04  0.21203157642E+04  0.50400001928E-02 0. -1.
    10030    2    1    2    0    0  0.00000000000E+00  0.00000000000E+00 -0.33028151519E+03  0.39103500132E+04  0.38963766946E+04 0.  0.
        5    1    3    3  502    0 -0.13423351745E+04  0.58398420891E+03 -0.14552525085E+04  0.20641422505E+04  0.46999998093E+01 0. -1.
       -5    1    3    3    0  502  0.13423351745E+04 -0.58398420891E+03  0.11249709934E+04  0.18462077626E+04  0.46999998093E+01 0.  1.
</event>
<event>
 5   0  0.1546846E-07  0.3866479E+04  0.7818609E-02  0.8032037E-01
        2   -1    0    0  501    0  0.00000000000E+00  0.00000000000E+00  0.16590285445E+04  0.16590285445E+04  0.25500000920E-02 0.  1.
       -2   -1    0    0    0  501  0.00000000000E+00  0.00000000000E+00 -0.22527737273E+04  0.22527737273E+04  0.25500000920E-02 0. -1.
    10030    2    1    2    0    0  0.00000000000E+00  0.00000000000E+00 -0.59374518281E+03  0.39118022718E+04  0.38664794932E+04 0.  0.
        2    1    3    3  502    0  0.10903921318E+04 -0.14956996529E+04  0.26764965462E+03  0.18702162416E+04  0.25500000920E-02 0.  1.
       -2    1    3    3    0  502 -0.10903921318E+04  0.14956996529E+04 -0.86139483743E+03  0.20415860302E+04  0.25500000920E-02 0. -1.
</event>
<event>
 5   0  0.1520986E-07  0.3914456E+04  0.7818609E-02  0.8022029E-01
        2   -1    0    0  501    0  0.00000000000E+00  0.00000000000E+00  0.17446075906E+04  0.17446075906E+04  0.25500000920E-02 0.  1.
       -2   -1    0    0    0  501  0.00000000000E+00  0.00000000000E+00 -0.21957611644E+04  0.21957611644E+04  0.25500000920E-02 0. -1.
    10030    2    1    2    0    0  0.00000000000E+00  0.00000000000E+00 -0.45115357378E+03  0.39403687549E+04  0.39144560769E+04 0.  0.
        4    1    3    3  502    0 -0.10180258436E+04  0.10526728209E+04 -0.15327271874E+04  0.21198469120E+04  0.12699999809E+01 0. -1.
       -4    1    3    3    0  502  0.10180258436E+04 -0.10526728209E+04  0.10815736137E+04  0.18205218430E+04  0.12699999809E+01 0.  1.
</event>
<event>
 5   0  0.4750125E-08  0.3941076E+04  0.7818609E-02  0.8016540E-01
        1   -1    0    0  501    0  0.00000000000E+00  0.00000000000E+00  0.15126227377E+04  0.15126227377E+04  0.50400001928E-02 0.  1.
       -1   -1    0    0    0  501  0.00000000000E+00  0.00000000000E+00 -0.25670775560E+04  0.25670775561E+04  0.50400001928E-02 0. -1.
    10030    2    1    2    0    0  0.00000000000E+00  0.00000000000E+00 -0.10544548183E+04  0.40797002938E+04  0.39410759347E+04 0.  0.
        5    1    3    3  502    0  0.27031006166E+03 -0.14669982871E+04 -0.18600906404E+04  0.23843470352E+04  0.46999998093E+01 0. -1.
       -5    1    3    3    0  502 -0.27031006166E+03  0.14669982871E+04  0.80563582205E+03  0.16953532586E+04  0.46999998093E+01 0.  1.
</event>
<event>
 5   0  0.1520986E-07  0.3779010E+04  0.7818609E-02  0.8050674E-01
        2   -1    0    0  501    0  0.00000000000E+00  0.00000000000E+00  0.16757792288E+04  0.16757792288E+04  0.25500000920E-02 0. -1.
       -2   -1    0    0    0  501  0.00000000000E+00  0.00000000000E+00 -0.21304893831E+04  0.21304893831E+04  0.25500000920E-02 0.  1.
    10030    2    1    2    0    0  0.00000000000E+00  0.00000000000E+00 -0.45471015436E+03  0.38062686119E+04  0.37790103759E+04 0.  0.
        4    1    3    3  502    0 -0.12929643225E+04 -0.93688493535E+03 -0.12449484308E+04  0.20246995653E+04  0.12699999809E+01 0.  1.
       -4    1    3    3    0  502  0.12929643225E+04  0.93688493535E+03  0.79023827645E+03  0.17815690466E+04  0.12699999809E+01 0. -1.
</event>
<event>
 5   0  0.4762788E-08  0.3870395E+04  0.7818609E-02  0.8031215E-01
        1   -1    0    0  501    0  0.00000000000E+00  0.00000000000E+00  0.20570707203E+04  0.20570707203E+04  0.50400001928E-02 0.  1.
       -1   -1    0    0    0  501  0.00000000000E+00  0.00000000000E+00 -0.18205446780E+04  0.18205446780E+04  0.50400001928E-02 0. -1.
    10030    2    1    2    0    0  0.00000000000E+00  0.00000000000E+00  0.23652604234E+03  0.38776153983E+04  0.38703948905E+04 0.  0.
        2    1    3    3  502    0  0.31103765385E+03 -0.29679845389E+03  0.20086204648E+04  0.20541153609E+04  0.25500000920E-02 0.  1.
       -2    1    3    3    0  502 -0.31103765385E+03  0.29679845389E+03 -0.17720944225E+04  0.18235000374E+04  0.25500000920E-02 0. -1.
</event>
<event>
 5   0  0.1501585E-07  0.3896048E+04  0.7818609E-02  0.8025852E-01
       -2   -1    0    0    0  501  0.00000000000E+00  0.00000000000E+00  0.16733544171E+04  0.16733544171E+04  0.25500000920E-02 0.  1.
        2   -1    0    0  501    0  0.00000000000E+00  0.00000000000E+00 -0.22677786839E+04  0.22677786839E+04  0.25500000920E-02 0. -1.
    10030    2    1    2    0    0  0.00000000000E+00  0.00000000000E+00 -0.59442426677E+03  0.39411331010E+04  0.38960479862E+04 0.  0.
        5    1    3    3  502    0  0.15762818333E+04  0.61939408642E+03 -0.12708794570E+04  0.21174206328E+04  0.46999998093E+01 0. -1.
       -5    1    3    3    0  502 -0.15762818333E+04 -0.61939408642E+03  0.67645519021E+03  0.18237124682E+04  0.46999998093E+01 0.  1.
</event>
<event>
 5   0  0.4750125E-08  0.3898914E+04  0.7818609E-02  0.8025255E-01
        1   -1    0    0  501    0  0.00000000000E+00  0.00000000000E+00  0.23759271019E+04  0.23759271019E+04  0.50400001928E-02 0. -1.
       -1   -1    0    0    0  501  0.00000000000E+00  0.00000000000E+00 -0.15995365550E+04  0.15995365550E+04  0.50400001928E-02 0.  1.
    10030    2    1    2    0    0  0.00000000000E+00  0.00000000000E+00  0.77639054686E+03  0.39754636569E+04  0.38989138239E+04 0.  0.
        4    1    3    3  502    0 -0.28293052625E+03  0.12988019411E+04 -0.10657910124E+04  0.17037747092E+04  0.12699999809E+01 0.  1.
       -4    1    3    3    0  502  0.28293052625E+03 -0.12988019411E+04  0.18421815592E+04  0.22716889477E+04  0.12699999809E+01 0. -1.
</event>
<event>
 5   0  0.1503228E-07  0.3933414E+04  0.7818609E-02  0.8018115E-01
       -2   -1    0    0    0  501  0.00000000000E+00  0.00000000000E+00  0.13801717392E+04  0.13801717392E+04  0.25500000920E-02 0. -1.
        2   -1    0    0  501    0  0.00000000000E+00  0.00000000000E+00 -0.28025040414E+04  0.28025040414E+04  0.25500000920E-02 0.  1.
    10030    2    1    2    0    0  0.00000000000E+00  0.00000000000E+00 -0.14223323022E+04  0.41826757806E+04  0.39334142304E+04 0.  0.
        3    1    3    3  502    0  0.19344815267E+03 -0.28489040594E+03 -0.27701959524E+04  0.27915175722E+04  0.10100000352E+00 0.  1.
       -3    1    3    3    0  502 -0.19344815267E+03  0.28489040594E+03  0.13478636502E+04  0.13911582084E+04  0.10100000352E+00 0. -1.
</event>
<event>
 5   0  0.4762788E-08  0.3903074E+04  0.7818609E-02  0.8024390E-01
        1   -1    0    0  501    0  0.00000000000E+00  0.00000000000E+00  0.31557594660E+04  0.31557594660E+04  0.50400001928E-02 0. -1.
       -1   -1    0    0    0  501  0.00000000000E+00  0.00000000000E+00 -0.12068402173E+04  0.12068402173E+04  0.50400001928E-02 0.  1.
    10030    2    1    2    0    0  0.00000000000E+00  0.00000000000E+00  0.19489192487E+04  0.43625996833E+04  0.39030743983E+04 0.  0.
        2    1    3    3  502    0 -0.16136063311E+03 -0.79743641371E+03  0.29571560416E+04  0.30670366712E+04  0.25500000920E-02 0. -1.
       -2    1    3    3    0  502  0.16136063311E+03  0.79743641371E+03 -0.10082367929E+04  0.12955630122E+04  0.25500000920E-02 0.  1.
</event>
<event>
 5   0  0.1546846E-07  0.3832412E+04  0.7818609E-02  0.8039235E-01
        2   -1    0    0  501    0  0.00000000000E+00  0.00000000000E+00  0.16254298995E+04  0.16254298995E+04  0.25500000920E-02 0.  1.
       -2   -1    0    0    0  501  0.00000000000E+00  0.00000000000E+00 -0.22589990910E+04  0.22589990910E+04  0.25500000920E-02 0. -1.
    10030    2    1    2    0    0  0.00000000000E+00  0.00000000000E+00 -0.63356919152E+03  0.38844289905E+04  0.38324115986E+04 0.  0.
        2    1    3    3  502    0 -0.18017354325E+04 -0.10739609139E+03 -0.96899357285E+03  0.20485929399E+04  0.25500000920E-02 0. -1.
       -2    1    3    3    0  502  0.18017354325E+04  0.10739609139E+03  0.33542438133E+03  0.18358360506E+04  0.25500000920E-02 0.  1.
</event>
<event>
 5   0  0.1520986E-07  0.3921070E+04  0.7818609E-02  0.8020661E-01
       -2   -1    0    0    0  501  0.00000000000E+00  0.00000000000E+00  0.16642528589E+04  0.16642528589E+04  0.25500000920E-02 0.  1.
        2   -1    0    0  501    0  0.00000000000E+00  0.00000000000E+00 -0.23095630429E+04  0.23095630429E+04  0.25500000920E-02 0. -1.
    10030    2    1    2    0    0  0.00000000000E+00  0.00000000000E+00 -0.64531018396E+03  0.39738159018E+04  0.39210696995E+04 0.  0.
        4    1    3    3  502    0  0.89887463276E+03 -0.14740322087E+04  0.61879147736E+03  0.18340259167E+04  0.12699999809E+01 0.  1.
       -4    1    3    3    0  502 -0.89887463276E+03  0.14740322087E+04 -0.12641016613E+04  0.21397899852E+04  0.12699999809E+01 0. -1.
</event>
<event>
 5   0  0.1501585E-07  0.3890920E+04  0.7818609E-02  0.8026920E-01
        2   -1    0    0  501    0  0.00000000000E+00  0.00000000000E+00  0.19562676566E+04  0.19562676566E+04  0.25500000920E-02 0.  1.
       -2   -1    0    0    0  501  0.00000000000E+00  0.00000000000E+00 -0.19347123036E+04  0.19347123036E+04  0.25500000920E-02 0. -1.
    10030    2    1    2    0    0  0.00000000000E+00  0.00000000000E+00  0.21555353003E+02  0.38909799602E+04  0.38909202533E+04 0.  0.
        5    1    3    3  502    0  0.26947614385E+03 -0.15082932072E+04  0.12096401926E+04  0.19521314702E+04  0.46999998093E+01 0. -1.
       -5    1    3    3    0  502 -0.26947614385E+03  0.15082932072E+04 -0.11880848396E+04  0.19388484900E+04  0.46999998093E+01 0.  1.
</event>
<event>
 5   0  0.4750125E-08  0.3902730E+04  0.7818609E-02  0.8024462E-01
        1   -1    0    0  501    0  0.00000000000E+00  0.00000000000E+00  0.13266097229E+04  0.13266097230E+04  0.50400001928E-02 0. -1.
       -1   -1    0    0    0  501  0.00000000000E+00  0.00000000000E+00 -0.28703438764E+04  0.28703438764E+04  0.50400001928E-02 0.  1.
    10030    2    1    2    0    0  0.00000000000E+00  0.00000000000E+00 -0.15437341534E+04  0.41969535993E+04  0.39027303748E+04 0.  0.
        1    1    3    3  502    0 -0.72227298436E+03 -0.11565755938E+04  0.72924692675E+03  0.15463332268E+04  0.50400001928E-02 0. -1.
       -1    1    3    3    0  502  0.72227298436E+03  0.11565755938E+04 -0.22729810802E+04  0.26506203725E+04  0.50400001928E-02 0.  1.
</event>
<event>
 5   0  0.4762788E-08  0.3967003E+04  0.7818609E-02  0.8011236E-01
       -1   -1    0    0    0  501  0.00000000000E+00  0.00000000000E+00  0.19359621863E+04  0.19359621863E+04  0.50400001928E-02 0. -1.
        1   -1    0    0  501    0  0.00000000000E+00  0.00000000000E+00 -0.20322083488E+04  0.20322083488E+04  0.50400001928E-02 0.  1.
    10030    2    1    2    0    0  0.00000000000E+00  0.00000000000E+00 -0.96246162436E+02  0.39681705351E+04  0.39670031600E+04 0.  0.
        2    1    3    3  502    0  0.15595773506E+04  0.44583253404E+03  0.10938040077E+04  0.19563883480E+04  0.25500000920E-02 0. -1.
       -2    1    3    3    0  502 -0.15595773506E+04 -0.44583253404E+03 -0.11900501701E+04  0.20117821871E+04  0.25500000920E-02 0.  1.
</event>
<event>
 5   0  0.1501585E-07  0.3927767E+04  0.7818609E-02  0.8019279E-01
       -2   -1    0    0    0  501  0.00000000000E+00  0.00000000000E+00  0.18473347805E+04  0.18473347805E+04  0.25500000920E-02 0.  1.
        2   -1    0    0  501    0  0.00000000000E+00  0.00000000000E+00 -0.20877850942E+04  0.20877850942E+04  0.25500000920E-02 0. -1.
    10030    2    1    2    0    0  0.00000000000E+00  0.00000000000E+00 -0.24045031373E+03  0.39351198747E+04  0.39277668050E+04 0.  0.
        5    1    3    3  502    0 -0.56584403019E+03 -0.14425412927E+04 -0.13290123921E+04  0.20414212882E+04  0.46999998093E+01 0. -1.
       -5    1    3    3    0  502  0.56584403019E+03  0.14425412927E+04  0.10885620784E+04  0.18936985864E+04  0.46999998093E+01 0.  1.
</event>
<event>
 5   0  0.4750125E-08  0.3896294E+04  0.7818609E-02  0.8025800E-01
       -1   -1    0    0    0  501  0.00000000000E+00  0.00000000000E+00  0.12075850989E+04  0.12075850989E+04  0.50400001928E-02 0.  1.
        1   -1    0    0  501    0  0.00000000000E+00  0.00000000000E+00 -0.31428644132E+04  0.31428644132E+04  0.50400001928E-02 0. -1.
    10030    2    1    2    0    0  0.00000000000E+00  0.00000000000E+00 -0.19352793143E+04  0.43504495122E+04  0.38962937432E+04 0.  0.
        3    1    3    3  502    0  0.19049033069E+04  0.22368614770E+03 -0.13488828909E+04  0.23448192180E+04  0.10100000352E+00 0. -1.
       -3    1    3    3    0  502 -0.19049033069E+04 -0.22368614770E+03 -0.58639642345E+03  0.20056302942E+04  0.10100000352E+00 0.  1.
</event>
<event>
 5   0  0.1538018E-07  0.3902466E+04  0.7818609E-02  0.8024516E-01
       -2   -1    0    0    0  501  0.00000000000E+00  0.00000000000E+00  0.31571584652E+04  0.31571584652E+04  0.25500000920E-02 0.  1.
        2   -1    0    0  501    0  0.00000000000E+00  0.00000000000E+00 -0.12059295320E+04  0.12059295320E+04  0.25500000920E-02 0. -1.
    10030    2    1    2    0    0  0.00000000000E+00  0.00000000000E+00  0.19512289332E+04  0.43630879973E+04  0.39024662102E+04 0.  0.
        1    1    3    3  502    0  0.92855848270E+03 -0.15930328956E+04  0.16891756237E+04  0.25006577035E+04  0.50400001928E-02 0.  1.
       -1    1    3    3    0  502 -0.92855848270E+03  0.15930328956E+04  0.26205330952E+03  0.18624302938E+04  0.50400001928E-02 0. -1.
</event>
<event>
 5   0  0.4750125E-08  0.3860494E+04  0.7818609E-02  0.8033296E-01
       -1   -1    0    0    0  501  0.00000000000E+00  0.00000000000E+00  0.13882797560E+04  0.13882797560E+04  0.50400001928E-02 0.  1.
        1   -1    0    0  501    0  0.00000000000E+00  0.00000000000E+00 -0.26837910088E+04  0.26837910088E+04  0.50400001928E-02 0. -1.
    10030    2    1    2    0    0  0.00000000000E+00  0.00000000000E+00 -0.12955112528E+04  0.40720707648E+04  0.38604936093E+04 0.  0.
        1    1    3    3  502    0 -0.83906281687E+03 -0.93705591137E+03  0.89664441369E+03  0.15446913596E+04  0.50400001928E-02 0.  1.
       -1    1    3    3    0  502  0.83906281687E+03  0.93705591137E+03 -0.21921556665E+04  0.25273794052E+04  0.50400001928E-02 0. -1.
</event>
<event>
 5   0  0.1538018E-07  0.3877713E+04  0.7818609E-02  0.8029681E-01
        2   -1    0    0  501    0  0.00000000000E+00  0.00000000000E+00  0.29454193413E+04  0.29454193413E+04  0.25500000920E-02 0. -1.
       -2   -1    0    0    0  501  0.00000000000E+00  0.00000000000E+00 -0.12762747756E+04  0.12762747756E+04  0.25500000920E-02 0.  1.
    10030    2    1    2    0    0  0.00000000000E+00  0.00000000000E+00  0.16691445657E+04  0.42216941169E+04  0.38777129388E+04 0.  0.
        1    1    3    3  502    0  0.52095480607E+03 -0.30826964136E+03 -0.11707603354E+04  0.13179923538E+04  0.50400001928E-02 0.  1.
       -1    1    3    3    0  502 -0.52095480607E+03  0.30826964136E+03  0.28399049011E+04  0.29037017631E+04  0.50400001928E-02 0. -1.
</event>
<event>
 5   0  0.1538018E-07  0.3831035E+04  0.7818609E-02  0.8039528E-01
        2   -1    0    0  501    0  0.00000000000E+00  0.00000000000E+00  0.15753734235E+04  0.15753734235E+04  0.25500000920E-02 0. -1.
       -2   -1    0    0    0  501  0.00000000000E+00  0.00000000000E+00 -0.23291028250E+04  0.23291028250E+04  0.25500000920E-02 0.  1.
    10030    2    1    2    0    0  0.00000000000E+00  0.00000000000E+00 -0.75372940149E+03  0.39044762486E+04  0.38310346859E+04 0.  0.
        1    1    3    3  502    0  0.33404055901E+03 -0.16395236213E+04 -0.13272570766E+04  0.21357041338E+04  0.50400001928E-02 0. -1.
       -1    1    3    3    0  502 -0.33404055901E+03  0.16395236213E+04  0.57352767507E+03  0.17687721148E+04  0.50400001928E-02 0.  1.
</event>
<event>
 5   0  0.1501585E-07  0.3922116E+04  0.7818609E-02  0.8020445E-01
       -2   -1    0    0    0  501  0.00000000000E+00  0.00000000000E+00  0.11538054312E+04  0.11538054312E+04  0.25500000920E-02 0. -1.
        2   -1    0    0  501    0  0.00000000000E+00  0.00000000000E+00 -0.33330998780E+04  0.33330998780E+04  0.25500000920E-02 0.  1.
    10030    2    1    2    0    0  0.00000000000E+00  0.00000000000E+00 -0.21792944468E+04  0.44869053092E+04  0.39221161339E+04 0.  0.
        5    1    3    3  502    0  0.49302681642E+03 -0.40210516791E+03  0.10324556543E+04  0.12127451405E+04  0.46999998093E+01 0. -1.
       -5    1    3    3    0  502 -0.49302681642E+03  0.40210516791E+03 -0.32117501011E+04  0.32741601686E+04  0.46999998093E+01 0.  1.
</event>
<event>
 5   0  0.1503228E-07  0.3882118E+04  0.7818609E-02  0.8028759E-01
        2   -1    0    0  501    0  0.00000000000E+00  0.00000000000E+00  0.23936385231E+04  0.23936385231E+04  0.25500000920E-02 0.  1.
       -2   -1    0    0    0  501  0.00000000000E+00  0.00000000000E+00 -0.15740517171E+04  0.15740517171E+04  0.25500000920E-02 0. -1.
    10030    2    1    2    0    0  0.00000000000E+00  0.00000000000E+00  0.81958680602E+03  0.39676902402E+04  0.38821184049E+04 0.  0.
        3    1    3    3  502    0  0.98462985786E+03 -0.76318371838E+03 -0.11115626866E+04  0.16695858653E+04  0.10100000352E+00 0. -1.
       -3    1    3    3    0  502 -0.98462985786E+03  0.76318371838E+03  0.19311494926E+04  0.22981043749E+04  0.10100000352E+00 0.  1.
</event>
<event>
 5   0  0.4750125E-08  0.3819501E+04  0.7818609E-02  0.8041983E-01
        1   -1    0    0  501    0  0.00000000000E+00  0.00000000000E+00  0.26931742503E+04  0.26931742503E+04  0.50400001928E-02 0.  1.
       -1   -1    0    0    0  501  0.00000000000E+00  0.00000000000E+00 -0.13542186749E+04  0.13542186749E+04  0.50400001928E-02 0. -1.
    10030    2    1    2    0    0  0.00000000000E+00  0.00000000000E+00  0.13389555754E+04  0.40473929252E+04  0.38195009436E+04 0.  0.
        4    1    3    3  502    0  0.53624122269E+03  0.13611872443E+04 -0.63126303890E+03  0.15933863311E+04  0.12699999809E+01 0. -1.
       -4    1    3    3    0  502 -0.53624122269E+03 -0.13611872443E+04  0.19702186142E+04  0.24540065941E+04  0.12699999809E+01 0.  1.
</event>
<event>
 5   0  0.4750125E-08  0.3951723E+04  0.7818609E-02  0.8014357E-01
        1   -1    0    0  501    0  0.00000000000E+00  0.00000000000E+00  0.13971633979E+04  0.13971633979E+04  0.50400001928E-02 0. -1.
       -1   -1    0    0    0  501  0.00000000000E+00  0.00000000000E+00 -0.27942530034E+04  0.27942530034E+04  0.50400001928E-02 0.  1.
    10030    2    1    2    0    0  0.00000000000E+00  0.00000000000E+00 -0.13970896055E+04  0.41914164014E+04  0.39517226729E+04 0.  0.
        3    1    3    3  502    0  0.17764486282E+04 -0.32277546775E+03 -0.15497658000E+04  0.23794385423E+04  0.10100000352E+00 0.  1.
       -3    1    3    3    0  502 -0.17764486282E+04  0.32277546775E+03  0.15267619453E+03  0.18119778591E+04  0.10100000352E+00 0. -1.
</event>
<event>
 5   0  0.4762788E-08  0.3894244E+04  0.7818609E-02  0.8026227E-01
        1   -1    0    0  501    0  0.00000000000E+00  0.00000000000E+00  0.24759617807E+04  0.24759617807E+04  0.50400001928E-02 0. -1.
       -1   -1    0    0    0  501  0.00000000000E+00  0.00000000000E+00 -0.15312368492E+04  0.15312368492E+04  0.50400001928E-02 0.  1.
    10030    2    1    2    0    0  0.00000000000E+00  0.00000000000E+00  0.94472493151E+03  0.40071986299E+04  0.38942439142E+04 0.  0.
        2    1    3    3  502    0  0.11387377099E+04  0.10389551222E+04 -0.75173581481E+03  0.17150096365E+04  0.25500000920E-02 0.  1.
       -2    1    3    3    0  502 -0.11387377099E+04 -0.10389551222E+04  0.16964607463E+04  0.22921889935E+04  0.25500000920E-02 0. -1.
</event>
<event>
 5   0  0.4750125E-08  0.3896654E+04  0.7818609E-02  0.8025725E-01
       -1   -1    0    0    0  501  0.00000000000E+00  0.00000000000E+00  0.13080909758E+04  0.13080909758E+04  0.50400001928E-02 0. -1.
        1   -1    0    0  501    0  0.00000000000E+00  0.00000000000E+00 -0.29019220679E+04  0.29019220679E+04  0.50400001928E-02 0.  1.
    10030    2    1    2    0    0  0.00000000000E+00  0.00000000000E+00 -0.15938310921E+04  0.42100130436E+04  0.38966539848E+04 0.  0.
        1    1    3    3  502    0 -0.29641312166E+02 -0.17370457241E+04  0.15591932529E+03  0.17442813108E+04  0.50400001928E-02 0.  1.
       -1    1    3    3    0  502  0.29641312166E+02  0.17370457241E+04 -0.17497504174E+04  0.24657317328E+04  0.50400001928E-02 0. -1.
</event>
<event>
 5   0  0.1538018E-07  0.3891055E+04  0.7818609E-02  0.8026892E-01
       -2   -1    0    0    0  501  0.00000000000E+00  0.00000000000E+00  0.16198924884E+04  0.16198924884E+04  0.25500000920E-02 0. -1.
        2   -1    0    0  501    0  0.00000000000E+00  0.00000000000E+00 -0.23366229913E+04  0.23366229913E+04  0.25500000920E-02 0.  1.
    10030    2    1    2    0    0  0.00000000000E+00  0.00000000000E+00 -0.71673050291E+03  0.39565154797E+04  0.38910554002E+04 0.  0.
        1    1    3    3  502    0 -0.63014765622E+03 -0.11732268301E+04  0.10837793047E+04  0.17170104382E+04  0.50400001928E-02 0. -1.
       -1    1    3    3    0  502  0.63014765622E+03  0.11732268301E+04 -0.18005098076E+04  0.22395050415E+04  0.50400001928E-02 0.  1.
</event>
<event>
 5   0  0.4750125E-08  0.3906244E+04  0.7818609E-02  0.8023732E-01
       -1   -1    0    0    0  501  0.00000000000E+00  0.00000000000E+00  0.22677955676E+04  0.22677955676E+04  0.50400001928E-02 0.  1.
        1   -1    0    0  501    0  0.00000000000E+00  0.00000000000E+00 -0.16821113375E+04  0.16821113375E+04  0.50400001928E-02 0. -1.
    10030    2    1    2    0    0  0.00000000000E+00  0.00000000000E+00  0.58568423013E+03  0.39499069051E+04  0.39062435333E+04 0.  0.
        3    1    3    3  502    0  0.93667935486E+03  0.16067109405E+04  0.89599623355E+03  0.20643879289E+04  0.10100000352E+00 0. -1.
       -3    1    3    3    0  502 -0.93667935486E+03 -0.16067109405E+04 -0.31031200342E+03  0.18855189762E+04  0.10100000352E+00 0.  1.
</event>
<event>
 5   0  0.1546846E-07  0.3924321E+04  0.7818609E-02  0.8019990E-01
        2   -1    0    0  501    0  0.00000000000E+00  0.00000000000E+00  0.30104269272E+04  0.30104269272E+04  0.25500000920E-02 0.  1.
       -2   -1    0    0    0  501  0.00000000000E+00  0.00000000000E+00 -0.12789127335E+04  0.12789127335E+04  0.25500000920E-02 0. -1.
    10030    2    1    2    0    0  0.00000000000E+00  0.00000000000E+00  0.17315141937E+04  0.42893396606E+04  0.39243207465E+04 0.  0.
        2    1    3    3  502    0 -0.77709076892E+03 -0.77552730261E+03  0.26432960668E+04  0.28622240927E+04  0.25500000920E-02 0.  1.
       -2    1    3    3    0  502  0.77709076892E+03  0.77552730261E+03 -0.91178187306E+03  0.14271155680E+04  0.25500000920E-02 0. -1.
</event>
<event>
 5   0  0.4750125E-08  0.3909529E+04  0.7818609E-02  0.8023050E-01
        1   -1    0    0  501    0  0.00000000000E+00  0.00000000000E+00  0.15357592943E+04  0.15357592943E+04  0.50400001928E-02 0. -1.
       -1   -1    0    0    0  501  0.00000000000E+00  0.00000000000E+00 -0.24880878569E+04  0.24880878569E+04  0.50400001928E-02 0.  1.
    10030    2    1    2    0    0  0.00000000000E+00  0.00000000000E+00 -0.95232856260E+03  0.40238471512E+04  0.39095288981E+04 0.  0.
        5    1    3    3  502    0  0.38784157933E+03 -0.17628241053E+04  0.29618626124E+03  0.18291304787E+04  0.46999998093E+01 0. -1.
       -5    1    3    3    0  502 -0.38784157933E+03  0.17628241053E+04 -0.12485148238E+04  0.21947166724E+04  0.46999998093E+01 0.  1.
</event>
<event>
 5   0  0.1520986E-07  0.3872162E+04  0.7818609E-02  0.8030844E-01
       -2   -1    0    0    0  501  0.00000000000E+00  0.00000000000E+00  0.13898665341E+04  0.13898665341E+04  0.25500000920E-02 0.  1.
        2   -1    0    0  501    0  0.00000000000E+00  0.00000000000E+00 -0.26969559392E+04  0.26969559392E+04  0.25500000920E-02 0. -1.
    10030    2    1    2    0    0  0.00000000000E+00  0.00000000000E+00 -0.13070894051E+04  0.40868224732E+04  0.38721615688E+04 0.  0.
        4    1    3    3  502    0  0.18786979398E+04  0.19407695114E+03 -0.20422672798E+03  0.18997057618E+04  0.12699999809E+01 0.  1.
       -4    1    3    3    0  502 -0.18786979398E+04 -0.19407695114E+03 -0.11028626771E+04  0.21871167115E+04  0.12699999809E+01 0. -1.
</event>
<event>
 5   0  0.1538018E-07  0.3719897E+04  0.7818609E-02  0.8063567E-01
       -2   -1    0    0    0  501  0.00000000000E+00  0.00000000000E+00  0.22116088398E+04  0.22116088398E+04  0.25500000920E-02 0. -1.
        2   -1    0    0  501    0  0.00000000000E+00  0.00000000000E+00 -0.15642042845E+04  0.15642042845E+04  0.25500000920E-02 0.  1.
    10030    2    1    2    0    0  0.00000000000E+00  0.00000000000E+00  0.64740455526E+03  0.37758131243E+04  0.37198967850E+04 0.  0.
        1    1    3    3  502    0 -0.17540228458E+04  0.51797202485E+03 -0.19787897183E+02  0.18290114059E+04  0.50400001928E-02 0. -1.
       -1    1    3    3    0  502  0.17540228458E+04 -0.51797202485E+03  0.66719245244E+03  0.19468017184E+04  0.50400001928E-02 0.  1.
</event>
<event>
 5   0  0.1538018E-07  0.3890795E+04  0.7818609E-02  0.8026946E-01
       -2   -1    0    0    0  501  0.00000000000E+00  0.00000000000E+00  0.17577606600E+04  0.17577606600E+04  0.25500000920E-02 0.  1.
        2   -1    0    0  501    0  0.00000000000E+00  0.00000000000E+00 -0.21530643843E+04  0.21530643843E+04  0.25500000920E-02 0. -1.
    10030    2    1    2    0    0  0.00000000000E+00  0.00000000000E+00 -0.39530372431E+03  0.39108250443E+04  0.38907952263E+04 0.  0.
        1    1    3    3  502    0 -0.43177575251E+03  0.12512611115E+04 -0.16306443817E+04  0.21002585006E+04  0.50400001928E-02 0. -1.
       -1    1    3    3    0  502  0.43177575251E+03 -0.12512611115E+04  0.12353406574E+04  0.18105665438E+04  0.50400001928E-02 0.  1.
</event>
<event>
 5   0  0.4750125E-08  0.3896007E+04  0.7818609E-02  0.8025860E-01
       -1   -1    0    0    0  501  0.00000000000E+00  0.00000000000E+00  0.17526949758E+04  0.17526949758E+04  0.50400001928E-02 0.  1.
        1   -1    0    0  501    0  0.00000000000E+00  0.00000000000E+00 -0.21650758963E+04  0.21650758963E+04  0.50400001928E-02 0. -1.
    10030    2    1    2    0    0  0.00000000000E+00  0.00000000000E+00 -0.41238092048E+03  0.39177708721E+04  0.38960070050E+04 0.  0.
        4    1    3    3  502    0  0.35410270349E+03 -0.81665745622E+03  0.15362318704E+04  0.17754796811E+04  0.12699999809E+01 0.  1.
       -4    1    3    3    0  502 -0.35410270349E+03  0.81665745622E+03 -0.19486127909E+04  0.21422911910E+04  0.12699999809E+01 0. -1.
</event>
<event>
 5   0  0.1520986E-07  0.3904674E+04  0.7818609E-02  0.8024058E-01
        2   -1    0    0  501    0  0.00000000000E+00  0.00000000000E+00  0.25560919589E+04  0.25560919589E+04  0.25500000920E-02 0.  1.
       -2   -1    0    0    0  501  0.00000000000E+00  0.00000000000E+00 -0.14911904572E+04  0.14911904572E+04  0.25500000920E-02 0. -1.
    10030    2    1    2    0    0  0.00000000000E+00  0.00000000000E+00  0.10649015016E+04  0.40472824161E+04  0.39046740898E+04 0.  0.
        4    1    3    3  502    0  0.29500344769E+03  0.12547129035E+04  0.20523924013E+04  0.24235609516E+04  0.12699999809E+01 0.  1.
       -4    1    3    3    0  502 -0.29500344769E+03 -0.12547129035E+04 -0.98749089963E+03  0.16237214645E+04  0.12699999809E+01 0. -1.
</event>
<event>
 5   0  0.1520986E-07  0.3914207E+04  0.7818609E-02  0.8022081E-01
       -2   -1    0    0    0  501  0.00000000000E+00  0.00000000000E+00  0.15729874914E+04  0.15729874914E+04  0.25500000920E-02 0.  1.
        2   -1    0    0  501    0  0.00000000000E+00  0.00000000000E+00 -0.24350183290E+04  0.24350183290E+04  0.25500000920E-02 0. -1.
    10030    2    1    2    0    0  0.00000000000E+00  0.00000000000E+00 -0.86203083764E+03  0.40080058205E+04  0.39142066235E+04 0.  0.
        4    1    3    3  502    0 -0.47842724851E+03  0.15490226103E+04  0.69156279671E+03  0.17625618837E+04  0.12699999809E+01 0. -1.
       -4    1    3    3    0  502  0.47842724851E+03 -0.15490226103E+04 -0.15535936343E+04  0.22454439367E+04  0.12699999809E+01 0.  1.
</event>
<event>
 5   0  0.4762788E-08  0.3915200E+04  0.7818609E-02  0.8021875E-01
        1   -1    0    0  501    0  0.00000000000E+00  0.00000000000E+00  0.18983336360E+04  0.18983336360E+04  0.50400001928E-02 0.  1.
       -1   -1    0    0    0  501  0.00000000000E+00  0.00000000000E+00 -0.20187162796E+04  0.20187162796E+04  0.50400001928E-02 0. -1.
    10030    2    1    2    0    0  0.00000000000E+00  0.00000000000E+00 -0.12038264357E+03  0.39170499156E+04  0.39151996195E+04 0.  0.
        2    1    3    3  502    0  0.35707197369E+03  0.17842531976E+04  0.66204813685E+03  0.19363283820E+04  0.25500000920E-02 0.  1.
       -2    1    3    3    0  502 -0.35707197369E+03 -0.17842531976E+04 -0.78243078041E+03  0.19807215336E+04  0.25500000920E-02 0. -1.
</event>
<event>
 5   0  0.1538018E-07  0.3641574E+04  0.7818609E-02  0.8081034E-01
        2   -1    0    0  501    0  0.00000000000E+00  0.00000000000E+00  0.18341033513E+04  0.18341033513E+04  0.25500000920E-02 0. -1.
       -2   -1    0    0    0  501  0.00000000000E+00  0.00000000000E+00 -0.18075675489E+04  0.18075675489E+04  0.25500000920E-02 0.  1.
    10030    2    1    2    0    0  0.00000000000E+00  0.00000000000E+00  0.26535802404E+02  0.36416709002E+04  0.36415742196E+04 0.  0.
        1    1    3    3  502    0  0.24770885848E+03 -0.17814991355E+04 -0.26987712824E+03  0.18187722542E+04  0.50400001928E-02 0.  1.
       -1    1    3    3    0  502 -0.24770885848E+03  0.17814991355E+04  0.29641293064E+03  0.18228986460E+04  0.50400001928E-02 0. -1.
</event>
<event>
 5   0  0.4750125E-08  0.3899403E+04  0.7818609E-02  0.8025153E-01
       -1   -1    0    0    0  501  0.00000000000E+00  0.00000000000E+00  0.17345413307E+04  0.17345413307E+04  0.50400001928E-02 0. -1.
        1   -1    0    0  501    0  0.00000000000E+00  0.00000000000E+00 -0.21915509679E+04  0.21915509679E+04  0.50400001928E-02 0.  1.
    10030    2    1    2    0    0  0.00000000000E+00  0.00000000000E+00 -0.45700963725E+03  0.39260922986E+04  0.38994028939E+04 0.  0.
        5    1    3    3  502    0  0.84235053597E+03  0.13730843740E+04 -0.13343842822E+04  0.20917740380E+04  0.46999998093E+01 0.  1.
       -5    1    3    3    0  502 -0.84235053597E+03 -0.13730843740E+04  0.87737464491E+03  0.18343182606E+04  0.46999998093E+01 0. -1.
</event>
<event>
 5   0  0.4750125E-08  0.3749098E+04  0.7818609E-02  0.8057167E-01
        1   -1    0    0  501    0  0.00000000000E+00  0.00000000000E+00  0.20799001726E+04  0.20799001726E+04  0.50400001928E-02 0.  1.
       -1   -1    0    0    0  501  0.00000000000E+00  0.00000000000E+00 -0.16894725212E+04  0.16894725212E+04  0.50400001928E-02 0. -1.
    10030    2    1    2    0    0  0.00000000000E+00  0.00000000000E+00  0.39042765133E+03  0.37693726938E+04  0.37490981254E+04 0.  0.
        5    1    3    3  502    0 -0.28021357179E+03 -0.96323159736E+03  0.17873105223E+04  0.20495940449E+04  0.46999998093E+01 0.  1.
       -5    1    3    3    0  502  0.28021357179E+03  0.96323159736E+03 -0.13968828709E+04  0.17197786489E+04  0.46999998093E+01 0. -1.
</event>
<event>
 5   0  0.4750125E-08  0.3909549E+04  0.7818609E-02  0.8023046E-01
       -1   -1    0    0    0  501  0.00000000000E+00  0.00000000000E+00  0.18251401011E+04  0.18251401011E+04  0.50400001928E-02 0. -1.
        1   -1    0    0  501    0  0.00000000000E+00  0.00000000000E+00 -0.20936161137E+04  0.20936161137E+04  0.50400001928E-02 0.  1.
    10030    2    1    2    0    0  0.00000000000E+00  0.00000000000E+00 -0.26847601257E+03  0.39187562149E+04  0.39095486827E+04 0.  0.
        5    1    3    3  502    0  0.16338204205E+04  0.10218684970E+04  0.19446150089E+03  0.19368587344E+04  0.46999998093E+01 0. -1.
       -5    1    3    3    0  502 -0.16338204205E+04 -0.10218684970E+04 -0.46293751346E+03  0.19818974805E+04  0.46999998093E+01 0.  1.
</event>
<event>
 5   0  0.4762788E-08  0.3885355E+04  0.7818609E-02  0.8028082E-01
        1   -1    0    0  501    0  0.00000000000E+00  0.00000000000E+00  0.18993182333E+04  0.18993182333E+04  0.50400001928E-02 0.  1.
       -1   -1    0    0    0  501  0.00000000000E+00  0.00000000000E+00 -0.19870264167E+04  0.19870264167E+04  0.50400001928E-02 0. -1.
    10030    2    1    2    0    0  0.00000000000E+00  0.00000000000E+00 -0.87708183346E+02  0.38863446500E+04  0.38853548117E+04 0.  0.
        2    1    3    3  502    0 -0.83694574677E+03 -0.37318891698E+03  0.16695467979E+04  0.19045037835E+04  0.25500000920E-02 0.  1.
       -2    1    3    3    0  502  0.83694574677E+03  0.37318891698E+03 -0.17572549813E+04  0.19818408665E+04  0.25500000920E-02 0. -1.
</event>
<event>
 5   0  0.1503228E-07  0.3821397E+04  0.7818609E-02  0.8041579E-01
        2   -1    0    0  501    0  0.00000000000E+00  0.00000000000E+00  0.26315935842E+04  0.26315935842E+04  0.25500000920E-02 0. -1.
       -2   -1    0    0    0  501  0.00000000000E+00  0.00000000000E+00 -0.13872847489E+04  0.13872847489E+04  0.25500000920E-02 0.  1.
    10030    2    1    2    0    0  0.00000000000E+00  0.00000000000E+00  0.12443088353E+04  0.40188783330E+04  0.38213974640E+04 0.  0.
        3    1    3    3  502    0  0.59797460439E+03 -0.43593943217E+03  0.24747653788E+04  0.25830370703E+04  0.10100000352E+00 0. -1.
       -3    1    3    3    0  502 -0.59797460439E+03  0.43593943217E+03 -0.12304565435E+04  0.14358412627E+04  0.10100000352E+00 0.  1.
</event>
<event>
 5   0  0.1501585E-07  0.3885749E+04  0.7818609E-02  0.8028000E-01
        2   -1    0    0  501    0  0.00000000000E+00  0.00000000000E+00  0.16785188670E+04  0.16785188670E+04  0.25500000920E-02 0. -1.
       -2   -1    0    0    0  501  0.00000000000E+00  0.00000000000E+00 -0.22488642789E+04  0.22488642789E+04  0.25500000920E-02 0.  1.
    10030    2    1    2    0    0  0.00000000000E+00  0.00000000000E+00 -0.57034541196E+03  0.39273831459E+04  0.38857488964E+04 0.  0.
        5    1    3    3  502    0 -0.76837509567E+03  0.14644894181E+04  0.74536445495E+03  0.18140341243E+04  0.46999998093E+01 0. -1.
       -5    1    3    3    0  502  0.76837509567E+03 -0.14644894181E+04 -0.13157098669E+04  0.21133490216E+04  0.46999998093E+01 0.  1.
</event>
<event>
 5   0  0.1546846E-07  0.3916051E+04  0.7818609E-02  0.8021699E-01
       -2   -1    0    0    0  501  0.00000000000E+00  0.00000000000E+00  0.24098850675E+04  0.24098850675E+04  0.25500000920E-02 0.  1.
        2   -1    0    0  501    0  0.00000000000E+00  0.00000000000E+00 -0.15908909633E+04  0.15908909633E+04  0.25500000920E-02 0. -1.
    10030    2    1    2    0    0  0.00000000000E+00  0.00000000000E+00  0.81899410416E+03  0.40007760308E+04  0.39160512645E+04 0.  0.
        2    1    3    3  502    0 -0.16390988853E+03  0.78539984639E+03  0.22342374342E+04  0.23739284493E+04  0.25500000920E-02 0.  1.
       -2    1    3    3    0  502  0.16390988853E+03 -0.78539984639E+03 -0.14152433300E+04  0.16268475815E+04  0.25500000920E-02 0. -1.
</event>
<event>
 5   0  0.4750125E-08  0.3853113E+04  0.7818609E-02  0.8034852E-01
        1   -1    0    0  501    0  0.00000000000E+00  0.00000000000E+00  0.22353576082E+04  0.22353576082E+04  0.50400001928E-02 0. -1.
       -1   -1    0    0    0  501  0.00000000000E+00  0.00000000000E+00 -0.16604142791E+04  0.16604142791E+04  0.50400001928E-02 0.  1.
    10030    2    1    2    0    0  0.00000000000E+00  0.00000000000E+00  0.57494332904E+03  0.38957718873E+04  0.38531128670E+04 0.  0.
        4    1    3    3  502    0 -0.16289582929E+04 -0.93294530149E+03  0.72554218476E+03  0.20125369886E+04  0.12699999809E+01 0. -1.
       -4    1    3    3    0  502  0.16289582929E+04  0.93294530149E+03 -0.15059885572E+03  0.18832348987E+04  0.12699999809E+01 0.  1.
</event>
<event>
 5   0  0.1538018E-07  0.3907288E+04  0.7818609E-02  0.8023515E-01
       -2   -1    0    0    0  501  0.00000000000E+00  0.00000000000E+00  0.17259697341E+04  0.17259697341E+04  0.25500000920E-02 0.  1.
        2   -1    0    0  501    0  0.00000000000E+00  0.00000000000E+00 -0.22113512502E+04  0.22113512502E+04  0.25500000920E-02 0. -1.
    10030    2    1    2    0    0  0.00000000000E+00  0.00000000000E+00 -0.48538151608E+03  0.39373209843E+04  0.39072882307E+04 0.  0.
        1    1    3    3  502    0 -0.10846104688E+04 -0.52373151741E+03  0.13073295949E+04  0.17775784768E+04  0.50400001928E-02 0.  1.
       -1    1    3    3    0  502  0.10846104688E+04  0.52373151741E+03 -0.17927111110E+04  0.21597425075E+04  0.50400001928E-02 0. -1.
</event>
<event>
 5   0  0.4762788E-08  0.3897872E+04  0.7818609E-02  0.8025472E-01
       -1   -1    0    0    0  501  0.00000000000E+00  0.00000000000E+00  0.20595219813E+04  0.20595219813E+04  0.50400001928E-02 0. -1.
        1   -1    0    0  501    0  0.00000000000E+00  0.00000000000E+00 -0.18442881484E+04  0.18442881484E+04  0.50400001928E-02 0.  1.
    10030    2    1    2    0    0  0.00000000000E+00  0.00000000000E+00  0.21523383283E+03  0.39038101297E+04  0.38978722306E+04 0.  0.
        2    1    3    3  502    0 -0.14194859433E+04  0.87693726668E+03  0.11163218347E+04  0.20075193029E+04  0.25500000920E-02 0. -1.
       -2    1    3    3    0  502  0.14194859433E+04 -0.87693726668E+03 -0.90108800183E+03  0.18962908268E+04  0.25500000920E-02 0.  1.
</event>
<event>
 5   0  0.4750125E-08  0.3884551E+04  0.7818609E-02  0.8028250E-01
       -1   -1    0    0    0  501  0.00000000000E+00  0.00000000000E+00  0.24490380295E+04  0.24490380295E+04  0.50400001928E-02 0. -1.
        1   -1    0    0  501    0  0.00000000000E+00  0.00000000000E+00 -0.15403740121E+04  0.15403740121E+04  0.50400001928E-02 0.  1.
    10030    2    1    2    0    0  0.00000000000E+00  0.00000000000E+00  0.90866401745E+03  0.39894120416E+04  0.38845512149E+04 0.  0.
        1    1    3    3  502    0 -0.33306522434E+03  0.19017110551E+04  0.67218351531E+03  0.20443258202E+04  0.50400001928E-02 0. -1.
       -1    1    3    3    0  502  0.33306522434E+03 -0.19017110551E+04  0.23648050214E+03  0.19450862214E+04  0.50400001928E-02 0.  1.
</event>
<event>
 5   0  0.4750125E-08  0.3935776E+04  0.7818609E-02  0.8017629E-01
       -1   -1    0    0    0  501  0.00000000000E+00  0.00000000000E+00  0.14247317292E+04  0.14247317292E+04  0.50400001928E-02 0. -1.
        1   -1    0    0  501    0  0.00000000000E+00  0.00000000000E+00 -0.27181135211E+04  0.27181135211E+04  0.50400001928E-02 0.  1.
    10030    2    1    2    0    0  0.00000000000E+00  0.00000000000E+00 -0.12933817919E+04  0.41428452503E+04  0.39357756933E+04 0.  0.
        3    1    3    3  502    0 -0.54349088829E+03  0.57483148684E+03  0.12499891103E+04  0.14792857634E+04  0.10100000352E+00 0. -1.
       -3    1    3    3    0  502  0.54349088829E+03 -0.57483148684E+03 -0.25433709022E+04  0.26635594869E+04  0.10100000352E+00 0.  1.
</event>
<event>
 5   0  0.4762788E-08  0.3897604E+04  0.7818609E-02  0.8025528E-01
        1   -1    0    0  501    0  0.00000000000E+00  0.00000000000E+00  0.13390540928E+04  0.13390540928E+04  0.50400001928E-02 0. -1.
       -1   -1    0    0    0  501  0.00000000000E+00  0.00000000000E+00 -0.28362025954E+04  0.28362025954E+04  0.50400001928E-02 0.  1.
    10030    2    1    2    0    0  0.00000000000E+00  0.00000000000E+00 -0.14971485026E+04  0.41752566882E+04  0.38976037220E+04 0.  0.
        2    1    3    3  502    0  0.44490687971E+03  0.73418827075E+03 -0.26227349077E+04  0.27596581209E+04  0.25500000920E-02 0.  1.
       -2    1    3    3    0  502 -0.44490687971E+03 -0.73418827075E+03  0.11255864051E+04  0.14155985673E+04  0.25500000920E-02 0. -1.
</event>
<event>
 5   0  0.4750125E-08  0.3871372E+04  0.7818609E-02  0.8031010E-01
        1   -1    0    0  501    0  0.00000000000E+00  0.00000000000E+00  0.32563806778E+04  0.32563806779E+04  0.50400001928E-02 0. -1.
       -1   -1    0    0    0  501  0.00000000000E+00  0.00000000000E+00 -0.11506274463E+04  0.11506274463E+04  0.50400001928E-02 0.  1.
    10030    2    1    2    0    0  0.00000000000E+00  0.00000000000E+00  0.21057532315E+04  0.44070081242E+04  0.38713723580E+04 0.  0.
        3    1    3    3  502    0 -0.49512554159E+03  0.31321046020E+03 -0.10472725098E+04  0.12000124226E+04  0.10100000352E+00 0.  1.
       -3    1    3    3    0  502  0.49512554159E+03 -0.31321046020E+03  0.31530257413E+04  0.32069957016E+04  0.10100000352E+00 0. -1.
</event>
<event>
 5   0  0.4750125E-08  0.3926343E+04  0.7818609E-02  0.8019573E-01
       -1   -1    0    0    0  501  0.00000000000E+00  0.00000000000E+00  0.15859424975E+04  0.15859424975E+04  0.50400001928E-02 0.  1.
        1   -1    0    0  501    0  0.00000000000E+00  0.00000000000E+00 -0.24301268464E+04  0.24301268464E+04  0.50400001928E-02 0. -1.
    10030    2    1    2    0    0  0.00000000000E+00  0.00000000000E+00 -0.84418434883E+03  0.40160693439E+04  0.39263425424E+04 0.  0.
        1    1    3    3  502    0  0.49609821543E+02  0.10900358737E+04  0.12471962670E+04  0.16571475096E+04  0.50400001928E-02 0.  1.
       -1    1    3    3    0  502 -0.49609821543E+02 -0.10900358737E+04 -0.20913806158E+04  0.23589218343E+04  0.50400001928E-02 0. -1.
</event>
<event>
 5   0  0.4762788E-08  0.3899178E+04  0.7818609E-02  0.8025200E-01
        1   -1    0    0  501    0  0.00000000000E+00  0.00000000000E+00  0.23639824164E+04  0.23639824165E+04  0.50400001928E-02 0.  1.
       -1   -1    0    0    0  501  0.00000000000E+00  0.00000000000E+00 -0.16078365862E+04  0.16078365862E+04  0.50400001928E-02 0. -1.
    10030    2    1    2    0    0  0.00000000000E+00  0.00000000000E+00  0.75614583026E+03  0.39718190027E+04  0.38991780766E+04 0.  0.
        2    1    3    3  502    0 -0.14220590557E+04  0.57138706098E+03 -0.84943402492E+03  0.17522195337E+04  0.25500000920E-02 0. -1.
       -2    1    3    3    0  502  0.14220590557E+04 -0.57138706098E+03  0.16055798552E+04  0.22195994690E+04  0.25500000920E-02 0.  1.
</event>
<event>
 5   0  0.1546846E-07  0.3881197E+04  0.7818609E-02  0.8028951E-01
       -2   -1    0    0    0  501  0.00000000000E+00  0.00000000000E+00  0.16612150279E+04  0.16612150279E+04  0.25500000920E-02 0.  1.
        2   -1    0    0  501    0  0.00000000000E+00  0.00000000000E+00 -0.22669692438E+04  0.22669692438E+04  0.25500000920E-02 0. -1.
    10030    2    1    2    0    0  0.00000000000E+00  0.00000000000E+00 -0.60575421587E+03  0.39281842717E+04  0.38811974315E+04 0.  0.
        2    1    3    3  502    0  0.79268244002E+03 -0.16861201871E+04  0.24644271172E+03  0.18793830760E+04  0.25500000920E-02 0.  1.
       -2    1    3    3    0  502 -0.79268244002E+03  0.16861201871E+04 -0.85219692759E+03  0.20488011957E+04  0.25500000920E-02 0. -1.
</event>
<event>
 5   0  0.4762788E-08  0.3905005E+04  0.7818609E-02  0.8023989E-01
        1   -1    0    0  501    0  0.00000000000E+00  0.00000000000E+00  0.19778454702E+04  0.19778454702E+04  0.50400001928E-02 0.  1.
       -1   -1    0    0    0  501  0.00000000000E+00  0.00000000000E+00 -0.19274845432E+04  0.19274845432E+04  0.50400001928E-02 0. -1.
    10030    2    1    2    0    0  0.00000000000E+00  0.00000000000E+00  0.50360927038E+02  0.39053300134E+04  0.39050052869E+04 0.  0.
        2    1    3    3  502    0  0.14171496389E+04  0.40586149687E+03 -0.12552501498E+04  0.19361532977E+04  0.25500000920E-02 0. -1.
       -2    1    3    3    0  502 -0.14171496389E+04 -0.40586149687E+03  0.13056110768E+04  0.19691767157E+04  0.25500000920E-02 0.  1.
</event>
<event>
 5   0  0.4750125E-08  0.4010780E+04  0.7818609E-02  0.8002375E-01
        1   -1    0    0  501    0  0.00000000000E+00  0.00000000000E+00  0.23281748154E+04  0.23281748154E+04  0.50400001928E-02 0.  1.
       -1   -1    0    0    0  501  0.00000000000E+00  0.00000000000E+00 -0.17273568802E+04  0.17273568803E+04  0.50400001928E-02 0. -1.
    10030    2    1    2    0    0  0.00000000000E+00  0.00000000000E+00  0.60081793512E+03  0.40555316956E+04  0.40107798672E+04 0.  0.
        5    1    3    3  502    0  0.10266836347E+04 -0.15851240028E+03  0.20348796697E+04  0.22847237966E+04  0.46999998093E+01 0.  1.
       -5    1    3    3    0  502 -0.10266836347E+04  0.15851240028E+03 -0.14340617346E+04  0.17708078990E+04  0.46999998093E+01 0. -1.
</event>
<event>
 5   0  0.1503228E-07  0.3670054E+04  0.7818609E-02  0.8074631E-01
       -2   -1    0    0    0  501  0.00000000000E+00  0.00000000000E+00  0.18628246075E+04  0.18628246075E+04  0.25500000920E-02 0. -1.
        2   -1    0    0  501    0  0.00000000000E+00  0.00000000000E+00 -0.18076438584E+04  0.18076438584E+04  0.25500000920E-02 0.  1.
    10030    2    1    2    0    0  0.00000000000E+00  0.00000000000E+00  0.55180749142E+02  0.36704684659E+04  0.36700536568E+04 0.  0.
        3    1    3    3  502    0 -0.30397162508E+03  0.17197810866E+04 -0.53574739355E+03  0.18267651777E+04  0.10100000352E+00 0. -1.
       -3    1    3    3    0  502  0.30397162508E+03 -0.17197810866E+04  0.59092814269E+03  0.18437032881E+04  0.10100000352E+00 0.  1.
</event>
<event>
 5   0  0.1503228E-07  0.3908640E+04  0.7818609E-02  0.8023235E-01
        2   -1    0    0  501    0  0.00000000000E+00  0.00000000000E+00  0.19498088190E+04  0.19498088190E+04  0.25500000920E-02 0.  1.
       -2   -1    0    0    0  501  0.00000000000E+00  0.00000000000E+00 -0.19588418447E+04  0.19588418447E+04  0.25500000920E-02 0. -1.
    10030    2    1    2    0    0  0.00000000000E+00  0.00000000000E+00 -0.90330257398E+01  0.39086506637E+04  0.39086402259E+04 0.  0.
        3    1    3    3  502    0 -0.50346759492E+03 -0.88189425237E+03 -0.16742964066E+04  0.19581842505E+04  0.10100000352E+00 0. -1.
       -3    1    3    3    0  502  0.50346759492E+03  0.88189425237E+03  0.16652633808E+04  0.19504664133E+04  0.10100000352E+00 0.  1.
</event>
<event>
 5   0  0.1520986E-07  0.3902015E+04  0.7818609E-02  0.8024610E-01
        2   -1    0    0  501    0  0.00000000000E+00  0.00000000000E+00  0.13931920214E+04  0.13931920214E+04  0.25500000920E-02 0. -1.
       -2   -1    0    0    0  501  0.00000000000E+00  0.00000000000E+00 -0.27321652466E+04  0.27321652466E+04  0.25500000920E-02 0.  1.
    10030    2    1    2    0    0  0.00000000000E+00  0.00000000000E+00 -0.13389732252E+04  0.41253572681E+04  0.39020152859E+04 0.  0.
        4    1    3    3  502    0  0.90527324221E+03  0.57199587396E+03  0.10547283069E+04  0.15030476829E+04  0.12699999809E+01 0. -1.
       -4    1    3    3    0  502 -0.90527324221E+03 -0.57199587396E+03 -0.23937015320E+04  0.26223095851E+04  0.12699999809E+01 0.  1.
</event>
<event>
 5   0  0.1503228E-07  0.3879766E+04  0.7818609E-02  0.8029251E-01
        2   -1    0    0  501    0  0.00000000000E+00  0.00000000000E+00  0.23987124830E+04  0.23987124830E+04  0.25500000920E-02 0. -1.
       -2   -1    0    0    0  501  0.00000000000E+00  0.00000000000E+00 -0.15688194771E+04  0.15688194771E+04  0.25500000920E-02 0.  1.
    10030    2    1    2    0    0  0.00000000000E+00  0.00000000000E+00  0.82989300590E+03  0.39675319602E+04  0.38797664174E+04 0.  0.
        3    1    3    3  502    0 -0.90643519022E+03  0.16130906699E+04 -0.18086589371E+03  0.18591392485E+04  0.10100000352E+00 0. -1.
       -3    1    3    3    0  502  0.90643519022E+03 -0.16130906699E+04  0.10107588996E+04  0.21083927117E+04  0.10100000352E+00 0.  1.
</event>
<event>
 5   0  0.1538018E-07  0.3936985E+04  0.7818609E-02  0.8017381E-01
       -2   -1    0    0    0  501  0.00000000000E+00  0.00000000000E+00  0.19153109427E+04  0.19153109427E+04  0.25500000920E-02 0.  1.
        2   -1    0    0  501    0  0.00000000000E+00  0.00000000000E+00 -0.20231502123E+04  0.20231502123E+04  0.25500000920E-02 0. -1.
    10030    2    1    2    0    0  0.00000000000E+00  0.00000000000E+00 -0.10783926956E+03  0.39384611550E+04  0.39369845010E+04 0.  0.
        1    1    3    3  502    0  0.35986167595E+03 -0.22911062308E+03 -0.19763504964E+04  0.20218687861E+04  0.50400001928E-02 0. -1.
       -1    1    3    3    0  502 -0.35986167595E+03  0.22911062308E+03  0.18685112269E+04  0.19165923689E+04  0.50400001928E-02 0.  1.
</event>
<event>
 5   0  0.1503228E-07  0.3910199E+04  0.7818609E-02  0.8022911E-01
       -2   -1    0    0    0  501  0.00000000000E+00  0.00000000000E+00  0.16449658543E+04  0.16449658543E+04  0.25500000920E-02 0. -1.
        2   -1    0    0  501    0  0.00000000000E+00  0.00000000000E+00 -0.23237039018E+04  0.23237039018E+04  0.25500000920E-02 0.  1.
    10030    2    1    2    0    0  0.00000000000E+00  0.00000000000E+00 -0.67873804754E+03  0.39686697561E+04  0.39101987540E+04 0.  0.
        3    1    3    3  502    0 -0.97588311901E+03 -0.45223019548E+02 -0.20582161813E+04  0.22782991118E+04  0.10100000352E+00 0.  1.
       -3    1    3    3    0  502  0.97588311901E+03  0.45223019548E+02  0.13794781338E+04  0.16903706443E+04  0.10100000352E+00 0. -1.
</event>
<event>
 5   0  0.1501585E-07  0.3890124E+04  0.7818609E-02  0.8027086E-01
        2   -1    0    0  501    0  0.00000000000E+00  0.00000000000E+00  0.20475876356E+04  0.20475876356E+04  0.25500000920E-02 0. -1.
       -2   -1    0    0    0  501  0.00000000000E+00  0.00000000000E+00 -0.18476695809E+04  0.18476695809E+04  0.25500000920E-02 0.  1.
    10030    2    1    2    0    0  0.00000000000E+00  0.00000000000E+00  0.19991805470E+03  0.38952572164E+04  0.38901235910E+04 0.  0.
        5    1    3    3  502    0 -0.18150094341E+04 -0.37134560819E+03 -0.49334842251E+03  0.19171780206E+04  0.46999998093E+01 0. -1.
       -5    1    3    3    0  502  0.18150094341E+04  0.37134560819E+03  0.69326647721E+03  0.19780791958E+04  0.46999998093E+01 0.  1.
</event>
<event>
 5   0  0.4750125E-08  0.3885077E+04  0.7818609E-02  0.8028140E-01
       -1   -1    0    0    0  501  0.00000000000E+00  0.00000000000E+00  0.17087222343E+04  0.17087222343E+04  0.50400001928E-02 0.  1.
        1   -1    0    0  501    0  0.00000000000E+00  0.00000000000E+00 -0.22083499425E+04  0.22083499425E+04  0.50400001928E-02 0. -1.
    10030    2    1    2    0    0  0.00000000000E+00  0.00000000000E+00 -0.49962770821E+03  0.39170721768E+04  0.38850774242E+04 0.  0.
        5    1    3    3  502    0 -0.10798103607E+04 -0.72062511339E+03 -0.17067552247E+04  0.21443708765E+04  0.46999998093E+01 0.  1.
       -5    1    3    3    0  502  0.10798103607E+04  0.72062511339E+03  0.12071275165E+04  0.17727013003E+04  0.46999998093E+01 0. -1.
</event>
<event>
 5   0  0.4750125E-08  0.3923186E+04  0.7818609E-02  0.8020224E-01
       -1   -1    0    0    0  501  0.00000000000E+00  0.00000000000E+00  0.15692222126E+04  0.15692222127E+04  0.50400001928E-02 0. -1.
        1   -1    0    0  501    0  0.00000000000E+00  0.00000000000E+00 -0.24520728093E+04  0.24520728094E+04  0.50400001928E-02 0.  1.
    10030    2    1    2    0    0  0.00000000000E+00  0.00000000000E+00 -0.88285059670E+03  0.40212950220E+04  0.39231860111E+04 0.  0.
        1    1    3    3  502    0 -0.16160556387E+04 -0.11000000451E+04 -0.27547790668E+03  0.19742147815E+04  0.50400001928E-02 0.  1.
       -1    1    3    3    0  502  0.16160556387E+04  0.11000000451E+04 -0.60737269002E+03  0.20470802405E+04  0.50400001928E-02 0. -1.
</event>
<event>
 5   0  0.4750125E-08  0.3880934E+04  0.7818609E-02  0.8029006E-01
        1   -1    0    0  501    0  0.00000000000E+00  0.00000000000E+00  0.23069595553E+04  0.23069595553E+04  0.50400001928E-02 0. -1.
       -1   -1    0    0    0  501  0.00000000000E+00  0.00000000000E+00 -0.16321966184E+04  0.16321966184E+04  0.50400001928E-02 0.  1.
    10030    2    1    2    0    0  0.00000000000E+00  0.00000000000E+00  0.67476293690E+03  0.39391561737E+04  0.38809336944E+04 0.  0.
        3    1    3    3  502    0 -0.25779898707E+03 -0.90588575983E+03 -0.13846325545E+04  0.16746034303E+04  0.10100000352E+00 0.  1.
       -3    1    3    3    0  502  0.25779898707E+03  0.90588575983E+03  0.20593954914E+04  0.22645527434E+04  0.10100000352E+00 0. -1.
</event>
<event>
 5   0  0.4750125E-08  0.3901318E+04  0.7818609E-02  0.8024755E-01
       -1   -1    0    0    0  501  0.00000000000E+00  0.00000000000E+00  0.26645068803E+04  0.26645068803E+04  0.50400001928E-02 0.  1.
        1   -1    0    0  501    0  0.00000000000E+00  0.00000000000E+00 -0.14280582613E+04  0.14280582613E+04  0.50400001928E-02 0. -1.
    10030    2    1    2    0    0  0.00000000000E+00  0.00000000000E+00  0.12364486190E+04  0.40925651417E+04  0.39013182710E+04 0.  0.
        1    1    3    3  502    0  0.12036497533E+04  0.21705442181E+03 -0.97586867334E+03  0.15646740933E+04  0.50400001928E-02 0. -1.
       -1    1    3    3    0  502 -0.12036497533E+04 -0.21705442181E+03  0.22123172923E+04  0.25278910484E+04  0.50400001928E-02 0.  1.
</event>
<event>
 5   0  0.4750125E-08  0.3903766E+04  0.7818609E-02  0.8024246E-01
        1   -1    0    0  501    0  0.00000000000E+00  0.00000000000E+00  0.11935502329E+04  0.11935502329E+04  0.50400001928E-02 0.  1.
       -1   -1    0    0    0  501  0.00000000000E+00  0.00000000000E+00 -0.31920294899E+04  0.31920294899E+04  0.50400001928E-02 0. -1.
    10030    2    1    2    0    0  0.00000000000E+00  0.00000000000E+00 -0.19984792571E+04  0.43855797228E+04  0.39037661513E+04 0.  0.
        4    1    3    3  502    0 -0.89483950287E+03  0.15983719369E+04 -0.24201990373E+03  0.18477299129E+04  0.12699999809E+01 0.  1.
       -4    1    3    3    0  502  0.89483950287E+03 -0.15983719369E+04 -0.17564593533E+04  0.25378498098E+04  0.12699999809E+01 0. -1.
</event>
<event>
 5   0  0.1520986E-07  0.3890120E+04  0.7818609E-02  0.8027087E-01
        2   -1    0    0  501    0  0.00000000000E+00  0.00000000000E+00  0.26012822734E+04  0.26012822734E+04  0.25500000920E-02 0.  1.
       -2   -1    0    0    0  501  0.00000000000E+00  0.00000000000E+00 -0.14543822132E+04  0.14543822132E+04  0.25500000920E-02 0. -1.
    10030    2    1    2    0    0  0.00000000000E+00  0.00000000000E+00  0.11469000602E+04  0.40556644866E+04  0.38901201369E+04 0.  0.
        4    1    3    3  502    0  0.35486072959E+03 -0.10891901553E+04 -0.10653841126E+04  0.15643868614E+04  0.12699999809E+01 0. -1.
       -4    1    3    3    0  502 -0.35486072959E+03  0.10891901553E+04  0.22122841728E+04  0.24912776252E+04  0.12699999809E+01 0.  1.
</event>
<event>
 5   0  0.1501585E-07  0.3875763E+04  0.7818609E-02  0.8030089E-01
       -2   -1    0    0    0  501  0.00000000000E+00  0.00000000000E+00  0.32405435504E+04  0.32405435504E+04  0.25500000920E-02 0.  1.
        2   -1    0    0  501    0  0.00000000000E+00  0.00000000000E+00 -0.11588751052E+04  0.11588751052E+04  0.25500000920E-02 0. -1.
    10030    2    1    2    0    0  0.00000000000E+00  0.00000000000E+00  0.20816684452E+04  0.43994186556E+04  0.38757632786E+04 0.  0.
        5    1    3    3  502    0  0.20120196611E+02  0.37046928257E+03 -0.11181773710E+04  0.11781320107E+04  0.46999998093E+01 0. -1.
       -5    1    3    3    0  502 -0.20120196611E+02 -0.37046928257E+03  0.31998458161E+04  0.32212866449E+04  0.46999998093E+01 0.  1.
</event>
<event>
 5   0  0.4750125E-08  0.3939824E+04  0.7818609E-02  0.8016797E-01
        1   -1    0    0  501    0  0.00000000000E+00  0.00000000000E+00  0.12891195581E+04  0.12891195581E+04  0.50400001928E-02 0. -1.
       -1   -1    0    0    0  501  0.00000000000E+00  0.00000000000E+00 -0.30102348210E+04  0.30102348210E+04  0.50400001928E-02 0.  1.
    10030    2    1    2    0    0  0.00000000000E+00  0.00000000000E+00 -0.17211152629E+04  0.42993543791E+04  0.39398236418E+04 0.  0.
        1    1    3    3  502    0  0.16412021136E+04 -0.33678827938E+03 -0.19912489146E+04  0.26023149238E+04  0.50400001928E-02 0.  1.
       -1    1    3    3    0  502 -0.16412021136E+04  0.33678827938E+03  0.27013365168E+03  0.16970394553E+04  0.50400001928E-02 0. -1.
</event>
<event>
 5   0  0.1503228E-07  0.3971573E+04  0.7818609E-02  0.8010306E-01
        2   -1    0    0  501    0  0.00000000000E+00  0.00000000000E+00  0.18532903054E+04  0.18532903054E+04  0.25500000920E-02 0. -1.
       -2   -1    0    0    0  501  0.00000000000E+00  0.00000000000E+00 -0.21277556496E+04  0.21277556496E+04  0.25500000920E-02 0.  1.
    10030    2    1    2    0    0  0.00000000000E+00  0.00000000000E+00 -0.27446534419E+03  0.39810459550E+04  0.39715734503E+04 0.  0.
        3    1    3    3  502    0 -0.11411799396E+04  0.11555469991E+04  0.10081949894E+04  0.19115537315E+04  0.10100000352E+00 0.  1.
       -3    1    3    3    0  502  0.11411799396E+04 -0.11555469991E+04 -0.12826603336E+04  0.20694922235E+04  0.10100000352E+00 0. -1.
</event>
<event>
 5   0  0.1538018E-07  0.3880437E+04  0.7818609E-02  0.8029110E-01
        2   -1    0    0  501    0  0.00000000000E+00  0.00000000000E+00  0.18300561099E+04  0.18300561099E+04  0.25500000920E-02 0. -1.
       -2   -1    0    0    0  501  0.00000000000E+00  0.00000000000E+00 -0.20570125595E+04  0.20570125596E+04  0.25500000920E-02 0.  1.
    10030    2    1    2    0    0  0.00000000000E+00  0.00000000000E+00 -0.22695644962E+03  0.38870686695E+04  0.38804372964E+04 0.  0.
        1    1    3    3  502    0 -0.16834686439E+04  0.86008871192E+03  0.32387887594E+03  0.19179981214E+04  0.50400001928E-02 0. -1.
       -1    1    3    3    0  502  0.16834686439E+04 -0.86008871192E+03 -0.55083532557E+03  0.19690705481E+04  0.50400001928E-02 0.  1.
</event>
<event>
 5   0  0.1546846E-07  0.3953976E+04  0.7818609E-02  0.8013896E-01
       -2   -1    0    0    0  501  0.00000000000E+00  0.00000000000E+00  0.19302600634E+04  0.19302600634E+04  0.25500000920E-02 0.  1.
        2   -1    0    0  501    0  0.00000000000E+00  0.00000000000E+00 -0.20248473852E+04  0.20248473852E+04  0.25500000920E-02 0. -1.
    10030    2    1    2    0    0  0.00000000000E+00  0.00000000000E+00 -0.94587321841E+02  0.39551074486E+04  0.39539762478E+04 0.  0.
        2    1    3    3  502    0 -0.18356238019E+04 -0.44802363753E+03 -0.62904591439E+03  0.19914664658E+04  0.25500000920E-02 0. -1.
       -2    1    3    3    0  502  0.18356238019E+04  0.44802363753E+03  0.53445859255E+03  0.19636409828E+04  0.25500000920E-02 0.  1.
</event>
<event>
 5   0  0.4762788E-08  0.3756239E+04  0.7818609E-02  0.8055612E-01
        1   -1    0    0  501    0  0.00000000000E+00  0.00000000000E+00  0.32885104404E+04  0.32885104404E+04  0.50400001928E-02 0. -1.
       -1   -1    0    0    0  501  0.00000000000E+00  0.00000000000E+00 -0.10726231084E+04  0.10726231084E+04  0.50400001928E-02 0.  1.
    10030    2    1    2    0    0  0.00000000000E+00  0.00000000000E+00  0.22158873320E+04  0.43611335488E+04  0.37562386987E+04 0.  0.
        2    1    3    3  502    0 -0.66580721148E+03  0.98485728754E+03  0.27960813091E+04  0.30383077209E+04  0.25500000920E-02 0. -1.
       -2    1    3    3    0  502  0.66580721148E+03 -0.98485728754E+03 -0.58019397714E+03  0.13228258278E+04  0.25500000920E-02 0.  1.
</event>
<event>
 5   0  0.4750125E-08  0.3891495E+04  0.7818609E-02  0.8026800E-01
        1   -1    0    0  501    0  0.00000000000E+00  0.00000000000E+00  0.26912367035E+04  0.26912367035E+04  0.50400001928E-02 0.  1.
       -1   -1    0    0    0  501  0.00000000000E+00  0.00000000000E+00 -0.14067636616E+04  0.14067636616E+04  0.50400001928E-02 0. -1.
    10030    2    1    2    0    0  0.00000000000E+00  0.00000000000E+00  0.12844730419E+04  0.40980003652E+04  0.38914953421E+04 0.  0.
        4    1    3    3  502    0  0.43893946600E+03 -0.49304362200E+03  0.25697128963E+04  0.26531464057E+04  0.12699999809E+01 0.  1.
       -4    1    3    3    0  502 -0.43893946600E+03  0.49304362200E+03 -0.12852398544E+04  0.14448539595E+04  0.12699999809E+01 0. -1.
</event>
<event>
 5   0  0.1501585E-07  0.3925272E+04  0.7818609E-02  0.8019794E-01
        2   -1    0    0  501    0  0.00000000000E+00  0.00000000000E+00  0.29467278318E+04  0.29467278318E+04  0.25500000920E-02 0.  1.
       -2   -1    0    0    0  501  0.00000000000E+00  0.00000000000E+00 -0.13071920951E+04  0.13071920951E+04  0.25500000920E-02 0. -1.
    10030    2    1    2    0    0  0.00000000000E+00  0.00000000000E+00  0.16395357367E+04  0.42539199269E+04  0.39252716227E+04 0.  0.
        5    1    3    3  502    0  0.24433481423E+03  0.11045587248E+04 -0.91831004712E+03  0.14570740924E+04  0.46999998093E+01 0. -1.
       -5    1    3    3    0  502 -0.24433481423E+03 -0.11045587248E+04  0.25578457838E+04  0.27968458345E+04  0.46999998093E+01 0.  1.
</event>
<event>
 5   0  0.4762788E-08  0.3882686E+04  0.7818609E-02  0.8028640E-01
       -1   -1    0    0    0  501  0.00000000000E+00  0.00000000000E+00  0.20324040644E+04  0.20324040644E+04  0.50400001928E-02 0.  1.
        1   -1    0    0  501    0  0.00000000000E+00  0.00000000000E+00 -0.18543614710E+04  0.18543614710E+04  0.50400001928E-02 0. -1.
    10030    2    1    2    0    0  0.00000000000E+00  0.00000000000E+00  0.17804259336E+03  0.38867655354E+04  0.38826855605E+04 0.  0.
        2    1    3    3  502    0 -0.10314959118E+03 -0.25357306401E+03  0.20129859190E+04  0.20315145698E+04  0.25500000920E-02 0.  1.
       -2    1    3    3    0  502  0.10314959118E+03  0.25357306401E+03 -0.18349433257E+04  0.18552509656E+04  0.25500000920E-02 0. -1.
</event>
<event>
 5   0  0.4750125E-08  0.3893746E+04  0.7818609E-02  0.8026331E-01
        1   -1    0    0  501    0  0.00000000000E+00  0.00000000000E+00  0.26327262440E+04  0.26327262440E+04  0.50400001928E-02 0.  1.
       -1   -1    0    0    0  501  0.00000000000E+00  0.00000000000E+00 -0.14396916524E+04  0.14396916524E+04  0.50400001928E-02 0. -1.
    10030    2    1    2    0    0  0.00000000000E+00  0.00000000000E+00  0.11930345916E+04  0.40724178964E+04  0.38937457526E+04 0.  0.
        5    1    3    3  502    0  0.16308581967E+04  0.97933198431E+03  0.10296487645E+04  0.21630969145E+04  0.46999998093E+01 0. -1.
       -5    1    3    3    0  502 -0.16308581967E+04 -0.97933198431E+03  0.16338582714E+03  0.19093209819E+04  0.46999998093E+01 0.  1.
</event>
<event>
 5   0  0.4750125E-08  0.3895513E+04  0.7818609E-02  0.8025963E-01
        1   -1    0    0  501    0  0.00000000000E+00  0.00000000000E+00  0.20006826062E+04  0.20006826062E+04  0.50400001928E-02 0.  1.
       -1   -1    0    0    0  501  0.00000000000E+00  0.00000000000E+00 -0.18962308371E+04  0.18962308371E+04  0.50400001928E-02 0. -1.
    10030    2    1    2    0    0  0.00000000000E+00  0.00000000000E+00  0.10445176908E+03  0.38969134433E+04  0.38955133439E+04 0.  0.
        4    1    3    3  502    0 -0.10630957906E+04 -0.15922215368E+04  0.41070138025E+03  0.19580651978E+04  0.12699999809E+01 0.  1.
       -4    1    3    3    0  502  0.10630957906E+04  0.15922215368E+04 -0.30624961117E+03  0.19388482456E+04  0.12699999809E+01 0. -1.
</event>
<event>
 5   0  0.4750125E-08  0.4353585E+04  0.7818609E-02  0.7936783E-01
       -1   -1    0    0    0  501  0.00000000000E+00  0.00000000000E+00  0.23351965241E+04  0.23351965241E+04  0.50400001928E-02 0.  1.
        1   -1    0    0  501    0  0.00000000000E+00  0.00000000000E+00 -0.20291336253E+04  0.20291336253E+04  0.50400001928E-02 0. -1.
    10030    2    1    2    0    0  0.00000000000E+00  0.00000000000E+00  0.30606289879E+03  0.43643301494E+04  0.43535850922E+04 0.  0.
        3    1    3    3  502    0 -0.60429523953E+03 -0.17106783253E+04 -0.10527808747E+04  0.20976035492E+04  0.10100000352E+00 0. -1.
       -3    1    3    3    0  502  0.60429523953E+03  0.17106783253E+04  0.13588437735E+04  0.22667266002E+04  0.10100000352E+00 0.  1.
</event>
<event>
 5   0  0.4750125E-08  0.3913939E+04  0.7818609E-02  0.8022136E-01
       -1   -1    0    0    0  501  0.00000000000E+00  0.00000000000E+00  0.12582852457E+04  0.12582852458E+04  0.50400001928E-02 0.  1.
        1   -1    0    0  501    0  0.00000000000E+00  0.00000000000E+00 -0.30436102364E+04  0.30436102364E+04  0.50400001928E-02 0. -1.
    10030    2    1    2    0    0  0.00000000000E+00  0.00000000000E+00 -0.17853249907E+04  0.43018954822E+04  0.39139391177E+04 0.  0.
        5    1    3    3  502    0  0.65864587911E+03 -0.15426519798E+04 -0.20006067567E+04  0.26107544905E+04  0.46999998093E+01 0.  1.
       -5    1    3    3    0  502 -0.65864587911E+03  0.15426519798E+04  0.21528176602E+03  0.16911409917E+04  0.46999998093E+01 0. -1.
</event>
<event>
 5   0  0.4750125E-08  0.3512940E+04  0.7818609E-02  0.8110730E-01
        1   -1    0    0  501    0  0.00000000000E+00  0.00000000000E+00  0.24803155089E+04  0.24803155089E+04  0.50400001928E-02 0. -1.
       -1   -1    0    0    0  501  0.00000000000E+00  0.00000000000E+00 -0.12438690631E+04  0.12438690631E+04  0.50400001928E-02 0.  1.
    10030    2    1    2    0    0  0.00000000000E+00  0.00000000000E+00  0.12364464458E+04  0.37241845721E+04  0.35129404939E+04 0.  0.
        1    1    3    3  502    0 -0.86530880727E+03 -0.12908130335E+04  0.14861285826E+04  0.21502408663E+04  0.50400001928E-02 0. -1.
       -1    1    3    3    0  502  0.86530880727E+03  0.12908130335E+04 -0.24968213677E+03  0.15739437057E+04  0.50400001928E-02 0.  1.
</event>
<event>
 5   0  0.1538018E-07  0.3873570E+04  0.7818609E-02  0.8030549E-01
       -2   -1    0    0    0  501  0.00000000000E+00  0.00000000000E+00  0.13461197267E+04  0.13461197267E+04  0.25500000920E-02 0.  1.
        2   -1    0    0  501    0  0.00000000000E+00  0.00000000000E+00 -0.27866291397E+04  0.27866291397E+04  0.25500000920E-02 0. -1.
    10030    2    1    2    0    0  0.00000000000E+00  0.00000000000E+00 -0.14405094130E+04  0.41327488664E+04  0.38735701651E+04 0.  0.
        1    1    3    3  502    0 -0.13995417433E+04 -0.81828452540E+03 -0.18507911158E+04  0.24604337850E+04  0.50400001928E-02 0. -1.
       -1    1    3    3    0  502  0.13995417433E+04  0.81828452540E+03  0.41028170289E+03  0.16723150814E+04  0.50400001928E-02 0.  1.
</event>
<event>
 5   0  0.4750125E-08  0.3931654E+04  0.7818609E-02  0.8018478E-01
        1   -1    0    0  501    0  0.00000000000E+00  0.00000000000E+00  0.21796081725E+04  0.21796081725E+04  0.50400001928E-02 0.  1.
       -1   -1    0    0    0  501  0.00000000000E+00  0.00000000000E+00 -0.17730142765E+04  0.17730142765E+04  0.50400001928E-02 0. -1.
    10030    2    1    2    0    0  0.00000000000E+00  0.00000000000E+00  0.40659389606E+03  0.39526224490E+04  0.39316543119E+04 0.  0.
        1    1    3    3  502    0 -0.97265336510E+03  0.12220138065E+04  0.14034407902E+04  0.20997662640E+04  0.50400001928E-02 0.  1.
       -1    1    3    3    0  502  0.97265336510E+03 -0.12220138065E+04 -0.99684689413E+03  0.18528561850E+04  0.50400001928E-02 0. -1.
</event>
<event>
 5   0  0.1520986E-07  0.3918023E+04  0.7818609E-02  0.8021291E-01
       -2   -1    0    0    0  501  0.00000000000E+00  0.00000000000E+00  0.16983753858E+04  0.16983753858E+04  0.25500000920E-02 0. -1.
        2   -1    0    0  501    0  0.00000000000E+00  0.00000000000E+00 -0.22596454872E+04  0.22596454872E+04  0.25500000920E-02 0.  1.
    10030    2    1    2    0    0  0.00000000000E+00  0.00000000000E+00 -0.56127010141E+03  0.39580208730E+04  0.39180231118E+04 0.  0.
        4    1    3    3  502    0  0.11632007505E+04 -0.14931580538E+04  0.22966303521E+03  0.19066472359E+04  0.12699999809E+01 0. -1.
       -4    1    3    3    0  502 -0.11632007505E+04  0.14931580538E+04 -0.79093313662E+03  0.20513736371E+04  0.12699999809E+01 0.  1.
</event>
<event>
 5   0  0.1501585E-07  0.3915465E+04  0.7818609E-02  0.8021821E-01
       -2   -1    0    0    0  501  0.00000000000E+00  0.00000000000E+00  0.30532740012E+04  0.30532740012E+04  0.25500000920E-02 0. -1.
        2   -1    0    0  501    0  0.00000000000E+00  0.00000000000E+00 -0.12552807242E+04  0.12552807242E+04  0.25500000920E-02 0.  1.
    10030    2    1    2    0    0  0.00000000000E+00  0.00000000000E+00  0.17979932770E+04  0.43085547254E+04  0.39154647231E+04 0.  0.
        5    1    3    3  502    0  0.15237574113E+03  0.65152392842E+03 -0.11255469364E+04  0.13094196393E+04  0.46999998093E+01 0.  1.
       -5    1    3    3    0  502 -0.15237574113E+03 -0.65152392842E+03  0.29235402133E+04  0.29991350861E+04  0.46999998093E+01 0. -1.
</event>
<event>
 5   0  0.4762788E-08  0.3917675E+04  0.7818609E-02  0.8021363E-01
        1   -1    0    0  501    0  0.00000000000E+00  0.00000000000E+00  0.22028934449E+04  0.22028934449E+04  0.50400001928E-02 0. -1.
       -1   -1    0    0    0  501  0.00000000000E+00  0.00000000000E+00 -0.17418200314E+04  0.17418200314E+04  0.50400001928E-02 0.  1.
    10030    2    1    2    0    0  0.00000000000E+00  0.00000000000E+00  0.46107341353E+03  0.39447134763E+04  0.39176747846E+04 0.  0.
        2    1    3    3  502    0 -0.13192015234E+04  0.14459180745E+04  0.15207462394E+03  0.19631857856E+04  0.25500000920E-02 0.  1.
       -2    1    3    3    0  502  0.13192015234E+04 -0.14459180745E+04  0.30899878959E+03  0.19815276908E+04  0.25500000920E-02 0. -1.
</event>
<event>
 5   0  0.4750125E-08  0.3895668E+04  0.7818609E-02  0.8025931E-01
       -1   -1    0    0    0  501  0.00000000000E+00  0.00000000000E+00  0.17486042521E+04  0.17486042521E+04  0.50400001928E-02 0.  1.
        1   -1    0    0  501    0  0.00000000000E+00  0.00000000000E+00 -0.21697636267E+04  0.21697636267E+04  0.50400001928E-02 0. -1.
    10030    2    1    2    0    0  0.00000000000E+00  0.00000000000E+00 -0.42115937458E+03  0.39183678788E+04  0.38956683142E+04 0.  0.
        1    1    3    3  502    0  0.12849699282E+04  0.34913679382E+03  0.12193275422E+04  0.18054926952E+04  0.50400001928E-02 0.  1.
       -1    1    3    3    0  502 -0.12849699282E+04 -0.34913679382E+03 -0.16404869168E+04  0.21128751836E+04  0.50400001928E-02 0. -1.
</event>
<event>
 5   0  0.1546846E-07  0.3829044E+04  0.7818609E-02  0.8039951E-01
       -2   -1    0    0    0  501  0.00000000000E+00  0.00000000000E+00  0.18610616551E+04  0.18610616551E+04  0.25500000920E-02 0.  1.
        2   -1    0    0  501    0  0.00000000000E+00  0.00000000000E+00 -0.19695183987E+04  0.19695183987E+04  0.25500000920E-02 0. -1.
    10030    2    1    2    0    0  0.00000000000E+00  0.00000000000E+00 -0.10845674366E+03  0.38305800538E+04  0.38290443564E+04 0.  0.
        2    1    3    3  502    0 -0.33108022524E+03  0.17647471325E+04  0.61045409694E+03  0.18964706066E+04  0.25500000920E-02 0. -1.
       -2    1    3    3    0  502  0.33108022524E+03 -0.17647471325E+04 -0.71891084060E+03  0.19341094472E+04  0.25500000920E-02 0.  1.
</event>
<event>
 5   0  0.4750125E-08  0.3895203E+04  0.7818609E-02  0.8026028E-01
       -1   -1    0    0    0  501  0.00000000000E+00  0.00000000000E+00  0.15949231866E+04  0.15949231866E+04  0.50400001928E-02 0.  1.
        1   -1    0    0  501    0  0.00000000000E+00  0.00000000000E+00 -0.23782663172E+04  0.23782663172E+04  0.50400001928E-02 0. -1.
    10030    2    1    2    0    0  0.00000000000E+00  0.00000000000E+00 -0.78334313063E+03  0.39731895038E+04  0.38952032518E+04 0.  0.
        3    1    3    3  502    0 -0.54976029989E+03 -0.79235256724E+02  0.15124205581E+04  0.16111891782E+04  0.10100000352E+00 0.  1.
       -3    1    3    3    0  502  0.54976029989E+03  0.79235256724E+02 -0.22957636887E+04  0.23620003256E+04  0.10100000352E+00 0. -1.
</event>
<event>
 5   0  0.4750125E-08  0.3913712E+04  0.7818609E-02  0.8022183E-01
        1   -1    0    0  501    0  0.00000000000E+00  0.00000000000E+00  0.26634442484E+04  0.26634442485E+04  0.50400001928E-02 0. -1.
       -1   -1    0    0    0  501  0.00000000000E+00  0.00000000000E+00 -0.14377191939E+04  0.14377191939E+04  0.50400001928E-02 0.  1.
    10030    2    1    2    0    0  0.00000000000E+00  0.00000000000E+00  0.12257250546E+04  0.41011634423E+04  0.39137117512E+04 0.  0.
        3    1    3    3  502    0 -0.66991348942E+03 -0.16567641236E+04  0.14483147475E+04  0.23002754319E+04  0.10100000352E+00 0.  1.
       -3    1    3    3    0  502  0.66991348942E+03  0.16567641236E+04 -0.22258969296E+03  0.18008880104E+04  0.10100000352E+00 0. -1.
</event>
<event>
 5   0  0.1546846E-07  0.3886111E+04  0.7818609E-02  0.8027924E-01
        2   -1    0    0  501    0  0.00000000000E+00  0.00000000000E+00  0.25894719220E+04  0.25894719220E+04  0.25500000920E-02 0. -1.
       -2   -1    0    0    0  501  0.00000000000E+00  0.00000000000E+00 -0.14580056187E+04  0.14580056187E+04  0.25500000920E-02 0.  1.
    10030    2    1    2    0    0  0.00000000000E+00  0.00000000000E+00  0.11314663033E+04  0.40474775406E+04  0.38861109668E+04 0.  0.
        2    1    3    3  502    0  0.50442360965E+03 -0.16614649816E+04 -0.34257815310E+03  0.17698217012E+04  0.25500000920E-02 0. -1.
       -2    1    3    3    0  502 -0.50442360965E+03  0.16614649816E+04  0.14740444564E+04  0.22776558394E+04  0.25500000920E-02 0.  1.
</event>
<event>
 5   0  0.4750125E-08  0.3916606E+04  0.7818609E-02  0.8021584E-01
       -1   -1    0    0    0  501  0.00000000000E+00  0.00000000000E+00  0.18290428287E+04  0.18290428287E+04  0.50400001928E-02 0. -1.
        1   -1    0    0  501    0  0.00000000000E+00  0.00000000000E+00 -0.20966979020E+04  0.20966979021E+04  0.50400001928E-02 0.  1.
    10030    2    1    2    0    0  0.00000000000E+00  0.00000000000E+00 -0.26765507337E+03  0.39257407307E+04  0.39166058069E+04 0.  0.
        5    1    3    3  502    0 -0.18533625042E+04  0.60071413593E+03 -0.33207186666E+03  0.19763865663E+04  0.46999998093E+01 0.  1.
       -5    1    3    3    0  502  0.18533625042E+04 -0.60071413593E+03  0.64416793292E+02  0.19493541644E+04  0.46999998093E+01 0. -1.
</event>
<event>
 5   0  0.1503228E-07  0.3894225E+04  0.7818609E-02  0.8026231E-01
       -2   -1    0    0    0  501  0.00000000000E+00  0.00000000000E+00  0.19714975748E+04  0.19714975748E+04  0.25500000920E-02 0.  1.
        2   -1    0    0  501    0  0.00000000000E+00  0.00000000000E+00 -0.19230292237E+04  0.19230292237E+04  0.25500000920E-02 0. -1.
    10030    2    1    2    0    0  0.00000000000E+00  0.00000000000E+00  0.48468351122E+02  0.38945267985E+04  0.38942251865E+04 0.  0.
        3    1    3    3  502    0 -0.28989609361E+03  0.16115121266E+04 -0.10295249744E+04  0.19341491055E+04  0.10100000352E+00 0. -1.
       -3    1    3    3    0  502  0.28989609361E+03 -0.16115121266E+04  0.10779933255E+04  0.19603776930E+04  0.10100000352E+00 0.  1.
</event>
<event>
 5   0  0.1503228E-07  0.3891103E+04  0.7818609E-02  0.8026882E-01
       -2   -1    0    0    0  501  0.00000000000E+00  0.00000000000E+00  0.23526123173E+04  0.23526123173E+04  0.25500000920E-02 0.  1.
        2   -1    0    0  501    0  0.00000000000E+00  0.00000000000E+00 -0.16089221335E+04  0.16089221335E+04  0.25500000920E-02 0. -1.
    10030    2    1    2    0    0  0.00000000000E+00  0.00000000000E+00  0.74369018382E+03  0.39615344508E+04  0.38911026863E+04 0.  0.
        3    1    3    3  502    0 -0.16426074872E+04 -0.71717361219E+03 -0.39860404754E+03  0.18361324963E+04  0.10100000352E+00 0. -1.
       -3    1    3    3    0  502  0.16426074872E+04  0.71717361219E+03  0.11422942314E+04  0.21254019545E+04  0.10100000352E+00 0.  1.
</event>
<event>
 5   0  0.1546846E-07  0.3827097E+04  0.7818609E-02  0.8040365E-01
       -2   -1    0    0    0  501  0.00000000000E+00  0.00000000000E+00  0.20453180765E+04  0.20453180765E+04  0.25500000920E-02 0. -1.
        2   -1    0    0  501    0  0.00000000000E+00  0.00000000000E+00 -0.17902682374E+04  0.17902682374E+04  0.25500000920E-02 0.  1.
    10030    2    1    2    0    0  0.00000000000E+00  0.00000000000E+00  0.25504983911E+03  0.38355863139E+04  0.38270970658E+04 0.  0.
        2    1    3    3  502    0  0.11728404467E+04 -0.17423448804E+03  0.16327737790E+04  0.20178856716E+04  0.25500000920E-02 0. -1.
       -2    1    3    3    0  502 -0.11728404467E+04  0.17423448804E+03 -0.13777239399E+04  0.18177006423E+04  0.25500000920E-02 0.  1.
</event>
<event>
 5   0  0.4750125E-08  0.3872199E+04  0.7818609E-02  0.8030836E-01
        1   -1    0    0  501    0  0.00000000000E+00  0.00000000000E+00  0.18120932331E+04  0.18120932331E+04  0.50400001928E-02 0. -1.
       -1   -1    0    0    0  501  0.00000000000E+00  0.00000000000E+00 -0.20685913900E+04  0.20685913900E+04  0.50400001928E-02 0.  1.
    10030    2    1    2    0    0  0.00000000000E+00  0.00000000000E+00 -0.25649815689E+03  0.38806846231E+04  0.38721985796E+04 0.  0.
        4    1    3    3  502    0  0.85059912423E+03  0.17318614701E+04 -0.28864927847E+03  0.19509441408E+04  0.12699999809E+01 0.  1.
       -4    1    3    3    0  502 -0.85059912423E+03 -0.17318614701E+04  0.32151121580E+02  0.19297404823E+04  0.12699999809E+01 0. -1.
</event>
<event>
 5   0  0.1538018E-07  0.3883834E+04  0.7818609E-02  0.8028400E-01
       -2   -1    0    0    0  501  0.00000000000E+00  0.00000000000E+00  0.14186026451E+04  0.14186026451E+04  0.25500000920E-02 0. -1.
        2   -1    0    0  501    0  0.00000000000E+00  0.00000000000E+00 -0.26582792205E+04  0.26582792205E+04  0.25500000920E-02 0.  1.
    10030    2    1    2    0    0  0.00000000000E+00  0.00000000000E+00 -0.12396765754E+04  0.40768818656E+04  0.38838341539E+04 0.  0.
        1    1    3    3  502    0  0.86058541617E+03  0.11335991682E+04 -0.20066368857E+04  0.24601312818E+04  0.50400001928E-02 0.  1.
       -1    1    3    3    0  502 -0.86058541617E+03 -0.11335991682E+04  0.76696031028E+03  0.16167505838E+04  0.50400001928E-02 0. -1.
</event>
<event>
 5   0  0.1546846E-07  0.3898704E+04  0.7818609E-02  0.8025299E-01
       -2   -1    0    0    0  501  0.00000000000E+00  0.00000000000E+00  0.14011331030E+04  0.14011331030E+04  0.25500000920E-02 0. -1.
        2   -1    0    0  501    0  0.00000000000E+00  0.00000000000E+00 -0.27120716948E+04  0.27120716948E+04  0.25500000920E-02 0.  1.
    10030    2    1    2    0    0  0.00000000000E+00  0.00000000000E+00 -0.13109385917E+04  0.41132047978E+04  0.38987041074E+04 0.  0.
        2    1    3    3  502    0 -0.10975553568E+04 -0.62754834584E+03  0.90991956086E+03  0.15576900509E+04  0.25500000920E-02 0. -1.
       -2    1    3    3    0  502  0.10975553568E+04  0.62754834584E+03 -0.22208581526E+04  0.25555147469E+04  0.25500000920E-02 0.  1.
</event>
<event>
 5   0  0.1538018E-07  0.3721268E+04  0.7818609E-02  0.8063265E-01
       -2   -1    0    0    0  501  0.00000000000E+00  0.00000000000E+00  0.15782479852E+04  0.15782479852E+04  0.25500000920E-02 0. -1.
        2   -1    0    0  501    0  0.00000000000E+00  0.00000000000E+00 -0.21935460277E+04  0.21935460277E+04  0.25500000920E-02 0.  1.
    10030    2    1    2    0    0  0.00000000000E+00  0.00000000000E+00 -0.61529804252E+03  0.37717940129E+04  0.37212683852E+04 0.  0.
        1    1    3    3  502    0 -0.12068088160E+03 -0.72542622031E+03 -0.20399928377E+04  0.21684966807E+04  0.50400001928E-02 0.  1.
       -1    1    3    3    0  502  0.12068088160E+03  0.72542622031E+03  0.14246947951E+04  0.16032973323E+04  0.50400001928E-02 0. -1.
</event>
<event>
 5   0  0.1503228E-07  0.3895720E+04  0.7818609E-02  0.8025920E-01
       -2   -1    0    0    0  501  0.00000000000E+00  0.00000000000E+00  0.16465153991E+04  0.16465153991E+04  0.25500000920E-02 0. -1.
        2   -1    0    0  501    0  0.00000000000E+00  0.00000000000E+00 -0.23043565371E+04  0.23043565371E+04  0.25500000920E-02 0.  1.
    10030    2    1    2    0    0  0.00000000000E+00  0.00000000000E+00 -0.65784113798E+03  0.39508719361E+04  0.38957199711E+04 0.  0.
        3    1    3    3  502    0 -0.99611938612E+03 -0.11754772021E+03  0.13644749195E+04  0.16934766352E+04  0.10100000352E+00 0. -1.
       -3    1    3    3    0  502  0.99611938612E+03  0.11754772021E+03 -0.20223160575E+04  0.22573953009E+04  0.10100000352E+00 0.  1.
</event>
<event>
 5   0  0.4762788E-08  0.3832906E+04  0.7818609E-02  0.8039130E-01
        1   -1    0    0  501    0  0.00000000000E+00  0.00000000000E+00  0.13738229341E+04  0.13738229341E+04  0.50400001928E-02 0.  1.
       -1   -1    0    0    0  501  0.00000000000E+00  0.00000000000E+00 -0.26734101502E+04  0.26734101502E+04  0.50400001928E-02 0. -1.
    10030    2    1    2    0    0  0.00000000000E+00  0.00000000000E+00 -0.12995872162E+04  0.40472330843E+04  0.38329060393E+04 0.  0.
        2    1    3    3  502    0 -0.81333575430E+03 -0.14875652405E+03  0.11757987040E+04  0.14374095258E+04  0.25500000920E-02 0.  1.
       -2    1    3    3    0  502  0.81333575430E+03  0.14875652405E+03 -0.24753859202E+04  0.26098235585E+04  0.25500000920E-02 0. -1.
</event>
<event>
 5   0  0.1538018E-07  0.3823841E+04  0.7818609E-02  0.8041058E-01
        2   -1    0    0  501    0  0.00000000000E+00  0.00000000000E+00  0.24707134086E+04  0.24707134086E+04  0.25500000920E-02 0.  1.
       -2   -1    0    0    0  501  0.00000000000E+00  0.00000000000E+00 -0.14795079916E+04  0.14795079916E+04  0.25500000920E-02 0. -1.
    10030    2    1    2    0    0  0.00000000000E+00  0.00000000000E+00  0.99120541704E+03  0.39502214002E+04  0.38238411227E+04 0.  0.
        1    1    3    3  502    0  0.14655976179E+04  0.21269409763E+03 -0.75358790355E+03  0.16616587752E+04  0.50400001928E-02 0. -1.
       -1    1    3    3    0  502 -0.14655976179E+04 -0.21269409763E+03  0.17447933206E+04  0.22885626250E+04  0.50400001928E-02 0.  1.
</event>
<event>
 5   0  0.1520986E-07  0.3895162E+04  0.7818609E-02  0.8026036E-01
       -2   -1    0    0    0  501  0.00000000000E+00  0.00000000000E+00  0.29499278502E+04  0.29499278502E+04  0.25500000920E-02 0. -1.
        2   -1    0    0  501    0  0.00000000000E+00  0.00000000000E+00 -0.12858183823E+04  0.12858183823E+04  0.25500000920E-02 0.  1.
    10030    2    1    2    0    0  0.00000000000E+00  0.00000000000E+00  0.16641094679E+04  0.42357462326E+04  0.38951618485E+04 0.  0.
        4    1    3    3  502    0 -0.49879094804E+03 -0.15120370574E+04  0.20517418460E+04  0.25970550029E+04  0.12699999809E+01 0.  1.
       -4    1    3    3    0  502  0.49879094804E+03  0.15120370574E+04 -0.38763237813E+03  0.16386912296E+04  0.12699999809E+01 0. -1.
</event>
<event>
 5   0  0.4750125E-08  0.3827378E+04  0.7818609E-02  0.8040305E-01
       -1   -1    0    0    0  501  0.00000000000E+00  0.00000000000E+00  0.14447331071E+04  0.14447331072E+04  0.50400001928E-02 0. -1.
        1   -1    0    0  501    0  0.00000000000E+00  0.00000000000E+00 -0.25348671554E+04  0.25348671554E+04  0.50400001928E-02 0.  1.
    10030    2    1    2    0    0  0.00000000000E+00  0.00000000000E+00 -0.10901340482E+04  0.39796002625E+04  0.38273784770E+04 0.  0.
        1    1    3    3  502    0 -0.45646840862E+03  0.16042822949E+04  0.43039268078E+03  0.17225919277E+04  0.50400001928E-02 0. -1.
       -1    1    3    3    0  502  0.45646840862E+03 -0.16042822949E+04 -0.15205267290E+04  0.22570083348E+04  0.50400001928E-02 0.  1.
</event>
<event>
 5   0  0.4762788E-08  0.3897589E+04  0.7818609E-02  0.8025531E-01
        1   -1    0    0  501    0  0.00000000000E+00  0.00000000000E+00  0.22242330942E+04  0.22242330943E+04  0.50400001928E-02 0. -1.
       -1   -1    0    0    0  501  0.00000000000E+00  0.00000000000E+00 -0.17074649855E+04  0.17074649855E+04  0.50400001928E-02 0.  1.
    10030    2    1    2    0    0  0.00000000000E+00  0.00000000000E+00  0.51676810877E+03  0.39316980797E+04  0.38975890640E+04 0.  0.
        2    1    3    3  502    0 -0.85154544924E+03 -0.61044781942E+03 -0.13991708373E+04  0.17479860481E+04  0.25500000920E-02 0.  1.
       -2    1    3    3    0  502  0.85154544924E+03  0.61044781942E+03  0.19159389460E+04  0.21837120317E+04  0.25500000920E-02 0. -1.
</event>
<event>
 5   0  0.4750125E-08  0.3905102E+04  0.7818609E-02  0.8023969E-01
       -1   -1    0    0    0  501  0.00000000000E+00  0.00000000000E+00  0.26398072037E+04  0.26398072037E+04  0.50400001928E-02 0.  1.
        1   -1    0    0  501    0  0.00000000000E+00  0.00000000000E+00 -0.14442171062E+04  0.14442171062E+04  0.50400001928E-02 0. -1.
    10030    2    1    2    0    0  0.00000000000E+00  0.00000000000E+00  0.11955900975E+04  0.40840243099E+04  0.39051016482E+04 0.  0.
        5    1    3    3  502    0  0.82626337707E+03 -0.17597397972E+04  0.40770547176E+03  0.19863638045E+04  0.46999998093E+01 0. -1.
       -5    1    3    3    0  502 -0.82626337707E+03  0.17597397972E+04  0.78788462578E+03  0.20976605054E+04  0.46999998093E+01 0.  1.
</event>
<event>
 5   0  0.4750125E-08  0.3813479E+04  0.7818609E-02  0.8043268E-01
        1   -1    0    0  501    0  0.00000000000E+00  0.00000000000E+00  0.12308550554E+04  0.12308550555E+04  0.50400001928E-02 0.  1.
       -1   -1    0    0    0  501  0.00000000000E+00  0.00000000000E+00 -0.29537645109E+04  0.29537645109E+04  0.50400001928E-02 0. -1.
    10030    2    1    2    0    0  0.00000000000E+00  0.00000000000E+00 -0.17229094555E+04  0.41846195664E+04  0.38134792413E+04 0.  0.
        3    1    3    3  502    0 -0.65947568176E+03  0.11103036079E+04  0.67791959888E+03  0.14585120052E+04  0.10100000352E+00 0.  1.
       -3    1    3    3    0  502  0.65947568176E+03 -0.11103036079E+04 -0.24008290544E+04  0.27261075612E+04  0.10100000352E+00 0. -1.
</event>
<event>
 5   0  0.1520986E-07  0.3661526E+04  0.7818609E-02  0.8076542E-01
       -2   -1    0    0    0  501  0.00000000000E+00  0.00000000000E+00  0.16259747373E+04  0.16259747373E+04  0.25500000920E-02 0.  1.
        2   -1    0    0  501    0  0.00000000000E+00  0.00000000000E+00 -0.20613439486E+04  0.20613439486E+04  0.25500000920E-02 0. -1.
    10030    2    1    2    0    0  0.00000000000E+00  0.00000000000E+00 -0.43536921124E+03  0.36873186859E+04  0.36615260126E+04 0.  0.
        4    1    3    3  502    0 -0.36541518866E+02  0.17758870388E+04 -0.66418298776E+03  0.18963783144E+04  0.12699999809E+01 0. -1.
       -4    1    3    3    0  502  0.36541518866E+02 -0.17758870388E+04  0.22881377653E+03  0.17909403715E+04  0.12699999809E+01 0.  1.
</event>
<event>
 5   0  0.4750125E-08  0.3848617E+04  0.7818609E-02  0.8035802E-01
       -1   -1    0    0    0  501  0.00000000000E+00  0.00000000000E+00  0.21441115274E+04  0.21441115274E+04  0.50400001928E-02 0. -1.
        1   -1    0    0  501    0  0.00000000000E+00  0.00000000000E+00 -0.17270387415E+04  0.17270387415E+04  0.50400001928E-02 0.  1.
    10030    2    1    2    0    0  0.00000000000E+00  0.00000000000E+00  0.41707278584E+03  0.38711502689E+04  0.38486172446E+04 0.  0.
        1    1    3    3  502    0 -0.11534630886E+02 -0.15749021015E+04  0.13206834795E+04  0.20553964412E+04  0.50400001928E-02 0.  1.
       -1    1    3    3    0  502  0.11534630886E+02  0.15749021015E+04 -0.90361069370E+03  0.18157538277E+04  0.50400001928E-02 0. -1.
</event>
<event>
 5   0  0.1501585E-07  0.3423251E+04  0.7818609E-02  0.8132223E-01
       -2   -1    0    0    0  501  0.00000000000E+00  0.00000000000E+00  0.12209822476E+04  0.12209822476E+04  0.25500000920E-02 0. -1.
        2   -1    0    0  501    0  0.00000000000E+00  0.00000000000E+00 -0.23994300683E+04  0.23994300683E+04  0.25500000920E-02 0.  1.
    10030    2    1    2    0    0  0.00000000000E+00  0.00000000000E+00 -0.11784478207E+04  0.36204123159E+04  0.34232508046E+04 0.  0.
        5    1    3    3  502    0 -0.88367354761E+03 -0.13417453127E+04 -0.12135453464E+04  0.20134234082E+04  0.46999998093E+01 0. -1.
       -5    1    3    3    0  502  0.88367354761E+03  0.13417453127E+04  0.35097525720E+02  0.16069889077E+04  0.46999998093E+01 0.  1.
</event>
<event>
 5   0  0.1501585E-07  0.3752906E+04  0.7818609E-02  0.8056337E-01
       -2   -1    0    0    0  501  0.00000000000E+00  0.00000000000E+00  0.15171794323E+04  0.15171794323E+04  0.25500000920E-02 0. -1.
        2   -1    0    0  501    0  0.00000000000E+00  0.00000000000E+00 -0.23208038180E+04  0.23208038180E+04  0.25500000920E-02 0.  1.
    10030    2    1    2    0    0  0.00000000000E+00  0.00000000000E+00 -0.80362438570E+03  0.38379832504E+04  0.37529059776E+04 0.  0.
        5    1    3    3  502    0  0.16562067781E+04  0.43240448238E+03  0.38442010826E+03  0.17543646821E+04  0.46999998093E+01 0. -1.
       -5    1    3    3    0  502 -0.16562067781E+04 -0.43240448238E+03 -0.11880444940E+04  0.20836185682E+04  0.46999998093E+01 0.  1.
</event>
<event>
 5   0  0.1501585E-07  0.3969618E+04  0.7818609E-02  0.8010704E-01
        2   -1    0    0  501    0  0.00000000000E+00  0.00000000000E+00  0.14171296442E+04  0.14171296442E+04  0.25500000920E-02 0.  1.
       -2   -1    0    0    0  501  0.00000000000E+00  0.00000000000E+00 -0.27798921767E+04  0.27798921767E+04  0.25500000920E-02 0. -1.
    10030    2    1    2    0    0  0.00000000000E+00  0.00000000000E+00 -0.13627625325E+04  0.41970218209E+04  0.39696184256E+04 0.  0.
        5    1    3    3  502    0  0.18202940535E+04 -0.77069599937E+03 -0.49224005785E+03  0.20370972311E+04  0.46999998093E+01 0.  1.
       -5    1    3    3    0  502 -0.18202940535E+04  0.77069599937E+03 -0.87052247465E+03  0.21599245898E+04  0.46999998093E+01 0. -1.
</event>
<event>
 5   0  0.1546846E-07  0.3917519E+04  0.7818609E-02  0.8021395E-01
       -2   -1    0    0    0  501  0.00000000000E+00  0.00000000000E+00  0.16179402681E+04  0.16179402681E+04  0.25500000920E-02 0. -1.
        2   -1    0    0  501    0  0.00000000000E+00  0.00000000000E+00 -0.23713728280E+04  0.23713728280E+04  0.25500000920E-02 0.  1.
    10030    2    1    2    0    0  0.00000000000E+00  0.00000000000E+00 -0.75343255990E+03  0.39893130961E+04  0.39175194136E+04 0.  0.
        2    1    3    3  502    0  0.14419228764E+04  0.99149596801E+03  0.51948825984E+03  0.18253969125E+04  0.25500000920E-02 0. -1.
       -2    1    3    3    0  502 -0.14419228764E+04 -0.99149596801E+03 -0.12729208197E+04  0.21639161836E+04  0.25500000920E-02 0.  1.
</event>
<event>
 5   0  0.4750125E-08  0.3878327E+04  0.7818609E-02  0.8029552E-01
       -1   -1    0    0    0  501  0.00000000000E+00  0.00000000000E+00  0.14032695134E+04  0.14032695134E+04  0.50400001928E-02 0. -1.
        1   -1    0    0  501    0  0.00000000000E+00  0.00000000000E+00 -0.26797101144E+04  0.26797101144E+04  0.50400001928E-02 0.  1.
    10030    2    1    2    0    0  0.00000000000E+00  0.00000000000E+00 -0.12764406010E+04  0.40829796278E+04  0.38783272210E+04 0.  0.
        4    1    3    3  502    0 -0.63874876232E+03  0.46834045393E+03 -0.25016530919E+04  0.26240450772E+04  0.12699999809E+01 0.  1.
       -4    1    3    3    0  502  0.63874876232E+03 -0.46834045393E+03  0.12252124909E+04  0.14589345506E+04  0.12699999809E+01 0. -1.
</event>
<event>
 5   0  0.1538018E-07  0.3893133E+04  0.7818609E-02  0.8026459E-01
        2   -1    0    0  501    0  0.00000000000E+00  0.00000000000E+00  0.19471959565E+04  0.19471959565E+04  0.25500000920E-02 0.  1.
       -2   -1    0    0    0  501  0.00000000000E+00  0.00000000000E+00 -0.19459371932E+04  0.19459371932E+04  0.25500000920E-02 0. -1.
    10030    2    1    2    0    0  0.00000000000E+00  0.00000000000E+00  0.12587633089E+01  0.38931331497E+04  0.38931329462E+04 0.  0.
        1    1    3    3  502    0  0.12811580231E+04 -0.44483469710E+03  0.13970095055E+04  0.19470180652E+04  0.50400001928E-02 0.  1.
       -1    1    3    3    0  502 -0.12811580231E+04  0.44483469710E+03 -0.13957507421E+04  0.19461150845E+04  0.50400001928E-02 0. -1.
</event>
<event>
 5   0  0.1501585E-07  0.3891067E+04  0.7818609E-02  0.8026890E-01
       -2   -1    0    0    0  501  0.00000000000E+00  0.00000000000E+00  0.15539598700E+04  0.15539598700E+04  0.25500000920E-02 0.  1.
        2   -1    0    0  501    0  0.00000000000E+00  0.00000000000E+00 -0.24357771452E+04  0.24357771452E+04  0.25500000920E-02 0. -1.
    10030    2    1    2    0    0  0.00000000000E+00  0.00000000000E+00 -0.88181727519E+03  0.39897370152E+04  0.38910666588E+04 0.  0.
        5    1    3    3  502    0  0.12416034263E+04 -0.13615861512E+04 -0.10809013103E+04  0.21363205864E+04  0.46999998093E+01 0. -1.
       -5    1    3    3    0  502 -0.12416034263E+04  0.13615861512E+04  0.19908403510E+03  0.18534164288E+04  0.46999998093E+01 0.  1.
</event>
<event>
 5   0  0.1520986E-07  0.3980445E+04  0.7818609E-02  0.8008503E-01
        2   -1    0    0  501    0  0.00000000000E+00  0.00000000000E+00  0.26531362287E+04  0.26531362288E+04  0.25500000920E-02 0. -1.
       -2   -1    0    0    0  501  0.00000000000E+00  0.00000000000E+00 -0.14929443584E+04  0.14929443584E+04  0.25500000920E-02 0.  1.
    10030    2    1    2    0    0  0.00000000000E+00  0.00000000000E+00  0.11601918703E+04  0.41460805872E+04  0.39804445806E+04 0.  0.
        4    1    3    3  502    0 -0.87142936127E+03 -0.17876184005E+04  0.66087614828E+03  0.20956449064E+04  0.12699999809E+01 0.  1.
       -4    1    3    3    0  502  0.87142936127E+03  0.17876184005E+04  0.49931572205E+03  0.20504356807E+04  0.12699999809E+01 0. -1.
</event>
<event>
 5   0  0.1503228E-07  0.3896510E+04  0.7818609E-02  0.8025755E-01
       -2   -1    0    0    0  501  0.00000000000E+00  0.00000000000E+00  0.16971302355E+04  0.16971302355E+04  0.25500000920E-02 0. -1.
        2   -1    0    0  501    0  0.00000000000E+00  0.00000000000E+00 -0.22365390422E+04  0.22365390422E+04  0.25500000920E-02 0.  1.
    10030    2    1    2    0    0  0.00000000000E+00  0.00000000000E+00 -0.53940880667E+03  0.39336692777E+04  0.38965102497E+04 0.  0.
        3    1    3    3  502    0  0.18849866962E+04 -0.17994812509E+03 -0.73248836038E+03  0.20302944074E+04  0.10100000352E+00 0.  1.
       -3    1    3    3    0  502 -0.18849866962E+04  0.17994812509E+03  0.19307955371E+03  0.19033748703E+04  0.10100000352E+00 0. -1.
</event>
<event>
 5   0  0.1501585E-07  0.3733390E+04  0.7818609E-02  0.8060602E-01
        2   -1    0    0  501    0  0.00000000000E+00  0.00000000000E+00  0.24495900339E+04  0.24495900339E+04  0.25500000920E-02 0.  1.
       -2   -1    0    0    0  501  0.00000000000E+00  0.00000000000E+00 -0.14225033128E+04  0.14225033128E+04  0.25500000920E-02 0. -1.
    10030    2    1    2    0    0  0.00000000000E+00  0.00000000000E+00  0.10270867212E+04  0.38720933467E+04  0.37333898474E+04 0.  0.
        5    1    3    3  502    0 -0.40224041438E+03 -0.15888120285E+04  0.14402762998E+04  0.21818659268E+04  0.46999998093E+01 0.  1.
       -5    1    3    3    0  502  0.40224041438E+03  0.15888120285E+04 -0.41318957861E+03  0.16902274198E+04  0.46999998093E+01 0. -1.
</event>
<event>
 5   0  0.4750125E-08  0.3933272E+04  0.7818609E-02  0.8018145E-01
        1   -1    0    0  501    0  0.00000000000E+00  0.00000000000E+00  0.19608510503E+04  0.19608510503E+04  0.50400001928E-02 0.  1.
       -1   -1    0    0    0  501  0.00000000000E+00  0.00000000000E+00 -0.19724379996E+04  0.19724379996E+04  0.50400001928E-02 0. -1.
    10030    2    1    2    0    0  0.00000000000E+00  0.00000000000E+00 -0.11586949354E+02  0.39332890499E+04  0.39332719831E+04 0.  0.
        4    1    3    3  502    0 -0.92849607329E+03 -0.95180499199E+03 -0.14548055624E+04  0.19709131229E+04  0.12699999809E+01 0. -1.
       -4    1    3    3    0  502  0.92849607329E+03  0.95180499199E+03  0.14432186130E+04  0.19623759270E+04  0.12699999809E+01 0.  1.
</event>
<event>
 5   0  0.4750125E-08  0.3886681E+04  0.7818609E-02  0.8027805E-01
       -1   -1    0    0    0  501  0.00000000000E+00  0.00000000000E+00  0.16603415790E+04  0.16603415790E+04  0.50400001928E-02 0.  1.
        1   -1    0    0  501    0  0.00000000000E+00  0.00000000000E+00 -0.22745750168E+04  0.22745750168E+04  0.50400001928E-02 0. -1.
    10030    2    1    2    0    0  0.00000000000E+00  0.00000000000E+00 -0.61423343788E+03  0.39349165958E+04  0.38866805760E+04 0.  0.
        3    1    3    3  502    0  0.33975479804E+03 -0.15354734399E+04  0.84874384175E+03  0.17870305331E+04  0.10100000352E+00 0.  1.
       -3    1    3    3    0  502 -0.33975479804E+03  0.15354734399E+04 -0.14629772796E+04  0.21478860627E+04  0.10100000352E+00 0. -1.
</event>
<event>
 5   0  0.4750125E-08  0.3826671E+04  0.7818609E-02  0.8040456E-01
       -3   -1    0    0    0  501  0.00000000000E+00  0.00000000000E+00  0.27699522521E+04  0.27699522539E+04  0.10100000352E+00 0.  1.
        3   -1    0    0  501    0  0.00000000000E+00  0.00000000000E+00 -0.13216299226E+04  0.13216299265E+04  0.10100000352E+00 0. -1.
    10030    2    1    2    0    0  0.00000000000E+00  0.00000000000E+00  0.14483223294E+04  0.40915821804E+04  0.38266705070E+04 0.  0.
        4    1    3    3  502    0 -0.49516638999E+03  0.11580795067E+04 -0.81586540786E+03  0.15006584802E+04  0.12699999809E+01 0. -1.
       -4    1    3    3    0  502  0.49516638999E+03 -0.11580795067E+04  0.22641877373E+04  0.25909237002E+04  0.12699999809E+01 0.  1.
</event>
<event>
 5   0  0.1538018E-07  0.3892697E+04  0.7818609E-02  0.8026550E-01
       -2   -1    0    0    0  501  0.00000000000E+00  0.00000000000E+00  0.27452406144E+04  0.27452406144E+04  0.25500000920E-02 0. -1.
        2   -1    0    0  501    0  0.00000000000E+00  0.00000000000E+00 -0.13799420580E+04  0.13799420580E+04  0.25500000920E-02 0.  1.
    10030    2    1    2    0    0  0.00000000000E+00  0.00000000000E+00  0.13652985564E+04  0.41251826723E+04  0.38926972567E+04 0.  0.
        1    1    3    3  502    0 -0.60971133673E+03  0.76280193437E+03 -0.11015481605E+04  0.14720811986E+04  0.50400001928E-02 0.  1.
       -1    1    3    3    0  502  0.60971133673E+03 -0.76280193437E+03  0.24668467169E+04  0.26531014738E+04  0.50400001928E-02 0. -1.
</event>
<event>
 5   0  0.1501585E-07  0.3814387E+04  0.7818609E-02  0.8043075E-01
       -2   -1    0    0    0  501  0.00000000000E+00  0.00000000000E+00  0.15576486968E+04  0.15576486968E+04  0.25500000920E-02 0. -1.
        2   -1    0    0  501    0  0.00000000000E+00  0.00000000000E+00 -0.23351778468E+04  0.23351778468E+04  0.25500000920E-02 0.  1.
    10030    2    1    2    0    0  0.00000000000E+00  0.00000000000E+00 -0.77752914996E+03  0.38928265436E+04  0.38143868341E+04 0.  0.
        5    1    3    3  502    0  0.55626145066E+03 -0.10761597962E+04 -0.18920864090E+04  0.22466774975E+04  0.46999998093E+01 0.  1.
       -5    1    3    3    0  502 -0.55626145066E+03  0.10761597962E+04  0.11145572591E+04  0.16461490462E+04  0.46999998093E+01 0. -1.
</event>
<event>
 5   0  0.4750125E-08  0.3902097E+04  0.7818609E-02  0.8024593E-01
       -3   -1    0    0    0  501  0.00000000000E+00  0.00000000000E+00  0.20471048914E+04  0.20471048939E+04  0.10100000352E+00 0. -1.
        3   -1    0    0  501    0  0.00000000000E+00  0.00000000000E+00 -0.18594989901E+04  0.18594989928E+04  0.10100000352E+00 0.  1.
    10030    2    1    2    0    0  0.00000000000E+00  0.00000000000E+00  0.18760590131E+03  0.39066038867E+04  0.39020966100E+04 0.  0.
        1    1    3    3  502    0  0.16824271868E+04 -0.82853588158E+03  0.63252909360E+03  0.19791730597E+04  0.50400001928E-02 0.  1.
       -1    1    3    3    0  502 -0.16824271868E+04  0.82853588158E+03 -0.44492319229E+03  0.19274308270E+04  0.50400001928E-02 0. -1.
</event>
<event>
 5   0  0.4750125E-08  0.3881586E+04  0.7818609E-02  0.8028870E-01
        1   -1    0    0  501    0  0.00000000000E+00  0.00000000000E+00  0.14757223300E+04  0.14757223300E+04  0.50400001928E-02 0. -1.
       -1   -1    0    0    0  501  0.00000000000E+00  0.00000000000E+00 -0.25524292284E+04  0.25524292284E+04  0.50400001928E-02 0.  1.
    10030    2    1    2    0    0  0.00000000000E+00  0.00000000000E+00 -0.10767068984E+04  0.40281515585E+04  0.38815856596E+04 0.  0.
        1    1    3    3  502    0  0.75868988472E+01 -0.19048422508E+04 -0.92413653325E+03  0.21171938725E+04  0.50400001928E-02 0.  1.
       -1    1    3    3    0  502 -0.75868988472E+01  0.19048422508E+04 -0.15257036515E+03  0.19109576860E+04  0.50400001928E-02 0. -1.
</event>
<event>
 5   0  0.1520986E-07  0.3928491E+04  0.7818609E-02  0.8019130E-01
       -2   -1    0    0    0  501  0.00000000000E+00  0.00000000000E+00  0.18331247841E+04  0.18331247841E+04  0.25500000920E-02 0.  1.
        2   -1    0    0  501    0  0.00000000000E+00  0.00000000000E+00 -0.21047448530E+04  0.21047448530E+04  0.25500000920E-02 0. -1.
    10030    2    1    2    0    0  0.00000000000E+00  0.00000000000E+00 -0.27162006891E+03  0.39378696370E+04  0.39284907810E+04 0.  0.
        4    1    3    3  502    0  0.17978526076E+04  0.55788862222E+03 -0.69817047111E+03  0.20077244166E+04  0.12699999809E+01 0. -1.
       -4    1    3    3    0  502 -0.17978526076E+04 -0.55788862222E+03  0.42655040220E+03  0.19301452204E+04  0.12699999809E+01 0.  1.
</event>
<event>
 5   0  0.4750125E-08  0.3906186E+04  0.7818609E-02  0.8023744E-01
       -1   -1    0    0    0  501  0.00000000000E+00  0.00000000000E+00  0.24462419155E+04  0.24462419155E+04  0.50400001928E-02 0. -1.
        1   -1    0    0  501    0  0.00000000000E+00  0.00000000000E+00 -0.15593603587E+04  0.15593603587E+04  0.50400001928E-02 0.  1.
    10030    2    1    2    0    0  0.00000000000E+00  0.00000000000E+00  0.88688155679E+03  0.40056022742E+04  0.39061862069E+04 0.  0.
        1    1    3    3  502    0 -0.18381641600E+03 -0.10392690265E+04  0.21286482796E+04  0.23759234168E+04  0.50400001928E-02 0. -1.
       -1    1    3    3    0  502  0.18381641600E+03  0.10392690265E+04 -0.12417667228E+04  0.16296788574E+04  0.50400001928E-02 0.  1.
</event>
<event>
 5   0  0.1520986E-07  0.3861700E+04  0.7818609E-02  0.8033042E-01
       -2   -1    0    0    0  501  0.00000000000E+00  0.00000000000E+00  0.17940579094E+04  0.17940579094E+04  0.25500000920E-02 0.  1.
        2   -1    0    0  501    0  0.00000000000E+00  0.00000000000E+00 -0.20780725821E+04  0.20780725821E+04  0.25500000920E-02 0. -1.
    10030    2    1    2    0    0  0.00000000000E+00  0.00000000000E+00 -0.28401467275E+03  0.38721304915E+04  0.38617004298E+04 0.  0.
        4    1    3    3  502    0  0.13057710125E+04  0.93033247013E+03  0.93682823740E+03  0.18569343557E+04  0.12699999809E+01 0.  1.
       -4    1    3    3    0  502 -0.13057710125E+04 -0.93033247013E+03 -0.12208429102E+04  0.20151961359E+04  0.12699999809E+01 0. -1.
</event>
<event>
 5   0  0.1538018E-07  0.3914398E+04  0.7818609E-02  0.8022041E-01
        2   -1    0    0  501    0  0.00000000000E+00  0.00000000000E+00  0.16076364676E+04  0.16076364676E+04  0.25500000920E-02 0. -1.
       -2   -1    0    0    0  501  0.00000000000E+00  0.00000000000E+00 -0.23827703151E+04  0.23827703151E+04  0.25500000920E-02 0.  1.
    10030    2    1    2    0    0  0.00000000000E+00  0.00000000000E+00 -0.77513384752E+03  0.39904067827E+04  0.39143982692E+04 0.  0.
        1    1    3    3  502    0 -0.72444616606E+03  0.18082469646E+04 -0.19401410891E+03  0.19576058866E+04  0.50400001928E-02 0. -1.
       -1    1    3    3    0  502  0.72444616606E+03 -0.18082469646E+04 -0.58111973861E+03  0.20328008961E+04  0.50400001928E-02 0.  1.
</event>
<event>
 5   0  0.4762788E-08  0.3891272E+04  0.7818609E-02  0.8026847E-01
        1   -1    0    0  501    0  0.00000000000E+00  0.00000000000E+00  0.14390800581E+04  0.14390800581E+04  0.50400001928E-02 0.  1.
       -1   -1    0    0    0  501  0.00000000000E+00  0.00000000000E+00 -0.26305002047E+04  0.26305002047E+04  0.50400001928E-02 0. -1.
    10030    2    1    2    0    0  0.00000000000E+00  0.00000000000E+00 -0.11914201466E+04  0.40695802628E+04  0.38912724847E+04 0.  0.
        2    1    3    3  502    0  0.15934595066E+04 -0.10327526918E+04 -0.10391795849E+04  0.21646213367E+04  0.25500000920E-02 0.  1.
       -2    1    3    3    0  502 -0.15934595066E+04  0.10327526918E+04 -0.15224056166E+03  0.19049589261E+04  0.25500000920E-02 0. -1.
</event>
<event>
 5   0  0.4750125E-08  0.3892273E+04  0.7818609E-02  0.8026638E-01
        1   -1    0    0  501    0  0.00000000000E+00  0.00000000000E+00  0.21220132997E+04  0.21220132997E+04  0.50400001928E-02 0. -1.
       -1   -1    0    0    0  501  0.00000000000E+00  0.00000000000E+00 -0.17848370801E+04  0.17848370801E+04  0.50400001928E-02 0.  1.
    10030    2    1    2    0    0  0.00000000000E+00  0.00000000000E+00  0.33717621953E+03  0.39068503798E+04  0.38922733829E+04 0.  0.
        1    1    3    3  502    0 -0.36534448761E+03  0.36006220423E+03 -0.17157616610E+04  0.17907985546E+04  0.50400001928E-02 0.  1.
       -1    1    3    3    0  502  0.36534448761E+03 -0.36006220423E+03  0.20529378806E+04  0.21160518252E+04  0.50400001928E-02 0. -1.
</event>
<event>
 5   0  0.1520986E-07  0.3937890E+04  0.7818609E-02  0.8017195E-01
        2   -1    0    0  501    0  0.00000000000E+00  0.00000000000E+00  0.14398732947E+04  0.14398732947E+04  0.25500000920E-02 0. -1.
       -2   -1    0    0    0  501  0.00000000000E+00  0.00000000000E+00 -0.26924199698E+04  0.26924199698E+04  0.25500000920E-02 0.  1.
    10030    2    1    2    0    0  0.00000000000E+00  0.00000000000E+00 -0.12525466751E+04  0.41322932644E+04  0.39378895934E+04 0.  0.
        4    1    3    3  502    0  0.44472063258E+03  0.17611553703E+04  0.17103695496E+03  0.18244725079E+04  0.12699999809E+01 0. -1.
       -4    1    3    3    0  502 -0.44472063258E+03 -0.17611553703E+04 -0.14235836301E+04  0.23078207565E+04  0.12699999809E+01 0.  1.
</event>
<event>
 5   0  0.4750125E-08  0.3798965E+04  0.7818609E-02  0.8046377E-01
       -1   -1    0    0    0  501  0.00000000000E+00  0.00000000000E+00  0.20285397256E+04  0.20285397256E+04  0.50400001928E-02 0.  1.
        1   -1    0    0  501    0  0.00000000000E+00  0.00000000000E+00 -0.17786360020E+04  0.17786360021E+04  0.50400001928E-02 0. -1.
    10030    2    1    2    0    0  0.00000000000E+00  0.00000000000E+00  0.24990372360E+03  0.38071757277E+04  0.37989650104E+04 0.  0.
        4    1    3    3  502    0 -0.64780576842E+03 -0.15966718364E+04 -0.67616243773E+03  0.18510025721E+04  0.12699999809E+01 0. -1.
       -4    1    3    3    0  502  0.64780576842E+03  0.15966718364E+04  0.92606616132E+03  0.19561731556E+04  0.12699999809E+01 0.  1.
</event>
<event>
 5   0  0.1520986E-07  0.3922530E+04  0.7818609E-02  0.8020360E-01
        2   -1    0    0  501    0  0.00000000000E+00  0.00000000000E+00  0.21515393717E+04  0.21515393717E+04  0.25500000920E-02 0.  1.
       -2   -1    0    0    0  501  0.00000000000E+00  0.00000000000E+00 -0.17878177700E+04  0.17878177700E+04  0.25500000920E-02 0. -1.
    10030    2    1    2    0    0  0.00000000000E+00  0.00000000000E+00  0.36372160177E+03  0.39393571417E+04  0.39225299599E+04 0.  0.
        4    1    3    3  502    0  0.47310213518E+03 -0.18914062941E+04  0.39564793186E+03  0.19894175777E+04  0.12699999809E+01 0. -1.
       -4    1    3    3    0  502 -0.47310213518E+03  0.18914062941E+04 -0.31926330094E+02  0.19499395640E+04  0.12699999809E+01 0.  1.
</event>
<event>
 5   0  0.4762788E-08  0.3894675E+04  0.7818609E-02  0.8026138E-01
        1   -1    0    0  501    0  0.00000000000E+00  0.00000000000E+00  0.21850313783E+04  0.21850313783E+04  0.50400001928E-02 0. -1.
       -1   -1    0    0    0  501  0.00000000000E+00  0.00000000000E+00 -0.17355008879E+04  0.17355008879E+04  0.50400001928E-02 0.  1.
    10030    2    1    2    0    0  0.00000000000E+00  0.00000000000E+00  0.44953049047E+03  0.39205322662E+04  0.38946752867E+04 0.  0.
        2    1    3    3  502    0  0.87409860043E+03 -0.84519024102E+03 -0.13064280607E+04  0.17846986257E+04  0.25500000920E-02 0.  1.
       -2    1    3    3    0  502 -0.87409860043E+03  0.84519024102E+03  0.17559585511E+04  0.21358336405E+04  0.25500000920E-02 0. -1.
</event>
<event>
 5   0  0.1538018E-07  0.3916288E+04  0.7818609E-02  0.8021650E-01
       -2   -1    0    0    0  501  0.00000000000E+00  0.00000000000E+00  0.12554690221E+04  0.12554690221E+04  0.25500000920E-02 0.  1.
        2   -1    0    0  501    0  0.00000000000E+00  0.00000000000E+00 -0.30540992783E+04  0.30540992783E+04  0.25500000920E-02 0. -1.
    10030    2    1    2    0    0  0.00000000000E+00  0.00000000000E+00 -0.17986302562E+04  0.43095683004E+04  0.39162875453E+04 0.  0.
        1    1    3    3  502    0 -0.17720701019E+04 -0.26344668935E+03 -0.17690594918E+04  0.25177784036E+04  0.50400001928E-02 0. -1.
       -1    1    3    3    0  502  0.17720701019E+04  0.26344668935E+03 -0.29570764413E+02  0.17917898968E+04  0.50400001928E-02 0.  1.
</event>
<event>
 5   0  0.4750125E-08  0.3949496E+04  0.7818609E-02  0.8014813E-01
       -1   -1    0    0    0  501  0.00000000000E+00  0.00000000000E+00  0.23122443017E+04  0.23122443017E+04  0.50400001928E-02 0.  1.
        1   -1    0    0  501    0  0.00000000000E+00  0.00000000000E+00 -0.16865125072E+04  0.16865125072E+04  0.50400001928E-02 0. -1.
    10030    2    1    2    0    0  0.00000000000E+00  0.00000000000E+00  0.62573179456E+03  0.39987568089E+04  0.39494956309E+04 0.  0.
        3    1    3    3  502    0 -0.12094886514E+04 -0.53723152334E+03  0.17968030108E+04  0.22315872327E+04  0.10100000352E+00 0.  1.
       -3    1    3    3    0  502  0.12094886514E+04  0.53723152334E+03 -0.11710712162E+04  0.17671695762E+04  0.10100000352E+00 0. -1.
</event>
<event>
 5   0  0.4750125E-08  0.3919545E+04  0.7818609E-02  0.8020976E-01
       -1   -1    0    0    0  501  0.00000000000E+00  0.00000000000E+00  0.16549035731E+04  0.16549035731E+04  0.50400001928E-02 0.  1.
        1   -1    0    0  501    0  0.00000000000E+00  0.00000000000E+00 -0.23208052339E+04  0.23208052339E+04  0.50400001928E-02 0. -1.
    10030    2    1    2    0    0  0.00000000000E+00  0.00000000000E+00 -0.66590166082E+03  0.39757088071E+04  0.39195453176E+04 0.  0.
        1    1    3    3  502    0 -0.16188363755E+04  0.11013511731E+04 -0.24746234220E+03  0.19735357175E+04  0.50400001928E-02 0.  1.
       -1    1    3    3    0  502  0.16188363755E+04 -0.11013511731E+04 -0.41843931862E+03  0.20021730896E+04  0.50400001928E-02 0. -1.
</event>
<event>
 5   0  0.4750125E-08  0.3900092E+04  0.7818609E-02  0.8025010E-01
        1   -1    0    0  501    0  0.00000000000E+00  0.00000000000E+00  0.22190129264E+04  0.22190129264E+04  0.50400001928E-02 0.  1.
       -1   -1    0    0    0  501  0.00000000000E+00  0.00000000000E+00 -0.17136803507E+04  0.17136803507E+04  0.50400001928E-02 0. -1.
    10030    2    1    2    0    0  0.00000000000E+00  0.00000000000E+00  0.50533257568E+03  0.39326932771E+04  0.39000917168E+04 0.  0.
        3    1    3    3  502    0  0.44566751964E+03  0.14964245533E+04  0.14306667040E+04  0.21177141474E+04  0.10100000352E+00 0.  1.
       -3    1    3    3    0  502 -0.44566751964E+03 -0.14964245533E+04 -0.92533412833E+03  0.18149791297E+04  0.10100000352E+00 0. -1.
</event>
<event>
 5   0  0.1503228E-07  0.3979256E+04  0.7818609E-02  0.8008744E-01
       -2   -1    0    0    0  501  0.00000000000E+00  0.00000000000E+00  0.24292720359E+04  0.24292720359E+04  0.25500000920E-02 0.  1.
        2   -1    0    0  501    0  0.00000000000E+00  0.00000000000E+00 -0.16295493395E+04  0.16295493395E+04  0.25500000920E-02 0. -1.
    10030    2    1    2    0    0  0.00000000000E+00  0.00000000000E+00  0.79972269643E+03  0.40588213754E+04  0.39792555291E+04 0.  0.
        3    1    3    3  502    0  0.15857691123E+04  0.88351367235E+03 -0.43089233275E+03  0.18657246044E+04  0.10100000352E+00 0. -1.
       -3    1    3    3    0  502 -0.15857691123E+04 -0.88351367235E+03  0.12306150292E+04  0.21930967710E+04  0.10100000352E+00 0.  1.
</event>
<event>
 5   0  0.1546846E-07  0.3431098E+04  0.7818609E-02  0.8130316E-01
       -2   -1    0    0    0  501  0.00000000000E+00  0.00000000000E+00  0.12602044869E+04  0.12602044869E+04  0.25500000920E-02 0.  1.
        2   -1    0    0  501    0  0.00000000000E+00  0.00000000000E+00 -0.23354212011E+04  0.23354212011E+04  0.25500000920E-02 0. -1.
    10030    2    1    2    0    0  0.00000000000E+00  0.00000000000E+00 -0.10752167141E+04  0.35956256880E+04  0.34310979447E+04 0.  0.
        2    1    3    3  502    0 -0.12756277832E+04  0.71937691388E+03  0.39875817305E+03  0.15178067947E+04  0.25500000920E-02 0.  1.
       -2    1    3    3    0  502  0.12756277832E+04 -0.71937691388E+03 -0.14739748872E+04  0.20778188933E+04  0.25500000920E-02 0. -1.
</event>
<event>
 5   0  0.4750125E-08  0.3887636E+04  0.7818609E-02  0.8027606E-01
       -1   -1    0    0    0  501  0.00000000000E+00  0.00000000000E+00  0.16480263381E+04  0.16480263381E+04  0.50400001928E-02 0.  1.
        1   -1    0    0  501    0  0.00000000000E+00  0.00000000000E+00 -0.22926993352E+04  0.22926993352E+04  0.50400001928E-02 0. -1.
    10030    2    1    2    0    0  0.00000000000E+00  0.00000000000E+00 -0.64467299713E+03  0.39407256733E+04  0.38876362431E+04 0.  0.
        4    1    3    3  502    0 -0.77850001925E+03 -0.51775366715E+03  0.14051355525E+04  0.16877614386E+04  0.12699999809E+01 0.  1.
       -4    1    3    3    0  502  0.77850001925E+03  0.51775366715E+03 -0.20498085496E+04  0.22529642347E+04  0.12699999809E+01 0. -1.
</event>
<event>
 5   0  0.1538018E-07  0.3895256E+04  0.7818609E-02  0.8026017E-01
       -2   -1    0    0    0  501  0.00000000000E+00  0.00000000000E+00  0.24257127953E+04  0.24257127953E+04  0.25500000920E-02 0.  1.
        2   -1    0    0  501    0  0.00000000000E+00  0.00000000000E+00 -0.15637690734E+04  0.15637690734E+04  0.25500000920E-02 0. -1.
    10030    2    1    2    0    0  0.00000000000E+00  0.00000000000E+00  0.86194372188E+03  0.39894818686E+04  0.38952559095E+04 0.  0.
        1    1    3    3  502    0  0.13812530222E+04  0.94436136499E+03  0.14518669707E+04  0.22153094591E+04  0.50400001928E-02 0.  1.
       -1    1    3    3    0  502 -0.13812530222E+04 -0.94436136499E+03 -0.58992324883E+03  0.17741724095E+04  0.50400001928E-02 0. -1.
</event>
<event>
 5   0  0.1501585E-07  0.3890512E+04  0.7818609E-02  0.8027005E-01
       -2   -1    0    0    0  501  0.00000000000E+00  0.00000000000E+00  0.22952728515E+04  0.22952728515E+04  0.25500000920E-02 0.  1.
        2   -1    0    0  501    0  0.00000000000E+00  0.00000000000E+00 -0.16486150973E+04  0.16486150973E+04  0.25500000920E-02 0. -1.
    10030    2    1    2    0    0  0.00000000000E+00  0.00000000000E+00  0.64665775420E+03  0.39438879487E+04  0.38905122929E+04 0.  0.
        5    1    3    3  502    0  0.19219831447E+04 -0.81278742600E+02  0.30621986944E+02  0.19239504252E+04  0.46999998093E+01 0.  1.
       -5    1    3    3    0  502 -0.19219831447E+04  0.81278742600E+02  0.61603576726E+03  0.20199375235E+04  0.46999998093E+01 0. -1.
</event>
<event>
 5   0  0.4750125E-08  0.3856101E+04  0.7818609E-02  0.8034222E-01
        1   -1    0    0  501    0  0.00000000000E+00  0.00000000000E+00  0.15909242967E+04  0.15909242967E+04  0.50400001928E-02 0. -1.
       -1   -1    0    0    0  501  0.00000000000E+00  0.00000000000E+00 -0.23366154763E+04  0.23366154763E+04  0.50400001928E-02 0.  1.
    10030    2    1    2    0    0  0.00000000000E+00  0.00000000000E+00 -0.74569117962E+03  0.39275397730E+04  0.38561007939E+04 0.  0.
        4    1    3    3  502    0 -0.61621455725E+03 -0.16611605716E+04 -0.11473287332E+04  0.21108149280E+04  0.12699999809E+01 0.  1.
       -4    1    3    3    0  502  0.61621455725E+03  0.16611605716E+04  0.40163755359E+03  0.18167248450E+04  0.12699999809E+01 0. -1.
</event>
<event>
 5   0  0.1538018E-07  0.3883963E+04  0.7818609E-02  0.8028373E-01
       -2   -1    0    0    0  501  0.00000000000E+00  0.00000000000E+00  0.24842933096E+04  0.24842933096E+04  0.25500000920E-02 0.  1.
        2   -1    0    0  501    0  0.00000000000E+00  0.00000000000E+00 -0.15180541996E+04  0.15180541996E+04  0.25500000920E-02 0. -1.
    10030    2    1    2    0    0  0.00000000000E+00  0.00000000000E+00  0.96623911004E+03  0.40023475092E+04  0.38839628689E+04 0.  0.
        1    1    3    3  502    0 -0.67763934640E+03  0.16738547342E+04 -0.25301218851E+03  0.18234582316E+04  0.50400001928E-02 0. -1.
       -1    1    3    3    0  502  0.67763934640E+03 -0.16738547342E+04  0.12192512985E+04  0.21788892776E+04  0.50400001928E-02 0.  1.
</event>
<event>
 5   0  0.4750125E-08  0.3898540E+04  0.7818609E-02  0.8025333E-01
       -1   -1    0    0    0  501  0.00000000000E+00  0.00000000000E+00  0.28630715795E+04  0.28630715795E+04  0.50400001928E-02 0.  1.
        1   -1    0    0  501    0  0.00000000000E+00  0.00000000000E+00 -0.13271247948E+04  0.13271247948E+04  0.50400001928E-02 0. -1.
    10030    2    1    2    0    0  0.00000000000E+00  0.00000000000E+00  0.15359467847E+04  0.41901963743E+04  0.38985398715E+04 0.  0.
        1    1    3    3  502    0 -0.50192196732E+03 -0.32396330925E+03  0.27622561838E+04  0.28261169671E+04  0.50400001928E-02 0.  1.
       -1    1    3    3    0  502  0.50192196732E+03  0.32396330925E+03 -0.12263093990E+04  0.13640794072E+04  0.50400001928E-02 0. -1.
</event>
<event>
 5   0  0.1538018E-07  0.3862481E+04  0.7818609E-02  0.8032878E-01
       -2   -1    0    0    0  501  0.00000000000E+00  0.00000000000E+00  0.13199077912E+04  0.13199077912E+04  0.25500000920E-02 0.  1.
        2   -1    0    0  501    0  0.00000000000E+00  0.00000000000E+00 -0.28257198391E+04  0.28257198391E+04  0.25500000920E-02 0. -1.
    10030    2    1    2    0    0  0.00000000000E+00  0.00000000000E+00 -0.15058120479E+04  0.41456276303E+04  0.38624808770E+04 0.  0.
        1    1    3    3  502    0  0.11674688350E+04 -0.15208756016E+03 -0.23960038643E+04  0.26696345488E+04  0.50400001928E-02 0. -1.
       -1    1    3    3    0  502 -0.11674688350E+04  0.15208756016E+03  0.89019181634E+03  0.14759930815E+04  0.50400001928E-02 0.  1.
</event>
<event>
 5   0  0.4750125E-08  0.3898163E+04  0.7818609E-02  0.8025411E-01
       -1   -1    0    0    0  501  0.00000000000E+00  0.00000000000E+00  0.17838487350E+04  0.17838487350E+04  0.50400001928E-02 0.  1.
        1   -1    0    0  501    0  0.00000000000E+00  0.00000000000E+00 -0.21296187867E+04  0.21296187867E+04  0.50400001928E-02 0. -1.
    10030    2    1    2    0    0  0.00000000000E+00  0.00000000000E+00 -0.34577005173E+03  0.39134675217E+04  0.38981625306E+04 0.  0.
        4    1    3    3  502    0  0.10746519628E+04  0.16245671150E+04 -0.24259115534E+03  0.19628925681E+04  0.12699999809E+01 0. -1.
       -4    1    3    3    0  502 -0.10746519628E+04 -0.16245671150E+04 -0.10317889639E+03  0.19505749536E+04  0.12699999809E+01 0.  1.
</event>
<event>
 5   0  0.1546846E-07  0.3901608E+04  0.7818609E-02  0.8024695E-01
       -2   -1    0    0    0  501  0.00000000000E+00  0.00000000000E+00  0.20905988369E+04  0.20905988369E+04  0.25500000920E-02 0. -1.
        2   -1    0    0  501    0  0.00000000000E+00  0.00000000000E+00 -0.18203566259E+04  0.18203566259E+04  0.25500000920E-02 0.  1.
    10030    2    1    2    0    0  0.00000000000E+00  0.00000000000E+00  0.27024221099E+03  0.39109554627E+04  0.39016075890E+04 0.  0.
        2    1    3    3  502    0 -0.91011341520E+03  0.15208124634E+04  0.95221732852E+03  0.20119380751E+04  0.25500000920E-02 0. -1.
       -2    1    3    3    0  502  0.91011341520E+03 -0.15208124634E+04 -0.68197511753E+03  0.18990173876E+04  0.25500000920E-02 0.  1.
</event>
<event>
 5   0  0.1546846E-07  0.3901059E+04  0.7818609E-02  0.8024809E-01
        2   -1    0    0  501    0  0.00000000000E+00  0.00000000000E+00  0.25468231864E+04  0.25468231864E+04  0.25500000920E-02 0. -1.
       -2   -1    0    0    0  501  0.00000000000E+00  0.00000000000E+00 -0.14938472076E+04  0.14938472076E+04  0.25500000920E-02 0.  1.
    10030    2    1    2    0    0  0.00000000000E+00  0.00000000000E+00  0.10529759788E+04  0.40406703940E+04  0.39010586795E+04 0.  0.
        2    1    3    3  502    0  0.17985841418E+04 -0.75292675582E+02 -0.25138188736E+03  0.18176266821E+04  0.25500000920E-02 0.  1.
       -2    1    3    3    0  502 -0.17985841418E+04  0.75292675582E+02  0.13043578662E+04  0.22230437119E+04  0.25500000920E-02 0. -1.
</event>
<event>
 5   0  0.4750125E-08  0.3912117E+04  0.7818609E-02  0.8022514E-01
       -1   -1    0    0    0  501  0.00000000000E+00  0.00000000000E+00  0.19310609583E+04  0.19310609583E+04  0.50400001928E-02 0.  1.
        1   -1    0    0  501    0  0.00000000000E+00  0.00000000000E+00 -0.19813797883E+04  0.19813797883E+04  0.50400001928E-02 0. -1.
    10030    2    1    2    0    0  0.00000000000E+00  0.00000000000E+00 -0.50318829961E+02  0.39124407466E+04  0.39121171520E+04 0.  0.
        1    1    3    3  502    0 -0.72029989109E+01  0.14680200955E+04 -0.13179497004E+04  0.19728472563E+04  0.50400001928E-02 0. -1.
       -1    1    3    3    0  502  0.72029989109E+01 -0.14680200955E+04  0.12676308704E+04  0.19395934903E+04  0.50400001928E-02 0.  1.
</event>
<event>
 5   0  0.4750125E-08  0.3901380E+04  0.7818609E-02  0.8024742E-01
        1   -1    0    0  501    0  0.00000000000E+00  0.00000000000E+00  0.19287939809E+04  0.19287939810E+04  0.50400001928E-02 0.  1.
       -1   -1    0    0    0  501  0.00000000000E+00  0.00000000000E+00 -0.19728347683E+04  0.19728347683E+04  0.50400001928E-02 0. -1.
    10030    2    1    2    0    0  0.00000000000E+00  0.00000000000E+00 -0.44040787396E+02  0.39016287493E+04  0.39013801797E+04 0.  0.
        5    1    3    3  502    0  0.15798656092E+04 -0.74254454327E+03  0.84856479129E+03  0.19409873871E+04  0.46999998093E+01 0.  1.
       -5    1    3    3    0  502 -0.15798656092E+04  0.74254454327E+03 -0.89260557868E+03  0.19606413622E+04  0.46999998093E+01 0. -1.
</event>
<event>
 5   0  0.4762788E-08  0.3804641E+04  0.7818609E-02  0.8045160E-01
        1   -1    0    0  501    0  0.00000000000E+00  0.00000000000E+00  0.24656359922E+04  0.24656359922E+04  0.50400001928E-02 0. -1.
       -1   -1    0    0    0  501  0.00000000000E+00  0.00000000000E+00 -0.14677037486E+04  0.14677037486E+04  0.50400001928E-02 0.  1.
    10030    2    1    2    0    0  0.00000000000E+00  0.00000000000E+00  0.99793224355E+03  0.39333397408E+04  0.38046409494E+04 0.  0.
        2    1    3    3  502    0  0.47529174532E+03  0.46308509231E+01 -0.14053247255E+04  0.14835300038E+04  0.25500000920E-02 0.  1.
       -2    1    3    3    0  502 -0.47529174532E+03 -0.46308509231E+01  0.24032569691E+04  0.24498097370E+04  0.25500000920E-02 0. -1.
</event>
<event>
 5   0  0.1503228E-07  0.3916564E+04  0.7818609E-02  0.8021593E-01
        2   -1    0    0  501    0  0.00000000000E+00  0.00000000000E+00  0.21002187222E+04  0.21002187222E+04  0.25500000920E-02 0.  1.
       -2   -1    0    0    0  501  0.00000000000E+00  0.00000000000E+00 -0.18259377389E+04  0.18259377389E+04  0.25500000920E-02 0. -1.
    10030    2    1    2    0    0  0.00000000000E+00  0.00000000000E+00  0.27428098333E+03  0.39261564611E+04  0.39165641191E+04 0.  0.
        3    1    3    3  502    0  0.12637783215E+04 -0.13949403473E+04  0.67871767774E+03  0.20009127704E+04  0.10100000352E+00 0.  1.
       -3    1    3    3    0  502 -0.12637783215E+04  0.13949403473E+04 -0.40443669441E+03  0.19252436907E+04  0.10100000352E+00 0. -1.
</event>
<event>
 5   0  0.4762788E-08  0.3905034E+04  0.7818609E-02  0.8023983E-01
       -1   -1    0    0    0  501  0.00000000000E+00  0.00000000000E+00  0.15622940787E+04  0.15622940787E+04  0.50400001928E-02 0.  1.
        1   -1    0    0  501    0  0.00000000000E+00  0.00000000000E+00 -0.24402078397E+04  0.24402078397E+04  0.50400001928E-02 0. -1.
    10030    2    1    2    0    0  0.00000000000E+00  0.00000000000E+00 -0.87791376103E+03  0.40025019183E+04  0.39050338071E+04 0.  0.
        2    1    3    3  502    0 -0.37633492806E+03 -0.59678776192E+03  0.14270717134E+04  0.15919539208E+04  0.25500000920E-02 0.  1.
       -2    1    3    3    0  502  0.37633492806E+03  0.59678776192E+03 -0.23049854744E+04  0.24105479975E+04  0.25500000920E-02 0. -1.
</event>
<event>
 5   0  0.4750125E-08  0.3888447E+04  0.7818609E-02  0.8027436E-01
        1   -1    0    0  501    0  0.00000000000E+00  0.00000000000E+00  0.15541639678E+04  0.15541639678E+04  0.50400001928E-02 0. -1.
       -1   -1    0    0    0  501  0.00000000000E+00  0.00000000000E+00 -0.24321794311E+04  0.24321794311E+04  0.50400001928E-02 0.  1.
    10030    2    1    2    0    0  0.00000000000E+00  0.00000000000E+00 -0.87801546328E+03  0.39863433988E+04  0.38884473173E+04 0.  0.
        1    1    3    3  502    0  0.10533682544E+04  0.87586557533E+03 -0.18533348927E+04  0.23046855339E+04  0.50400001928E-02 0.  1.
       -1    1    3    3    0  502 -0.10533682544E+04 -0.87586557533E+03  0.97531942947E+03  0.16816578650E+04  0.50400001928E-02 0. -1.
</event>
<event>
 5   0  0.1538018E-07  0.3868948E+04  0.7818609E-02  0.8031519E-01
       -2   -1    0    0    0  501  0.00000000000E+00  0.00000000000E+00  0.20358061154E+04  0.20358061154E+04  0.25500000920E-02 0.  1.
        2   -1    0    0  501    0  0.00000000000E+00  0.00000000000E+00 -0.18381854409E+04  0.18381854409E+04  0.25500000920E-02 0. -1.
    10030    2    1    2    0    0  0.00000000000E+00  0.00000000000E+00  0.19762067453E+03  0.38739915563E+04  0.38689477442E+04 0.  0.
        1    1    3    3  502    0  0.10034005271E+04  0.15291071590E+04 -0.53225556064E+03  0.19048037440E+04  0.50400001928E-02 0. -1.
       -1    1    3    3    0  502 -0.10034005271E+04 -0.15291071590E+04  0.72987623517E+03  0.19691878123E+04  0.50400001928E-02 0.  1.
</event>
<event>
 5   0  0.4750125E-08  0.3852347E+04  0.7818609E-02  0.8035014E-01
       -1   -1    0    0    0  501  0.00000000000E+00  0.00000000000E+00  0.16574018967E+04  0.16574018967E+04  0.50400001928E-02 0. -1.
        1   -1    0    0  501    0  0.00000000000E+00  0.00000000000E+00 -0.22385308381E+04  0.22385308381E+04  0.50400001928E-02 0.  1.
    10030    2    1    2    0    0  0.00000000000E+00  0.00000000000E+00 -0.58112894142E+03  0.38959327349E+04  0.38523474698E+04 0.  0.
        5    1    3    3  502    0 -0.14081945334E+03  0.55146203645E+03 -0.21515422569E+04  0.22255553620E+04  0.46999998093E+01 0.  1.
       -5    1    3    3    0  502  0.14081945334E+03 -0.55146203645E+03  0.15704133155E+04  0.16703773728E+04  0.46999998093E+01 0. -1.
</event>
<event>
 5   0  0.1546846E-07  0.3904592E+04  0.7818609E-02  0.8024075E-01
       -2   -1    0    0    0  501  0.00000000000E+00  0.00000000000E+00  0.35368158017E+04  0.35368158017E+04  0.25500000920E-02 0. -1.
        2   -1    0    0  501    0  0.00000000000E+00  0.00000000000E+00 -0.10776526223E+04  0.10776526223E+04  0.25500000920E-02 0.  1.
    10030    2    1    2    0    0  0.00000000000E+00  0.00000000000E+00  0.24591631795E+04  0.46144684240E+04  0.39045915654E+04 0.  0.
        2    1    3    3  502    0  0.82005838938E+03 -0.14418213383E+04  0.12772596108E+02  0.16587669133E+04  0.25500000920E-02 0.  1.
       -2    1    3    3    0  502 -0.82005838938E+03  0.14418213383E+04  0.24463905834E+04  0.29557015106E+04  0.25500000920E-02 0. -1.
</event>
<event>
 5   0  0.1546846E-07  0.3769438E+04  0.7818609E-02  0.8052745E-01
        2   -1    0    0  501    0  0.00000000000E+00  0.00000000000E+00  0.30387811328E+04  0.30387811328E+04  0.25500000920E-02 0. -1.
       -2   -1    0    0    0  501  0.00000000000E+00  0.00000000000E+00 -0.11689442546E+04  0.11689442546E+04  0.25500000920E-02 0.  1.
    10030    2    1    2    0    0  0.00000000000E+00  0.00000000000E+00  0.18698368782E+04  0.42077253874E+04  0.37694380197E+04 0.  0.
        2    1    3    3  502    0  0.42905665364E+02  0.16912407132E+04  0.18621851602E+04  0.25159232137E+04  0.25500000920E-02 0. -1.
       -2    1    3    3    0  502 -0.42905665364E+02 -0.16912407132E+04  0.76517179758E+01  0.16918021737E+04  0.25500000920E-02 0.  1.
</event>
<event>
 5   0  0.4750125E-08  0.3898325E+04  0.7818609E-02  0.8025378E-01
       -1   -1    0    0    0  501  0.00000000000E+00  0.00000000000E+00  0.14966963508E+04  0.14966963509E+04  0.50400001928E-02 0.  1.
        1   -1    0    0  501    0  0.00000000000E+00  0.00000000000E+00 -0.25384130611E+04  0.25384130611E+04  0.50400001928E-02 0. -1.
    10030    2    1    2    0    0  0.00000000000E+00  0.00000000000E+00 -0.10417167102E+04  0.40351094119E+04  0.38983245455E+04 0.  0.
        3    1    3    3  502    0 -0.13453225959E+04  0.63791178014E+03 -0.18229355312E+04  0.23537031009E+04  0.10100000352E+00 0. -1.
       -3    1    3    3    0  502  0.13453225959E+04 -0.63791178014E+03  0.78121882093E+03  0.16814063110E+04  0.10100000352E+00 0.  1.
</event>
<event>
 5   0  0.1501585E-07  0.3939302E+04  0.7818609E-02  0.8016905E-01
        2   -1    0    0  501    0  0.00000000000E+00  0.00000000000E+00  0.25056226428E+04  0.25056226428E+04  0.25500000920E-02 0.  1.
       -2   -1    0    0    0  501  0.00000000000E+00  0.00000000000E+00 -0.15483273869E+04  0.15483273869E+04  0.25500000920E-02 0. -1.
    10030    2    1    2    0    0  0.00000000000E+00  0.00000000000E+00  0.95729525590E+03  0.40539500296E+04  0.39393015416E+04 0.  0.
        5    1    3    3  502    0 -0.69485172950E+03  0.76248623128E+03  0.22053653347E+04  0.24347202156E+04  0.46999998093E+01 0.  1.
       -5    1    3    3    0  502  0.69485172950E+03 -0.76248623128E+03 -0.12480700788E+04  0.16192298140E+04  0.46999998093E+01 0. -1.
</event>
<event>
 5   0  0.4750125E-08  0.3894512E+04  0.7818609E-02  0.8026171E-01
        1   -1    0    0  501    0  0.00000000000E+00  0.00000000000E+00  0.20636272111E+04  0.20636272111E+04  0.50400001928E-02 0. -1.
       -1   -1    0    0    0  501  0.00000000000E+00  0.00000000000E+00 -0.18374474840E+04  0.18374474840E+04  0.50400001928E-02 0.  1.
    10030    2    1    2    0    0  0.00000000000E+00  0.00000000000E+00  0.22617972713E+03  0.39010746951E+04  0.38945123581E+04 0.  0.
        4    1    3    3  502    0 -0.70791527666E+03 -0.10946728736E+04 -0.13358440662E+04  0.18665298608E+04  0.12699999809E+01 0.  1.
       -4    1    3    3    0  502  0.70791527666E+03  0.10946728736E+04  0.15620237933E+04  0.20345448343E+04  0.12699999809E+01 0. -1.
</event>
<event>
 5   0  0.1546846E-07  0.3853034E+04  0.7818609E-02  0.8034869E-01
       -2   -1    0    0    0  501  0.00000000000E+00  0.00000000000E+00  0.11898418920E+04  0.11898418920E+04  0.25500000920E-02 0. -1.
        2   -1    0    0  501    0  0.00000000000E+00  0.00000000000E+00 -0.31192953889E+04  0.31192953889E+04  0.25500000920E-02 0.  1.
    10030    2    1    2    0    0  0.00000000000E+00  0.00000000000E+00 -0.19294534969E+04  0.43091372809E+04  0.38530342990E+04 0.  0.
        2    1    3    3  502    0 -0.12167160375E+04 -0.37532476330E+02  0.70523661848E+03  0.14068280957E+04  0.25500000920E-02 0. -1.
       -2    1    3    3    0  502  0.12167160375E+04  0.37532476330E+02 -0.26346901154E+04  0.29023091852E+04  0.25500000920E-02 0.  1.
</event>
<event>
 5   0  0.4750125E-08  0.3878844E+04  0.7818609E-02  0.8029444E-01
       -1   -1    0    0    0  501  0.00000000000E+00  0.00000000000E+00  0.17257945702E+04  0.17257945702E+04  0.50400001928E-02 0. -1.
        1   -1    0    0  501    0  0.00000000000E+00  0.00000000000E+00 -0.21794933560E+04  0.21794933560E+04  0.50400001928E-02 0.  1.
    10030    2    1    2    0    0  0.00000000000E+00  0.00000000000E+00 -0.45369878579E+03  0.39052879261E+04  0.38788440543E+04 0.  0.
        5    1    3    3  502    0  0.36741661638E+03  0.82301498866E+03  0.15021194746E+04  0.17517801367E+04  0.46999998093E+01 0. -1.
       -5    1    3    3    0  502 -0.36741661638E+03 -0.82301498866E+03 -0.19558182603E+04  0.21535077894E+04  0.46999998093E+01 0.  1.
</event>
<event>
 5   0  0.4762788E-08  0.3913423E+04  0.7818609E-02  0.8022243E-01
       -1   -1    0    0    0  501  0.00000000000E+00  0.00000000000E+00  0.23969496113E+04  0.23969496113E+04  0.50400001928E-02 0. -1.
        1   -1    0    0  501    0  0.00000000000E+00  0.00000000000E+00 -0.15973304764E+04  0.15973304764E+04  0.50400001928E-02 0.  1.
    10030    2    1    2    0    0  0.00000000000E+00  0.00000000000E+00  0.79961913487E+03  0.39942800877E+04  0.39134233937E+04 0.  0.
        2    1    3    3  502    0  0.12044686395E+03  0.19520558151E+04  0.33779809172E+03  0.19847259013E+04  0.25500000920E-02 0.  1.
       -2    1    3    3    0  502 -0.12044686395E+03 -0.19520558151E+04  0.46182104315E+03  0.20095541864E+04  0.25500000920E-02 0. -1.
</event>
<event>
 5   0  0.4750125E-08  0.3902415E+04  0.7818609E-02  0.8024527E-01
        1   -1    0    0  501    0  0.00000000000E+00  0.00000000000E+00  0.25523229950E+04  0.25523229950E+04  0.50400001928E-02 0.  1.
       -1   -1    0    0    0  501  0.00000000000E+00  0.00000000000E+00 -0.14916651091E+04  0.14916651091E+04  0.50400001928E-02 0. -1.
    10030    2    1    2    0    0  0.00000000000E+00  0.00000000000E+00  0.10606578859E+04  0.40439881042E+04  0.39024152311E+04 0.  0.
        5    1    3    3  502    0 -0.15266579689E+04  0.64259557706E+03  0.15990405871E+04  0.23022959234E+04  0.46999998093E+01 0.  1.
       -5    1    3    3    0  502  0.15266579689E+04 -0.64259557706E+03 -0.53838270117E+03  0.17416921808E+04  0.46999998093E+01 0. -1.
</event>
<event>
 5   0  0.1546846E-07  0.3917785E+04  0.7818609E-02  0.8021340E-01
        2   -1    0    0  501    0  0.00000000000E+00  0.00000000000E+00  0.17190207707E+04  0.17190207707E+04  0.25500000920E-02 0. -1.
       -2   -1    0    0    0  501  0.00000000000E+00  0.00000000000E+00 -0.22322362279E+04  0.22322362279E+04  0.25500000920E-02 0.  1.
    10030    2    1    2    0    0  0.00000000000E+00  0.00000000000E+00 -0.51321545719E+03  0.39512569986E+04  0.39177853136E+04 0.  0.
        2    1    3    3  502    0  0.70993468210E+03  0.88571362796E+03  0.13535169400E+04  0.17664948317E+04  0.25500000920E-02 0. -1.
       -2    1    3    3    0  502 -0.70993468210E+03 -0.88571362796E+03 -0.18667323971E+04  0.21847621670E+04  0.25500000920E-02 0.  1.
</event>
<event>
 5   0  0.1546846E-07  0.3880451E+04  0.7818609E-02  0.8029107E-01
       -2   -1    0    0    0  501  0.00000000000E+00  0.00000000000E+00  0.16433585517E+04  0.16433585517E+04  0.25500000920E-02 0.  1.
        2   -1    0    0  501    0  0.00000000000E+00  0.00000000000E+00 -0.22907208377E+04  0.22907208377E+04  0.25500000920E-02 0. -1.
    10030    2    1    2    0    0  0.00000000000E+00  0.00000000000E+00 -0.64736228597E+03  0.39340793895E+04  0.38804513543E+04 0.  0.
        2    1    3    3  502    0  0.16531465585E+04 -0.32184913592E+02 -0.13528689283E+04  0.21363950360E+04  0.25500000920E-02 0. -1.
       -2    1    3    3    0  502 -0.16531465585E+04  0.32184913592E+02  0.70550664231E+03  0.17976843535E+04  0.25500000920E-02 0.  1.
</event>
<event>
 5   0  0.4750125E-08  0.3918806E+04  0.7818609E-02  0.8021129E-01
       -1   -1    0    0    0  501  0.00000000000E+00  0.00000000000E+00  0.17819004811E+04  0.17819004811E+04  0.50400001928E-02 0. -1.
        1   -1    0    0  501    0  0.00000000000E+00  0.00000000000E+00 -0.21545874515E+04  0.21545874515E+04  0.50400001928E-02 0.  1.
    10030    2    1    2    0    0  0.00000000000E+00  0.00000000000E+00 -0.37268697035E+03  0.39364879326E+04  0.39188061531E+04 0.  0.
        4    1    3    3  502    0 -0.11221217171E+04  0.64576586252E+03  0.12910366249E+04  0.18283730136E+04  0.12699999809E+01 0. -1.
       -4    1    3    3    0  502  0.11221217171E+04 -0.64576586252E+03 -0.16637235953E+04  0.21081149190E+04  0.12699999809E+01 0.  1.
</event>
<event>
 5   0  0.1520986E-07  0.3904297E+04  0.7818609E-02  0.8024136E-01
       -2   -1    0    0    0  501  0.00000000000E+00  0.00000000000E+00  0.16022801389E+04  0.16022801389E+04  0.25500000920E-02 0.  1.
        2   -1    0    0  501    0  0.00000000000E+00  0.00000000000E+00 -0.23784129183E+04  0.23784129183E+04  0.25500000920E-02 0. -1.
    10030    2    1    2    0    0  0.00000000000E+00  0.00000000000E+00 -0.77613277933E+03  0.39806930572E+04  0.39042970077E+04 0.  0.
        4    1    3    3  502    0  0.29285658611E+03  0.19106142873E+04 -0.66667183359E+03  0.20446674256E+04  0.12699999809E+01 0. -1.
       -4    1    3    3    0  502 -0.29285658611E+03 -0.19106142873E+04 -0.10946094574E+03  0.19360256316E+04  0.12699999809E+01 0.  1.
</event>
<event>
 5   0  0.4750125E-08  0.3966349E+04  0.7818609E-02  0.8011370E-01
       -1   -1    0    0    0  501  0.00000000000E+00  0.00000000000E+00  0.15928165447E+04  0.15928165447E+04  0.50400001928E-02 0.  1.
        1   -1    0    0  501    0  0.00000000000E+00  0.00000000000E+00 -0.24691995228E+04  0.24691995228E+04  0.50400001928E-02 0. -1.
    10030    2    1    2    0    0  0.00000000000E+00  0.00000000000E+00 -0.87638297806E+03  0.40620160675E+04  0.39663493805E+04 0.  0.
        5    1    3    3  502    0 -0.11050709367E+04 -0.83365130308E+02  0.12461126513E+04  0.16676181667E+04  0.46999998093E+01 0.  1.
       -5    1    3    3    0  502  0.11050709367E+04  0.83365130308E+02 -0.21224956294E+04  0.23943979007E+04  0.46999998093E+01 0. -1.
</event>
<event>
 5   0  0.1546846E-07  0.3942579E+04  0.7818609E-02  0.8016231E-01
       -2   -1    0    0    0  501  0.00000000000E+00  0.00000000000E+00  0.16464812808E+04  0.16464812808E+04  0.25500000920E-02 0. -1.
        2   -1    0    0  501    0  0.00000000000E+00  0.00000000000E+00 -0.23601745082E+04  0.23601745082E+04  0.25500000920E-02 0.  1.
    10030    2    1    2    0    0  0.00000000000E+00  0.00000000000E+00 -0.71369322739E+03  0.40066557890E+04  0.39425794334E+04 0.  0.
        2    1    3    3  502    0  0.88450105191E+02 -0.18204263626E+04  0.40649869656E+03  0.18673555508E+04  0.25500000920E-02 0. -1.
       -2    1    3    3    0  502 -0.88450105191E+02  0.18204263626E+04 -0.11201919240E+04  0.21393002382E+04  0.25500000920E-02 0.  1.
</event>
<event>
 5   0  0.4750125E-08  0.3924471E+04  0.7818609E-02  0.8019959E-01
       -1   -1    0    0    0  501  0.00000000000E+00  0.00000000000E+00  0.14289271066E+04  0.14289271066E+04  0.50400001928E-02 0. -1.
        1   -1    0    0  501    0  0.00000000000E+00  0.00000000000E+00 -0.26945874305E+04  0.26945874305E+04  0.50400001928E-02 0.  1.
    10030    2    1    2    0    0  0.00000000000E+00  0.00000000000E+00 -0.12656603239E+04  0.41235145371E+04  0.39244714399E+04 0.  0.
        1    1    3    3  502    0 -0.11361136124E+04 -0.73848808863E+03  0.85839446517E+03  0.16040448420E+04  0.50400001928E-02 0. -1.
       -1    1    3    3    0  502  0.11361136124E+04  0.73848808863E+03 -0.21240547891E+04  0.25194696951E+04  0.50400001928E-02 0.  1.
</event>
<event>
 5   0  0.1546846E-07  0.3891097E+04  0.7818609E-02  0.8026883E-01
        2   -1    0    0  501    0  0.00000000000E+00  0.00000000000E+00  0.20014890341E+04  0.20014890341E+04  0.25500000920E-02 0.  1.
       -2   -1    0    0    0  501  0.00000000000E+00  0.00000000000E+00 -0.18911713362E+04  0.18911713362E+04  0.25500000920E-02 0. -1.
    10030    2    1    2    0    0  0.00000000000E+00  0.00000000000E+00  0.11031769791E+03  0.38926603703E+04  0.38910968587E+04 0.  0.
        2    1    3    3  502    0  0.40605601259E+03  0.12613764788E+04  0.14802334625E+04  0.19867166910E+04  0.25500000920E-02 0.  1.
       -2    1    3    3    0  502 -0.40605601259E+03 -0.12613764788E+04 -0.13699157646E+04  0.19059436793E+04  0.25500000920E-02 0. -1.
</event>
<event>
 5   0  0.1546846E-07  0.3916206E+04  0.7818609E-02  0.8021667E-01
        2   -1    0    0  501    0  0.00000000000E+00  0.00000000000E+00  0.18566537316E+04  0.18566537316E+04  0.25500000920E-02 0. -1.
       -2   -1    0    0    0  501  0.00000000000E+00  0.00000000000E+00 -0.20650960084E+04  0.20650960084E+04  0.25500000920E-02 0.  1.
    10030    2    1    2    0    0  0.00000000000E+00  0.00000000000E+00 -0.20844227680E+03  0.39217497401E+04  0.39162064349E+04 0.  0.
        2    1    3    3  502    0 -0.50013019283E+02  0.86287230037E+03  0.16552856062E+04  0.18673565131E+04  0.25500000920E-02 0. -1.
       -2    1    3    3    0  502  0.50013019283E+02 -0.86287230037E+03 -0.18637278830E+04  0.20543932269E+04  0.25500000920E-02 0.  1.
</event>
<event>
 5   0  0.4750125E-08  0.3880418E+04  0.7818609E-02  0.8029114E-01
        1   -1    0    0  501    0  0.00000000000E+00  0.00000000000E+00  0.15694184981E+04  0.15694184981E+04  0.50400001928E-02 0. -1.
       -1   -1    0    0    0  501  0.00000000000E+00  0.00000000000E+00 -0.23986019174E+04  0.23986019174E+04  0.50400001928E-02 0.  1.
    10030    2    1    2    0    0  0.00000000000E+00  0.00000000000E+00 -0.82918341932E+03  0.39680204155E+04  0.38804176161E+04 0.  0.
        5    1    3    3  502    0  0.14728255222E+04  0.28503319422E+03  0.84360403351E+03  0.17210894213E+04  0.46999998093E+01 0. -1.
       -5    1    3    3    0  502 -0.14728255222E+04 -0.28503319422E+03 -0.16727874528E+04  0.22469309943E+04  0.46999998093E+01 0.  1.
</event>
<event>
 5   0  0.4750125E-08  0.3888823E+04  0.7818609E-02  0.8027358E-01
        1   -1    0    0  501    0  0.00000000000E+00  0.00000000000E+00  0.31035814178E+04  0.31035814178E+04  0.50400001928E-02 0.  1.
       -1   -1    0    0    0  501  0.00000000000E+00  0.00000000000E+00 -0.12181851979E+04  0.12181851980E+04  0.50400001928E-02 0. -1.
    10030    2    1    2    0    0  0.00000000000E+00  0.00000000000E+00  0.18853962199E+04  0.43217666158E+04  0.38888234436E+04 0.  0.
        1    1    3    3  502    0 -0.74792802187E+03 -0.26930552165E+03  0.29147424141E+04  0.30211992867E+04  0.50400001928E-02 0.  1.
       -1    1    3    3    0  502  0.74792802187E+03  0.26930552165E+03 -0.10293461942E+04  0.13005673290E+04  0.50400001928E-02 0. -1.
</event>
<event>
 5   0  0.4750125E-08  0.3893637E+04  0.7818609E-02  0.8026354E-01
       -1   -1    0    0    0  501  0.00000000000E+00  0.00000000000E+00  0.24280919847E+04  0.24280919847E+04  0.50400001928E-02 0.  1.
        1   -1    0    0  501    0  0.00000000000E+00  0.00000000000E+00 -0.15609384818E+04  0.15609384818E+04  0.50400001928E-02 0. -1.
    10030    2    1    2    0    0  0.00000000000E+00  0.00000000000E+00  0.86715350288E+03  0.39890304665E+04  0.38936369714E+04 0.  0.
        3    1    3    3  502    0 -0.89323573179E+03  0.17033492989E+04  0.74234628446E+03  0.20616369523E+04  0.10100000352E+00 0.  1.
       -3    1    3    3    0  502  0.89323573179E+03 -0.17033492989E+04  0.12480721841E+03  0.19273935142E+04  0.10100000352E+00 0. -1.
</event>
<event>
 5   0  0.4750125E-08  0.3896561E+04  0.7818609E-02  0.8025745E-01
       -1   -1    0    0    0  501  0.00000000000E+00  0.00000000000E+00  0.14448236433E+04  0.14448236433E+04  0.50400001928E-02 0.  1.
        1   -1    0    0  501    0  0.00000000000E+00  0.00000000000E+00 -0.26271697158E+04  0.26271697158E+04  0.50400001928E-02 0. -1.
    10030    2    1    2    0    0  0.00000000000E+00  0.00000000000E+00 -0.11823460725E+04  0.40719933591E+04  0.38965610071E+04 0.  0.
        4    1    3    3  502    0  0.44534927837E+03 -0.24590020868E+03  0.13741893724E+04  0.14653330463E+04  0.12699999809E+01 0.  1.
       -4    1    3    3    0  502 -0.44534927837E+03  0.24590020868E+03 -0.25565354450E+04  0.26066603129E+04  0.12699999809E+01 0. -1.
</event>
<event>
 5   0  0.4750125E-08  0.3897732E+04  0.7818609E-02  0.8025501E-01
       -1   -1    0    0    0  501  0.00000000000E+00  0.00000000000E+00  0.23031046870E+04  0.23031046870E+04  0.50400001928E-02 0.  1.
        1   -1    0    0  501    0  0.00000000000E+00  0.00000000000E+00 -0.16491121435E+04  0.16491121435E+04  0.50400001928E-02 0. -1.
    10030    2    1    2    0    0  0.00000000000E+00  0.00000000000E+00  0.65399254343E+03  0.39522168305E+04  0.38977316004E+04 0.  0.
        4    1    3    3  502    0  0.11114526580E+04  0.15414552787E+04  0.76508307643E+03  0.20486007698E+04  0.12699999809E+01 0.  1.
       -4    1    3    3    0  502 -0.11114526580E+04 -0.15414552787E+04 -0.11109053300E+03  0.19036160607E+04  0.12699999809E+01 0. -1.
</event>
<event>
 5   0  0.1538018E-07  0.3563097E+04  0.7818609E-02  0.8098997E-01
        2   -1    0    0  501    0  0.00000000000E+00  0.00000000000E+00  0.20681542265E+04  0.20681542265E+04  0.25500000920E-02 0. -1.
       -2   -1    0    0    0  501  0.00000000000E+00  0.00000000000E+00 -0.15346610569E+04  0.15346610569E+04  0.25500000920E-02 0.  1.
    10030    2    1    2    0    0  0.00000000000E+00  0.00000000000E+00  0.53349316956E+03  0.36028152834E+04  0.35630973891E+04 0.  0.
        1    1    3    3  502    0  0.17193869238E+04 -0.38441664893E+03  0.53398070318E+03  0.18409788008E+04  0.50400001928E-02 0.  1.
       -1    1    3    3    0  502 -0.17193869238E+04  0.38441664893E+03 -0.48753362211E+00  0.17618364826E+04  0.50400001928E-02 0. -1.
</event>
<event>
 5   0  0.1503228E-07  0.3895846E+04  0.7818609E-02  0.8025894E-01
       -2   -1    0    0    0  501  0.00000000000E+00  0.00000000000E+00  0.17041057420E+04  0.17041057420E+04  0.25500000920E-02 0. -1.
        2   -1    0    0  501    0  0.00000000000E+00  0.00000000000E+00 -0.22266252824E+04  0.22266252824E+04  0.25500000920E-02 0.  1.
    10030    2    1    2    0    0  0.00000000000E+00  0.00000000000E+00 -0.52251954039E+03  0.39307310244E+04  0.38958464697E+04 0.  0.
        3    1    3    3  502    0  0.19005338365E+04  0.20913176023E+03  0.11441818246E+03  0.19154259284E+04  0.10100000352E+00 0.  1.
       -3    1    3    3    0  502 -0.19005338365E+04 -0.20913176023E+03 -0.63693772286E+03  0.20153050959E+04  0.10100000352E+00 0. -1.
</event>
<event>
 5   0  0.1546846E-07  0.3792696E+04  0.7818609E-02  0.8047724E-01
        2   -1    0    0  501    0  0.00000000000E+00  0.00000000000E+00  0.23594021912E+04  0.23594021912E+04  0.25500000920E-02 0. -1.
       -2   -1    0    0    0  501  0.00000000000E+00  0.00000000000E+00 -0.15241721567E+04  0.15241721567E+04  0.25500000920E-02 0.  1.
    10030    2    1    2    0    0  0.00000000000E+00  0.00000000000E+00  0.83523003446E+03  0.38835743479E+04  0.37926956779E+04 0.  0.
        2    1    3    3  502    0  0.13997316748E+04  0.96133142418E+03 -0.44684640264E+03  0.17558697492E+04  0.25500000920E-02 0.  1.
       -2    1    3    3    0  502 -0.13997316748E+04 -0.96133142418E+03  0.12820764371E+04  0.21277045987E+04  0.25500000920E-02 0. -1.
</event>
<event>
 5   0  0.1520986E-07  0.3906905E+04  0.7818609E-02  0.8023595E-01
        2   -1    0    0  501    0  0.00000000000E+00  0.00000000000E+00  0.16494570595E+04  0.16494570595E+04  0.25500000920E-02 0. -1.
       -2   -1    0    0    0  501  0.00000000000E+00  0.00000000000E+00 -0.23134745949E+04  0.23134745949E+04  0.25500000920E-02 0.  1.
    10030    2    1    2    0    0  0.00000000000E+00  0.00000000000E+00 -0.66401753541E+03  0.39629316544E+04  0.39069051703E+04 0.  0.
        4    1    3    3  502    0  0.16120843020E+04 -0.10391724936E+04  0.43817853818E+02  0.19184933894E+04  0.12699999809E+01 0.  1.
       -4    1    3    3    0  502 -0.16120843020E+04  0.10391724936E+04 -0.70783538923E+03  0.20444382650E+04  0.12699999809E+01 0. -1.
</event>
<event>
 5   0  0.4750125E-08  0.3881161E+04  0.7818609E-02  0.8028959E-01
        1   -1    0    0  501    0  0.00000000000E+00  0.00000000000E+00  0.23730450795E+04  0.23730450795E+04  0.50400001928E-02 0.  1.
       -1   -1    0    0    0  501  0.00000000000E+00  0.00000000000E+00 -0.15869280694E+04  0.15869280694E+04  0.50400001928E-02 0. -1.
    10030    2    1    2    0    0  0.00000000000E+00  0.00000000000E+00  0.78611701008E+03  0.39599731489E+04  0.38811605721E+04 0.  0.
        4    1    3    3  502    0  0.16469247173E+03 -0.18707764115E+04  0.89178095779E+03  0.20789908325E+04  0.12699999809E+01 0.  1.
       -4    1    3    3    0  502 -0.16469247173E+03  0.18707764115E+04 -0.10566394771E+03  0.18809823164E+04  0.12699999809E+01 0. -1.
</event>
<event>
 5   0  0.1501585E-07  0.3912566E+04  0.7818609E-02  0.8022421E-01
        2   -1    0    0  501    0  0.00000000000E+00  0.00000000000E+00  0.19670461291E+04  0.19670461291E+04  0.25500000920E-02 0. -1.
       -2   -1    0    0    0  501  0.00000000000E+00  0.00000000000E+00 -0.19455792257E+04  0.19455792257E+04  0.25500000920E-02 0.  1.
    10030    2    1    2    0    0  0.00000000000E+00  0.00000000000E+00  0.21466903367E+02  0.39126253548E+04  0.39125664645E+04 0.  0.
        5    1    3    3  502    0 -0.44339737728E+03  0.87474038828E+03 -0.16819969662E+04  0.19470253890E+04  0.46999998093E+01 0.  1.
       -5    1    3    3    0  502  0.44339737728E+03 -0.87474038828E+03  0.17034638695E+04  0.19655999659E+04  0.46999998093E+01 0. -1.
</event>
<event>
 5   0  0.1503228E-07  0.3893548E+04  0.7818609E-02  0.8026372E-01
       -2   -1    0    0    0  501  0.00000000000E+00  0.00000000000E+00  0.18784063507E+04  0.18784063507E+04  0.25500000920E-02 0. -1.
        2   -1    0    0  501    0  0.00000000000E+00  0.00000000000E+00 -0.20176299599E+04  0.20176299599E+04  0.25500000920E-02 0.  1.
    10030    2    1    2    0    0  0.00000000000E+00  0.00000000000E+00 -0.13922360925E+03  0.38960363106E+04  0.38935479604E+04 0.  0.
        3    1    3    3  502    0 -0.96140767919E+02  0.62321996978E+03  0.17733803589E+04  0.18821594208E+04  0.10100000352E+00 0. -1.
       -3    1    3    3    0  502  0.96140767919E+02 -0.62321996978E+03 -0.19126039681E+04  0.20138768897E+04  0.10100000352E+00 0.  1.
</event>
<event>
 5   0  0.4750125E-08  0.3888484E+04  0.7818609E-02  0.8027429E-01
       -1   -1    0    0    0  501  0.00000000000E+00  0.00000000000E+00  0.25918762663E+04  0.25918762663E+04  0.50400001928E-02 0.  1.
        1   -1    0    0  501    0  0.00000000000E+00  0.00000000000E+00 -0.14584329041E+04  0.14584329041E+04  0.50400001928E-02 0. -1.
    10030    2    1    2    0    0  0.00000000000E+00  0.00000000000E+00  0.11334433623E+04  0.40503091704E+04  0.38884843475E+04 0.  0.
        4    1    3    3  502    0 -0.59729894035E+03  0.28792790612E+03  0.24704612913E+04  0.25578993545E+04  0.12699999809E+01 0.  1.
       -4    1    3    3    0  502  0.59729894035E+03 -0.28792790612E+03 -0.13370179290E+04  0.14924098159E+04  0.12699999809E+01 0. -1.
</event>
<event>
 5   0  0.4750125E-08  0.3908957E+04  0.7818609E-02  0.8023169E-01
        1   -1    0    0  501    0  0.00000000000E+00  0.00000000000E+00  0.17881149664E+04  0.17881149664E+04  0.50400001928E-02 0. -1.
       -1   -1    0    0    0  501  0.00000000000E+00  0.00000000000E+00 -0.21363199966E+04  0.21363199966E+04  0.50400001928E-02 0.  1.
    10030    2    1    2    0    0  0.00000000000E+00  0.00000000000E+00 -0.34820503014E+03  0.39244349630E+04  0.39089567708E+04 0.  0.
        3    1    3    3  502    0  0.10712925466E+04  0.13290695419E+03  0.14616598504E+04  0.18170804900E+04  0.10100000352E+00 0. -1.
       -3    1    3    3    0  502 -0.10712925466E+04 -0.13290695419E+03 -0.18098648805E+04  0.21073544730E+04  0.10100000352E+00 0.  1.
</event>
<event>
 5   0  0.1520986E-07  0.3911561E+04  0.7818609E-02  0.8022629E-01
       -2   -1    0    0    0  501  0.00000000000E+00  0.00000000000E+00  0.16776779951E+04  0.16776779951E+04  0.25500000920E-02 0.  1.
        2   -1    0    0  501    0  0.00000000000E+00  0.00000000000E+00 -0.22799833287E+04  0.22799833287E+04  0.25500000920E-02 0. -1.
    10030    2    1    2    0    0  0.00000000000E+00  0.00000000000E+00 -0.60230533363E+03  0.39576613238E+04  0.39115612534E+04 0.  0.
        4    1    3    3  502    0 -0.12524503476E+04 -0.14924726203E+04 -0.12894137488E+03  0.19526223102E+04  0.12699999809E+01 0.  1.
       -4    1    3    3    0  502  0.12524503476E+04  0.14924726203E+04 -0.47336395876E+03  0.20050390135E+04  0.12699999809E+01 0. -1.
</event>
<event>
 5   0  0.1503228E-07  0.3883646E+04  0.7818609E-02  0.8028439E-01
        2   -1    0    0  501    0  0.00000000000E+00  0.00000000000E+00  0.29231330341E+04  0.29231330341E+04  0.25500000920E-02 0. -1.
       -2   -1    0    0    0  501  0.00000000000E+00  0.00000000000E+00 -0.12899434396E+04  0.12899434396E+04  0.25500000920E-02 0.  1.
    10030    2    1    2    0    0  0.00000000000E+00  0.00000000000E+00  0.16331895945E+04  0.42130764738E+04  0.38836458544E+04 0.  0.
        3    1    3    3  502    0 -0.10036137575E+04  0.13075403094E+04 -0.29701609183E+03  0.16748494869E+04  0.10100000352E+00 0.  1.
       -3    1    3    3    0  502  0.10036137575E+04 -0.13075403094E+04  0.19302056863E+04  0.25382269868E+04  0.10100000352E+00 0. -1.
</event>
<event>
 5   0  0.1546846E-07  0.3891511E+04  0.7818609E-02  0.8026797E-01
       -2   -1    0    0    0  501  0.00000000000E+00  0.00000000000E+00  0.19273136120E+04  0.19273136120E+04  0.25500000920E-02 0. -1.
        2   -1    0    0  501    0  0.00000000000E+00  0.00000000000E+00 -0.19643739923E+04  0.19643739923E+04  0.25500000920E-02 0.  1.
    10030    2    1    2    0    0  0.00000000000E+00  0.00000000000E+00 -0.37060380309E+02  0.38916876044E+04  0.38915111381E+04 0.  0.
        2    1    3    3  502    0 -0.96507875253E+03  0.16456614998E+04 -0.40115172723E+03  0.19494874913E+04  0.25500000920E-02 0.  1.
       -2    1    3    3    0  502  0.96507875253E+03 -0.16456614998E+04  0.36409134693E+03  0.19422001131E+04  0.25500000920E-02 0. -1.
</event>
<event>
 5   0  0.1546846E-07  0.3896042E+04  0.7818609E-02  0.8025853E-01
        2   -1    0    0  501    0  0.00000000000E+00  0.00000000000E+00  0.27878972057E+04  0.27878972057E+04  0.25500000920E-02 0.  1.
       -2   -1    0    0    0  501  0.00000000000E+00  0.00000000000E+00 -0.13611642321E+04  0.13611642321E+04  0.25500000920E-02 0. -1.
    10030    2    1    2    0    0  0.00000000000E+00  0.00000000000E+00  0.14267329736E+04  0.41490614378E+04  0.38960420733E+04 0.  0.
        2    1    3    3  502    0 -0.99691677234E+03  0.38696665352E+02  0.24951799424E+04  0.26872408578E+04  0.25500000920E-02 0.  1.
       -2    1    3    3    0  502  0.99691677234E+03 -0.38696665352E+02 -0.10684469689E+04  0.14618205800E+04  0.25500000920E-02 0. -1.
</event>
<event>
 5   0  0.1520986E-07  0.3882910E+04  0.7818609E-02  0.8028593E-01
       -2   -1    0    0    0  501  0.00000000000E+00  0.00000000000E+00  0.12379384391E+04  0.12379384391E+04  0.25500000920E-02 0.  1.
        2   -1    0    0  501    0  0.00000000000E+00  0.00000000000E+00 -0.30447779361E+04  0.30447779361E+04  0.25500000920E-02 0. -1.
    10030    2    1    2    0    0  0.00000000000E+00  0.00000000000E+00 -0.18068394970E+04  0.42827163752E+04  0.38829100662E+04 0.  0.
        4    1    3    3  502    0 -0.10714740355E+04 -0.97098275459E+03 -0.23323379811E+04  0.27442059306E+04  0.12699999809E+01 0. -1.
       -4    1    3    3    0  502  0.10714740355E+04  0.97098275459E+03  0.52549848408E+03  0.15385104446E+04  0.12699999809E+01 0.  1.
</event>
<event>
 5   0  0.1501585E-07  0.3941133E+04  0.7818609E-02  0.8016528E-01
       -2   -1    0    0    0  501  0.00000000000E+00  0.00000000000E+00  0.17183800191E+04  0.17183800191E+04  0.25500000920E-02 0.  1.
        2   -1    0    0  501    0  0.00000000000E+00  0.00000000000E+00 -0.22597628851E+04  0.22597628851E+04  0.25500000920E-02 0. -1.
    10030    2    1    2    0    0  0.00000000000E+00  0.00000000000E+00 -0.54138286602E+03  0.39781429041E+04  0.39411325223E+04 0.  0.
        5    1    3    3  502    0  0.60457358341E+03  0.77600129093E+03 -0.19941865633E+04  0.22236207771E+04  0.46999998093E+01 0. -1.
       -5    1    3    3    0  502 -0.60457358341E+03 -0.77600129093E+03  0.14528036973E+04  0.17545221270E+04  0.46999998093E+01 0.  1.
</event>
<event>
 5   0  0.1501585E-07  0.3911371E+04  0.7818609E-02  0.8022668E-01
       -2   -1    0    0    0  501  0.00000000000E+00  0.00000000000E+00  0.20712635260E+04  0.20712635260E+04  0.25500000920E-02 0. -1.
        2   -1    0    0  501    0  0.00000000000E+00  0.00000000000E+00 -0.18465571497E+04  0.18465571497E+04  0.25500000920E-02 0.  1.
    10030    2    1    2    0    0  0.00000000000E+00  0.00000000000E+00  0.22470637622E+03  0.39178206757E+04  0.39113713569E+04 0.  0.
        5    1    3    3  502    0  0.84574956357E+02 -0.18679583833E+03 -0.18357543990E+04  0.18471767409E+04  0.46999998093E+01 0.  1.
       -5    1    3    3    0  502 -0.84574956357E+02  0.18679583833E+03  0.20604607752E+04  0.20706439348E+04  0.46999998093E+01 0. -1.
</event>
<event>
 5   0  0.1503228E-07  0.3877589E+04  0.7818609E-02  0.8029707E-01
        2   -1    0    0  501    0  0.00000000000E+00  0.00000000000E+00  0.29259941281E+04  0.29259941281E+04  0.25500000920E-02 0.  1.
       -2   -1    0    0    0  501  0.00000000000E+00  0.00000000000E+00 -0.12846654702E+04  0.12846654703E+04  0.25500000920E-02 0. -1.
    10030    2    1    2    0    0  0.00000000000E+00  0.00000000000E+00  0.16413286579E+04  0.42106595984E+04  0.38775887469E+04 0.  0.
        3    1    3    3  502    0  0.10077333365E+04  0.30820154505E+03 -0.94651616718E+03  0.14164771565E+04  0.10100000352E+00 0. -1.
       -3    1    3    3    0  502 -0.10077333365E+04 -0.30820154505E+03  0.25878448250E+04  0.27941824419E+04  0.10100000352E+00 0.  1.
</event>
<event>
 5   0  0.4750125E-08  0.3909248E+04  0.7818609E-02  0.8023108E-01
       -1   -1    0    0    0  501  0.00000000000E+00  0.00000000000E+00  0.12212830646E+04  0.12212830646E+04  0.50400001928E-02 0.  1.
        1   -1    0    0  501    0  0.00000000000E+00  0.00000000000E+00 -0.31283130487E+04  0.31283130487E+04  0.50400001928E-02 0. -1.
    10030    2    1    2    0    0  0.00000000000E+00  0.00000000000E+00 -0.19070299842E+04  0.43495961133E+04  0.39092483918E+04 0.  0.
        1    1    3    3  502    0  0.10614988832E+04 -0.46306593849E+03 -0.27054751186E+04  0.29429246609E+04  0.50400001928E-02 0. -1.
       -1    1    3    3    0  502 -0.10614988832E+04  0.46306593849E+03  0.79844513442E+03  0.14066714524E+04  0.50400001928E-02 0.  1.
</event>
<event>
 5   0  0.4750125E-08  0.3894360E+04  0.7818609E-02  0.8026203E-01
       -1   -1    0    0    0  501  0.00000000000E+00  0.00000000000E+00  0.20731659629E+04  0.20731659629E+04  0.50400001928E-02 0.  1.
        1   -1    0    0  501    0  0.00000000000E+00  0.00000000000E+00 -0.18288497333E+04  0.18288497334E+04  0.50400001928E-02 0. -1.
    10030    2    1    2    0    0  0.00000000000E+00  0.00000000000E+00  0.24431622957E+03  0.39020156963E+04  0.38943595204E+04 0.  0.
        1    1    3    3  502    0 -0.58491826276E+03 -0.12705713624E+03  0.19787002351E+04  0.20672511968E+04  0.50400001928E-02 0.  1.
       -1    1    3    3    0  502  0.58491826276E+03  0.12705713624E+03 -0.17343840056E+04  0.18347644995E+04  0.50400001928E-02 0. -1.
</event>
<event>
 5   0  0.1546846E-07  0.3908503E+04  0.7818609E-02  0.8023263E-01
        2   -1    0    0  501    0  0.00000000000E+00  0.00000000000E+00  0.25303431877E+04  0.25303431877E+04  0.25500000920E-02 0. -1.
       -2   -1    0    0    0  501  0.00000000000E+00  0.00000000000E+00 -0.15093207931E+04  0.15093207931E+04  0.25500000920E-02 0.  1.
    10030    2    1    2    0    0  0.00000000000E+00  0.00000000000E+00  0.10210223946E+04  0.40396639807E+04  0.39085033385E+04 0.  0.
        2    1    3    3  502    0  0.53405200296E+03  0.10182653715E+03 -0.14295842133E+04  0.15294741608E+04  0.25500000920E-02 0.  1.
       -2    1    3    3    0  502 -0.53405200296E+03 -0.10182653715E+03  0.24506066079E+04  0.25101898200E+04  0.25500000920E-02 0. -1.
</event>
<event>
 5   0  0.1520986E-07  0.3893811E+04  0.7818609E-02  0.8026318E-01
        2   -1    0    0  501    0  0.00000000000E+00  0.00000000000E+00  0.31985086675E+04  0.31985086675E+04  0.25500000920E-02 0.  1.
       -2   -1    0    0    0  501  0.00000000000E+00  0.00000000000E+00 -0.11850651365E+04  0.11850651365E+04  0.25500000920E-02 0. -1.
    10030    2    1    2    0    0  0.00000000000E+00  0.00000000000E+00  0.20134435310E+04  0.43835738040E+04  0.38938110435E+04 0.  0.
        4    1    3    3  502    0 -0.11585938712E+04 -0.10652977219E+04  0.22968283293E+04  0.27843528838E+04  0.12699999809E+01 0.  1.
       -4    1    3    3    0  502  0.11585938712E+04  0.10652977219E+04 -0.28338479829E+03  0.15992209201E+04  0.12699999809E+01 0. -1.
</event>
<event>
 5   0  0.4750125E-08  0.3881103E+04  0.7818609E-02  0.8028971E-01
        1   -1    0    0  501    0  0.00000000000E+00  0.00000000000E+00  0.24538715244E+04  0.24538715245E+04  0.50400001928E-02 0.  1.
       -1   -1    0    0    0  501  0.00000000000E+00  0.00000000000E+00 -0.15346115651E+04  0.15346115651E+04  0.50400001928E-02 0. -1.
    10030    2    1    2    0    0  0.00000000000E+00  0.00000000000E+00  0.91925995931E+03  0.39884830896E+04  0.38811027406E+04 0.  0.
        5    1    3    3  502    0 -0.12155622091E+04  0.14361709448E+04  0.94767906410E+03  0.21067264097E+04  0.46999998093E+01 0.  1.
       -5    1    3    3    0  502  0.12155622091E+04 -0.14361709448E+04 -0.28419104790E+02  0.18817566799E+04  0.46999998093E+01 0. -1.
</event>
<event>
 5   0  0.1538018E-07  0.3891452E+04  0.7818609E-02  0.8026809E-01
        2   -1    0    0  501    0  0.00000000000E+00  0.00000000000E+00  0.25214130227E+04  0.25214130227E+04  0.25500000920E-02 0. -1.
       -2   -1    0    0    0  501  0.00000000000E+00  0.00000000000E+00 -0.15014792797E+04  0.15014792797E+04  0.25500000920E-02 0.  1.
    10030    2    1    2    0    0  0.00000000000E+00  0.00000000000E+00  0.10199337430E+04  0.40228923024E+04  0.38914518674E+04 0.  0.
        1    1    3    3  502    0 -0.15775861422E+04  0.41551336091E+03 -0.58623623322E+03  0.17335230919E+04  0.50400001928E-02 0.  1.
       -1    1    3    3    0  502  0.15775861422E+04 -0.41551336091E+03  0.16061699763E+04  0.22893692105E+04  0.50400001928E-02 0. -1.
</event>
<event>
 5   0  0.4750125E-08  0.3816130E+04  0.7818609E-02  0.8042702E-01
        1   -1    0    0  501    0  0.00000000000E+00  0.00000000000E+00  0.19991610003E+04  0.19991610003E+04  0.50400001928E-02 0. -1.
       -1   -1    0    0    0  501  0.00000000000E+00  0.00000000000E+00 -0.18211202956E+04  0.18211202956E+04  0.50400001928E-02 0.  1.
    10030    2    1    2    0    0  0.00000000000E+00  0.00000000000E+00  0.17804070473E+03  0.38202812958E+04  0.38161303289E+04 0.  0.
        5    1    3    3  502    0  0.87972318750E+03 -0.10859138147E+04 -0.12114573136E+04  0.18495330795E+04  0.46999998093E+01 0.  1.
       -5    1    3    3    0  502 -0.87972318750E+03  0.10859138147E+04  0.13894980183E+04  0.19707482164E+04  0.46999998093E+01 0. -1.
</event>
<event>
 5   0  0.4750125E-08  0.3870065E+04  0.7818609E-02  0.8031284E-01
        1   -1    0    0  501    0  0.00000000000E+00  0.00000000000E+00  0.16489733638E+04  0.16489733638E+04  0.50400001928E-02 0. -1.
       -1   -1    0    0    0  501  0.00000000000E+00  0.00000000000E+00 -0.22707163399E+04  0.22707163399E+04  0.50400001928E-02 0.  1.
    10030    2    1    2    0    0  0.00000000000E+00  0.00000000000E+00 -0.62174297614E+03  0.39196897037E+04  0.38700649923E+04 0.  0.
        4    1    3    3  502    0  0.15784577997E+04  0.55963296456E+03 -0.12926468149E+04  0.21155745039E+04  0.12699999809E+01 0.  1.
       -4    1    3    3    0  502 -0.15784577997E+04 -0.55963296456E+03  0.67090383881E+03  0.18041151998E+04  0.12699999809E+01 0. -1.
</event>
<event>
 5   0  0.4750125E-08  0.3896956E+04  0.7818609E-02  0.8025663E-01
        1   -1    0    0  501    0  0.00000000000E+00  0.00000000000E+00  0.13537164494E+04  0.13537164494E+04  0.50400001928E-02 0. -1.
       -1   -1    0    0    0  501  0.00000000000E+00  0.00000000000E+00 -0.28045504681E+04  0.28045504681E+04  0.50400001928E-02 0.  1.
    10030    2    1    2    0    0  0.00000000000E+00  0.00000000000E+00 -0.14508340187E+04  0.41582669176E+04  0.38969557872E+04 0.  0.
        1    1    3    3  502    0 -0.18109370755E+04 -0.71216933503E+03 -0.83152248294E+03  0.21161540334E+04  0.50400001928E-02 0.  1.
       -1    1    3    3    0  502  0.18109370755E+04  0.71216933503E+03 -0.61931153579E+03  0.20421128842E+04  0.50400001928E-02 0. -1.
</event>
<event>
 5   0  0.4750125E-08  0.3880471E+04  0.7818609E-02  0.8029103E-01
        1   -1    0    0  501    0  0.00000000000E+00  0.00000000000E+00  0.17311358412E+04  0.17311358412E+04  0.50400001928E-02 0. -1.
       -1   -1    0    0    0  501  0.00000000000E+00  0.00000000000E+00 -0.21745922311E+04  0.21745922311E+04  0.50400001928E-02 0.  1.
    10030    2    1    2    0    0  0.00000000000E+00  0.00000000000E+00 -0.44345638986E+03  0.39057280724E+04  0.38804713896E+04 0.  0.
        1    1    3    3  502    0 -0.10444294996E+03 -0.11793802693E+04 -0.17688300398E+04  0.21285219894E+04  0.50400001928E-02 0.  1.
       -1    1    3    3    0  502  0.10444294996E+03  0.11793802693E+04  0.13253736499E+04  0.17772060830E+04  0.50400001928E-02 0. -1.
</event>
<event>
 5   0  0.4750125E-08  0.3926633E+04  0.7818609E-02  0.8019513E-01
       -1   -1    0    0    0  501  0.00000000000E+00  0.00000000000E+00  0.17572134058E+04  0.17572134058E+04  0.50400001928E-02 0. -1.
        1   -1    0    0  501    0  0.00000000000E+00  0.00000000000E+00 -0.21935938698E+04  0.21935938698E+04  0.50400001928E-02 0.  1.
    10030    2    1    2    0    0  0.00000000000E+00  0.00000000000E+00 -0.43638046409E+03  0.39508072756E+04  0.39266334460E+04 0.  0.
        1    1    3    3  502    0  0.42092225963E+03 -0.18562187716E+04 -0.70270324218E+03  0.20289197922E+04  0.50400001928E-02 0.  1.
       -1    1    3    3    0  502 -0.42092225963E+03  0.18562187716E+04  0.26632277809E+03  0.19218874834E+04  0.50400001928E-02 0. -1.
</event>
<event>
 5   0  0.4762788E-08  0.3898071E+04  0.7818609E-02  0.8025430E-01
       -1   -1    0    0    0  501  0.00000000000E+00  0.00000000000E+00  0.32933195102E+04  0.32933195102E+04  0.50400001928E-02 0. -1.
        1   -1    0    0  501    0  0.00000000000E+00  0.00000000000E+00 -0.11534684666E+04  0.11534684666E+04  0.50400001928E-02 0.  1.
    10030    2    1    2    0    0  0.00000000000E+00  0.00000000000E+00  0.21398510436E+04  0.44467879768E+04  0.38980714234E+04 0.  0.
        2    1    3    3  502    0  0.18538172938E+04 -0.26055141259E+03  0.45115623857E+03  0.19256343238E+04  0.25500000920E-02 0.  1.
       -2    1    3    3    0  502 -0.18538172938E+04  0.26055141259E+03  0.16886948050E+04  0.25211536530E+04  0.25500000920E-02 0. -1.
</event>
<event>
 5   0  0.4750125E-08  0.3912887E+04  0.7818609E-02  0.8022354E-01
       -1   -1    0    0    0  501  0.00000000000E+00  0.00000000000E+00  0.18010751396E+04  0.18010751396E+04  0.50400001928E-02 0.  1.
        1   -1    0    0  501    0  0.00000000000E+00  0.00000000000E+00 -0.21252145315E+04  0.21252145315E+04  0.50400001928E-02 0. -1.
    10030    2    1    2    0    0  0.00000000000E+00  0.00000000000E+00 -0.32413939194E+03  0.39262896711E+04  0.39128869439E+04 0.  0.
        5    1    3    3  502    0  0.14776637315E+04 -0.10308852699E+03 -0.14445444083E+04  0.20690210210E+04  0.46999998093E+01 0. -1.
       -5    1    3    3    0  502 -0.14776637315E+04  0.10308852699E+03  0.11204050164E+04  0.18572686501E+04  0.46999998093E+01 0.  1.
</event>
<event>
 5   0  0.1503228E-07  0.3921871E+04  0.7818609E-02  0.8020496E-01
        2   -1    0    0  501    0  0.00000000000E+00  0.00000000000E+00  0.21283366487E+04  0.21283366487E+04  0.25500000920E-02 0.  1.
       -2   -1    0    0    0  501  0.00000000000E+00  0.00000000000E+00 -0.18067010218E+04  0.18067010218E+04  0.25500000920E-02 0. -1.
    10030    2    1    2    0    0  0.00000000000E+00  0.00000000000E+00  0.32163562692E+03  0.39350376705E+04  0.39218709811E+04 0.  0.
        3    1    3    3  502    0 -0.24894148834E+03  0.18587195864E+04 -0.41421849063E+03  0.19205174651E+04  0.10100000352E+00 0.  1.
       -3    1    3    3    0  502  0.24894148834E+03 -0.18587195864E+04  0.73585411755E+03  0.20145202054E+04  0.10100000352E+00 0. -1.
</event>
<event>
 5   0  0.4750125E-08  0.3963768E+04  0.7818609E-02  0.8011896E-01
       -1   -1    0    0    0  501  0.00000000000E+00  0.00000000000E+00  0.31195340266E+04  0.31195340266E+04  0.50400001928E-02 0.  1.
        1   -1    0    0  501    0  0.00000000000E+00  0.00000000000E+00 -0.12591190341E+04  0.12591190341E+04  0.50400001928E-02 0. -1.
    10030    2    1    2    0    0  0.00000000000E+00  0.00000000000E+00  0.18604149925E+04  0.43786530607E+04  0.39637682427E+04 0.  0.
        3    1    3    3  502    0 -0.12259077605E+04 -0.83619145816E+03 -0.52099276034E+03  0.15727362966E+04  0.10100000352E+00 0. -1.
       -3    1    3    3    0  502  0.12259077605E+04  0.83619145816E+03  0.23814077528E+04  0.28059167642E+04  0.10100000352E+00 0.  1.
</event>
<event>
 5   0  0.4762788E-08  0.3882388E+04  0.7818609E-02  0.8028702E-01
        1   -1    0    0  501    0  0.00000000000E+00  0.00000000000E+00  0.15256647761E+04  0.15256647761E+04  0.50400001928E-02 0.  1.
       -1   -1    0    0    0  501  0.00000000000E+00  0.00000000000E+00 -0.24698969556E+04  0.24698969556E+04  0.50400001928E-02 0. -1.
    10030    2    1    2    0    0  0.00000000000E+00  0.00000000000E+00 -0.94423217951E+03  0.39955617318E+04  0.38823883298E+04 0.  0.
        2    1    3    3  502    0 -0.54014321965E+03 -0.17931496769E+04  0.53752931757E+02  0.18735073630E+04  0.25500000920E-02 0.  1.
       -2    1    3    3    0  502  0.54014321965E+03  0.17931496769E+04 -0.99798511127E+03  0.21220543688E+04  0.25500000920E-02 0. -1.
</event>
<event>
 5   0  0.1501585E-07  0.3896552E+04  0.7818609E-02  0.8025747E-01
       -2   -1    0    0    0  501  0.00000000000E+00  0.00000000000E+00  0.26435983497E+04  0.26435983497E+04  0.25500000920E-02 0. -1.
        2   -1    0    0  501    0  0.00000000000E+00  0.00000000000E+00 -0.14358382076E+04  0.14358382076E+04  0.25500000920E-02 0.  1.
    10030    2    1    2    0    0  0.00000000000E+00  0.00000000000E+00  0.12077601421E+04  0.40794365574E+04  0.38965520739E+04 0.  0.
        5    1    3    3  502    0  0.17867247386E+04 -0.44424427215E+02  0.14157770156E+04  0.22800889170E+04  0.46999998093E+01 0. -1.
       -5    1    3    3    0  502 -0.17867247386E+04  0.44424427215E+02 -0.20801687352E+03  0.17993476404E+04  0.46999998093E+01 0.  1.
</event>
<event>
 5   0  0.1503228E-07  0.3921012E+04  0.7818609E-02  0.8020673E-01
       -2   -1    0    0    0  501  0.00000000000E+00  0.00000000000E+00  0.15384441165E+04  0.15384441165E+04  0.25500000920E-02 0.  1.
        2   -1    0    0  501    0  0.00000000000E+00  0.00000000000E+00 -0.24983583587E+04  0.24983583587E+04  0.25500000920E-02 0. -1.
    10030    2    1    2    0    0  0.00000000000E+00  0.00000000000E+00 -0.95991424223E+03  0.40368024752E+04  0.39210124804E+04 0.  0.
        3    1    3    3  502    0 -0.20692258485E+03  0.19477800365E+04 -0.56560442270E+03  0.20387673727E+04  0.10100000352E+00 0.  1.
       -3    1    3    3    0  502  0.20692258485E+03 -0.19477800365E+04 -0.39430981953E+03  0.19980351025E+04  0.10100000352E+00 0. -1.
</event>
<event>
 5   0  0.4750125E-08  0.3859120E+04  0.7818609E-02  0.8033586E-01
        1   -1    0    0  501    0  0.00000000000E+00  0.00000000000E+00  0.26330965850E+04  0.26330965850E+04  0.50400001928E-02 0. -1.
       -1   -1    0    0    0  501  0.00000000000E+00  0.00000000000E+00 -0.14140013127E+04  0.14140013127E+04  0.50400001928E-02 0.  1.
    10030    2    1    2    0    0  0.00000000000E+00  0.00000000000E+00  0.12190952722E+04  0.40470978977E+04  0.38591201213E+04 0.  0.
        1    1    3    3  502    0 -0.30011883834E+03 -0.13270076445E+04  0.20444732194E+04  0.24557873179E+04  0.50400001928E-02 0. -1.
       -1    1    3    3    0  502  0.30011883834E+03  0.13270076445E+04 -0.82537794721E+03  0.15913105798E+04  0.50400001928E-02 0.  1.
</event>
<event>
 5   0  0.1520986E-07  0.3908651E+04  0.7818609E-02  0.8023232E-01
        2   -1    0    0  501    0  0.00000000000E+00  0.00000000000E+00  0.18596546267E+04  0.18596546267E+04  0.25500000920E-02 0. -1.
       -2   -1    0    0    0  501  0.00000000000E+00  0.00000000000E+00 -0.20538155134E+04  0.20538155134E+04  0.25500000920E-02 0.  1.
    10030    2    1    2    0    0  0.00000000000E+00  0.00000000000E+00 -0.19416088677E+03  0.39134701401E+04  0.39086506735E+04 0.  0.
        4    1    3    3  502    0 -0.16465488168E+03 -0.75524243760E+03 -0.18942542714E+04  0.20458991244E+04  0.12699999809E+01 0.  1.
       -4    1    3    3    0  502  0.16465488168E+03  0.75524243760E+03  0.17000933846E+04  0.18675710158E+04  0.12699999809E+01 0. -1.
</event>
<event>
 5   0  0.1538018E-07  0.3727504E+04  0.7818609E-02  0.8061894E-01
        2   -1    0    0  501    0  0.00000000000E+00  0.00000000000E+00  0.24155854312E+04  0.24155854312E+04  0.25500000920E-02 0. -1.
       -2   -1    0    0    0  501  0.00000000000E+00  0.00000000000E+00 -0.14379831095E+04  0.14379831095E+04  0.25500000920E-02 0.  1.
    10030    2    1    2    0    0  0.00000000000E+00  0.00000000000E+00  0.97760232167E+03  0.38535685407E+04  0.37275037490E+04 0.  0.
        1    1    3    3  502    0 -0.95046474632E+03  0.17456135786E+03  0.21363473127E+04  0.23447462000E+04  0.50400001928E-02 0. -1.
       -1    1    3    3    0  502  0.95046474632E+03 -0.17456135786E+03 -0.11587449911E+04  0.15088223408E+04  0.50400001928E-02 0.  1.
</event>
<event>
 5   0  0.1503228E-07  0.3939124E+04  0.7818609E-02  0.8016941E-01
        2   -1    0    0  501    0  0.00000000000E+00  0.00000000000E+00  0.16317306929E+04  0.16317306929E+04  0.25500000920E-02 0. -1.
       -2   -1    0    0    0  501  0.00000000000E+00  0.00000000000E+00 -0.23773374153E+04  0.23773374153E+04  0.25500000920E-02 0.  1.
    10030    2    1    2    0    0  0.00000000000E+00  0.00000000000E+00 -0.74560672245E+03  0.40090681082E+04  0.39391239777E+04 0.  0.
        3    1    3    3  502    0 -0.14894503264E+04 -0.12408246477E+04 -0.18679260409E+02  0.19386740330E+04  0.10100000352E+00 0. -1.
       -3    1    3    3    0  502  0.14894503264E+04  0.12408246477E+04 -0.72692746204E+03  0.20703940752E+04  0.10100000352E+00 0.  1.
</event>
<event>
 5   0  0.4750125E-08  0.3848439E+04  0.7818609E-02  0.8035839E-01
       -3   -1    0    0    0  501  0.00000000000E+00  0.00000000000E+00  0.28452764328E+04  0.28452764346E+04  0.10100000352E+00 0. -1.
        3   -1    0    0  501    0  0.00000000000E+00  0.00000000000E+00 -0.13013222195E+04  0.13013222234E+04  0.10100000352E+00 0.  1.
    10030    2    1    2    0    0  0.00000000000E+00  0.00000000000E+00  0.15439542133E+04  0.41465986580E+04  0.38484394003E+04 0.  0.
        4    1    3    3  502    0 -0.54459166970E+03 -0.15706918765E+04  0.18160539537E+04  0.24620533368E+04  0.12699999809E+01 0. -1.
       -4    1    3    3    0  502  0.54459166970E+03  0.15706918765E+04 -0.27209974034E+03  0.16845453212E+04  0.12699999809E+01 0.  1.
</event>
<event>
 5   0  0.4762788E-08  0.3891164E+04  0.7818609E-02  0.8026869E-01
        1   -1    0    0  501    0  0.00000000000E+00  0.00000000000E+00  0.16940251507E+04  0.16940251507E+04  0.50400001928E-02 0. -1.
       -1   -1    0    0    0  501  0.00000000000E+00  0.00000000000E+00 -0.22344944706E+04  0.22344944706E+04  0.50400001928E-02 0.  1.
    10030    2    1    2    0    0  0.00000000000E+00  0.00000000000E+00 -0.54046931994E+03  0.39285196214E+04  0.38911642640E+04 0.  0.
        2    1    3    3  502    0  0.92572811282E+03  0.10054149574E+04  0.11277818436E+04  0.17719265397E+04  0.25500000920E-02 0. -1.
       -2    1    3    3    0  502 -0.92572811282E+03 -0.10054149574E+04 -0.16682511635E+04  0.21565930817E+04  0.25500000920E-02 0.  1.
</event>
<event>
 5   0  0.4750125E-08  0.3937141E+04  0.7818609E-02  0.8017349E-01
        1   -1    0    0  501    0  0.00000000000E+00  0.00000000000E+00  0.24211599005E+04  0.24211599005E+04  0.50400001928E-02 0. -1.
       -1   -1    0    0    0  501  0.00000000000E+00  0.00000000000E+00 -0.16005836942E+04  0.16005836942E+04  0.50400001928E-02 0.  1.
    10030    2    1    2    0    0  0.00000000000E+00  0.00000000000E+00  0.82057620630E+03  0.40217435947E+04  0.39371406161E+04 0.  0.
        3    1    3    3  502    0 -0.11091071280E+04  0.15840341298E+04  0.78697545185E+03  0.20877291773E+04  0.10100000352E+00 0.  1.
       -3    1    3    3    0  502  0.11091071280E+04 -0.15840341298E+04  0.33600754456E+02  0.19340144174E+04  0.10100000352E+00 0. -1.
</event>
<event>
 5   0  0.1546846E-07  0.3729754E+04  0.7818609E-02  0.8061400E-01
       -2   -1    0    0    0  501  0.00000000000E+00  0.00000000000E+00  0.15200947767E+04  0.15200947767E+04  0.25500000920E-02 0. -1.
        2   -1    0    0  501    0  0.00000000000E+00  0.00000000000E+00 -0.22878618567E+04  0.22878618567E+04  0.25500000920E-02 0.  1.
    10030    2    1    2    0    0  0.00000000000E+00  0.00000000000E+00 -0.76776707994E+03  0.38079566334E+04  0.37297543395E+04 0.  0.
        2    1    3    3  502    0 -0.15835333930E+04  0.98394205658E+03 -0.43007461288E+03  0.19132914441E+04  0.25500000920E-02 0.  1.
       -2    1    3    3    0  502  0.15835333930E+04 -0.98394205658E+03 -0.33769246706E+03  0.18946651893E+04  0.25500000920E-02 0. -1.
</event>
<event>
 5   0  0.1520986E-07  0.3588170E+04  0.7818609E-02  0.8093207E-01
       -2   -1    0    0    0  501  0.00000000000E+00  0.00000000000E+00  0.99771131151E+03  0.99771131151E+03  0.25500000920E-02 0. -1.
        2   -1    0    0  501    0  0.00000000000E+00  0.00000000000E+00 -0.32261239021E+04  0.32261239021E+04  0.25500000920E-02 0.  1.
    10030    2    1    2    0    0  0.00000000000E+00  0.00000000000E+00 -0.22284125906E+04  0.42238352136E+04  0.35881696222E+04 0.  0.
        4    1    3    3  502    0  0.12258669005E+04  0.30578877085E+03 -0.26136286479E+04  0.29029834226E+04  0.12699999809E+01 0.  1.
       -4    1    3    3    0  502 -0.12258669005E+04 -0.30578877085E+03  0.38521605724E+03  0.13208517910E+04  0.12699999809E+01 0. -1.
</event>
<event>
 5   0  0.4762788E-08  0.3870196E+04  0.7818609E-02  0.8031257E-01
        1   -1    0    0  501    0  0.00000000000E+00  0.00000000000E+00  0.19628304005E+04  0.19628304005E+04  0.50400001928E-02 0.  1.
       -1   -1    0    0    0  501  0.00000000000E+00  0.00000000000E+00 -0.19077570471E+04  0.19077570471E+04  0.50400001928E-02 0. -1.
    10030    2    1    2    0    0  0.00000000000E+00  0.00000000000E+00  0.55073353409E+02  0.38705874476E+04  0.38701956172E+04 0.  0.
        2    1    3    3  502    0  0.82103188586E+03 -0.17520188953E+04  0.58198574924E+02  0.19357300022E+04  0.25500000920E-02 0.  1.
       -2    1    3    3    0  502 -0.82103188586E+03  0.17520188953E+04 -0.31252215152E+01  0.19348574455E+04  0.25500000920E-02 0. -1.
</event>
<event>
 5   0  0.4750125E-08  0.3875635E+04  0.7818609E-02  0.8030116E-01
        1   -1    0    0  501    0  0.00000000000E+00  0.00000000000E+00  0.15944761960E+04  0.15944761960E+04  0.50400001928E-02 0.  1.
       -1   -1    0    0    0  501  0.00000000000E+00  0.00000000000E+00 -0.23550916285E+04  0.23550916285E+04  0.50400001928E-02 0. -1.
    10030    2    1    2    0    0  0.00000000000E+00  0.00000000000E+00 -0.76061543248E+03  0.39495678245E+04  0.38756354530E+04 0.  0.
        5    1    3    3  502    0 -0.16988491995E+04 -0.81575374874E+03 -0.84010499056E+03  0.20633325632E+04  0.46999998093E+01 0. -1.
       -5    1    3    3    0  502  0.16988491995E+04  0.81575374874E+03  0.79489558074E+02  0.18862352613E+04  0.46999998093E+01 0.  1.
</event>
<event>
 5   0  0.4762788E-08  0.3894344E+04  0.7818609E-02  0.8026206E-01
        1   -1    0    0  501    0  0.00000000000E+00  0.00000000000E+00  0.15386002465E+04  0.15386002465E+04  0.50400001928E-02 0.  1.
       -1   -1    0    0    0  501  0.00000000000E+00  0.00000000000E+00 -0.24642395319E+04  0.24642395319E+04  0.50400001928E-02 0. -1.
    10030    2    1    2    0    0  0.00000000000E+00  0.00000000000E+00 -0.92563928540E+03  0.40028397785E+04  0.38943443871E+04 0.  0.
        2    1    3    3  502    0  0.25219236373E+03  0.19224667208E+04 -0.27894972756E+03  0.19589007712E+04  0.25500000920E-02 0.  1.
       -2    1    3    3    0  502 -0.25219236373E+03 -0.19224667208E+04 -0.64668955783E+03  0.20439390072E+04  0.25500000920E-02 0. -1.
</event>
<event>
 5   0  0.1546846E-07  0.3902177E+04  0.7818609E-02  0.8024577E-01
        2   -1    0    0  501    0  0.00000000000E+00  0.00000000000E+00  0.25725168783E+04  0.25725168783E+04  0.25500000920E-02 0.  1.
       -2   -1    0    0    0  501  0.00000000000E+00  0.00000000000E+00 -0.14797747020E+04  0.14797747020E+04  0.25500000920E-02 0. -1.
    10030    2    1    2    0    0  0.00000000000E+00  0.00000000000E+00  0.10927421763E+04  0.40522915802E+04  0.39021765193E+04 0.  0.
        2    1    3    3  502    0 -0.10902621190E+04 -0.95008933125E+03  0.19064903994E+04  0.23929159760E+04  0.25500000920E-02 0.  1.
       -2    1    3    3    0  502  0.10902621190E+04  0.95008933125E+03 -0.81374822305E+03  0.16593756042E+04  0.25500000920E-02 0. -1.
</event>
<event>
 5   0  0.1503228E-07  0.3829623E+04  0.7818609E-02  0.8039828E-01
       -2   -1    0    0    0  501  0.00000000000E+00  0.00000000000E+00  0.13673978534E+04  0.13673978534E+04  0.25500000920E-02 0. -1.
        2   -1    0    0  501    0  0.00000000000E+00  0.00000000000E+00 -0.26813725707E+04  0.26813725707E+04  0.25500000920E-02 0.  1.
    10030    2    1    2    0    0  0.00000000000E+00  0.00000000000E+00 -0.13139747172E+04  0.40487704241E+04  0.38296230088E+04 0.  0.
        3    1    3    3  502    0 -0.16462085207E+04  0.85863653464E+03 -0.16195808399E+03  0.18637300296E+04  0.10100000352E+00 0. -1.
       -3    1    3    3    0  502  0.16462085207E+04 -0.85863653464E+03 -0.11520166332E+04  0.21850403945E+04  0.10100000352E+00 0.  1.
</event>
<event>
 5   0  0.1546846E-07  0.3898802E+04  0.7818609E-02  0.8025278E-01
       -2   -1    0    0    0  501  0.00000000000E+00  0.00000000000E+00  0.19741827097E+04  0.19741827097E+04  0.25500000920E-02 0.  1.
        2   -1    0    0  501    0  0.00000000000E+00  0.00000000000E+00 -0.19249305968E+04  0.19249305968E+04  0.25500000920E-02 0. -1.
    10030    2    1    2    0    0  0.00000000000E+00  0.00000000000E+00  0.49252112923E+02  0.38991133065E+04  0.38988022271E+04 0.  0.
        2    1    3    3  502    0  0.93294155364E+03 -0.10411852130E+04  0.13833065402E+04  0.19667189872E+04  0.25500000920E-02 0.  1.
       -2    1    3    3    0  502 -0.93294155364E+03  0.10411852130E+04 -0.13340544273E+04  0.19323943193E+04  0.25500000920E-02 0. -1.
</event>
<event>
 5   0  0.4750125E-08  0.3903606E+04  0.7818609E-02  0.8024280E-01
       -1   -1    0    0    0  501  0.00000000000E+00  0.00000000000E+00  0.15631122689E+04  0.15631122689E+04  0.50400001928E-02 0. -1.
        1   -1    0    0  501    0  0.00000000000E+00  0.00000000000E+00 -0.24371469799E+04  0.24371469799E+04  0.50400001928E-02 0.  1.
    10030    2    1    2    0    0  0.00000000000E+00  0.00000000000E+00 -0.87403471099E+03  0.40002592487E+04  0.39036056898E+04 0.  0.
        3    1    3    3  502    0 -0.13593604532E+04 -0.79428905069E+02  0.99594922998E+03  0.16870342829E+04  0.10100000352E+00 0. -1.
       -3    1    3    3    0  502  0.13593604532E+04  0.79428905069E+02 -0.18699839410E+04  0.23132249658E+04  0.10100000352E+00 0.  1.
</event>
<event>
 5   0  0.4750125E-08  0.3908406E+04  0.7818609E-02  0.8023283E-01
       -1   -1    0    0    0  501  0.00000000000E+00  0.00000000000E+00  0.17569649844E+04  0.17569649844E+04  0.50400001928E-02 0. -1.
        1   -1    0    0  501    0  0.00000000000E+00  0.00000000000E+00 -0.21735831576E+04  0.21735831576E+04  0.50400001928E-02 0.  1.
    10030    2    1    2    0    0  0.00000000000E+00  0.00000000000E+00 -0.41661817320E+03  0.39305481420E+04  0.39084060683E+04 0.  0.
        5    1    3    3  502    0 -0.11726035687E+04 -0.17957441287E+03  0.13534347412E+04  0.17997371441E+04  0.46999998093E+01 0. -1.
       -5    1    3    3    0  502  0.11726035687E+04  0.17957441287E+03 -0.17700529144E+04  0.21308109979E+04  0.46999998093E+01 0.  1.
</event>
<event>
 5   0  0.1501585E-07  0.3885070E+04  0.7818609E-02  0.8028141E-01
        2   -1    0    0  501    0  0.00000000000E+00  0.00000000000E+00  0.20253652339E+04  0.20253652339E+04  0.25500000920E-02 0. -1.
       -2   -1    0    0    0  501  0.00000000000E+00  0.00000000000E+00 -0.18630926053E+04  0.18630926053E+04  0.25500000920E-02 0.  1.
    10030    2    1    2    0    0  0.00000000000E+00  0.00000000000E+00  0.16227262863E+03  0.38884578392E+04  0.38850703933E+04 0.  0.
        5    1    3    3  502    0 -0.86365011372E+03  0.47015702356E+03 -0.15955800921E+04  0.18742564035E+04  0.46999998093E+01 0.  1.
       -5    1    3    3    0  502  0.86365011372E+03 -0.47015702356E+03  0.17578527207E+04  0.20142014357E+04  0.46999998093E+01 0. -1.
</event>
<event>
 5   0  0.4750125E-08  0.3919936E+04  0.7818609E-02  0.8020896E-01
        1   -1    0    0  501    0  0.00000000000E+00  0.00000000000E+00  0.23263213623E+04  0.23263213623E+04  0.50400001928E-02 0.  1.
       -1   -1    0    0    0  501  0.00000000000E+00  0.00000000000E+00 -0.16513086925E+04  0.16513086925E+04  0.50400001928E-02 0. -1.
    10030    2    1    2    0    0  0.00000000000E+00  0.00000000000E+00  0.67501266977E+03  0.39776300548E+04  0.39199360643E+04 0.  0.
        5    1    3    3  502    0  0.15042793146E+04 -0.42866048550E+03 -0.86091247776E+03  0.17854406886E+04  0.46999998093E+01 0. -1.
       -5    1    3    3    0  502 -0.15042793146E+04  0.42866048550E+03  0.15359251475E+04  0.21921893662E+04  0.46999998093E+01 0.  1.
</event>
<event>
 5   0  0.4762788E-08  0.3894126E+04  0.7818609E-02  0.8026252E-01
        1   -1    0    0  501    0  0.00000000000E+00  0.00000000000E+00  0.21108187499E+04  0.21108187499E+04  0.50400001928E-02 0. -1.
       -1   -1    0    0    0  501  0.00000000000E+00  0.00000000000E+00 -0.17960116958E+04  0.17960116958E+04  0.50400001928E-02 0.  1.
    10030    2    1    2    0    0  0.00000000000E+00  0.00000000000E+00  0.31480705412E+03  0.39068304457E+04  0.38941264297E+04 0.  0.
        2    1    3    3  502    0  0.15629366805E+04  0.61450627846E+03 -0.83103451926E+03  0.18737682369E+04  0.25500000920E-02 0.  1.
       -2    1    3    3    0  502 -0.15629366805E+04 -0.61450627846E+03  0.11458415734E+04  0.20330622088E+04  0.25500000920E-02 0. -1.
</event>
<event>
 5   0  0.1501585E-07  0.3974107E+04  0.7818609E-02  0.8009790E-01
       -2   -1    0    0    0  501  0.00000000000E+00  0.00000000000E+00  0.16250722086E+04  0.16250722086E+04  0.25500000920E-02 0.  1.
        2   -1    0    0  501    0  0.00000000000E+00  0.00000000000E+00 -0.24296650225E+04  0.24296650225E+04  0.25500000920E-02 0. -1.
    10030    2    1    2    0    0  0.00000000000E+00  0.00000000000E+00 -0.80459281391E+03  0.40547372311E+04  0.39741067446E+04 0.  0.
        5    1    3    3  502    0  0.51633993584E+03  0.14932302139E+04 -0.16317406279E+04  0.22713306602E+04  0.46999998093E+01 0. -1.
       -5    1    3    3    0  502 -0.51633993584E+03 -0.14932302139E+04  0.82714781396E+03  0.17834065709E+04  0.46999998093E+01 0.  1.
</event>
<event>
 5   0  0.4750125E-08  0.3865059E+04  0.7818609E-02  0.8032336E-01
       -1   -1    0    0    0  501  0.00000000000E+00  0.00000000000E+00  0.23556010318E+04  0.23556010318E+04  0.50400001928E-02 0. -1.
        1   -1    0    0  501    0  0.00000000000E+00  0.00000000000E+00 -0.15854424323E+04  0.15854424323E+04  0.50400001928E-02 0.  1.
    10030    2    1    2    0    0  0.00000000000E+00  0.00000000000E+00  0.77015859952E+03  0.39410434641E+04  0.38650587728E+04 0.  0.
        1    1    3    3  502    0  0.15122197110E+04  0.83978406217E+02 -0.83885562906E+03  0.17313404037E+04  0.50400001928E-02 0.  1.
       -1    1    3    3    0  502 -0.15122197110E+04 -0.83978406217E+02  0.16090142286E+04  0.22097030603E+04  0.50400001928E-02 0. -1.
</event>
<event>
 5   0  0.1503228E-07  0.3940185E+04  0.7818609E-02  0.8016723E-01
       -2   -1    0    0    0  501  0.00000000000E+00  0.00000000000E+00  0.16204947321E+04  0.16204947321E+04  0.25500000920E-02 0. -1.
        2   -1    0    0  501    0  0.00000000000E+00  0.00000000000E+00 -0.23951104604E+04  0.23951104604E+04  0.25500000920E-02 0.  1.
    10030    2    1    2    0    0  0.00000000000E+00  0.00000000000E+00 -0.77461572833E+03  0.40156051924E+04  0.39401847082E+04 0.  0.
        3    1    3    3  502    0 -0.82215279785E+03  0.17643028140E+04 -0.69737520517E+03  0.20676150100E+04  0.10100000352E+00 0.  1.
       -3    1    3    3    0  502  0.82215279785E+03 -0.17643028140E+04 -0.77240523162E+02  0.19479901825E+04  0.10100000352E+00 0. -1.
</event>
<event>
 5   0  0.1538018E-07  0.3897151E+04  0.7818609E-02  0.8025622E-01
        2   -1    0    0  501    0  0.00000000000E+00  0.00000000000E+00  0.28755899479E+04  0.28755899479E+04  0.25500000920E-02 0. -1.
       -2   -1    0    0    0  501  0.00000000000E+00  0.00000000000E+00 -0.13204061786E+04  0.13204061786E+04  0.25500000920E-02 0.  1.
    10030    2    1    2    0    0  0.00000000000E+00  0.00000000000E+00  0.15551837694E+04  0.41959961265E+04  0.38971511309E+04 0.  0.
        1    1    3    3  502    0 -0.37309206097E+03 -0.17557925982E+03 -0.12728944389E+04  0.13380157006E+04  0.50400001928E-02 0.  1.
       -1    1    3    3    0  502  0.37309206097E+03  0.17557925982E+03  0.28280782083E+04  0.28579804259E+04  0.50400001928E-02 0. -1.
</event>
<event>
 5   0  0.1503228E-07  0.3899690E+04  0.7818609E-02  0.8025094E-01
        2   -1    0    0  501    0  0.00000000000E+00  0.00000000000E+00  0.12451387364E+04  0.12451387364E+04  0.25500000920E-02 0.  1.
       -2   -1    0    0    0  501  0.00000000000E+00  0.00000000000E+00 -0.30533903170E+04  0.30533903170E+04  0.25500000920E-02 0. -1.
    10030    2    1    2    0    0  0.00000000000E+00  0.00000000000E+00 -0.18082515806E+04  0.42985290534E+04  0.38996895061E+04 0.  0.
        3    1    3    3  502    0  0.14885765557E+04  0.17192336163E+02 -0.22921775615E+04  0.27331728307E+04  0.10100000352E+00 0. -1.
       -3    1    3    3    0  502 -0.14885765557E+04 -0.17192336163E+02  0.48392598089E+03  0.15653562227E+04  0.10100000352E+00 0.  1.
</event>
<event>
 5   0  0.4762788E-08  0.3846957E+04  0.7818609E-02  0.8036152E-01
        1   -1    0    0  501    0  0.00000000000E+00  0.00000000000E+00  0.12336570708E+04  0.12336570708E+04  0.50400001928E-02 0. -1.
       -1   -1    0    0    0  501  0.00000000000E+00  0.00000000000E+00 -0.29990262822E+04  0.29990262822E+04  0.50400001928E-02 0.  1.
    10030    2    1    2    0    0  0.00000000000E+00  0.00000000000E+00 -0.17653692114E+04  0.42326833530E+04  0.38469572280E+04 0.  0.
        2    1    3    3  502    0 -0.26117337107E+03  0.15588713978E+04  0.32334066703E+03  0.16133321889E+04  0.25500000920E-02 0. -1.
       -2    1    3    3    0  502  0.26117337107E+03 -0.15588713978E+04 -0.20887098784E+04  0.26193511641E+04  0.25500000920E-02 0.  1.
</event>
<event>
 5   0  0.1520986E-07  0.3944011E+04  0.7818609E-02  0.8015938E-01
       -2   -1    0    0    0  501  0.00000000000E+00  0.00000000000E+00  0.19676523032E+04  0.19676523032E+04  0.25500000920E-02 0. -1.
        2   -1    0    0  501    0  0.00000000000E+00  0.00000000000E+00 -0.19763682930E+04  0.19763682931E+04  0.25500000920E-02 0.  1.
    10030    2    1    2    0    0  0.00000000000E+00  0.00000000000E+00 -0.87159898714E+01  0.39440205962E+04  0.39440109654E+04 0.  0.
        4    1    3    3  502    0 -0.89336774737E+03 -0.72788714539E+03  0.15959203837E+04  0.19684738029E+04  0.12699999809E+01 0. -1.
       -4    1    3    3    0  502  0.89336774737E+03  0.72788714539E+03 -0.16046363736E+04  0.19755467934E+04  0.12699999809E+01 0.  1.
</event>
<event>
 5   0  0.4750125E-08  0.3869172E+04  0.7818609E-02  0.8031471E-01
       -1   -1    0    0    0  501  0.00000000000E+00  0.00000000000E+00  0.21387586718E+04  0.21387586718E+04  0.50400001928E-02 0.  1.
        1   -1    0    0  501    0  0.00000000000E+00  0.00000000000E+00 -0.17499047358E+04  0.17499047358E+04  0.50400001928E-02 0. -1.
    10030    2    1    2    0    0  0.00000000000E+00  0.00000000000E+00  0.38885393602E+03  0.38886634075E+04  0.38691724844E+04 0.  0.
        5    1    3    3  502    0 -0.68708750518E+03  0.18081727238E+04  0.22658815935E+03  0.19475477203E+04  0.46999998093E+01 0.  1.
       -5    1    3    3    0  502  0.68708750518E+03 -0.18081727238E+04  0.16226577667E+03  0.19411156872E+04  0.46999998093E+01 0. -1.
</event>
<event>
 5   0  0.4762788E-08  0.3883074E+04  0.7818609E-02  0.8028559E-01
        1   -1    0    0  501    0  0.00000000000E+00  0.00000000000E+00  0.15627927098E+04  0.15627927098E+04  0.50400001928E-02 0. -1.
       -1   -1    0    0    0  501  0.00000000000E+00  0.00000000000E+00 -0.24120698545E+04  0.24120698545E+04  0.50400001928E-02 0.  1.
    10030    2    1    2    0    0  0.00000000000E+00  0.00000000000E+00 -0.84927714471E+03  0.39748625643E+04  0.38830736198E+04 0.  0.
        2    1    3    3  502    0  0.16056534632E+04 -0.93903590386E+03 -0.99425779581E+03  0.21091372732E+04  0.25500000920E-02 0. -1.
       -2    1    3    3    0  502 -0.16056534632E+04  0.93903590386E+03  0.14498065110E+03  0.18657252911E+04  0.25500000920E-02 0.  1.
</event>
<event>
 5   0  0.4762788E-08  0.3901577E+04  0.7818609E-02  0.8024701E-01
        1   -1    0    0  501    0  0.00000000000E+00  0.00000000000E+00  0.15229678668E+04  0.15229678669E+04  0.50400001928E-02 0.  1.
       -1   -1    0    0    0  501  0.00000000000E+00  0.00000000000E+00 -0.24987892692E+04  0.24987892692E+04  0.50400001928E-02 0. -1.
    10030    2    1    2    0    0  0.00000000000E+00  0.00000000000E+00 -0.97582140233E+03  0.40217571360E+04  0.39015769955E+04 0.  0.
        2    1    3    3  502    0  0.31746696457E+03  0.63448206423E+03  0.13852664779E+04  0.15563791242E+04  0.25500000920E-02 0.  1.
       -2    1    3    3    0  502 -0.31746696457E+03 -0.63448206423E+03 -0.23610878802E+04  0.24653780119E+04  0.25500000920E-02 0. -1.
</event>
<event>
 5   0  0.4750125E-08  0.3887790E+04  0.7818609E-02  0.8027574E-01
        1   -1    0    0  501    0  0.00000000000E+00  0.00000000000E+00  0.24170892541E+04  0.24170892541E+04  0.50400001928E-02 0.  1.
       -1   -1    0    0    0  501  0.00000000000E+00  0.00000000000E+00 -0.15633379208E+04  0.15633379208E+04  0.50400001928E-02 0. -1.
    10030    2    1    2    0    0  0.00000000000E+00  0.00000000000E+00  0.85375133331E+03  0.39804271749E+04  0.38877897520E+04 0.  0.
        3    1    3    3  502    0  0.12498288554E+04  0.11335715680E+04  0.14151058401E+04  0.22021764726E+04  0.10100000352E+00 0.  1.
       -3    1    3    3    0  502 -0.12498288554E+04 -0.11335715680E+04 -0.56135450683E+03  0.17782507023E+04  0.10100000352E+00 0. -1.
</event>
<event>
 5   0  0.4750125E-08  0.3880874E+04  0.7818609E-02  0.8029019E-01
       -1   -1    0    0    0  501  0.00000000000E+00  0.00000000000E+00  0.18029991493E+04  0.18029991493E+04  0.50400001928E-02 0.  1.
        1   -1    0    0  501    0  0.00000000000E+00  0.00000000000E+00 -0.20883512752E+04  0.20883512752E+04  0.50400001928E-02 0. -1.
    10030    2    1    2    0    0  0.00000000000E+00  0.00000000000E+00 -0.28535212583E+03  0.38913504245E+04  0.38808739081E+04 0.  0.
        5    1    3    3  502    0 -0.14904867922E+04 -0.12418625652E+04 -0.18151011266E+03  0.19485229071E+04  0.46999998093E+01 0. -1.
       -5    1    3    3    0  502  0.14904867922E+04  0.12418625652E+04 -0.10384201316E+03  0.19428275174E+04  0.46999998093E+01 0.  1.
</event>
<event>
 5   0  0.1501585E-07  0.3886994E+04  0.7818609E-02  0.8027740E-01
       -2   -1    0    0    0  501  0.00000000000E+00  0.00000000000E+00  0.14061464990E+04  0.14061464990E+04  0.25500000920E-02 0.  1.
        2   -1    0    0  501    0  0.00000000000E+00  0.00000000000E+00 -0.26861929504E+04  0.26861929504E+04  0.25500000920E-02 0. -1.
    10030    2    1    2    0    0  0.00000000000E+00  0.00000000000E+00 -0.12800464515E+04  0.40923394494E+04  0.38869941151E+04 0.  0.
        5    1    3    3  502    0  0.16760358533E+04 -0.92741337847E+03 -0.98596516634E+03  0.21543772082E+04  0.46999998093E+01 0. -1.
       -5    1    3    3    0  502 -0.16760358533E+04  0.92741337847E+03 -0.29408128511E+03  0.19379622412E+04  0.46999998093E+01 0.  1.
</event>
<event>
 5   0  0.4750125E-08  0.3757170E+04  0.7818609E-02  0.8055409E-01
       -1   -1    0    0    0  501  0.00000000000E+00  0.00000000000E+00  0.17530840704E+04  0.17530840704E+04  0.50400001928E-02 0.  1.
        1   -1    0    0  501    0  0.00000000000E+00  0.00000000000E+00 -0.20130702941E+04  0.20130702941E+04  0.50400001928E-02 0. -1.
    10030    2    1    2    0    0  0.00000000000E+00  0.00000000000E+00 -0.25998622376E+03  0.37661543645E+04  0.37571699271E+04 0.  0.
        3    1    3    3  502    0  0.12872268801E+04 -0.35157529386E+03 -0.14554725101E+04  0.19745780476E+04  0.10100000352E+00 0. -1.
       -3    1    3    3    0  502 -0.12872268801E+04  0.35157529386E+03  0.11954862864E+04  0.17915763169E+04  0.10100000352E+00 0.  1.
</event>
<event>
 5   0  0.4750125E-08  0.3899927E+04  0.7818609E-02  0.8025044E-01
        1   -1    0    0  501    0  0.00000000000E+00  0.00000000000E+00  0.13311823927E+04  0.13311823928E+04  0.50400001928E-02 0.  1.
       -1   -1    0    0    0  501  0.00000000000E+00  0.00000000000E+00 -0.28563767624E+04  0.28563767624E+04  0.50400001928E-02 0. -1.
    10030    2    1    2    0    0  0.00000000000E+00  0.00000000000E+00 -0.15251943697E+04  0.41875591552E+04  0.38999274112E+04 0.  0.
        5    1    3    3  502    0  0.31136389920E+03  0.19090063440E+04 -0.49721792969E+03  0.19971230455E+04  0.46999998093E+01 0. -1.
       -5    1    3    3    0  502 -0.31136389920E+03 -0.19090063440E+04 -0.10279764400E+04  0.21904361096E+04  0.46999998093E+01 0.  1.
</event>
<event>
 5   0  0.4750125E-08  0.3898677E+04  0.7818609E-02  0.8025304E-01
        1   -1    0    0  501    0  0.00000000000E+00  0.00000000000E+00  0.17492815450E+04  0.17492815450E+04  0.50400001928E-02 0. -1.
       -1   -1    0    0    0  501  0.00000000000E+00  0.00000000000E+00 -0.21722748207E+04  0.21722748207E+04  0.50400001928E-02 0.  1.
    10030    2    1    2    0    0  0.00000000000E+00  0.00000000000E+00 -0.42299327564E+03  0.39215563657E+04  0.38986768291E+04 0.  0.
        4    1    3    3  502    0 -0.12714334179E+04 -0.11849060695E+04  0.67650545602E+03  0.18649950602E+04  0.12699999809E+01 0. -1.
       -4    1    3    3    0  502  0.12714334179E+04  0.11849060695E+04 -0.10994987317E+04  0.20565613055E+04  0.12699999809E+01 0.  1.
</event>
<event>
 5   0  0.4762788E-08  0.3921042E+04  0.7818609E-02  0.8020667E-01
        1   -1    0    0  501    0  0.00000000000E+00  0.00000000000E+00  0.17413513757E+04  0.17413513757E+04  0.50400001928E-02 0.  1.
       -1   -1    0    0    0  501  0.00000000000E+00  0.00000000000E+00 -0.22072760027E+04  0.22072760027E+04  0.50400001928E-02 0. -1.
    10030    2    1    2    0    0  0.00000000000E+00  0.00000000000E+00 -0.46592462702E+03  0.39486273784E+04  0.39210422613E+04 0.  0.
        2    1    3    3  502    0  0.58298937983E+03 -0.15468458365E+04  0.82850931571E+03  0.18490636401E+04  0.25500000920E-02 0. -1.
       -2    1    3    3    0  502 -0.58298937983E+03  0.15468458365E+04 -0.12944339427E+04  0.20995637383E+04  0.25500000920E-02 0.  1.
</event>
<event>
 5   0  0.1546846E-07  0.3838538E+04  0.7818609E-02  0.8037935E-01
       -2   -1    0    0    0  501  0.00000000000E+00  0.00000000000E+00  0.16876819429E+04  0.16876819429E+04  0.25500000920E-02 0.  1.
        2   -1    0    0  501    0  0.00000000000E+00  0.00000000000E+00 -0.21826346667E+04  0.21826346667E+04  0.25500000920E-02 0. -1.
    10030    2    1    2    0    0  0.00000000000E+00  0.00000000000E+00 -0.49495272375E+03  0.38703166096E+04  0.38385378023E+04 0.  0.
        2    1    3    3  502    0  0.44145116889E+02 -0.15467748360E+04  0.89732293644E+03  0.17887564498E+04  0.25500000920E-02 0. -1.
       -2    1    3    3    0  502 -0.44145116889E+02  0.15467748360E+04 -0.13922756602E+04  0.20815601597E+04  0.25500000920E-02 0.  1.
</event>
<event>
 5   0  0.1503228E-07  0.3890218E+04  0.7818609E-02  0.8027067E-01
        2   -1    0    0  501    0  0.00000000000E+00  0.00000000000E+00  0.16959954370E+04  0.16959954370E+04  0.25500000920E-02 0. -1.
       -2   -1    0    0    0  501  0.00000000000E+00  0.00000000000E+00 -0.22308133334E+04  0.22308133334E+04  0.25500000920E-02 0.  1.
    10030    2    1    2    0    0  0.00000000000E+00  0.00000000000E+00 -0.53481789643E+03  0.39268087704E+04  0.38902181092E+04 0.  0.
        3    1    3    3  502    0  0.78144043142E+03  0.15300120336E+03  0.15239353760E+04  0.17194294276E+04  0.10100000352E+00 0. -1.
       -3    1    3    3    0  502 -0.78144043142E+03 -0.15300120336E+03 -0.20587532724E+04  0.22073793428E+04  0.10100000352E+00 0.  1.
</event>
<event>
 5   0  0.1520986E-07  0.3891008E+04  0.7818609E-02  0.8026902E-01
       -2   -1    0    0    0  501  0.00000000000E+00  0.00000000000E+00  0.14013416277E+04  0.14013416277E+04  0.25500000920E-02 0. -1.
        2   -1    0    0  501    0  0.00000000000E+00  0.00000000000E+00 -0.27009729592E+04  0.27009729592E+04  0.25500000920E-02 0.  1.
    10030    2    1    2    0    0  0.00000000000E+00  0.00000000000E+00 -0.12996313315E+04  0.41023145868E+04  0.38910080148E+04 0.  0.
        4    1    3    3  502    0  0.33857199481E+03  0.74155435152E+03 -0.25122264436E+04  0.26411772316E+04  0.12699999809E+01 0.  1.
       -4    1    3    3    0  502 -0.33857199481E+03 -0.74155435152E+03  0.12125951121E+04  0.14611373552E+04  0.12699999809E+01 0. -1.
</event>
<event>
 5   0  0.4750125E-08  0.3905233E+04  0.7818609E-02  0.8023942E-01
        1   -1    0    0  501    0  0.00000000000E+00  0.00000000000E+00  0.27278408376E+04  0.27278408376E+04  0.50400001928E-02 0. -1.
       -1   -1    0    0    0  501  0.00000000000E+00  0.00000000000E+00 -0.13977031226E+04  0.13977031226E+04  0.50400001928E-02 0.  1.
    10030    2    1    2    0    0  0.00000000000E+00  0.00000000000E+00  0.13301377151E+04  0.41255439602E+04  0.39052332359E+04 0.  0.
        5    1    3    3  502    0 -0.26760913140E+03  0.19208623844E+04  0.90448742348E+03  0.21399641437E+04  0.46999998093E+01 0. -1.
       -5    1    3    3    0  502  0.26760913140E+03 -0.19208623844E+04  0.42565029158E+03  0.19855798165E+04  0.46999998093E+01 0.  1.
</event>
<event>
 5   0  0.1538018E-07  0.3887808E+04  0.7818609E-02  0.8027570E-01
        2   -1    0    0  501    0  0.00000000000E+00  0.00000000000E+00  0.28630158438E+04  0.28630158438E+04  0.25500000920E-02 0.  1.
       -2   -1    0    0    0  501  0.00000000000E+00  0.00000000000E+00 -0.13198538791E+04  0.13198538791E+04  0.25500000920E-02 0. -1.
    10030    2    1    2    0    0  0.00000000000E+00  0.00000000000E+00  0.15431619647E+04  0.41828697229E+04  0.38878079002E+04 0.  0.
        1    1    3    3  502    0  0.83070555134E+02 -0.78750766392E+03  0.26816168847E+04  0.27960933737E+04  0.50400001928E-02 0.  1.
       -1    1    3    3    0  502 -0.83070555134E+02  0.78750766392E+03 -0.11384549200E+04  0.13867763492E+04  0.50400001928E-02 0. -1.
</event>
<event>
 5   0  0.1501585E-07  0.3903952E+04  0.7818609E-02  0.8024208E-01
        2   -1    0    0  501    0  0.00000000000E+00  0.00000000000E+00  0.14395796774E+04  0.14395796774E+04  0.25500000920E-02 0.  1.
       -2   -1    0    0    0  501  0.00000000000E+00  0.00000000000E+00 -0.26467525804E+04  0.26467525804E+04  0.25500000920E-02 0. -1.
    10030    2    1    2    0    0  0.00000000000E+00  0.00000000000E+00 -0.12071729030E+04  0.40863322578E+04  0.39039524720E+04 0.  0.
        5    1    3    3  502    0  0.11884742076E+04 -0.14411856278E+04 -0.11963481178E+04  0.22182781306E+04  0.46999998093E+01 0. -1.
       -5    1    3    3    0  502 -0.11884742076E+04  0.14411856278E+04 -0.10824785188E+02  0.18680541271E+04  0.46999998093E+01 0.  1.
</event>
<event>
 5   0  0.4750125E-08  0.3885910E+04  0.7818609E-02  0.8027966E-01
       -1   -1    0    0    0  501  0.00000000000E+00  0.00000000000E+00  0.20459208640E+04  0.20459208640E+04  0.50400001928E-02 0. -1.
        1   -1    0    0  501    0  0.00000000000E+00  0.00000000000E+00 -0.18451713699E+04  0.18451713699E+04  0.50400001928E-02 0.  1.
    10030    2    1    2    0    0  0.00000000000E+00  0.00000000000E+00  0.20074949412E+03  0.38910922340E+04  0.38859102426E+04 0.  0.
        4    1    3    3  502    0 -0.35981342535E+02 -0.12763350716E+04  0.15668232176E+04  0.20212032258E+04  0.12699999809E+01 0. -1.
       -4    1    3    3    0  502  0.35981342535E+02  0.12763350716E+04 -0.13660737235E+04  0.18698890082E+04  0.12699999809E+01 0.  1.
</event>
<event>
 5   0  0.4762788E-08  0.3903605E+04  0.7818609E-02  0.8024280E-01
        1   -1    0    0  501    0  0.00000000000E+00  0.00000000000E+00  0.15342182829E+04  0.15342182829E+04  0.50400001928E-02 0. -1.
       -1   -1    0    0    0  501  0.00000000000E+00  0.00000000000E+00 -0.24830443942E+04  0.24830443942E+04  0.50400001928E-02 0.  1.
    10030    2    1    2    0    0  0.00000000000E+00  0.00000000000E+00 -0.94882611125E+03  0.40172626771E+04  0.39036045429E+04 0.  0.
        2    1    3    3  502    0 -0.17010718838E+04  0.87032794960E+03 -0.88401657590E+03  0.21053744561E+04  0.25500000920E-02 0. -1.
       -2    1    3    3    0  502  0.17010718838E+04 -0.87032794960E+03 -0.64809535349E+02  0.19118882210E+04  0.25500000920E-02 0.  1.
</event>
<event>
 5   0  0.4762788E-08  0.3927853E+04  0.7818609E-02  0.8019261E-01
        1   -1    0    0  501    0  0.00000000000E+00  0.00000000000E+00  0.15085930926E+04  0.15085930926E+04  0.50400001928E-02 0. -1.
       -1   -1    0    0    0  501  0.00000000000E+00  0.00000000000E+00 -0.25566918592E+04  0.25566918592E+04  0.50400001928E-02 0.  1.
    10030    2    1    2    0    0  0.00000000000E+00  0.00000000000E+00 -0.10480987667E+04  0.40652849518E+04  0.39278531941E+04 0.  0.
        2    1    3    3  502    0  0.43487487465E+03 -0.13126188637E+03 -0.25015724048E+04  0.25424811377E+04  0.25500000920E-02 0.  1.
       -2    1    3    3    0  502 -0.43487487465E+03  0.13126188637E+03  0.14534736381E+04  0.15228038141E+04  0.25500000920E-02 0. -1.
</event>
<event>
 5   0  0.4750125E-08  0.3900758E+04  0.7818609E-02  0.8024871E-01
        1   -1    0    0  501    0  0.00000000000E+00  0.00000000000E+00  0.25861387964E+04  0.25861387964E+04  0.50400001928E-02 0.  1.
       -1   -1    0    0    0  501  0.00000000000E+00  0.00000000000E+00 -0.14709106597E+04  0.14709106598E+04  0.50400001928E-02 0. -1.
    10030    2    1    2    0    0  0.00000000000E+00  0.00000000000E+00  0.11152281366E+04  0.40570494561E+04  0.39007584510E+04 0.  0.
        5    1    3    3  502    0  0.16612777133E+04  0.10095486448E+04  0.72181597048E+03  0.20736616147E+04  0.46999998093E+01 0. -1.
       -5    1    3    3    0  502 -0.16612777133E+04 -0.10095486448E+04  0.39341216615E+03  0.19833878414E+04  0.46999998093E+01 0.  1.
</event>
<event>
 5   0  0.4750125E-08  0.3921243E+04  0.7818609E-02  0.8020626E-01
       -1   -1    0    0    0  501  0.00000000000E+00  0.00000000000E+00  0.13908304395E+04  0.13908304396E+04  0.50400001928E-02 0.  1.
        1   -1    0    0  501    0  0.00000000000E+00  0.00000000000E+00 -0.27638422217E+04  0.27638422217E+04  0.50400001928E-02 0. -1.
    10030    2    1    2    0    0  0.00000000000E+00  0.00000000000E+00 -0.13730117822E+04  0.41546726613E+04  0.39212426051E+04 0.  0.
        4    1    3    3  502    0 -0.24729560532E+03  0.71188343847E+03 -0.26042548228E+04  0.27111027169E+04  0.12699999809E+01 0. -1.
       -4    1    3    3    0  502  0.24729560532E+03 -0.71188343847E+03  0.12312430406E+04  0.14435699444E+04  0.12699999809E+01 0.  1.
</event>
<event>
 5   0  0.1546846E-07  0.3917048E+04  0.7818609E-02  0.8021493E-01
       -2   -1    0    0    0  501  0.00000000000E+00  0.00000000000E+00  0.23248030453E+04  0.23248030453E+04  0.25500000920E-02 0. -1.
        2   -1    0    0  501    0  0.00000000000E+00  0.00000000000E+00 -0.16499534048E+04  0.16499534048E+04  0.25500000920E-02 0.  1.
    10030    2    1    2    0    0  0.00000000000E+00  0.00000000000E+00  0.67484964049E+03  0.39747564502E+04  0.39170482255E+04 0.  0.
        2    1    3    3  502    0 -0.92600708185E+03 -0.43206488336E+03 -0.13580131125E+04  0.16995201654E+04  0.25500000920E-02 0.  1.
       -2    1    3    3    0  502  0.92600708185E+03  0.43206488336E+03  0.20328627530E+04  0.22752362848E+04  0.25500000920E-02 0. -1.
</event>
<event>
 5   0  0.1546846E-07  0.3889714E+04  0.7818609E-02  0.8027172E-01
        2   -1    0    0  501    0  0.00000000000E+00  0.00000000000E+00  0.17567054358E+04  0.17567054358E+04  0.25500000920E-02 0. -1.
       -2   -1    0    0    0  501  0.00000000000E+00  0.00000000000E+00 -0.21531599519E+04  0.21531599519E+04  0.25500000920E-02 0.  1.
    10030    2    1    2    0    0  0.00000000000E+00  0.00000000000E+00 -0.39645451618E+03  0.39098653877E+04  0.38897135070E+04 0.  0.
        2    1    3    3  502    0 -0.23022272077E+03 -0.16227726215E+04  0.85413239633E+03  0.18482249952E+04  0.25500000920E-02 0.  1.
       -2    1    3    3    0  502  0.23022272077E+03  0.16227726215E+04 -0.12505869125E+04  0.20616403925E+04  0.25500000920E-02 0. -1.
</event>
<event>
 5   0  0.1503228E-07  0.3637503E+04  0.7818609E-02  0.8081955E-01
        2   -1    0    0  501    0  0.00000000000E+00  0.00000000000E+00  0.27082875676E+04  0.27082875676E+04  0.25500000920E-02 0. -1.
       -2   -1    0    0    0  501  0.00000000000E+00  0.00000000000E+00 -0.12213835220E+04  0.12213835220E+04  0.25500000920E-02 0.  1.
    10030    2    1    2    0    0  0.00000000000E+00  0.00000000000E+00  0.14869040456E+04  0.39296710896E+04  0.36375034338E+04 0.  0.
        3    1    3    3  502    0  0.56470958909E+03 -0.15107202801E+04  0.16516191152E+04  0.23084666765E+04  0.10100000352E+00 0. -1.
       -3    1    3    3    0  502 -0.56470958909E+03  0.15107202801E+04 -0.16471506954E+03  0.16212044131E+04  0.10100000352E+00 0.  1.
</event>
<event>
 5   0  0.4750125E-08  0.3823027E+04  0.7818609E-02  0.8041231E-01
       -1   -1    0    0    0  501  0.00000000000E+00  0.00000000000E+00  0.16864954844E+04  0.16864954844E+04  0.50400001928E-02 0. -1.
        1   -1    0    0  501    0  0.00000000000E+00  0.00000000000E+00 -0.21665543229E+04  0.21665543229E+04  0.50400001928E-02 0.  1.
    10030    2    1    2    0    0  0.00000000000E+00  0.00000000000E+00 -0.48005883852E+03  0.38530498074E+04  0.38230271160E+04 0.  0.
        1    1    3    3  502    0 -0.16775259629E+04  0.63878071611E+03 -0.90226632370E+03  0.20090342651E+04  0.50400001928E-02 0.  1.
       -1    1    3    3    0  502  0.16775259629E+04 -0.63878071611E+03  0.42220748518E+03  0.18440155423E+04  0.50400001928E-02 0. -1.
</event>
<event>
 5   0  0.4762788E-08  0.3917568E+04  0.7818609E-02  0.8021385E-01
       -1   -1    0    0    0  501  0.00000000000E+00  0.00000000000E+00  0.21606219465E+04  0.21606219465E+04  0.50400001928E-02 0. -1.
        1   -1    0    0  501    0  0.00000000000E+00  0.00000000000E+00 -0.17758010265E+04  0.17758010265E+04  0.50400001928E-02 0.  1.
    10030    2    1    2    0    0  0.00000000000E+00  0.00000000000E+00  0.38482092007E+03  0.39364229730E+04  0.39175679550E+04 0.  0.
        2    1    3    3  502    0 -0.15369359408E+03 -0.15993460050E+03  0.21479617679E+04  0.21593842997E+04  0.25500000920E-02 0. -1.
       -2    1    3    3    0  502  0.15369359408E+03  0.15993460050E+03 -0.17631408478E+04  0.17770386733E+04  0.25500000920E-02 0.  1.
</event>
<event>
 5   0  0.4762788E-08  0.3827903E+04  0.7818609E-02  0.8040193E-01
       -1   -1    0    0    0  501  0.00000000000E+00  0.00000000000E+00  0.26829815774E+04  0.26829815774E+04  0.50400001928E-02 0.  1.
        1   -1    0    0  501    0  0.00000000000E+00  0.00000000000E+00 -0.13653504806E+04  0.13653504806E+04  0.50400001928E-02 0. -1.
    10030    2    1    2    0    0  0.00000000000E+00  0.00000000000E+00  0.13176310968E+04  0.40483320580E+04  0.38279029173E+04 0.  0.
        2    1    3    3  502    0 -0.69956960574E+03 -0.43739105268E+03  0.24852561671E+04  0.26186268887E+04  0.25500000920E-02 0.  1.
       -2    1    3    3    0  502  0.69956960574E+03  0.43739105268E+03 -0.11676250703E+04  0.14297051693E+04  0.25500000920E-02 0. -1.
</event>
<event>
 5   0  0.1503228E-07  0.3933301E+04  0.7818609E-02  0.8018139E-01
       -2   -1    0    0    0  501  0.00000000000E+00  0.00000000000E+00  0.24029388044E+04  0.24029388044E+04  0.25500000920E-02 0.  1.
        2   -1    0    0  501    0  0.00000000000E+00  0.00000000000E+00 -0.16095768735E+04  0.16095768735E+04  0.25500000920E-02 0. -1.
    10030    2    1    2    0    0  0.00000000000E+00  0.00000000000E+00  0.79336193092E+03  0.40125156780E+04  0.39333012741E+04 0.  0.
        3    1    3    3  502    0 -0.43326365670E+03  0.53991649230E+03  0.22745377764E+04  0.23775511186E+04  0.10100000352E+00 0.  1.
       -3    1    3    3    0  502  0.43326365670E+03 -0.53991649230E+03 -0.14811758455E+04  0.16349645594E+04  0.10100000352E+00 0. -1.
</event>
<event>
 5   0  0.1546846E-07  0.3899480E+04  0.7818609E-02  0.8025137E-01
       -2   -1    0    0    0  501  0.00000000000E+00  0.00000000000E+00  0.17927515913E+04  0.17927515913E+04  0.25500000920E-02 0.  1.
        2   -1    0    0  501    0  0.00000000000E+00  0.00000000000E+00 -0.21204756167E+04  0.21204756167E+04  0.25500000920E-02 0. -1.
    10030    2    1    2    0    0  0.00000000000E+00  0.00000000000E+00 -0.32772402546E+03  0.39132272080E+04  0.38994799839E+04 0.  0.
        2    1    3    3  502    0 -0.62115523053E+03  0.11288820085E+04  0.13046072436E+04  0.18336325885E+04  0.25500000920E-02 0.  1.
       -2    1    3    3    0  502  0.62115523053E+03 -0.11288820085E+04 -0.16323312691E+04  0.20795946195E+04  0.25500000920E-02 0. -1.
</event>
<event>
 5   0  0.1546846E-07  0.3921448E+04  0.7818609E-02  0.8020583E-01
        2   -1    0    0  501    0  0.00000000000E+00  0.00000000000E+00  0.21845150770E+04  0.21845150770E+04  0.25500000920E-02 0. -1.
       -2   -1    0    0    0  501  0.00000000000E+00  0.00000000000E+00 -0.17598592374E+04  0.17598592374E+04  0.25500000920E-02 0.  1.
    10030    2    1    2    0    0  0.00000000000E+00  0.00000000000E+00  0.42465583960E+03  0.39443743144E+04  0.39214482210E+04 0.  0.
        2    1    3    3  502    0 -0.35934752894E+03  0.12387225390E+03 -0.17224467351E+04  0.17638871101E+04  0.25500000920E-02 0.  1.
       -2    1    3    3    0  502  0.35934752894E+03 -0.12387225390E+03  0.21471025747E+04  0.21804872043E+04  0.25500000920E-02 0. -1.
</event>
<event>
 5   0  0.4750125E-08  0.3504370E+04  0.7818609E-02  0.8112755E-01
        1   -1    0    0  501    0  0.00000000000E+00  0.00000000000E+00  0.17410825100E+04  0.17410825100E+04  0.50400001928E-02 0. -1.
       -1   -1    0    0    0  501  0.00000000000E+00  0.00000000000E+00 -0.17633578145E+04  0.17633578145E+04  0.50400001928E-02 0.  1.
    10030    2    1    2    0    0  0.00000000000E+00  0.00000000000E+00 -0.22275304482E+02  0.35044403246E+04  0.35043695295E+04 0.  0.
        4    1    3    3  502    0  0.12858203809E+04 -0.11078168029E+04 -0.44652871235E+03  0.17549876423E+04  0.12699999809E+01 0. -1.
       -4    1    3    3    0  502 -0.12858203809E+04  0.11078168029E+04  0.42425340787E+03  0.17494526823E+04  0.12699999809E+01 0.  1.
</event>
<event>
 5   0  0.1538018E-07  0.3893524E+04  0.7818609E-02  0.8026377E-01
        2   -1    0    0  501    0  0.00000000000E+00  0.00000000000E+00  0.12352794916E+04  0.12352794916E+04  0.25500000920E-02 0. -1.
       -2   -1    0    0    0  501  0.00000000000E+00  0.00000000000E+00 -0.30680367123E+04  0.30680367123E+04  0.25500000920E-02 0.  1.
    10030    2    1    2    0    0  0.00000000000E+00  0.00000000000E+00 -0.18327572207E+04  0.43033162039E+04  0.38935242802E+04 0.  0.
        1    1    3    3  502    0  0.63756440680E+03  0.82900787832E+03 -0.27311905305E+04  0.29245758921E+04  0.50400001928E-02 0.  1.
       -1    1    3    3    0  502 -0.63756440680E+03 -0.82900787832E+03  0.89843330974E+03  0.13787403117E+04  0.50400001928E-02 0. -1.
</event>
<event>
 5   0  0.1503228E-07  0.3964223E+04  0.7818609E-02  0.8011803E-01
        2   -1    0    0  501    0  0.00000000000E+00  0.00000000000E+00  0.19702454833E+04  0.19702454833E+04  0.25500000920E-02 0. -1.
       -2   -1    0    0    0  501  0.00000000000E+00  0.00000000000E+00 -0.19940492314E+04  0.19940492314E+04  0.25500000920E-02 0.  1.
    10030    2    1    2    0    0  0.00000000000E+00  0.00000000000E+00 -0.23803748076E+02  0.39642947147E+04  0.39642232488E+04 0.  0.
        3    1    3    3  502    0 -0.29584478587E+03 -0.11489592854E+04 -0.15997387063E+04  0.19916815799E+04  0.10100000352E+00 0.  1.
       -3    1    3    3    0  502  0.29584478587E+03  0.11489592854E+04  0.15759349582E+04  0.19726131348E+04  0.10100000352E+00 0. -1.
</event>
<event>
 5   0  0.4762788E-08  0.3872212E+04  0.7818609E-02  0.8030833E-01
       -1   -1    0    0    0  501  0.00000000000E+00  0.00000000000E+00  0.29328609959E+04  0.29328609960E+04  0.50400001928E-02 0. -1.
        1   -1    0    0  501    0  0.00000000000E+00  0.00000000000E+00 -0.12781058981E+04  0.12781058981E+04  0.50400001928E-02 0.  1.
    10030    2    1    2    0    0  0.00000000000E+00  0.00000000000E+00  0.16547550978E+04  0.42109668941E+04  0.38722122552E+04 0.  0.
        2    1    3    3  502    0  0.10590730158E+04 -0.86199858215E+03  0.23199777476E+04  0.26920204230E+04  0.25500000920E-02 0. -1.
       -2    1    3    3    0  502 -0.10590730158E+04  0.86199858215E+03 -0.66522264975E+03  0.15189464711E+04  0.25500000920E-02 0.  1.
</event>
<event>
 5   0  0.1503228E-07  0.3885647E+04  0.7818609E-02  0.8028021E-01
        2   -1    0    0  501    0  0.00000000000E+00  0.00000000000E+00  0.22674349878E+04  0.22674349878E+04  0.25500000920E-02 0. -1.
       -2   -1    0    0    0  501  0.00000000000E+00  0.00000000000E+00 -0.16646841191E+04  0.16646841191E+04  0.25500000920E-02 0.  1.
    10030    2    1    2    0    0  0.00000000000E+00  0.00000000000E+00  0.60275086878E+03  0.39321191069E+04  0.38856469295E+04 0.  0.
        3    1    3    3  502    0 -0.28349963520E+03  0.10648839811E+04  0.19205787474E+04  0.22142657184E+04  0.10100000352E+00 0. -1.
       -3    1    3    3    0  502  0.28349963520E+03 -0.10648839811E+04 -0.13178278787E+04  0.17178533885E+04  0.10100000352E+00 0.  1.
</event>
<event>
 5   0  0.1546846E-07  0.3888361E+04  0.7818609E-02  0.8027454E-01
        2   -1    0    0  501    0  0.00000000000E+00  0.00000000000E+00  0.22477619484E+04  0.22477619484E+04  0.25500000920E-02 0.  1.
       -2   -1    0    0    0  501  0.00000000000E+00  0.00000000000E+00 -0.16816001706E+04  0.16816001706E+04  0.25500000920E-02 0. -1.
    10030    2    1    2    0    0  0.00000000000E+00  0.00000000000E+00  0.56616177778E+03  0.39293621190E+04  0.38883605161E+04 0.  0.
        2    1    3    3  502    0 -0.14068775708E+04  0.75278426916E+03  0.14055810166E+04  0.21264163866E+04  0.25500000920E-02 0.  1.
       -2    1    3    3    0  502  0.14068775708E+04 -0.75278426916E+03 -0.83941923885E+03  0.18029457323E+04  0.25500000920E-02 0. -1.
</event>
<event>
 5   0  0.1501585E-07  0.3537224E+04  0.7818609E-02  0.8105025E-01
       -2   -1    0    0    0  501  0.00000000000E+00  0.00000000000E+00  0.16680273956E+04  0.16680273956E+04  0.25500000920E-02 0.  1.
        2   -1    0    0  501    0  0.00000000000E+00  0.00000000000E+00 -0.18752622425E+04  0.18752622425E+04  0.25500000920E-02 0. -1.
    10030    2    1    2    0    0  0.00000000000E+00  0.00000000000E+00 -0.20723484694E+03  0.35432896380E+04  0.35372242193E+04 0.  0.
        5    1    3    3  502    0 -0.97965234638E+03  0.14282402952E+04 -0.46253007242E+03  0.17926363877E+04  0.46999998093E+01 0. -1.
       -5    1    3    3    0  502  0.97965234638E+03 -0.14282402952E+04  0.25529522548E+03  0.17506532503E+04  0.46999998093E+01 0.  1.
</event>
<event>
 5   0  0.4750125E-08  0.3907655E+04  0.7818609E-02  0.8023439E-01
        1   -1    0    0  501    0  0.00000000000E+00  0.00000000000E+00  0.23236870011E+04  0.23236870011E+04  0.50400001928E-02 0. -1.
       -1   -1    0    0    0  501  0.00000000000E+00  0.00000000000E+00 -0.16428380602E+04  0.16428380602E+04  0.50400001928E-02 0.  1.
    10030    2    1    2    0    0  0.00000000000E+00  0.00000000000E+00  0.68084894090E+03  0.39665250613E+04  0.39076547675E+04 0.  0.
        5    1    3    3  502    0  0.13891131026E+04  0.13442849727E+04  0.52099343067E+02  0.19337718922E+04  0.46999998093E+01 0. -1.
       -5    1    3    3    0  502 -0.13891131026E+04 -0.13442849727E+04  0.62874959783E+03  0.20327531691E+04  0.46999998093E+01 0.  1.
</event>
<event>
 5   0  0.4750125E-08  0.3880790E+04  0.7818609E-02  0.8029037E-01
        3   -1    0    0  501    0  0.00000000000E+00  0.00000000000E+00  0.15333286910E+04  0.15333286943E+04  0.10100000352E+00 0. -1.
       -3   -1    0    0    0  501  0.00000000000E+00  0.00000000000E+00 -0.24555281855E+04  0.24555281876E+04  0.10100000352E+00 0.  1.
    10030    2    1    2    0    0  0.00000000000E+00  0.00000000000E+00 -0.92219949452E+03  0.39888568819E+04  0.38807895223E+04 0.  0.
        4    1    3    3  502    0 -0.10461543153E+04  0.13155479589E+04 -0.14576473565E+04  0.22248241981E+04  0.12699999809E+01 0.  1.
       -4    1    3    3    0  502  0.10461543153E+04 -0.13155479589E+04  0.53544786202E+03  0.17640326838E+04  0.12699999809E+01 0. -1.
</event>
<event>
 5   0  0.1538018E-07  0.3901889E+04  0.7818609E-02  0.8024636E-01
        2   -1    0    0  501    0  0.00000000000E+00  0.00000000000E+00  0.24598916188E+04  0.24598916188E+04  0.25500000920E-02 0.  1.
       -2   -1    0    0    0  501  0.00000000000E+00  0.00000000000E+00 -0.15472980050E+04  0.15472980050E+04  0.25500000920E-02 0. -1.
    10030    2    1    2    0    0  0.00000000000E+00  0.00000000000E+00  0.91259361378E+03  0.40071896238E+04  0.39018894881E+04 0.  0.
        1    1    3    3  502    0 -0.26686026277E+02  0.16241402545E+04  0.15660329340E+04  0.22563250786E+04  0.50400001928E-02 0.  1.
       -1    1    3    3    0  502  0.26686026277E+02 -0.16241402545E+04 -0.65343932018E+03  0.17508645451E+04  0.50400001928E-02 0. -1.
</event>
<event>
 5   0  0.4750125E-08  0.3899086E+04  0.7818609E-02  0.8025219E-01
        1   -1    0    0  501    0  0.00000000000E+00  0.00000000000E+00  0.32698492060E+04  0.32698492060E+04  0.50400001928E-02 0.  1.
       -1   -1    0    0    0  501  0.00000000000E+00  0.00000000000E+00 -0.11623524209E+04  0.11623524209E+04  0.50400001928E-02 0. -1.
    10030    2    1    2    0    0  0.00000000000E+00  0.00000000000E+00  0.21074967850E+04  0.44322016269E+04  0.38990856060E+04 0.  0.
        4    1    3    3  502    0 -0.70452111485E+03 -0.18744317898E+03  0.31090687072E+04  0.31933986261E+04  0.12699999809E+01 0.  1.
       -4    1    3    3    0  502  0.70452111485E+03  0.18744317898E+03 -0.10015719221E+04  0.12388030008E+04  0.12699999809E+01 0. -1.
</event>
<event>
 5   0  0.1546846E-07  0.3852688E+04  0.7818609E-02  0.8034942E-01
        2   -1    0    0  501    0  0.00000000000E+00  0.00000000000E+00  0.21646218700E+04  0.21646218700E+04  0.25500000920E-02 0.  1.
       -2   -1    0    0    0  501  0.00000000000E+00  0.00000000000E+00 -0.17142955046E+04  0.17142955046E+04  0.25500000920E-02 0. -1.
    10030    2    1    2    0    0  0.00000000000E+00  0.00000000000E+00  0.45032636540E+03  0.38789173746E+04  0.38526881737E+04 0.  0.
        2    1    3    3  502    0  0.37590283734E+03 -0.17358428702E+03  0.21192918335E+04  0.21593592391E+04  0.25500000920E-02 0.  1.
       -2    1    3    3    0  502 -0.37590283734E+03  0.17358428702E+03 -0.16689654681E+04  0.17195581356E+04  0.25500000920E-02 0. -1.
</event>
<event>
 5   0  0.4750125E-08  0.3912999E+04  0.7818609E-02  0.8022331E-01
       -1   -1    0    0    0  501  0.00000000000E+00  0.00000000000E+00  0.19168492500E+04  0.19168492500E+04  0.50400001928E-02 0.  1.
        1   -1    0    0  501    0  0.00000000000E+00  0.00000000000E+00 -0.19969699841E+04  0.19969699841E+04  0.50400001928E-02 0. -1.
    10030    2    1    2    0    0  0.00000000000E+00  0.00000000000E+00 -0.80120734085E+02  0.39138192341E+04  0.39129990627E+04 0.  0.
        1    1    3    3  502    0 -0.30837966271E+03 -0.15767913526E+04 -0.11567716238E+04  0.19797700815E+04  0.50400001928E-02 0. -1.
       -1    1    3    3    0  502  0.30837966271E+03  0.15767913526E+04  0.10766508897E+04  0.19340491525E+04  0.50400001928E-02 0.  1.
</event>
<event>
 5   0  0.1520986E-07  0.3902972E+04  0.7818609E-02  0.8024411E-01
       -2   -1    0    0    0  501  0.00000000000E+00  0.00000000000E+00  0.13496984768E+04  0.13496984768E+04  0.25500000920E-02 0.  1.
        2   -1    0    0  501    0  0.00000000000E+00  0.00000000000E+00 -0.28215908031E+04  0.28215908031E+04  0.25500000920E-02 0. -1.
    10030    2    1    2    0    0  0.00000000000E+00  0.00000000000E+00 -0.14718923262E+04  0.41712892799E+04  0.39029715905E+04 0.  0.
        4    1    3    3  502    0  0.70541269983E+03  0.34732205505E+03 -0.26448059955E+04  0.27592100416E+04  0.12699999809E+01 0. -1.
       -4    1    3    3    0  502 -0.70541269983E+03 -0.34732205505E+03  0.11729136692E+04  0.14120792383E+04  0.12699999809E+01 0.  1.
</event>
<event>
 5   0  0.4750125E-08  0.3902295E+04  0.7818609E-02  0.8024552E-01
       -1   -1    0    0    0  501  0.00000000000E+00  0.00000000000E+00  0.23135243170E+04  0.23135243170E+04  0.50400001928E-02 0.  1.
        1   -1    0    0  501    0  0.00000000000E+00  0.00000000000E+00 -0.16455313950E+04  0.16455313950E+04  0.50400001928E-02 0. -1.
    10030    2    1    2    0    0  0.00000000000E+00  0.00000000000E+00  0.66799292198E+03  0.39590557121E+04  0.39022951692E+04 0.  0.
        4    1    3    3  502    0  0.39156632784E+03 -0.19002662632E+04  0.54349265712E+03  0.20148751677E+04  0.12699999809E+01 0.  1.
       -4    1    3    3    0  502 -0.39156632784E+03  0.19002662632E+04  0.12450026486E+03  0.19441805444E+04  0.12699999809E+01 0. -1.
</event>
<event>
 5   0  0.1501585E-07  0.3756572E+04  0.7818609E-02  0.8055539E-01
        2   -1    0    0  501    0  0.00000000000E+00  0.00000000000E+00  0.19580065677E+04  0.19580065677E+04  0.25500000920E-02 0. -1.
       -2   -1    0    0    0  501  0.00000000000E+00  0.00000000000E+00 -0.18018112775E+04  0.18018112775E+04  0.25500000920E-02 0.  1.
    10030    2    1    2    0    0  0.00000000000E+00  0.00000000000E+00  0.15619529021E+03  0.37598178452E+04  0.37565720092E+04 0.  0.
        5    1    3    3  502    0 -0.92489634854E+03  0.24014887445E+03  0.16965388978E+04  0.19471443344E+04  0.46999998093E+01 0. -1.
       -5    1    3    3    0  502  0.92489634854E+03 -0.24014887445E+03 -0.15403436075E+04  0.18126735108E+04  0.46999998093E+01 0.  1.
</event>
<event>
 5   0  0.4750125E-08  0.3867204E+04  0.7818609E-02  0.8031885E-01
       -1   -1    0    0    0  501  0.00000000000E+00  0.00000000000E+00  0.30809445342E+04  0.30809445342E+04  0.50400001928E-02 0. -1.
        1   -1    0    0  501    0  0.00000000000E+00  0.00000000000E+00 -0.12135293213E+04  0.12135293213E+04  0.50400001928E-02 0.  1.
    10030    2    1    2    0    0  0.00000000000E+00  0.00000000000E+00  0.18674152129E+04  0.42944738555E+04  0.38672039148E+04 0.  0.
        4    1    3    3  502    0 -0.12596136303E+04  0.58101483588E+03  0.24296144942E+04  0.27977192391E+04  0.12699999809E+01 0. -1.
       -4    1    3    3    0  502  0.12596136303E+04 -0.58101483588E+03 -0.56219928135E+03  0.14967546165E+04  0.12699999809E+01 0.  1.
</event>
<event>
 5   0  0.4750125E-08  0.3930945E+04  0.7818609E-02  0.8018624E-01
        1   -1    0    0  501    0  0.00000000000E+00  0.00000000000E+00  0.15593980891E+04  0.15593980891E+04  0.50400001928E-02 0. -1.
       -1   -1    0    0    0  501  0.00000000000E+00  0.00000000000E+00 -0.24772906342E+04  0.24772906342E+04  0.50400001928E-02 0.  1.
    10030    2    1    2    0    0  0.00000000000E+00  0.00000000000E+00 -0.91789254511E+03  0.40366887233E+04  0.39309450676E+04 0.  0.
        5    1    3    3  502    0 -0.66754149031E+03 -0.13797819875E+04  0.80445424436E+03  0.17310628803E+04  0.46999998093E+01 0. -1.
       -5    1    3    3    0  502  0.66754149031E+03  0.13797819875E+04 -0.17223467895E+04  0.23056258429E+04  0.46999998093E+01 0.  1.
</event>
<event>
 5   0  0.1538018E-07  0.3594634E+04  0.7818609E-02  0.8091722E-01
       -2   -1    0    0    0  501  0.00000000000E+00  0.00000000000E+00  0.20483428738E+04  0.20483428738E+04  0.25500000920E-02 0.  1.
        2   -1    0    0  501    0  0.00000000000E+00  0.00000000000E+00 -0.15770546343E+04  0.15770546343E+04  0.25500000920E-02 0. -1.
    10030    2    1    2    0    0  0.00000000000E+00  0.00000000000E+00  0.47128823958E+03  0.36253975081E+04  0.35946341242E+04 0.  0.
        1    1    3    3  502    0 -0.40110527125E+03  0.17194866553E+04 -0.10313058246E+03  0.17686592983E+04  0.50400001928E-02 0. -1.
       -1    1    3    3    0  502  0.40110527125E+03 -0.17194866553E+04  0.57441882203E+03  0.18567382098E+04  0.50400001928E-02 0.  1.
</event>
<event>
 5   0  0.4750125E-08  0.3921837E+04  0.7818609E-02  0.8020503E-01
       -1   -1    0    0    0  501  0.00000000000E+00  0.00000000000E+00  0.27223807858E+04  0.27223807858E+04  0.50400001928E-02 0. -1.
        1   -1    0    0  501    0  0.00000000000E+00  0.00000000000E+00 -0.14124405801E+04  0.14124405801E+04  0.50400001928E-02 0.  1.
    10030    2    1    2    0    0  0.00000000000E+00  0.00000000000E+00  0.13099402057E+04  0.41348213658E+04  0.39218368636E+04 0.  0.
        5    1    3    3  502    0 -0.17471096905E+03 -0.37348008296E+03  0.26761539021E+04  0.27077357871E+04  0.46999998093E+01 0. -1.
       -5    1    3    3    0  502  0.17471096905E+03  0.37348008296E+03 -0.13662136963E+04  0.14270855788E+04  0.46999998093E+01 0.  1.
</event>
<event>
 5   0  0.1538018E-07  0.3900301E+04  0.7818609E-02  0.8024967E-01
       -2   -1    0    0    0  501  0.00000000000E+00  0.00000000000E+00  0.24545252838E+04  0.24545252838E+04  0.25500000920E-02 0. -1.
        2   -1    0    0  501    0  0.00000000000E+00  0.00000000000E+00 -0.15494185975E+04  0.15494185975E+04  0.25500000920E-02 0.  1.
    10030    2    1    2    0    0  0.00000000000E+00  0.00000000000E+00  0.90510668628E+03  0.40039438813E+04  0.39003010769E+04 0.  0.
        1    1    3    3  502    0  0.19015634673E+04  0.42135879959E+03  0.55313793219E+03  0.20247094681E+04  0.50400001928E-02 0. -1.
       -1    1    3    3    0  502 -0.19015634673E+04 -0.42135879959E+03  0.35196875408E+03  0.19792344131E+04  0.50400001928E-02 0.  1.
</event>
<event>
 5   0  0.4750125E-08  0.3885507E+04  0.7818609E-02  0.8028050E-01
       -1   -1    0    0    0  501  0.00000000000E+00  0.00000000000E+00  0.23974430641E+04  0.23974430641E+04  0.50400001928E-02 0. -1.
        1   -1    0    0  501    0  0.00000000000E+00  0.00000000000E+00 -0.15742986608E+04  0.15742986608E+04  0.50400001928E-02 0.  1.
    10030    2    1    2    0    0  0.00000000000E+00  0.00000000000E+00  0.82314440325E+03  0.39717417249E+04  0.38855071253E+04 0.  0.
        3    1    3    3  502    0  0.69070358096E+03 -0.94089436289E+03 -0.11759373157E+04  0.16568591429E+04  0.10100000352E+00 0.  1.
       -3    1    3    3    0  502 -0.69070358096E+03  0.94089436289E+03  0.19990817190E+04  0.23148825819E+04  0.10100000352E+00 0. -1.
</event>
<event>
 5   0  0.4750125E-08  0.3888476E+04  0.7818609E-02  0.8027430E-01
        1   -1    0    0  501    0  0.00000000000E+00  0.00000000000E+00  0.23216550370E+04  0.23216550370E+04  0.50400001928E-02 0.  1.
       -1   -1    0    0    0  501  0.00000000000E+00  0.00000000000E+00 -0.16281751816E+04  0.16281751817E+04  0.50400001928E-02 0. -1.
    10030    2    1    2    0    0  0.00000000000E+00  0.00000000000E+00  0.69347985537E+03  0.39498302187E+04  0.38884758514E+04 0.  0.
        5    1    3    3  502    0  0.18513605571E+04 -0.62714907790E+02  0.94645366024E+03  0.20802080889E+04  0.46999998093E+01 0. -1.
       -5    1    3    3    0  502 -0.18513605571E+04  0.62714907790E+02 -0.25297380487E+03  0.18696221298E+04  0.46999998093E+01 0.  1.
</event>
<event>
 5   0  0.1520986E-07  0.3740676E+04  0.7818609E-02  0.8059007E-01
        2   -1    0    0  501    0  0.00000000000E+00  0.00000000000E+00  0.27403208909E+04  0.27403208909E+04  0.25500000920E-02 0.  1.
       -2   -1    0    0    0  501  0.00000000000E+00  0.00000000000E+00 -0.12765524958E+04  0.12765524958E+04  0.25500000920E-02 0. -1.
    10030    2    1    2    0    0  0.00000000000E+00  0.00000000000E+00  0.14637683951E+04  0.40168733868E+04  0.37406755928E+04 0.  0.
        4    1    3    3  502    0 -0.91598083035E+03 -0.17621755249E+03  0.24727210730E+04  0.26428062027E+04  0.12699999809E+01 0.  1.
       -4    1    3    3    0  502  0.91598083035E+03  0.17621755249E+03 -0.10089526778E+04  0.13740671841E+04  0.12699999809E+01 0. -1.
</event>
<event>
 5   0  0.1546846E-07  0.3739138E+04  0.7818609E-02  0.8059343E-01
       -2   -1    0    0    0  501  0.00000000000E+00  0.00000000000E+00  0.32259267722E+04  0.32259267722E+04  0.25500000920E-02 0.  1.
        2   -1    0    0  501    0  0.00000000000E+00  0.00000000000E+00 -0.10834991574E+04  0.10834991574E+04  0.25500000920E-02 0. -1.
    10030    2    1    2    0    0  0.00000000000E+00  0.00000000000E+00  0.21424276148E+04  0.43094259296E+04  0.37391383710E+04 0.  0.
        2    1    3    3  502    0 -0.14684572128E+04 -0.74302092907E+03  0.48882360268E+02  0.16464617128E+04  0.25500000920E-02 0. -1.
       -2    1    3    3    0  502  0.14684572128E+04  0.74302092907E+03  0.20935452545E+04  0.26629642167E+04  0.25500000920E-02 0.  1.
</event>
<event>
 5   0  0.4750125E-08  0.3901149E+04  0.7818609E-02  0.8024790E-01
        1   -1    0    0  501    0  0.00000000000E+00  0.00000000000E+00  0.12824241684E+04  0.12824241684E+04  0.50400001928E-02 0. -1.
       -1   -1    0    0    0  501  0.00000000000E+00  0.00000000000E+00 -0.29668346582E+04  0.29668346582E+04  0.50400001928E-02 0.  1.
    10030    2    1    2    0    0  0.00000000000E+00  0.00000000000E+00 -0.16844104898E+04  0.42492588266E+04  0.39011487894E+04 0.  0.
        1    1    3    3  502    0  0.85293209387E+03 -0.12448051698E+04  0.50409139542E+03  0.15909560656E+04  0.50400001928E-02 0. -1.
       -1    1    3    3    0  502 -0.85293209387E+03  0.12448051698E+04 -0.21885018852E+04  0.26583027610E+04  0.50400001928E-02 0.  1.
</event>
<event>
 5   0  0.1501585E-07  0.3851088E+04  0.7818609E-02  0.8035280E-01
        2   -1    0    0  501    0  0.00000000000E+00  0.00000000000E+00  0.16893759664E+04  0.16893759664E+04  0.25500000920E-02 0.  1.
       -2   -1    0    0    0  501  0.00000000000E+00  0.00000000000E+00 -0.21947274968E+04  0.21947274968E+04  0.25500000920E-02 0. -1.
    10030    2    1    2    0    0  0.00000000000E+00  0.00000000000E+00 -0.50535153041E+03  0.38841034633E+04  0.38510880987E+04 0.  0.
        5    1    3    3  502    0  0.15227031280E+04 -0.66242735080E+03  0.73049564813E+03  0.18141336205E+04  0.46999998093E+01 0.  1.
       -5    1    3    3    0  502 -0.15227031280E+04  0.66242735080E+03 -0.12358471785E+04  0.20699698427E+04  0.46999998093E+01 0. -1.
</event>
<event>
 5   0  0.4750125E-08  0.3903796E+04  0.7818609E-02  0.8024240E-01
        1   -1    0    0  501    0  0.00000000000E+00  0.00000000000E+00  0.19033162582E+04  0.19033162582E+04  0.50400001928E-02 0. -1.
       -1   -1    0    0    0  501  0.00000000000E+00  0.00000000000E+00 -0.20017196256E+04  0.20017196256E+04  0.50400001928E-02 0.  1.
    10030    2    1    2    0    0  0.00000000000E+00  0.00000000000E+00 -0.98403367364E+02  0.39050358838E+04  0.39037958491E+04 0.  0.
        1    1    3    3  502    0  0.11336610488E+04  0.93511936593E+03  0.12358346907E+04  0.19201361892E+04  0.50400001928E-02 0. -1.
       -1    1    3    3    0  502 -0.11336610488E+04 -0.93511936593E+03 -0.13342380581E+04  0.19848996947E+04  0.50400001928E-02 0.  1.
</event>
<event>
 5   0  0.1520986E-07  0.3898692E+04  0.7818609E-02  0.8025301E-01
        2   -1    0    0  501    0  0.00000000000E+00  0.00000000000E+00  0.23031027565E+04  0.23031027565E+04  0.25500000920E-02 0. -1.
       -2   -1    0    0    0  501  0.00000000000E+00  0.00000000000E+00 -0.16499266531E+04  0.16499266531E+04  0.25500000920E-02 0.  1.
    10030    2    1    2    0    0  0.00000000000E+00  0.00000000000E+00  0.65317610348E+03  0.39530294096E+04  0.38986924078E+04 0.  0.
        4    1    3    3  502    0  0.42603400080E+03  0.14253123996E+04  0.16038788019E+04  0.21875669659E+04  0.12699999809E+01 0. -1.
       -4    1    3    3    0  502 -0.42603400080E+03 -0.14253123996E+04 -0.95070269847E+03  0.17654624437E+04  0.12699999809E+01 0.  1.
</event>
<event>
 5   0  0.4750125E-08  0.3986569E+04  0.7818609E-02  0.8007262E-01
       -1   -1    0    0    0  501  0.00000000000E+00  0.00000000000E+00  0.14894731701E+04  0.14894731701E+04  0.50400001928E-02 0.  1.
        1   -1    0    0  501    0  0.00000000000E+00  0.00000000000E+00 -0.26675089424E+04  0.26675089424E+04  0.50400001928E-02 0. -1.
    10030    2    1    2    0    0  0.00000000000E+00  0.00000000000E+00 -0.11780357723E+04  0.41569821125E+04  0.39865689513E+04 0.  0.
        4    1    3    3  502    0  0.14917872264E+04 -0.10173866210E+04  0.29127088651E+03  0.18290284327E+04  0.12699999809E+01 0.  1.
       -4    1    3    3    0  502 -0.14917872264E+04  0.10173866210E+04 -0.14693066588E+04  0.23279536799E+04  0.12699999809E+01 0. -1.
</event>
<event>
 5   0  0.4762788E-08  0.3918531E+04  0.7818609E-02  0.8021186E-01
       -1   -1    0    0    0  501  0.00000000000E+00  0.00000000000E+00  0.27166490695E+04  0.27166490695E+04  0.50400001928E-02 0. -1.
        1   -1    0    0  501    0  0.00000000000E+00  0.00000000000E+00 -0.14130352089E+04  0.14130352089E+04  0.50400001928E-02 0.  1.
    10030    2    1    2    0    0  0.00000000000E+00  0.00000000000E+00  0.13036138606E+04  0.41296842785E+04  0.39185307377E+04 0.  0.
        2    1    3    3  502    0 -0.18033320676E+04  0.42707358192E+03  0.13219345087E+04  0.22763807317E+04  0.25500000920E-02 0. -1.
       -2    1    3    3    0  502  0.18033320676E+04 -0.42707358192E+03 -0.18320648049E+02  0.18533035468E+04  0.25500000920E-02 0.  1.
</event>
<event>
 5   0  0.1546846E-07  0.3892474E+04  0.7818609E-02  0.8026596E-01
        2   -1    0    0  501    0  0.00000000000E+00  0.00000000000E+00  0.25521729299E+04  0.25521729299E+04  0.25500000920E-02 0.  1.
       -2   -1    0    0    0  501  0.00000000000E+00  0.00000000000E+00 -0.14841618184E+04  0.14841618184E+04  0.25500000920E-02 0. -1.
    10030    2    1    2    0    0  0.00000000000E+00  0.00000000000E+00  0.10680111115E+04  0.40363347482E+04  0.38924735664E+04 0.  0.
        2    1    3    3  502    0  0.19345164605E+04 -0.16935076466E+03  0.66842677346E+03  0.20537351263E+04  0.25500000920E-02 0. -1.
       -2    1    3    3    0  502 -0.19345164605E+04  0.16935076466E+03  0.39958433806E+03  0.19825996219E+04  0.25500000920E-02 0.  1.
</event>
<event>
 5   0  0.4750125E-08  0.3896703E+04  0.7818609E-02  0.8025715E-01
        3   -1    0    0  501    0  0.00000000000E+00  0.00000000000E+00  0.22538600810E+04  0.22538600832E+04  0.10100000352E+00 0. -1.
       -3   -1    0    0    0  501  0.00000000000E+00  0.00000000000E+00 -0.16842540773E+04  0.16842540804E+04  0.10100000352E+00 0.  1.
    10030    2    1    2    0    0  0.00000000000E+00  0.00000000000E+00  0.56960600363E+03  0.39381141636E+04  0.38967027300E+04 0.  0.
        3    1    3    3  502    0 -0.35963619385E+03 -0.13299230339E+04 -0.11075317293E+04  0.17676707865E+04  0.10100000352E+00 0.  1.
       -3    1    3    3    0  502  0.35963619385E+03  0.13299230339E+04  0.16771377329E+04  0.21704433771E+04  0.10100000352E+00 0. -1.
</event>
<event>
 5   0  0.4750125E-08  0.3871852E+04  0.7818609E-02  0.8030909E-01
       -1   -1    0    0    0  501  0.00000000000E+00  0.00000000000E+00  0.17119162417E+04  0.17119162417E+04  0.50400001928E-02 0. -1.
        1   -1    0    0  501    0  0.00000000000E+00  0.00000000000E+00 -0.21892487074E+04  0.21892487074E+04  0.50400001928E-02 0.  1.
    10030    2    1    2    0    0  0.00000000000E+00  0.00000000000E+00 -0.47733246574E+03  0.39011649491E+04  0.38718524865E+04 0.  0.
        1    1    3    3  502    0 -0.76304975310E+03 -0.15555595079E+04 -0.11088014226E+04  0.20570490765E+04  0.50400001928E-02 0.  1.
       -1    1    3    3    0  502  0.76304975310E+03  0.15555595079E+04  0.63146895687E+03  0.18441158727E+04  0.50400001928E-02 0. -1.
</event>
<event>
 5   0  0.4750125E-08  0.3948537E+04  0.7818609E-02  0.8015009E-01
       -1   -1    0    0    0  501  0.00000000000E+00  0.00000000000E+00  0.34342527960E+04  0.34342527960E+04  0.50400001928E-02 0. -1.
        1   -1    0    0  501    0  0.00000000000E+00  0.00000000000E+00 -0.11349591076E+04  0.11349591076E+04  0.50400001928E-02 0.  1.
    10030    2    1    2    0    0  0.00000000000E+00  0.00000000000E+00  0.22992936884E+04  0.45692119035E+04  0.39485371917E+04 0.  0.
        5    1    3    3  502    0  0.88372884135E+02 -0.19229839307E+04  0.16567519855E+04  0.25397886124E+04  0.46999998093E+01 0. -1.
       -5    1    3    3    0  502 -0.88372884135E+02  0.19229839307E+04  0.64254170290E+03  0.20294232911E+04  0.46999998093E+01 0.  1.
</event>
<event>
 5   0  0.1546846E-07  0.3898984E+04  0.7818609E-02  0.8025241E-01
       -2   -1    0    0    0  501  0.00000000000E+00  0.00000000000E+00  0.27821124497E+04  0.27821124497E+04  0.25500000920E-02 0.  1.
        2   -1    0    0  501    0  0.00000000000E+00  0.00000000000E+00 -0.13660551735E+04  0.13660551735E+04  0.25500000920E-02 0. -1.
    10030    2    1    2    0    0  0.00000000000E+00  0.00000000000E+00  0.14160572762E+04  0.41481676232E+04  0.38989840242E+04 0.  0.
        2    1    3    3  502    0 -0.62241154367E+03 -0.18327617599E+04  0.95550447478E+03  0.21585644766E+04  0.25500000920E-02 0.  1.
       -2    1    3    3    0  502  0.62241154367E+03  0.18327617599E+04  0.46055280145E+03  0.19896031466E+04  0.25500000920E-02 0. -1.
</event>
<event>
 5   0  0.1546846E-07  0.3911609E+04  0.7818609E-02  0.8022619E-01
        2   -1    0    0  501    0  0.00000000000E+00  0.00000000000E+00  0.27313821632E+04  0.27313821632E+04  0.25500000920E-02 0.  1.
       -2   -1    0    0    0  501  0.00000000000E+00  0.00000000000E+00 -0.14004522474E+04  0.14004522474E+04  0.25500000920E-02 0. -1.
    10030    2    1    2    0    0  0.00000000000E+00  0.00000000000E+00  0.13309299158E+04  0.41318344107E+04  0.39116085127E+04 0.  0.
        2    1    3    3  502    0 -0.69893801782E+03 -0.25454534861E+03  0.25761321853E+04  0.26813736635E+04  0.25500000920E-02 0.  1.
       -2    1    3    3    0  502  0.69893801782E+03  0.25454534861E+03 -0.12452022695E+04  0.14504607472E+04  0.25500000920E-02 0. -1.
</event>
<event>
 5   0  0.4750125E-08  0.3965694E+04  0.7818609E-02  0.8011503E-01
       -1   -1    0    0    0  501  0.00000000000E+00  0.00000000000E+00  0.18591656743E+04  0.18591656743E+04  0.50400001928E-02 0. -1.
        1   -1    0    0  501    0  0.00000000000E+00  0.00000000000E+00 -0.21147563063E+04  0.21147563063E+04  0.50400001928E-02 0.  1.
    10030    2    1    2    0    0  0.00000000000E+00  0.00000000000E+00 -0.25559063192E+03  0.39739219806E+04  0.39656940549E+04 0.  0.
        1    1    3    3  502    0 -0.25318429214E+03 -0.92552992657E+03  0.16110208209E+04  0.18751256001E+04  0.50400001928E-02 0. -1.
       -1    1    3    3    0  502  0.25318429214E+03  0.92552992657E+03 -0.18666114529E+04  0.20987963805E+04  0.50400001928E-02 0.  1.
</event>
<event>
 5   0  0.1503228E-07  0.3904835E+04  0.7818609E-02  0.8024024E-01
        2   -1    0    0  501    0  0.00000000000E+00  0.00000000000E+00  0.28615569911E+04  0.28615569911E+04  0.25500000920E-02 0.  1.
       -2   -1    0    0    0  501  0.00000000000E+00  0.00000000000E+00 -0.13321190687E+04  0.13321190687E+04  0.25500000920E-02 0. -1.
    10030    2    1    2    0    0  0.00000000000E+00  0.00000000000E+00  0.15294379224E+04  0.41936760598E+04  0.39048352764E+04 0.  0.
        3    1    3    3  502    0  0.85956095868E+03 -0.15126157432E+04  0.17163092538E+04  0.24438839770E+04  0.10100000352E+00 0.  1.
       -3    1    3    3    0  502 -0.85956095868E+03  0.15126157432E+04 -0.18687133140E+03  0.17497920828E+04  0.10100000352E+00 0. -1.
</event>
<event>
 5   0  0.1503228E-07  0.4037105E+04  0.7818609E-02  0.7997103E-01
        2   -1    0    0  501    0  0.00000000000E+00  0.00000000000E+00  0.23129150415E+04  0.23129150415E+04  0.25500000920E-02 0.  1.
       -2   -1    0    0    0  501  0.00000000000E+00  0.00000000000E+00 -0.17616536189E+04  0.17616536189E+04  0.25500000920E-02 0. -1.
    10030    2    1    2    0    0  0.00000000000E+00  0.00000000000E+00  0.55126142263E+03  0.40745686604E+04  0.40371054745E+04 0.  0.
        3    1    3    3  502    0 -0.99101425736E+03  0.16286421098E+04  0.94508889246E+03  0.21278574682E+04  0.10100000352E+00 0. -1.
       -3    1    3    3    0  502  0.99101425736E+03 -0.16286421098E+04 -0.39382746983E+03  0.19467111923E+04  0.10100000352E+00 0.  1.
</event>
<event>
 5   0  0.1520986E-07  0.3880947E+04  0.7818609E-02  0.8029004E-01
       -2   -1    0    0    0  501  0.00000000000E+00  0.00000000000E+00  0.13111662408E+04  0.13111662408E+04  0.25500000920E-02 0. -1.
        2   -1    0    0  501    0  0.00000000000E+00  0.00000000000E+00 -0.28718234347E+04  0.28718234347E+04  0.25500000920E-02 0.  1.
    10030    2    1    2    0    0  0.00000000000E+00  0.00000000000E+00 -0.15606571940E+04  0.41829896755E+04  0.38809472746E+04 0.  0.
        4    1    3    3  502    0  0.13286790961E+04  0.13122176460E+04 -0.21190076234E+03  0.18794166214E+04  0.12699999809E+01 0. -1.
       -4    1    3    3    0  502 -0.13286790961E+04 -0.13122176460E+04 -0.13487564316E+04  0.23035730541E+04  0.12699999809E+01 0.  1.
</event>
<event>
 5   0  0.4750125E-08  0.3939008E+04  0.7818609E-02  0.8016965E-01
       -1   -1    0    0    0  501  0.00000000000E+00  0.00000000000E+00  0.18467335592E+04  0.18467335592E+04  0.50400001928E-02 0. -1.
        1   -1    0    0  501    0  0.00000000000E+00  0.00000000000E+00 -0.21004357466E+04  0.21004357466E+04  0.50400001928E-02 0.  1.
    10030    2    1    2    0    0  0.00000000000E+00  0.00000000000E+00 -0.25370218741E+03  0.39471693058E+04  0.39390075817E+04 0.  0.
        4    1    3    3  502    0  0.13374731482E+04 -0.14423059160E+04 -0.22636845872E+03  0.19799810781E+04  0.12699999809E+01 0. -1.
       -4    1    3    3    0  502 -0.13374731482E+04  0.14423059160E+04 -0.27333728688E+02  0.19671882277E+04  0.12699999809E+01 0.  1.
</event>
<event>
 5   0  0.4750125E-08  0.3883870E+04  0.7818609E-02  0.8028392E-01
        1   -1    0    0  501    0  0.00000000000E+00  0.00000000000E+00  0.25384567355E+04  0.25384567355E+04  0.50400001928E-02 0. -1.
       -1   -1    0    0    0  501  0.00000000000E+00  0.00000000000E+00 -0.14855921793E+04  0.14855921794E+04  0.50400001928E-02 0.  1.
    10030    2    1    2    0    0  0.00000000000E+00  0.00000000000E+00  0.10528645562E+04  0.40240489149E+04  0.38838699638E+04 0.  0.
        4    1    3    3  502    0  0.19007203419E+04  0.37095436765E+03  0.37713101103E+03  0.19729608139E+04  0.12699999809E+01 0.  1.
       -4    1    3    3    0  502 -0.19007203419E+04 -0.37095436765E+03  0.67573354512E+03  0.20510881009E+04  0.12699999809E+01 0. -1.
</event>
<event>
 5   0  0.1501585E-07  0.3920362E+04  0.7818609E-02  0.8020808E-01
       -2   -1    0    0    0  501  0.00000000000E+00  0.00000000000E+00  0.15514807497E+04  0.15514807497E+04  0.25500000920E-02 0. -1.
        2   -1    0    0  501    0  0.00000000000E+00  0.00000000000E+00 -0.24765437520E+04  0.24765437520E+04  0.25500000920E-02 0.  1.
    10030    2    1    2    0    0  0.00000000000E+00  0.00000000000E+00 -0.92506300231E+03  0.40280245017E+04  0.39203622062E+04 0.  0.
        5    1    3    3  502    0  0.21884557589E+03  0.16276038100E+04 -0.15621083836E+04  0.22665375003E+04  0.46999998093E+01 0.  1.
       -5    1    3    3    0  502 -0.21884557589E+03 -0.16276038100E+04  0.63704538125E+03  0.17614870014E+04  0.46999998093E+01 0. -1.
</event>
<event>
 5   0  0.4750125E-08  0.3899386E+04  0.7818609E-02  0.8025157E-01
       -1   -1    0    0    0  501  0.00000000000E+00  0.00000000000E+00  0.21755616735E+04  0.21755616735E+04  0.50400001928E-02 0. -1.
        1   -1    0    0  501    0  0.00000000000E+00  0.00000000000E+00 -0.17472738967E+04  0.17472738967E+04  0.50400001928E-02 0.  1.
    10030    2    1    2    0    0  0.00000000000E+00  0.00000000000E+00  0.42828777682E+03  0.39228355703E+04  0.38993856557E+04 0.  0.
        4    1    3    3  502    0  0.10269452839E+04 -0.68619427167E+03  0.17317986724E+04  0.21271124674E+04  0.12699999809E+01 0. -1.
       -4    1    3    3    0  502 -0.10269452839E+04  0.68619427167E+03 -0.13035108955E+04  0.17957231029E+04  0.12699999809E+01 0.  1.
</event>
<event>
 5   0  0.1503228E-07  0.3928916E+04  0.7818609E-02  0.8019042E-01
       -2   -1    0    0    0  501  0.00000000000E+00  0.00000000000E+00  0.13152338395E+04  0.13152338395E+04  0.25500000920E-02 0.  1.
        2   -1    0    0  501    0  0.00000000000E+00  0.00000000000E+00 -0.29341509680E+04  0.29341509680E+04  0.25500000920E-02 0. -1.
    10030    2    1    2    0    0  0.00000000000E+00  0.00000000000E+00 -0.16189171285E+04  0.42493848075E+04  0.39289156994E+04 0.  0.
        3    1    3    3  502    0 -0.36565593611E+03  0.47594095249E+03 -0.28325582826E+04  0.28954465094E+04  0.10100000352E+00 0. -1.
       -3    1    3    3    0  502  0.36565593611E+03 -0.47594095249E+03  0.12136411541E+04  0.13539382981E+04  0.10100000352E+00 0.  1.
</event>
<event>
 5   0  0.1503228E-07  0.3900988E+04  0.7818609E-02  0.8024824E-01
       -2   -1    0    0    0  501  0.00000000000E+00  0.00000000000E+00  0.17911217896E+04  0.17911217896E+04  0.25500000920E-02 0. -1.
        2   -1    0    0  501    0  0.00000000000E+00  0.00000000000E+00 -0.21240472236E+04  0.21240472236E+04  0.25500000920E-02 0.  1.
    10030    2    1    2    0    0  0.00000000000E+00  0.00000000000E+00 -0.33292543399E+03  0.39151690132E+04  0.39009882154E+04 0.  0.
        3    1    3    3  502    0 -0.13166935352E+04 -0.10626829321E+03 -0.16067587342E+04  0.20800597241E+04  0.10100000352E+00 0.  1.
       -3    1    3    3    0  502  0.13166935352E+04  0.10626829321E+03  0.12738333002E+04  0.18351092890E+04  0.10100000352E+00 0. -1.
</event>
<event>
 5   0  0.4750125E-08  0.3937655E+04  0.7818609E-02  0.8017243E-01
        1   -1    0    0  501    0  0.00000000000E+00  0.00000000000E+00  0.17782310518E+04  0.17782310518E+04  0.50400001928E-02 0.  1.
       -1   -1    0    0    0  501  0.00000000000E+00  0.00000000000E+00 -0.21798525352E+04  0.21798525352E+04  0.50400001928E-02 0. -1.
    10030    2    1    2    0    0  0.00000000000E+00  0.00000000000E+00 -0.40162148335E+03  0.39580835870E+04  0.39376548688E+04 0.  0.
        4    1    3    3  502    0 -0.39315528080E+03 -0.22563852179E+03 -0.21266828364E+04  0.21744574765E+04  0.12699999809E+01 0. -1.
       -4    1    3    3    0  502  0.39315528080E+03  0.22563852179E+03  0.17250613531E+04  0.17836261105E+04  0.12699999809E+01 0.  1.
</event>
<event>
 5   0  0.4750125E-08  0.3905463E+04  0.7818609E-02  0.8023894E-01
        1   -1    0    0  501    0  0.00000000000E+00  0.00000000000E+00  0.15025478418E+04  0.15025478418E+04  0.50400001928E-02 0.  1.
       -1   -1    0    0    0  501  0.00000000000E+00  0.00000000000E+00 -0.25377964748E+04  0.25377964748E+04  0.50400001928E-02 0. -1.
    10030    2    1    2    0    0  0.00000000000E+00  0.00000000000E+00 -0.10352486330E+04  0.40403443166E+04  0.39054631562E+04 0.  0.
        3    1    3    3  502    0 -0.28468693722E+03 -0.18856281890E+04 -0.82970853989E+02  0.19088018473E+04  0.10100000352E+00 0.  1.
       -3    1    3    3    0  502  0.28468693722E+03  0.18856281890E+04 -0.95227777904E+03  0.21315424692E+04  0.10100000352E+00 0. -1.
</event>
<event>
 5   0  0.4750125E-08  0.3883907E+04  0.7818609E-02  0.8028385E-01
        1   -1    0    0  501    0  0.00000000000E+00  0.00000000000E+00  0.25047678079E+04  0.25047678079E+04  0.50400001928E-02 0.  1.
       -1   -1    0    0    0  501  0.00000000000E+00  0.00000000000E+00 -0.15056018545E+04  0.15056018545E+04  0.50400001928E-02 0. -1.
    10030    2    1    2    0    0  0.00000000000E+00  0.00000000000E+00  0.99916595339E+03  0.40103696623E+04  0.38839068251E+04 0.  0.
        4    1    3    3  502    0 -0.18711717934E+04  0.61373104300E+02  0.10322591355E+04  0.21378987520E+04  0.12699999809E+01 0.  1.
       -4    1    3    3    0  502  0.18711717934E+04 -0.61373104300E+02 -0.33093182075E+02  0.18724709103E+04  0.12699999809E+01 0. -1.
</event>
<event>
 5   0  0.1501585E-07  0.3895807E+04  0.7818609E-02  0.8025902E-01
       -2   -1    0    0    0  501  0.00000000000E+00  0.00000000000E+00  0.11477990954E+04  0.11477990954E+04  0.25500000920E-02 0.  1.
        2   -1    0    0  501    0  0.00000000000E+00  0.00000000000E+00 -0.33057416185E+04  0.33057416185E+04  0.25500000920E-02 0. -1.
    10030    2    1    2    0    0  0.00000000000E+00  0.00000000000E+00 -0.21579425231E+04  0.44535407139E+04  0.38958065863E+04 0.  0.
        5    1    3    3  502    0  0.17860104174E+04 -0.10153265892E+03 -0.19601436140E+04  0.26537383386E+04  0.46999998093E+01 0. -1.
       -5    1    3    3    0  502 -0.17860104174E+04  0.10153265892E+03 -0.19779890901E+03  0.17998023754E+04  0.46999998093E+01 0.  1.
</event>
<event>
 5   0  0.4750125E-08  0.3797766E+04  0.7818609E-02  0.8046634E-01
        1   -1    0    0  501    0  0.00000000000E+00  0.00000000000E+00  0.23158964959E+04  0.23158964959E+04  0.50400001928E-02 0.  1.
       -1   -1    0    0    0  501  0.00000000000E+00  0.00000000000E+00 -0.15569597154E+04  0.15569597154E+04  0.50400001928E-02 0. -1.
    10030    2    1    2    0    0  0.00000000000E+00  0.00000000000E+00  0.75893678042E+03  0.38728562113E+04  0.37977664747E+04 0.  0.
        4    1    3    3  502    0 -0.55759730043E+03 -0.81804770897E+03 -0.12729523410E+04  0.16126146715E+04  0.12699999809E+01 0. -1.
       -4    1    3    3    0  502  0.55759730043E+03  0.81804770897E+03  0.20318891214E+04  0.22602415398E+04  0.12699999809E+01 0.  1.
</event>
<event>
 5   0  0.4762788E-08  0.3960891E+04  0.7818609E-02  0.8012483E-01
       -1   -1    0    0    0  501  0.00000000000E+00  0.00000000000E+00  0.17626365759E+04  0.17626365759E+04  0.50400001928E-02 0. -1.
        1   -1    0    0  501    0  0.00000000000E+00  0.00000000000E+00 -0.22251686207E+04  0.22251686207E+04  0.50400001928E-02 0.  1.
    10030    2    1    2    0    0  0.00000000000E+00  0.00000000000E+00 -0.46253204482E+03  0.39878051966E+04  0.39608906061E+04 0.  0.
        2    1    3    3  502    0  0.10364503793E+04  0.97963860503E+03 -0.16147367076E+04  0.21543666866E+04  0.25500000920E-02 0.  1.
       -2    1    3    3    0  502 -0.10364503793E+04 -0.97963860503E+03  0.11522046628E+04  0.18334385101E+04  0.25500000920E-02 0. -1.
</event>
<event>
 5   0  0.4750125E-08  0.3907196E+04  0.7818609E-02  0.8023534E-01
       -3   -1    0    0    0  501  0.00000000000E+00  0.00000000000E+00  0.19855409446E+04  0.19855409472E+04  0.10100000352E+00 0.  1.
        3   -1    0    0  501    0  0.00000000000E+00  0.00000000000E+00 -0.19221684906E+04  0.19221684932E+04  0.10100000352E+00 0. -1.
    10030    2    1    2    0    0  0.00000000000E+00  0.00000000000E+00  0.63372454061E+02  0.39077094404E+04  0.39071955419E+04 0.  0.
        3    1    3    3  502    0  0.34264966047E+02  0.15435899035E+04  0.12287982779E+04  0.19732686325E+04  0.10100000352E+00 0.  1.
       -3    1    3    3    0  502 -0.34264966047E+02 -0.15435899035E+04 -0.11654258239E+04  0.19344408079E+04  0.10100000352E+00 0. -1.
</event>
<event>
 5   0  0.1546846E-07  0.3927083E+04  0.7818609E-02  0.8019420E-01
        2   -1    0    0  501    0  0.00000000000E+00  0.00000000000E+00  0.23235348549E+04  0.23235348549E+04  0.25500000920E-02 0.  1.
       -2   -1    0    0    0  501  0.00000000000E+00  0.00000000000E+00 -0.16593235569E+04  0.16593235569E+04  0.25500000920E-02 0. -1.
    10030    2    1    2    0    0  0.00000000000E+00  0.00000000000E+00  0.66421129804E+03  0.39828584119E+04  0.39270834573E+04 0.  0.
        2    1    3    3  502    0 -0.77594484882E+02 -0.18685263170E+04  0.93900625356E+03  0.20926404961E+04  0.25500000920E-02 0. -1.
       -2    1    3    3    0  502  0.77594484882E+02  0.18685263170E+04 -0.27479495551E+03  0.18902179158E+04  0.25500000920E-02 0.  1.
</event>
<event>
 5   0  0.1520986E-07  0.3907270E+04  0.7818609E-02  0.8023519E-01
       -2   -1    0    0    0  501  0.00000000000E+00  0.00000000000E+00  0.13162738527E+04  0.13162738527E+04  0.25500000920E-02 0.  1.
        2   -1    0    0  501    0  0.00000000000E+00  0.00000000000E+00 -0.28996168615E+04  0.28996168615E+04  0.25500000920E-02 0. -1.
    10030    2    1    2    0    0  0.00000000000E+00  0.00000000000E+00 -0.15833430089E+04  0.42158907142E+04  0.39072700739E+04 0.  0.
        4    1    3    3  502    0 -0.87595696672E+03  0.12073552237E+04 -0.21529404262E+04  0.26191909696E+04  0.12699999809E+01 0. -1.
       -4    1    3    3    0  502  0.87595696672E+03 -0.12073552237E+04  0.56959741737E+03  0.15966997446E+04  0.12699999809E+01 0.  1.
</event>
<event>
 5   0  0.1503228E-07  0.3778407E+04  0.7818609E-02  0.8050805E-01
        2   -1    0    0  501    0  0.00000000000E+00  0.00000000000E+00  0.13687599934E+04  0.13687599934E+04  0.25500000920E-02 0.  1.
       -2   -1    0    0    0  501  0.00000000000E+00  0.00000000000E+00 -0.26075349195E+04  0.26075349195E+04  0.25500000920E-02 0. -1.
    10030    2    1    2    0    0  0.00000000000E+00  0.00000000000E+00 -0.12387749261E+04  0.39762949129E+04  0.37784067961E+04 0.  0.
        3    1    3    3  502    0  0.22422547219E+03  0.11631831677E+04 -0.21681355594E+04  0.24706444419E+04  0.10100000352E+00 0. -1.
       -3    1    3    3    0  502 -0.22422547219E+03 -0.11631831677E+04  0.92936063335E+03  0.15056504710E+04  0.10100000352E+00 0.  1.
</event>
<event>
 5   0  0.4750125E-08  0.3777612E+04  0.7818609E-02  0.8050976E-01
        1   -1    0    0  501    0  0.00000000000E+00  0.00000000000E+00  0.18426531422E+04  0.18426531422E+04  0.50400001928E-02 0. -1.
       -1   -1    0    0    0  501  0.00000000000E+00  0.00000000000E+00 -0.19361148478E+04  0.19361148478E+04  0.50400001928E-02 0.  1.
    10030    2    1    2    0    0  0.00000000000E+00  0.00000000000E+00 -0.93461705590E+02  0.37787679900E+04  0.37776120012E+04 0.  0.
        1    1    3    3  502    0 -0.16993805075E+04 -0.60156425843E+03  0.51719199696E+03  0.18754362767E+04  0.50400001928E-02 0.  1.
       -1    1    3    3    0  502  0.16993805075E+04  0.60156425843E+03 -0.61065370255E+03  0.19033317133E+04  0.50400001928E-02 0. -1.
</event>
<event>
 5   0  0.4750125E-08  0.3904074E+04  0.7818609E-02  0.8024182E-01
       -1   -1    0    0    0  501  0.00000000000E+00  0.00000000000E+00  0.25433562485E+04  0.25433562485E+04  0.50400001928E-02 0. -1.
        1   -1    0    0  501    0  0.00000000000E+00  0.00000000000E+00 -0.14981969224E+04  0.14981969224E+04  0.50400001928E-02 0.  1.
    10030    2    1    2    0    0  0.00000000000E+00  0.00000000000E+00  0.10451593260E+04  0.40415531709E+04  0.39040740281E+04 0.  0.
        3    1    3    3  502    0 -0.12501729425E+03 -0.93070792087E+03 -0.12489989360E+04  0.15626403650E+04  0.10100000352E+00 0.  1.
       -3    1    3    3    0  502  0.12501729425E+03  0.93070792087E+03  0.22941582621E+04  0.24789128059E+04  0.10100000352E+00 0. -1.
</event>
<event>
 5   0  0.4750125E-08  0.3909603E+04  0.7818609E-02  0.8023035E-01
       -3   -1    0    0    0  501  0.00000000000E+00  0.00000000000E+00  0.16130704785E+04  0.16130704817E+04  0.10100000352E+00 0.  1.
        3   -1    0    0  501    0  0.00000000000E+00  0.00000000000E+00 -0.23689281093E+04  0.23689281114E+04  0.10100000352E+00 0. -1.
    10030    2    1    2    0    0  0.00000000000E+00  0.00000000000E+00 -0.75585763074E+03  0.39819985931E+04  0.39096025421E+04 0.  0.
        4    1    3    3  502    0 -0.61655341798E+03  0.69695414203E+03  0.13730219107E+04  0.16586361788E+04  0.12699999809E+01 0.  1.
       -4    1    3    3    0  502  0.61655341798E+03 -0.69695414203E+03 -0.21288795415E+04  0.23233624143E+04  0.12699999809E+01 0. -1.
</event>
<event>
 5   0  0.4750125E-08  0.3853046E+04  0.7818609E-02  0.8034866E-01
       -1   -1    0    0    0  501  0.00000000000E+00  0.00000000000E+00  0.13090489786E+04  0.13090489786E+04  0.50400001928E-02 0. -1.
        1   -1    0    0  501    0  0.00000000000E+00  0.00000000000E+00 -0.28352579939E+04  0.28352579939E+04  0.50400001928E-02 0.  1.
    10030    2    1    2    0    0  0.00000000000E+00  0.00000000000E+00 -0.15262090153E+04  0.41443069726E+04  0.38530463694E+04 0.  0.
        5    1    3    3  502    0 -0.42330059457E+03  0.19573871207E+03 -0.27736199786E+04  0.28125587839E+04  0.46999998093E+01 0.  1.
       -5    1    3    3    0  502  0.42330059457E+03 -0.19573871207E+03  0.12474109633E+04  0.13317481887E+04  0.46999998093E+01 0. -1.
</event>
<event>
 5   0  0.1546846E-07  0.3892697E+04  0.7818609E-02  0.8026550E-01
       -2   -1    0    0    0  501  0.00000000000E+00  0.00000000000E+00  0.14699576485E+04  0.14699576485E+04  0.25500000920E-02 0.  1.
        2   -1    0    0  501    0  0.00000000000E+00  0.00000000000E+00 -0.25771299296E+04  0.25771299296E+04  0.25500000920E-02 0. -1.
    10030    2    1    2    0    0  0.00000000000E+00  0.00000000000E+00 -0.11071722811E+04  0.40470875781E+04  0.38926966752E+04 0.  0.
        2    1    3    3  502    0  0.90555934406E+02 -0.16756479291E+04  0.47156218731E+03  0.17430912931E+04  0.25500000920E-02 0.  1.
       -2    1    3    3    0  502 -0.90555934406E+02  0.16756479291E+04 -0.15787344684E+04  0.23039962850E+04  0.25500000920E-02 0. -1.
</event>
<event>
 5   0  0.1546846E-07  0.3962517E+04  0.7818609E-02  0.8012151E-01
        2   -1    0    0  501    0  0.00000000000E+00  0.00000000000E+00  0.23034377486E+04  0.23034377486E+04  0.25500000920E-02 0.  1.
       -2   -1    0    0    0  501  0.00000000000E+00  0.00000000000E+00 -0.17041423498E+04  0.17041423499E+04  0.25500000920E-02 0. -1.
    10030    2    1    2    0    0  0.00000000000E+00  0.00000000000E+00  0.59929539878E+03  0.40075800985E+04  0.39625172896E+04 0.  0.
        2    1    3    3  502    0  0.37778816651E+03 -0.12845588687E+03  0.22623773448E+04  0.22972975567E+04  0.25500000920E-02 0.  1.
       -2    1    3    3    0  502 -0.37778816651E+03  0.12845588687E+03 -0.16630819460E+04  0.17102825418E+04  0.25500000920E-02 0. -1.
</event>
<event>
 5   0  0.4750125E-08  0.3851573E+04  0.7818609E-02  0.8035177E-01
        1   -1    0    0  501    0  0.00000000000E+00  0.00000000000E+00  0.22001477742E+04  0.22001477742E+04  0.50400001928E-02 0.  1.
       -1   -1    0    0    0  501  0.00000000000E+00  0.00000000000E+00 -0.16856384470E+04  0.16856384470E+04  0.50400001928E-02 0. -1.
    10030    2    1    2    0    0  0.00000000000E+00  0.00000000000E+00  0.51450932728E+03  0.38857862212E+04  0.38515730175E+04 0.  0.
        3    1    3    3  502    0  0.68994399215E+02  0.69239654690E+03 -0.15543800894E+04  0.17030181085E+04  0.10100000352E+00 0. -1.
       -3    1    3    3    0  502 -0.68994399215E+02 -0.69239654690E+03  0.20688894167E+04  0.21827681127E+04  0.10100000352E+00 0.  1.
</event>
<event>
 5   0  0.4750125E-08  0.4203378E+04  0.7818609E-02  0.7964730E-01
        1   -1    0    0  501    0  0.00000000000E+00  0.00000000000E+00  0.25831051994E+04  0.25831051995E+04  0.50400001928E-02 0.  1.
       -1   -1    0    0    0  501  0.00000000000E+00  0.00000000000E+00 -0.17099945097E+04  0.17099945097E+04  0.50400001928E-02 0. -1.
    10030    2    1    2    0    0  0.00000000000E+00  0.00000000000E+00  0.87311068979E+03  0.42930997091E+04  0.42033775509E+04 0.  0.
        1    1    3    3  502    0  0.11502952629E+02  0.19434526129E+04 -0.38049234392E+03  0.19803824884E+04  0.50400001928E-02 0. -1.
       -1    1    3    3    0  502 -0.11502952629E+02 -0.19434526129E+04  0.12536030337E+04  0.23127172207E+04  0.50400001928E-02 0.  1.
</event>
<event>
 5   0  0.1538018E-07  0.3897447E+04  0.7818609E-02  0.8025560E-01
        2   -1    0    0  501    0  0.00000000000E+00  0.00000000000E+00  0.26141873421E+04  0.26141873421E+04  0.25500000920E-02 0.  1.
       -2   -1    0    0    0  501  0.00000000000E+00  0.00000000000E+00 -0.14526590086E+04  0.14526590086E+04  0.25500000920E-02 0. -1.
    10030    2    1    2    0    0  0.00000000000E+00  0.00000000000E+00  0.11615283334E+04  0.40668463507E+04  0.38974467502E+04 0.  0.
        1    1    3    3  502    0  0.38833542152E+03  0.32731616071E+03  0.25439146691E+04  0.25941168271E+04  0.50400001928E-02 0.  1.
       -1    1    3    3    0  502 -0.38833542152E+03 -0.32731616071E+03 -0.13823863357E+04  0.14727295236E+04  0.50400001928E-02 0. -1.
</event>
<event>
 5   0  0.1501585E-07  0.3939926E+04  0.7818609E-02  0.8016776E-01
       -2   -1    0    0    0  501  0.00000000000E+00  0.00000000000E+00  0.17053227629E+04  0.17053227629E+04  0.25500000920E-02 0.  1.
        2   -1    0    0  501    0  0.00000000000E+00  0.00000000000E+00 -0.22756711784E+04  0.22756711784E+04  0.25500000920E-02 0. -1.
    10030    2    1    2    0    0  0.00000000000E+00  0.00000000000E+00 -0.57034841544E+03  0.39809939413E+04  0.39399258173E+04 0.  0.
        5    1    3    3  502    0  0.55720378278E+03 -0.18654819879E+04 -0.58869285153E+03  0.20339814321E+04  0.46999998093E+01 0.  1.
       -5    1    3    3    0  502 -0.55720378278E+03  0.18654819879E+04  0.18344436089E+02  0.19470125092E+04  0.46999998093E+01 0. -1.
</event>
<event>
 5   0  0.4762788E-08  0.3967703E+04  0.7818609E-02  0.8011094E-01
       -1   -1    0    0    0  501  0.00000000000E+00  0.00000000000E+00  0.14918954651E+04  0.14918954652E+04  0.50400001928E-02 0.  1.
        1   -1    0    0  501    0  0.00000000000E+00  0.00000000000E+00 -0.26380315152E+04  0.26380315152E+04  0.50400001928E-02 0. -1.
    10030    2    1    2    0    0  0.00000000000E+00  0.00000000000E+00 -0.11461360500E+04  0.41299269803E+04  0.39677032421E+04 0.  0.
        2    1    3    3  502    0 -0.18554419180E+04  0.15636216901E+03  0.13942849056E+03  0.18672316789E+04  0.25500000920E-02 0.  1.
       -2    1    3    3    0  502  0.18554419180E+04 -0.15636216901E+03 -0.12855645406E+04  0.22626953014E+04  0.25500000920E-02 0. -1.
</event>
<event>
 5   0  0.4762788E-08  0.3900364E+04  0.7818609E-02  0.8024953E-01
       -1   -1    0    0    0  501  0.00000000000E+00  0.00000000000E+00  0.28248604182E+04  0.28248604182E+04  0.50400001928E-02 0.  1.
        1   -1    0    0  501    0  0.00000000000E+00  0.00000000000E+00 -0.13463357174E+04  0.13463357174E+04  0.50400001928E-02 0. -1.
    10030    2    1    2    0    0  0.00000000000E+00  0.00000000000E+00  0.14785247008E+04  0.41711961356E+04  0.39003643305E+04 0.  0.
        2    1    3    3  502    0 -0.16968900910E+03  0.12977217288E+04 -0.80692929607E+03  0.15375340432E+04  0.25500000920E-02 0. -1.
       -2    1    3    3    0  502  0.16968900910E+03 -0.12977217288E+04  0.22854539968E+04  0.26336620924E+04  0.25500000920E-02 0.  1.
</event>
<event>
 5   0  0.4750125E-08  0.3889718E+04  0.7818609E-02  0.8027171E-01
        1   -1    0    0  501    0  0.00000000000E+00  0.00000000000E+00  0.23536446215E+04  0.23536446215E+04  0.50400001928E-02 0.  1.
       -1   -1    0    0    0  501  0.00000000000E+00  0.00000000000E+00 -0.16070716589E+04  0.16070716589E+04  0.50400001928E-02 0. -1.
    10030    2    1    2    0    0  0.00000000000E+00  0.00000000000E+00  0.74657296257E+03  0.39607162804E+04  0.38897175045E+04 0.  0.
        3    1    3    3  502    0  0.13930039347E+04  0.13247958426E+04  0.73063154675E+02  0.19237677150E+04  0.10100000352E+00 0. -1.
       -3    1    3    3    0  502 -0.13930039347E+04 -0.13247958426E+04  0.67350980790E+03  0.20369485654E+04  0.10100000352E+00 0.  1.
</event>
<event>
 5   0  0.1503228E-07  0.3882568E+04  0.7818609E-02  0.8028664E-01
        2   -1    0    0  501    0  0.00000000000E+00  0.00000000000E+00  0.11929345712E+04  0.11929345712E+04  0.25500000920E-02 0.  1.
       -2   -1    0    0    0  501  0.00000000000E+00  0.00000000000E+00 -0.31590871331E+04  0.31590871331E+04  0.25500000920E-02 0. -1.
    10030    2    1    2    0    0  0.00000000000E+00  0.00000000000E+00 -0.19661525619E+04  0.43520217043E+04  0.38825683533E+04 0.  0.
        3    1    3    3  502    0 -0.15335777690E+04  0.74836296601E+03 -0.20205577040E+04  0.26447233027E+04  0.10100000352E+00 0. -1.
       -3    1    3    3    0  502  0.15335777690E+04 -0.74836296601E+03  0.54405142054E+02  0.17072984016E+04  0.10100000352E+00 0.  1.
</event>
<event>
 5   0  0.4750125E-08  0.3894964E+04  0.7818609E-02  0.8026077E-01
        1   -1    0    0  501    0  0.00000000000E+00  0.00000000000E+00  0.19952983501E+04  0.19952983501E+04  0.50400001928E-02 0. -1.
       -1   -1    0    0    0  501  0.00000000000E+00  0.00000000000E+00 -0.19008117218E+04  0.19008117218E+04  0.50400001928E-02 0.  1.
    10030    2    1    2    0    0  0.00000000000E+00  0.00000000000E+00  0.94486628323E+02  0.38961100719E+04  0.38949641807E+04 0.  0.
        5    1    3    3  502    0  0.67196358946E+03  0.14058660108E+03 -0.17757540282E+04  0.19038445621E+04  0.46999998093E+01 0.  1.
       -5    1    3    3    0  502 -0.67196358946E+03 -0.14058660108E+03  0.18702406565E+04  0.19922655098E+04  0.46999998093E+01 0. -1.
</event>
<event>
 5   0  0.4750125E-08  0.3912752E+04  0.7818609E-02  0.8022382E-01
        1   -1    0    0  501    0  0.00000000000E+00  0.00000000000E+00  0.23399747619E+04  0.23399747619E+04  0.50400001928E-02 0.  1.
       -1   -1    0    0    0  501  0.00000000000E+00  0.00000000000E+00 -0.16356615519E+04  0.16356615519E+04  0.50400001928E-02 0. -1.
    10030    2    1    2    0    0  0.00000000000E+00  0.00000000000E+00  0.70431320996E+03  0.39756363139E+04  0.39127518452E+04 0.  0.
        4    1    3    3  502    0  0.11091185839E+04 -0.11854816655E+04  0.14614418081E+04  0.21843361884E+04  0.12699999809E+01 0.  1.
       -4    1    3    3    0  502 -0.11091185839E+04  0.11854816655E+04 -0.75712859812E+03  0.17913001255E+04  0.12699999809E+01 0. -1.
</event>
<event>
 5   0  0.1503228E-07  0.3916155E+04  0.7818609E-02  0.8021678E-01
        2   -1    0    0  501    0  0.00000000000E+00  0.00000000000E+00  0.25146858471E+04  0.25146858471E+04  0.25500000920E-02 0. -1.
       -2   -1    0    0    0  501  0.00000000000E+00  0.00000000000E+00 -0.15246708328E+04  0.15246708328E+04  0.25500000920E-02 0.  1.
    10030    2    1    2    0    0  0.00000000000E+00  0.00000000000E+00  0.99001501431E+03  0.40393566800E+04  0.39161553416E+04 0.  0.
        3    1    3    3  502    0 -0.80261332321E+03  0.76744535456E+03 -0.11684616689E+04  0.16119749380E+04  0.10100000352E+00 0.  1.
       -3    1    3    3    0  502  0.80261332321E+03 -0.76744535456E+03  0.21584766833E+04  0.24273817420E+04  0.10100000352E+00 0. -1.
</event>
<event>
 5   0  0.1501585E-07  0.3854455E+04  0.7818609E-02  0.8034569E-01
        2   -1    0    0  501    0  0.00000000000E+00  0.00000000000E+00  0.14254742953E+04  0.14254742953E+04  0.25500000920E-02 0. -1.
       -2   -1    0    0    0  501  0.00000000000E+00  0.00000000000E+00 -0.26055929848E+04  0.26055929848E+04  0.25500000920E-02 0.  1.
    10030    2    1    2    0    0  0.00000000000E+00  0.00000000000E+00 -0.11801186895E+04  0.40310672801E+04  0.38544549933E+04 0.  0.
        5    1    3    3  502    0 -0.10681159051E+04 -0.31175834731E+02  0.10872813025E+04  0.15244822859E+04  0.46999998093E+01 0. -1.
       -5    1    3    3    0  502  0.10681159051E+04  0.31175834731E+02 -0.22673999919E+04  0.25065849941E+04  0.46999998093E+01 0.  1.
</event>
<event>
 5   0  0.1501585E-07  0.3904927E+04  0.7818609E-02  0.8024005E-01
       -2   -1    0    0    0  501  0.00000000000E+00  0.00000000000E+00  0.18480320182E+04  0.18480320182E+04  0.25500000920E-02 0. -1.
        2   -1    0    0  501    0  0.00000000000E+00  0.00000000000E+00 -0.20627965403E+04  0.20627965403E+04  0.25500000920E-02 0.  1.
    10030    2    1    2    0    0  0.00000000000E+00  0.00000000000E+00 -0.21476452208E+03  0.39108285585E+04  0.39049271714E+04 0.  0.
        5    1    3    3  502    0 -0.38404547500E+03 -0.18758335127E+04  0.27509759178E+03  0.19344102640E+04  0.46999998093E+01 0.  1.
       -5    1    3    3    0  502  0.38404547500E+03  0.18758335127E+04 -0.48986211387E+03  0.19764182945E+04  0.46999998093E+01 0. -1.
</event>
<event>
 5   0  0.1501585E-07  0.3881929E+04  0.7818609E-02  0.8028798E-01
        2   -1    0    0  501    0  0.00000000000E+00  0.00000000000E+00  0.21643436589E+04  0.21643436589E+04  0.25500000920E-02 0.  1.
       -2   -1    0    0    0  501  0.00000000000E+00  0.00000000000E+00 -0.17406399987E+04  0.17406399987E+04  0.25500000920E-02 0. -1.
    10030    2    1    2    0    0  0.00000000000E+00  0.00000000000E+00  0.42370366019E+03  0.39049836576E+04  0.38819289760E+04 0.  0.
        5    1    3    3  502    0 -0.17599098365E+04  0.62709356663E+03 -0.31738305653E+03  0.18950680908E+04  0.46999998093E+01 0. -1.
       -5    1    3    3    0  502  0.17599098365E+04 -0.62709356663E+03  0.74108671671E+03  0.20099155668E+04  0.46999998093E+01 0.  1.
</event>
<event>
 5   0  0.1546846E-07  0.3912059E+04  0.7818609E-02  0.8022526E-01
       -2   -1    0    0    0  501  0.00000000000E+00  0.00000000000E+00  0.27344061252E+04  0.27344061252E+04  0.25500000920E-02 0. -1.
        2   -1    0    0  501    0  0.00000000000E+00  0.00000000000E+00 -0.13992260297E+04  0.13992260297E+04  0.25500000920E-02 0.  1.
    10030    2    1    2    0    0  0.00000000000E+00  0.00000000000E+00  0.13351800956E+04  0.41336321549E+04  0.39120594199E+04 0.  0.
        2    1    3    3  502    0 -0.72272636309E+03  0.99997067642E+02  0.25852415467E+04  0.26862253562E+04  0.25500000920E-02 0.  1.
       -2    1    3    3    0  502  0.72272636309E+03 -0.99997067642E+02 -0.12500614511E+04  0.14474067987E+04  0.25500000920E-02 0. -1.
</event>
<event>
 5   0  0.1520986E-07  0.3885018E+04  0.7818609E-02  0.8028152E-01
       -2   -1    0    0    0  501  0.00000000000E+00  0.00000000000E+00  0.18770090893E+04  0.18770090893E+04  0.25500000920E-02 0. -1.
        2   -1    0    0  501    0  0.00000000000E+00  0.00000000000E+00 -0.20102945037E+04  0.20102945037E+04  0.25500000920E-02 0.  1.
    10030    2    1    2    0    0  0.00000000000E+00  0.00000000000E+00 -0.13328541438E+03  0.38873035930E+04  0.38850179179E+04 0.  0.
        4    1    3    3  502    0  0.14974852703E+04 -0.63545203591E+03 -0.11289066091E+04  0.19800740313E+04  0.12699999809E+01 0.  1.
       -4    1    3    3    0  502 -0.14974852703E+04  0.63545203591E+03  0.99562119473E+03  0.19072295617E+04  0.12699999809E+01 0. -1.
</event>
<event>
 5   0  0.1503228E-07  0.3918747E+04  0.7818609E-02  0.8021141E-01
       -2   -1    0    0    0  501  0.00000000000E+00  0.00000000000E+00  0.28238321752E+04  0.28238321752E+04  0.25500000920E-02 0.  1.
        2   -1    0    0  501    0  0.00000000000E+00  0.00000000000E+00 -0.13595515777E+04  0.13595515777E+04  0.25500000920E-02 0. -1.
    10030    2    1    2    0    0  0.00000000000E+00  0.00000000000E+00  0.14642805975E+04  0.41833837528E+04  0.39187474983E+04 0.  0.
        3    1    3    3  502    0 -0.76166869786E+03  0.16192940879E+04  0.15840893791E+04  0.23898936628E+04  0.10100000352E+00 0. -1.
       -3    1    3    3    0  502  0.76166869786E+03 -0.16192940879E+04 -0.11980878156E+03  0.17934900900E+04  0.10100000352E+00 0.  1.
</event>
<event>
 5   0  0.1501585E-07  0.3740330E+04  0.7818609E-02  0.8059082E-01
       -2   -1    0    0    0  501  0.00000000000E+00  0.00000000000E+00  0.17850580986E+04  0.17850580986E+04  0.25500000920E-02 0. -1.
        2   -1    0    0  501    0  0.00000000000E+00  0.00000000000E+00 -0.19593300737E+04  0.19593300737E+04  0.25500000920E-02 0.  1.
    10030    2    1    2    0    0  0.00000000000E+00  0.00000000000E+00 -0.17427197502E+03  0.37443881723E+04  0.37403304752E+04 0.  0.
        5    1    3    3  502    0  0.81438828286E+02  0.12544752657E+03  0.17790554905E+04  0.17853374731E+04  0.46999998093E+01 0. -1.
       -5    1    3    3    0  502 -0.81438828286E+02 -0.12544752657E+03 -0.19533274655E+04  0.19590506992E+04  0.46999998093E+01 0.  1.
</event>
<event>
 5   0  0.1538018E-07  0.3933660E+04  0.7818609E-02  0.8018065E-01
       -2   -1    0    0    0  501  0.00000000000E+00  0.00000000000E+00  0.24073286903E+04  0.24073286903E+04  0.25500000920E-02 0. -1.
        2   -1    0    0  501    0  0.00000000000E+00  0.00000000000E+00 -0.16069346737E+04  0.16069346737E+04  0.25500000920E-02 0.  1.
    10030    2    1    2    0    0  0.00000000000E+00  0.00000000000E+00  0.80039401659E+03  0.40142633639E+04  0.39336598446E+04 0.  0.
        1    1    3    3  502    0  0.14787457658E+04 -0.35730013834E+03  0.16723636414E+04  0.22607858319E+04  0.50400001928E-02 0. -1.
       -1    1    3    3    0  502 -0.14787457658E+04  0.35730013834E+03 -0.87196962485E+03  0.17534775320E+04  0.50400001928E-02 0.  1.
</event>
<event>
 5   0  0.1538018E-07  0.3829804E+04  0.7818609E-02  0.8039789E-01
       -2   -1    0    0    0  501  0.00000000000E+00  0.00000000000E+00  0.15891779195E+04  0.15891779195E+04  0.25500000920E-02 0.  1.
        2   -1    0    0  501    0  0.00000000000E+00  0.00000000000E+00 -0.23073881343E+04  0.23073881343E+04  0.25500000920E-02 0. -1.
    10030    2    1    2    0    0  0.00000000000E+00  0.00000000000E+00 -0.71821021482E+03  0.38965660538E+04  0.38298043160E+04 0.  0.
        1    1    3    3  502    0 -0.42483245654E+03  0.17547716529E+04  0.29009642121E+03  0.18286230075E+04  0.50400001928E-02 0.  1.
       -1    1    3    3    0  502  0.42483245654E+03 -0.17547716529E+04 -0.10083066360E+04  0.20679430462E+04  0.50400001928E-02 0. -1.
</event>
<event>
 5   0  0.4762788E-08  0.3850547E+04  0.7818609E-02  0.8035394E-01
        1   -1    0    0  501    0  0.00000000000E+00  0.00000000000E+00  0.23469887481E+04  0.23469887481E+04  0.50400001928E-02 0. -1.
       -1   -1    0    0    0  501  0.00000000000E+00  0.00000000000E+00 -0.15793339274E+04  0.15793339274E+04  0.50400001928E-02 0.  1.
    10030    2    1    2    0    0  0.00000000000E+00  0.00000000000E+00  0.76765482063E+03  0.39263226755E+04  0.38505474713E+04 0.  0.
        2    1    3    3  502    0  0.14881543154E+04  0.78105366714E+02 -0.85916733631E+03  0.17201372696E+04  0.25500000920E-02 0.  1.
       -2    1    3    3    0  502 -0.14881543154E+04 -0.78105366714E+02  0.16268221569E+04  0.22061854058E+04  0.25500000920E-02 0. -1.
</event>
<event>
 5   0  0.1503228E-07  0.3966409E+04  0.7818609E-02  0.8011357E-01
       -2   -1    0    0    0  501  0.00000000000E+00  0.00000000000E+00  0.13560635035E+04  0.13560635035E+04  0.25500000920E-02 0. -1.
        2   -1    0    0  501    0  0.00000000000E+00  0.00000000000E+00 -0.29003799185E+04  0.29003799185E+04  0.25500000920E-02 0.  1.
    10030    2    1    2    0    0  0.00000000000E+00  0.00000000000E+00 -0.15443164150E+04  0.42564434220E+04  0.39664086293E+04 0.  0.
        3    1    3    3  502    0  0.18543423217E+04 -0.33517680368E+03 -0.14355619825E+04  0.23689168731E+04  0.10100000352E+00 0.  1.
       -3    1    3    3    0  502 -0.18543423217E+04  0.33517680368E+03 -0.10875443255E+03  0.18875265489E+04  0.10100000352E+00 0. -1.
</event>
<event>
 5   0  0.4750125E-08  0.3987586E+04  0.7818609E-02  0.8007056E-01
       -1   -1    0    0    0  501  0.00000000000E+00  0.00000000000E+00  0.32716791501E+04  0.32716791501E+04  0.50400001928E-02 0.  1.
        1   -1    0    0  501    0  0.00000000000E+00  0.00000000000E+00 -0.12150365298E+04  0.12150365298E+04  0.50400001928E-02 0. -1.
    10030    2    1    2    0    0  0.00000000000E+00  0.00000000000E+00  0.20566426203E+04  0.44867156799E+04  0.39875855759E+04 0.  0.
        4    1    3    3  502    0 -0.11628385956E+04 -0.12915943584E+04 -0.71125929205E+02  0.17393878511E+04  0.12699999809E+01 0. -1.
       -4    1    3    3    0  502  0.11628385956E+04  0.12915943584E+04  0.21277685495E+04  0.27473278288E+04  0.12699999809E+01 0.  1.
</event>
<event>
 5   0  0.4750125E-08  0.3905556E+04  0.7818609E-02  0.8023875E-01
        1   -1    0    0  501    0  0.00000000000E+00  0.00000000000E+00  0.27790521482E+04  0.27790521483E+04  0.50400001928E-02 0.  1.
       -1   -1    0    0    0  501  0.00000000000E+00  0.00000000000E+00 -0.13721737677E+04  0.13721737677E+04  0.50400001928E-02 0. -1.
    10030    2    1    2    0    0  0.00000000000E+00  0.00000000000E+00  0.14068783806E+04  0.41512259159E+04  0.39055562763E+04 0.  0.
        3    1    3    3  502    0  0.16983430957E+04 -0.17298801959E+03 -0.30438548212E+03  0.17340543987E+04  0.10100000352E+00 0. -1.
       -3    1    3    3    0  502 -0.16983430957E+04  0.17298801959E+03  0.17112638627E+04  0.24171715172E+04  0.10100000352E+00 0.  1.
</event>
<event>
 5   0  0.4750125E-08  0.3888757E+04  0.7818609E-02  0.8027372E-01
       -3   -1    0    0    0  501  0.00000000000E+00  0.00000000000E+00  0.26332524229E+04  0.26332524248E+04  0.10100000352E+00 0.  1.
        3   -1    0    0  501    0  0.00000000000E+00  0.00000000000E+00 -0.14357181222E+04  0.14357181258E+04  0.10100000352E+00 0. -1.
    10030    2    1    2    0    0  0.00000000000E+00  0.00000000000E+00  0.11975343006E+04  0.40689705506E+04  0.38887572488E+04 0.  0.
        1    1    3    3  502    0 -0.94738594888E+03 -0.97665563195E+03  0.20520952690E+04  0.24622126944E+04  0.50400001928E-02 0.  1.
       -1    1    3    3    0  502  0.94738594888E+03  0.97665563195E+03 -0.85456096837E+03  0.16067578561E+04  0.50400001928E-02 0. -1.
</event>
<event>
 5   0  0.1520986E-07  0.3888517E+04  0.7818609E-02  0.8027422E-01
       -2   -1    0    0    0  501  0.00000000000E+00  0.00000000000E+00  0.12977787268E+04  0.12977787268E+04  0.25500000920E-02 0. -1.
        2   -1    0    0  501    0  0.00000000000E+00  0.00000000000E+00 -0.29127776817E+04  0.29127776817E+04  0.25500000920E-02 0.  1.
    10030    2    1    2    0    0  0.00000000000E+00  0.00000000000E+00 -0.16149989549E+04  0.42105564085E+04  0.38885168953E+04 0.  0.
        4    1    3    3  502    0  0.18522094887E+04 -0.54645709140E+03 -0.10516598423E+04  0.21989282343E+04  0.12699999809E+01 0. -1.
       -4    1    3    3    0  502 -0.18522094887E+04  0.54645709140E+03 -0.56333911254E+03  0.20116281742E+04  0.12699999809E+01 0.  1.
</event>
<event>
 5   0  0.4750125E-08  0.3885690E+04  0.7818609E-02  0.8028012E-01
       -1   -1    0    0    0  501  0.00000000000E+00  0.00000000000E+00  0.25904832492E+04  0.25904832492E+04  0.50400001928E-02 0.  1.
        1   -1    0    0  501    0  0.00000000000E+00  0.00000000000E+00 -0.14571206190E+04  0.14571206190E+04  0.50400001928E-02 0. -1.
    10030    2    1    2    0    0  0.00000000000E+00  0.00000000000E+00  0.11333626301E+04  0.40476038682E+04  0.38856899288E+04 0.  0.
        4    1    3    3  502    0 -0.31139223433E+03  0.10298277123E+04  0.22518481314E+04  0.24956626096E+04  0.12699999809E+01 0.  1.
       -4    1    3    3    0  502  0.31139223433E+03 -0.10298277123E+04 -0.11184855013E+04  0.15519412586E+04  0.12699999809E+01 0. -1.
</event>
<event>
 5   0  0.1546846E-07  0.3685871E+04  0.7818609E-02  0.8071100E-01
        2   -1    0    0  501    0  0.00000000000E+00  0.00000000000E+00  0.27249698489E+04  0.27249698489E+04  0.25500000920E-02 0. -1.
       -2   -1    0    0    0  501  0.00000000000E+00  0.00000000000E+00 -0.12464030422E+04  0.12464030422E+04  0.25500000920E-02 0.  1.
    10030    2    1    2    0    0  0.00000000000E+00  0.00000000000E+00  0.14785668067E+04  0.39713728911E+04  0.36858707029E+04 0.  0.
        2    1    3    3  502    0  0.34051637717E+03 -0.17157668381E+04  0.11416848887E+03  0.17529522782E+04  0.25500000920E-02 0.  1.
       -2    1    3    3    0  502 -0.34051637717E+03  0.17157668381E+04  0.13643983178E+04  0.22184206128E+04  0.25500000920E-02 0. -1.
</event>
<event>
 5   0  0.1538018E-07  0.3796368E+04  0.7818609E-02  0.8046935E-01
        2   -1    0    0  501    0  0.00000000000E+00  0.00000000000E+00  0.12066242634E+04  0.12066242635E+04  0.25500000920E-02 0.  1.
       -2   -1    0    0    0  501  0.00000000000E+00  0.00000000000E+00 -0.29861012915E+04  0.29861012915E+04  0.25500000920E-02 0. -1.
    10030    2    1    2    0    0  0.00000000000E+00  0.00000000000E+00 -0.17794770280E+04  0.41927255549E+04  0.37963678807E+04 0.  0.
        1    1    3    3  502    0  0.27838133857E+03 -0.17198188090E+04 -0.17219564462E+04  0.24495728011E+04  0.50400001928E-02 0.  1.
       -1    1    3    3    0  502 -0.27838133857E+03  0.17198188090E+04 -0.57520581837E+02  0.17431527538E+04  0.50400001928E-02 0. -1.
</event>
<event>
 5   0  0.1501585E-07  0.3901078E+04  0.7818609E-02  0.8024805E-01
        2   -1    0    0  501    0  0.00000000000E+00  0.00000000000E+00  0.24562079883E+04  0.24562079883E+04  0.25500000920E-02 0. -1.
       -2   -1    0    0    0  501  0.00000000000E+00  0.00000000000E+00 -0.15489744232E+04  0.15489744232E+04  0.25500000920E-02 0.  1.
    10030    2    1    2    0    0  0.00000000000E+00  0.00000000000E+00  0.90723356505E+03  0.40051824115E+04  0.39010784929E+04 0.  0.
        5    1    3    3  502    0  0.13845339069E+04  0.13685473826E+04  0.32903114469E+03  0.19743707002E+04  0.46999998093E+01 0.  1.
       -5    1    3    3    0  502 -0.13845339069E+04 -0.13685473826E+04  0.57820242035E+03  0.20308117113E+04  0.46999998093E+01 0. -1.
</event>
<event>
 5   0  0.4762788E-08  0.3898504E+04  0.7818609E-02  0.8025340E-01
        1   -1    0    0  501    0  0.00000000000E+00  0.00000000000E+00  0.16044545808E+04  0.16044545809E+04  0.50400001928E-02 0. -1.
       -1   -1    0    0    0  501  0.00000000000E+00  0.00000000000E+00 -0.23681468843E+04  0.23681468843E+04  0.50400001928E-02 0.  1.
    10030    2    1    2    0    0  0.00000000000E+00  0.00000000000E+00 -0.76369230343E+03  0.39726014651E+04  0.38985043884E+04 0.  0.
        2    1    3    3  502    0 -0.57802319400E+03 -0.12136320258E+04  0.10565676156E+04  0.17097802880E+04  0.25500000920E-02 0. -1.
       -2    1    3    3    0  502  0.57802319400E+03  0.12136320258E+04 -0.18202599191E+04  0.22628211771E+04  0.25500000920E-02 0.  1.
</event>
<event>
 5   0  0.4750125E-08  0.3902958E+04  0.7818609E-02  0.8024414E-01
        1   -1    0    0  501    0  0.00000000000E+00  0.00000000000E+00  0.19964676877E+04  0.19964676877E+04  0.50400001928E-02 0. -1.
       -1   -1    0    0    0  501  0.00000000000E+00  0.00000000000E+00 -0.19075041049E+04  0.19075041049E+04  0.50400001928E-02 0.  1.
    10030    2    1    2    0    0  0.00000000000E+00  0.00000000000E+00  0.88963582843E+02  0.39039717926E+04  0.39029580113E+04 0.  0.
        4    1    3    3  502    0  0.14084162398E+04 -0.43925184586E+03 -0.12332263016E+04  0.19228695256E+04  0.12699999809E+01 0.  1.
       -4    1    3    3    0  502 -0.14084162398E+04  0.43925184586E+03  0.13221898845E+04  0.19811022670E+04  0.12699999809E+01 0. -1.
</event>
<event>
 5   0  0.1520986E-07  0.4147374E+04  0.7818609E-02  0.7975459E-01
        2   -1    0    0  501    0  0.00000000000E+00  0.00000000000E+00  0.14792632214E+04  0.14792632214E+04  0.25500000920E-02 0. -1.
       -2   -1    0    0    0  501  0.00000000000E+00  0.00000000000E+00 -0.29069724106E+04  0.29069724106E+04  0.25500000920E-02 0.  1.
    10030    2    1    2    0    0  0.00000000000E+00  0.00000000000E+00 -0.14277091892E+04  0.43862356321E+04  0.41473738065E+04 0.  0.
        4    1    3    3  502    0  0.19247229537E+04  0.57979376916E+03 -0.17514953683E+03  0.20177706104E+04  0.12699999809E+01 0. -1.
       -4    1    3    3    0  502 -0.19247229537E+04 -0.57979376916E+03 -0.12525596524E+04  0.23684650216E+04  0.12699999809E+01 0.  1.
</event>
<event>
 5   0  0.1503228E-07  0.3898037E+04  0.7818609E-02  0.8025438E-01
       -2   -1    0    0    0  501  0.00000000000E+00  0.00000000000E+00  0.14226193685E+04  0.14226193685E+04  0.25500000920E-02 0.  1.
        2   -1    0    0  501    0  0.00000000000E+00  0.00000000000E+00 -0.26701969739E+04  0.26701969739E+04  0.25500000920E-02 0. -1.
    10030    2    1    2    0    0  0.00000000000E+00  0.00000000000E+00 -0.12475776054E+04  0.40928163423E+04  0.38980374203E+04 0.  0.
        3    1    3    3  502    0 -0.54089057833E+02 -0.76600326619E+03  0.12570875729E+04  0.14730769858E+04  0.10100000352E+00 0.  1.
       -3    1    3    3    0  502  0.54089057833E+02  0.76600326619E+03 -0.25046651783E+04  0.26197393565E+04  0.10100000352E+00 0. -1.
</event>
<event>
 5   0  0.4750125E-08  0.3789627E+04  0.7818609E-02  0.8048384E-01
        1   -1    0    0  501    0  0.00000000000E+00  0.00000000000E+00  0.18946447717E+04  0.18946447717E+04  0.50400001928E-02 0.  1.
       -1   -1    0    0    0  501  0.00000000000E+00  0.00000000000E+00 -0.18949826697E+04  0.18949826697E+04  0.50400001928E-02 0. -1.
    10030    2    1    2    0    0  0.00000000000E+00  0.00000000000E+00 -0.33789799478E+00  0.37896274413E+04  0.37896274263E+04 0.  0.
        1    1    3    3  502    0  0.88211603609E+03  0.16619709105E+04 -0.22387187568E+03  0.18948336669E+04  0.50400001928E-02 0.  1.
       -1    1    3    3    0  502 -0.88211603609E+03 -0.16619709105E+04  0.22353397769E+03  0.18947937744E+04  0.50400001928E-02 0. -1.
</event>
<event>
 5   0  0.4750125E-08  0.3748777E+04  0.7818609E-02  0.8057237E-01
        1   -1    0    0  501    0  0.00000000000E+00  0.00000000000E+00  0.24956245624E+04  0.24956245624E+04  0.50400001928E-02 0. -1.
       -1   -1    0    0    0  501  0.00000000000E+00  0.00000000000E+00 -0.14077965987E+04  0.14077965987E+04  0.50400001928E-02 0.  1.
    10030    2    1    2    0    0  0.00000000000E+00  0.00000000000E+00  0.10878279637E+04  0.39034211611E+04  0.37487767448E+04 0.  0.
        3    1    3    3  502    0 -0.67739857838E+03  0.73535782689E+03  0.21947866459E+04  0.24117853135E+04  0.10100000352E+00 0. -1.
       -3    1    3    3    0  502  0.67739857838E+03 -0.73535782689E+03 -0.11069586822E+04  0.14916358476E+04  0.10100000352E+00 0.  1.
</event>
<event>
 5   0  0.4762788E-08  0.3887428E+04  0.7818609E-02  0.8027649E-01
        1   -1    0    0  501    0  0.00000000000E+00  0.00000000000E+00  0.12264205889E+04  0.12264205889E+04  0.50400001928E-02 0.  1.
       -1   -1    0    0    0  501  0.00000000000E+00  0.00000000000E+00 -0.30805284485E+04  0.30805284485E+04  0.50400001928E-02 0. -1.
    10030    2    1    2    0    0  0.00000000000E+00  0.00000000000E+00 -0.18541078595E+04  0.43069490374E+04  0.38874276914E+04 0.  0.
        2    1    3    3  502    0  0.18307265001E+04  0.54547394587E+03 -0.13248598228E+04  0.23247268429E+04  0.25500000920E-02 0. -1.
       -2    1    3    3    0  502 -0.18307265001E+04 -0.54547394587E+03 -0.52924803671E+03  0.19822221945E+04  0.25500000920E-02 0.  1.
</event>
<event>
 5   0  0.4762788E-08  0.3917606E+04  0.7818609E-02  0.8021378E-01
        1   -1    0    0  501    0  0.00000000000E+00  0.00000000000E+00  0.22655095686E+04  0.22655095686E+04  0.50400001928E-02 0.  1.
       -1   -1    0    0    0  501  0.00000000000E+00  0.00000000000E+00 -0.16936182754E+04  0.16936182754E+04  0.50400001928E-02 0. -1.
    10030    2    1    2    0    0  0.00000000000E+00  0.00000000000E+00  0.57189129316E+03  0.39591278440E+04  0.39176055996E+04 0.  0.
        2    1    3    3  502    0  0.36202906397E+03 -0.20268063584E+03 -0.16487017170E+04  0.17001064187E+04  0.25500000920E-02 0. -1.
       -2    1    3    3    0  502 -0.36202906397E+03  0.20268063584E+03  0.22205930101E+04  0.22590214253E+04  0.25500000920E-02 0.  1.
</event>
<event>
 5   0  0.1501585E-07  0.3896086E+04  0.7818609E-02  0.8025844E-01
       -2   -1    0    0    0  501  0.00000000000E+00  0.00000000000E+00  0.16183336350E+04  0.16183336350E+04  0.25500000920E-02 0. -1.
        2   -1    0    0  501    0  0.00000000000E+00  0.00000000000E+00 -0.23449256822E+04  0.23449256822E+04  0.25500000920E-02 0.  1.
    10030    2    1    2    0    0  0.00000000000E+00  0.00000000000E+00 -0.72659204711E+03  0.39632593172E+04  0.38960862943E+04 0.  0.
        5    1    3    3  502    0  0.78932536912E+02 -0.19374953390E+04 -0.55287298635E+03  0.20163851723E+04  0.46999998093E+01 0. -1.
       -5    1    3    3    0  502 -0.78932536912E+02  0.19374953390E+04 -0.17371906076E+03  0.19468741449E+04  0.46999998093E+01 0.  1.
</event>
<event>
 5   0  0.4750125E-08  0.3893133E+04  0.7818609E-02  0.8026459E-01
        3   -1    0    0  501    0  0.00000000000E+00  0.00000000000E+00  0.23356915364E+04  0.23356915385E+04  0.10100000352E+00 0. -1.
       -3   -1    0    0    0  501  0.00000000000E+00  0.00000000000E+00 -0.16222694529E+04  0.16222694561E+04  0.10100000352E+00 0.  1.
    10030    2    1    2    0    0  0.00000000000E+00  0.00000000000E+00  0.71342208342E+03  0.39579609946E+04  0.38931329499E+04 0.  0.
        1    1    3    3  502    0 -0.99484720438E+03  0.15364319167E+04  0.10301437797E+04  0.21003666827E+04  0.50400001928E-02 0. -1.
       -1    1    3    3    0  502  0.99484720438E+03 -0.15364319167E+04 -0.31672169628E+03  0.18575943119E+04  0.50400001928E-02 0.  1.
</event>
<event>
 5   0  0.4750125E-08  0.3921309E+04  0.7818609E-02  0.8020612E-01
       -1   -1    0    0    0  501  0.00000000000E+00  0.00000000000E+00  0.23789629602E+04  0.23789629603E+04  0.50400001928E-02 0. -1.
        1   -1    0    0  501    0  0.00000000000E+00  0.00000000000E+00 -0.16158996511E+04  0.16158996511E+04  0.50400001928E-02 0.  1.
    10030    2    1    2    0    0  0.00000000000E+00  0.00000000000E+00  0.76306330917E+03  0.39948626113E+04  0.39213086680E+04 0.  0.
        3    1    3    3  502    0  0.82533942965E+03 -0.15932364525E+04 -0.42359481362E+03  0.18436431715E+04  0.10100000352E+00 0. -1.
       -3    1    3    3    0  502 -0.82533942965E+03  0.15932364525E+04  0.11866581228E+04  0.21512194398E+04  0.10100000352E+00 0.  1.
</event>
<event>
 5   0  0.4750125E-08  0.4018461E+04  0.7818609E-02  0.8000833E-01
        1   -1    0    0  501    0  0.00000000000E+00  0.00000000000E+00  0.18274849474E+04  0.18274849474E+04  0.50400001928E-02 0. -1.
       -1   -1    0    0    0  501  0.00000000000E+00  0.00000000000E+00 -0.22090512518E+04  0.22090512518E+04  0.50400001928E-02 0.  1.
    10030    2    1    2    0    0  0.00000000000E+00  0.00000000000E+00 -0.38156630445E+03  0.40365361992E+04  0.40184613526E+04 0.  0.
        5    1    3    3  502    0 -0.10934038823E+04  0.53426559168E+03  0.14151618711E+04  0.18664610855E+04  0.46999998093E+01 0. -1.
       -5    1    3    3    0  502  0.10934038823E+04 -0.53426559168E+03 -0.17967281756E+04  0.21700751137E+04  0.46999998093E+01 0.  1.
</event>
<event>
 5   0  0.4750125E-08  0.3904284E+04  0.7818609E-02  0.8024139E-01
       -1   -1    0    0    0  501  0.00000000000E+00  0.00000000000E+00  0.19060226940E+04  0.19060226940E+04  0.50400001928E-02 0. -1.
        1   -1    0    0  501    0  0.00000000000E+00  0.00000000000E+00 -0.19993768107E+04  0.19993768107E+04  0.50400001928E-02 0.  1.
    10030    2    1    2    0    0  0.00000000000E+00  0.00000000000E+00 -0.93354116717E+02  0.39053995047E+04  0.39042835835E+04 0.  0.
        1    1    3    3  502    0  0.16463164831E+04 -0.81817718344E+03 -0.70343589529E+03  0.19683988226E+04  0.50400001928E-02 0.  1.
       -1    1    3    3    0  502 -0.16463164831E+04  0.81817718344E+03  0.61008177857E+03  0.19370006821E+04  0.50400001928E-02 0. -1.
</event>
<event>
 5   0  0.1546846E-07  0.3922901E+04  0.7818609E-02  0.8020283E-01
       -2   -1    0    0    0  501  0.00000000000E+00  0.00000000000E+00  0.22718635337E+04  0.22718635337E+04  0.25500000920E-02 0. -1.
        2   -1    0    0  501    0  0.00000000000E+00  0.00000000000E+00 -0.16934499453E+04  0.16934499453E+04  0.25500000920E-02 0.  1.
    10030    2    1    2    0    0  0.00000000000E+00  0.00000000000E+00  0.57841358834E+03  0.39653134790E+04  0.39229005478E+04 0.  0.
        2    1    3    3  502    0  0.12058149929E+04  0.23481872354E+03 -0.12564288111E+04  0.17571974810E+04  0.25500000920E-02 0.  1.
       -2    1    3    3    0  502 -0.12058149929E+04 -0.23481872354E+03  0.18348423994E+04  0.22081159980E+04  0.25500000920E-02 0. -1.
</event>
<event>
 5   0  0.1538018E-07  0.3869419E+04  0.7818609E-02  0.8031420E-01
       -2   -1    0    0    0  501  0.00000000000E+00  0.00000000000E+00  0.23044140251E+04  0.23044140251E+04  0.25500000920E-02 0.  1.
        2   -1    0    0  501    0  0.00000000000E+00  0.00000000000E+00 -0.16243181065E+04  0.16243181065E+04  0.25500000920E-02 0. -1.
    10030    2    1    2    0    0  0.00000000000E+00  0.00000000000E+00  0.68009591857E+03  0.39287321316E+04  0.38694192979E+04 0.  0.
        1    1    3    3  502    0 -0.18875234126E+04  0.10091344402E+03  0.75889195786E+03  0.20368714147E+04  0.50400001928E-02 0.  1.
       -1    1    3    3    0  502  0.18875234126E+04 -0.10091344402E+03 -0.78796039288E+02  0.18918607169E+04  0.50400001928E-02 0. -1.
</event>
<event>
 5   0  0.4762788E-08  0.3926154E+04  0.7818609E-02  0.8019612E-01
        1   -1    0    0  501    0  0.00000000000E+00  0.00000000000E+00  0.20092376846E+04  0.20092376846E+04  0.50400001928E-02 0. -1.
       -1   -1    0    0    0  501  0.00000000000E+00  0.00000000000E+00 -0.19179764186E+04  0.19179764186E+04  0.50400001928E-02 0.  1.
    10030    2    1    2    0    0  0.00000000000E+00  0.00000000000E+00  0.91261266005E+02  0.39272141031E+04  0.39261535876E+04 0.  0.
        2    1    3    3  502    0 -0.19100772281E+04  0.24878305769E+01  0.49881955561E+03  0.19741383325E+04  0.25500000920E-02 0. -1.
       -2    1    3    3    0  502  0.19100772281E+04 -0.24878305769E+01 -0.40755828961E+03  0.19530757707E+04  0.25500000920E-02 0.  1.
</event>
<event>
 5   0  0.4750125E-08  0.3843113E+04  0.7818609E-02  0.8036966E-01
        1   -1    0    0  501    0  0.00000000000E+00  0.00000000000E+00  0.22430935939E+04  0.22430935939E+04  0.50400001928E-02 0.  1.
       -1   -1    0    0    0  501  0.00000000000E+00  0.00000000000E+00 -0.16461106695E+04  0.16461106695E+04  0.50400001928E-02 0. -1.
    10030    2    1    2    0    0  0.00000000000E+00  0.00000000000E+00  0.59698292436E+03  0.38892042634E+04  0.38431134762E+04 0.  0.
        3    1    3    3  502    0  0.16557111004E+04 -0.68358962436E+03 -0.40533955403E+03  0.18365658678E+04  0.10100000352E+00 0.  1.
       -3    1    3    3    0  502 -0.16557111004E+04  0.68358962436E+03  0.10023224784E+04  0.20526383956E+04  0.10100000352E+00 0. -1.
</event>
<event>
 5   0  0.1546846E-07  0.3909518E+04  0.7818609E-02  0.8023053E-01
       -2   -1    0    0    0  501  0.00000000000E+00  0.00000000000E+00  0.21721525499E+04  0.21721525499E+04  0.25500000920E-02 0.  1.
        2   -1    0    0  501    0  0.00000000000E+00  0.00000000000E+00 -0.17591226484E+04  0.17591226484E+04  0.25500000920E-02 0. -1.
    10030    2    1    2    0    0  0.00000000000E+00  0.00000000000E+00  0.41302990148E+03  0.39312751983E+04  0.39095179991E+04 0.  0.
        2    1    3    3  502    0 -0.46162312384E+03  0.90189137028E+03 -0.14744877422E+04  0.17890271250E+04  0.25500000920E-02 0. -1.
       -2    1    3    3    0  502  0.46162312384E+03 -0.90189137028E+03  0.18875176437E+04  0.21422480733E+04  0.25500000920E-02 0.  1.
</event>
<event>
 5   0  0.1538018E-07  0.3898208E+04  0.7818609E-02  0.8025402E-01
        2   -1    0    0  501    0  0.00000000000E+00  0.00000000000E+00  0.24692374753E+04  0.24692374753E+04  0.25500000920E-02 0.  1.
       -2   -1    0    0    0  501  0.00000000000E+00  0.00000000000E+00 -0.15385341929E+04  0.15385341929E+04  0.25500000920E-02 0. -1.
    10030    2    1    2    0    0  0.00000000000E+00  0.00000000000E+00  0.93070328242E+03  0.40077716682E+04  0.38982079401E+04 0.  0.
        1    1    3    3  502    0  0.28585029684E+03 -0.19262303738E+04  0.55095307727E+03  0.20237645957E+04  0.50400001928E-02 0. -1.
       -1    1    3    3    0  502 -0.28585029684E+03  0.19262303738E+04  0.37975020516E+03  0.19840070725E+04  0.50400001928E-02 0.  1.
</event>
<event>
 5   0  0.4750125E-08  0.3900805E+04  0.7818609E-02  0.8024862E-01
        1   -1    0    0  501    0  0.00000000000E+00  0.00000000000E+00  0.14678607965E+04  0.14678607965E+04  0.50400001928E-02 0.  1.
       -1   -1    0    0    0  501  0.00000000000E+00  0.00000000000E+00 -0.25915736696E+04  0.25915736696E+04  0.50400001928E-02 0. -1.
    10030    2    1    2    0    0  0.00000000000E+00  0.00000000000E+00 -0.11237128732E+04  0.40594344661E+04  0.39008047328E+04 0.  0.
        1    1    3    3  502    0 -0.16659651305E+04  0.83627720687E+03 -0.11590119013E+04  0.21950188997E+04  0.50400001928E-02 0. -1.
       -1    1    3    3    0  502  0.16659651305E+04 -0.83627720687E+03  0.35299028136E+02  0.18644155664E+04  0.50400001928E-02 0.  1.
</event>
<event>
 5   0  0.1546846E-07  0.3900365E+04  0.7818609E-02  0.8024953E-01
        2   -1    0    0  501    0  0.00000000000E+00  0.00000000000E+00  0.24151594192E+04  0.24151594192E+04  0.25500000920E-02 0.  1.
       -2   -1    0    0    0  501  0.00000000000E+00  0.00000000000E+00 -0.15747251251E+04  0.15747251251E+04  0.25500000920E-02 0. -1.
    10030    2    1    2    0    0  0.00000000000E+00  0.00000000000E+00  0.84043429411E+03  0.39898845443E+04  0.39003652232E+04 0.  0.
        2    1    3    3  502    0  0.11492695971E+04 -0.13928439889E+04 -0.33314844181E+03  0.18362523978E+04  0.25500000920E-02 0. -1.
       -2    1    3    3    0  502 -0.11492695971E+04  0.13928439889E+04  0.11735827359E+04  0.21536321465E+04  0.25500000920E-02 0.  1.
</event>
<event>
 5   0  0.4750125E-08  0.3942354E+04  0.7818609E-02  0.8016278E-01
       -1   -1    0    0    0  501  0.00000000000E+00  0.00000000000E+00  0.18015737171E+04  0.18015737171E+04  0.50400001928E-02 0. -1.
        1   -1    0    0  501    0  0.00000000000E+00  0.00000000000E+00 -0.21567468665E+04  0.21567468665E+04  0.50400001928E-02 0.  1.
    10030    2    1    2    0    0  0.00000000000E+00  0.00000000000E+00 -0.35517314944E+03  0.39583205836E+04  0.39423538498E+04 0.  0.
        4    1    3    3  502    0  0.97189228714E+03 -0.13878687995E+04 -0.11890305526E+04  0.20699153824E+04  0.12699999809E+01 0.  1.
       -4    1    3    3    0  502 -0.97189228714E+03  0.13878687995E+04  0.83385740317E+03  0.18884052012E+04  0.12699999809E+01 0. -1.
</event>
<event>
 5   0  0.4750125E-08  0.3921114E+04  0.7818609E-02  0.8020652E-01
        1   -1    0    0  501    0  0.00000000000E+00  0.00000000000E+00  0.14068294826E+04  0.14068294826E+04  0.50400001928E-02 0.  1.
       -1   -1    0    0    0  501  0.00000000000E+00  0.00000000000E+00 -0.27322317503E+04  0.27322317503E+04  0.50400001928E-02 0. -1.
    10030    2    1    2    0    0  0.00000000000E+00  0.00000000000E+00 -0.13254022677E+04  0.41390612329E+04  0.39211142190E+04 0.  0.
        3    1    3    3  502    0  0.16372542363E+04  0.98856443172E+03 -0.20754643196E+03  0.19237818488E+04  0.10100000352E+00 0. -1.
       -3    1    3    3    0  502 -0.16372542363E+04 -0.98856443172E+03 -0.11178558357E+04  0.22152793841E+04  0.10100000352E+00 0.  1.
</event>
<event>
 5   0  0.1501585E-07  0.3693681E+04  0.7818609E-02  0.8069364E-01
        2   -1    0    0  501    0  0.00000000000E+00  0.00000000000E+00  0.24556644702E+04  0.24556644702E+04  0.25500000920E-02 0.  1.
       -2   -1    0    0    0  501  0.00000000000E+00  0.00000000000E+00 -0.13889601195E+04  0.13889601195E+04  0.25500000920E-02 0. -1.
    10030    2    1    2    0    0  0.00000000000E+00  0.00000000000E+00  0.10667043507E+04  0.38446245897E+04  0.36936810993E+04 0.  0.
        5    1    3    3  502    0  0.12285189676E+04  0.54497401195E+03 -0.78511748594E+03  0.15564983405E+04  0.46999998093E+01 0. -1.
       -5    1    3    3    0  502 -0.12285189676E+04 -0.54497401195E+03  0.18518218366E+04  0.22881262491E+04  0.46999998093E+01 0.  1.
</event>
<event>
 5   0  0.1546846E-07  0.3870882E+04  0.7818609E-02  0.8031113E-01
       -2   -1    0    0    0  501  0.00000000000E+00  0.00000000000E+00  0.14816926995E+04  0.14816926995E+04  0.25500000920E-02 0.  1.
        2   -1    0    0  501    0  0.00000000000E+00  0.00000000000E+00 -0.25281437445E+04  0.25281437445E+04  0.25500000920E-02 0. -1.
    10030    2    1    2    0    0  0.00000000000E+00  0.00000000000E+00 -0.10464510450E+04  0.40098364439E+04  0.38708821369E+04 0.  0.
        2    1    3    3  502    0 -0.90440106323E+03 -0.10452639707E+04  0.88018180597E+03  0.16386696016E+04  0.25500000920E-02 0.  1.
       -2    1    3    3    0  502  0.90440106323E+03  0.10452639707E+04 -0.19266328510E+04  0.23711668423E+04  0.25500000920E-02 0. -1.
</event>
<event>
 5   0  0.4750125E-08  0.3863220E+04  0.7818609E-02  0.8032722E-01
        3   -1    0    0  501    0  0.00000000000E+00  0.00000000000E+00  0.18614129370E+04  0.18614129397E+04  0.10100000352E+00 0.  1.
       -3   -1    0    0    0  501  0.00000000000E+00  0.00000000000E+00 -0.20044545728E+04  0.20044545754E+04  0.10100000352E+00 0. -1.
    10030    2    1    2    0    0  0.00000000000E+00  0.00000000000E+00 -0.14304163583E+03  0.38658675151E+04  0.38632202545E+04 0.  0.
        5    1    3    3  502    0  0.15077435231E+03 -0.22236185618E+03 -0.19856613920E+04  0.20037592056E+04  0.46999998093E+01 0. -1.
       -5    1    3    3    0  502 -0.15077435231E+03  0.22236185618E+03  0.18426197562E+04  0.18621083095E+04  0.46999998093E+01 0.  1.
</event>
<event>
 5   0  0.4762788E-08  0.3911853E+04  0.7818609E-02  0.8022568E-01
        1   -1    0    0  501    0  0.00000000000E+00  0.00000000000E+00  0.15056243109E+04  0.15056243109E+04  0.50400001928E-02 0. -1.
       -1   -1    0    0    0  501  0.00000000000E+00  0.00000000000E+00 -0.25409055797E+04  0.25409055797E+04  0.50400001928E-02 0.  1.
    10030    2    1    2    0    0  0.00000000000E+00  0.00000000000E+00 -0.10352812688E+04  0.40465298907E+04  0.39118533780E+04 0.  0.
        2    1    3    3  502    0  0.14998039037E+04  0.55020802638E+03  0.64970946278E+03  0.17246051745E+04  0.25500000920E-02 0. -1.
       -2    1    3    3    0  502 -0.14998039037E+04 -0.55020802638E+03 -0.16849907316E+04  0.23219247162E+04  0.25500000920E-02 0.  1.
</event>
<event>
 5   0  0.4750125E-08  0.3883340E+04  0.7818609E-02  0.8028503E-01
        1   -1    0    0  501    0  0.00000000000E+00  0.00000000000E+00  0.21412983153E+04  0.21412983153E+04  0.50400001928E-02 0.  1.
       -1   -1    0    0    0  501  0.00000000000E+00  0.00000000000E+00 -0.17606521220E+04  0.17606521220E+04  0.50400001928E-02 0. -1.
    10030    2    1    2    0    0  0.00000000000E+00  0.00000000000E+00  0.38064619330E+03  0.39019504374E+04  0.38833395025E+04 0.  0.
        1    1    3    3  502    0 -0.12168609525E+04  0.83805762743E+03  0.14561185126E+04  0.20744571066E+04  0.50400001928E-02 0.  1.
       -1    1    3    3    0  502  0.12168609525E+04 -0.83805762743E+03 -0.10754723193E+04  0.18274933308E+04  0.50400001928E-02 0. -1.
</event>
<event>
 5   0  0.1546846E-07  0.3927242E+04  0.7818609E-02  0.8019387E-01
        2   -1    0    0  501    0  0.00000000000E+00  0.00000000000E+00  0.23269987008E+04  0.23269987008E+04  0.25500000920E-02 0.  1.
       -2   -1    0    0    0  501  0.00000000000E+00  0.00000000000E+00 -0.16569877691E+04  0.16569877691E+04  0.25500000920E-02 0. -1.
    10030    2    1    2    0    0  0.00000000000E+00  0.00000000000E+00  0.67001093172E+03  0.39839864698E+04  0.39272424859E+04 0.  0.
        2    1    3    3  502    0  0.73272522208E+03  0.12193068491E+04  0.17081558752E+04  0.22229241862E+04  0.25500000920E-02 0.  1.
       -2    1    3    3    0  502 -0.73272522208E+03 -0.12193068491E+04 -0.10381449435E+04  0.17610622837E+04  0.25500000920E-02 0. -1.
</event>
<event>
 5   0  0.4750125E-08  0.3958853E+04  0.7818609E-02  0.8012899E-01
        1   -1    0    0  501    0  0.00000000000E+00  0.00000000000E+00  0.18520481532E+04  0.18520481532E+04  0.50400001928E-02 0. -1.
       -1   -1    0    0    0  501  0.00000000000E+00  0.00000000000E+00 -0.21155660221E+04  0.21155660221E+04  0.50400001928E-02 0.  1.
    10030    2    1    2    0    0  0.00000000000E+00  0.00000000000E+00 -0.26351786890E+03  0.39676141753E+04  0.39588534422E+04 0.  0.
        1    1    3    3  502    0  0.96641942174E+03  0.13229181381E+04  0.98157797270E+03  0.19098623551E+04  0.50400001928E-02 0.  1.
       -1    1    3    3    0  502 -0.96641942174E+03 -0.13229181381E+04 -0.12450958416E+04  0.20577518202E+04  0.50400001928E-02 0. -1.
</event>
<event>
 5   0  0.1501585E-07  0.3873531E+04  0.7818609E-02  0.8030557E-01
       -2   -1    0    0    0  501  0.00000000000E+00  0.00000000000E+00  0.14396219207E+04  0.14396219207E+04  0.25500000920E-02 0. -1.
        2   -1    0    0  501    0  0.00000000000E+00  0.00000000000E+00 -0.26055870288E+04  0.26055870288E+04  0.25500000920E-02 0.  1.
    10030    2    1    2    0    0  0.00000000000E+00  0.00000000000E+00 -0.11659651081E+04  0.40452089495E+04  0.38735307940E+04 0.  0.
        5    1    3    3  502    0  0.19035222274E+04 -0.21580605186E+03 -0.28563708186E+03  0.19368995211E+04  0.46999998093E+01 0. -1.
       -5    1    3    3    0  502 -0.19035222274E+04  0.21580605186E+03 -0.88032802629E+03  0.21083094284E+04  0.46999998093E+01 0.  1.
</event>
<event>
 5   0  0.4750125E-08  0.3887896E+04  0.7818609E-02  0.8027551E-01
       -1   -1    0    0    0  501  0.00000000000E+00  0.00000000000E+00  0.12652535192E+04  0.12652535192E+04  0.50400001928E-02 0.  1.
        1   -1    0    0  501    0  0.00000000000E+00  0.00000000000E+00 -0.29867006478E+04  0.29867006478E+04  0.50400001928E-02 0. -1.
    10030    2    1    2    0    0  0.00000000000E+00  0.00000000000E+00 -0.17214471286E+04  0.42519541670E+04  0.38878958347E+04 0.  0.
        3    1    3    3  502    0 -0.11867466255E+04 -0.52609011806E+03  0.72176669843E+03  0.14852897167E+04  0.10100000352E+00 0.  1.
       -3    1    3    3    0  502  0.11867466255E+04  0.52609011806E+03 -0.24432138271E+04  0.27666644503E+04  0.10100000352E+00 0. -1.
</event>
<event>
 5   0  0.4750125E-08  0.3891158E+04  0.7818609E-02  0.8026871E-01
       -1   -1    0    0    0  501  0.00000000000E+00  0.00000000000E+00  0.16894903174E+04  0.16894903174E+04  0.50400001928E-02 0. -1.
        1   -1    0    0  501    0  0.00000000000E+00  0.00000000000E+00 -0.22404850973E+04  0.22404850973E+04  0.50400001928E-02 0.  1.
    10030    2    1    2    0    0  0.00000000000E+00  0.00000000000E+00 -0.55099477987E+03  0.39299754147E+04  0.38911581197E+04 0.  0.
        5    1    3    3  502    0 -0.18289874048E+02 -0.12893542038E+04 -0.17469066151E+04  0.21712838585E+04  0.46999998093E+01 0.  1.
       -5    1    3    3    0  502  0.18289874048E+02  0.12893542038E+04  0.11959118352E+04  0.17586915562E+04  0.46999998093E+01 0. -1.
</event>
<event>
 5   0  0.1546846E-07  0.3912595E+04  0.7818609E-02  0.8022415E-01
        2   -1    0    0  501    0  0.00000000000E+00  0.00000000000E+00  0.25455056141E+04  0.25455056141E+04  0.25500000920E-02 0.  1.
       -2   -1    0    0    0  501  0.00000000000E+00  0.00000000000E+00 -0.15034731663E+04  0.15034731663E+04  0.25500000920E-02 0. -1.
    10030    2    1    2    0    0  0.00000000000E+00  0.00000000000E+00  0.10420324478E+04  0.40489787804E+04  0.39125947327E+04 0.  0.
        2    1    3    3  502    0  0.16427694948E+04  0.10606434420E+04  0.58174095938E+03  0.20401173172E+04  0.25500000920E-02 0.  1.
       -2    1    3    3    0  502 -0.16427694948E+04 -0.10606434420E+04  0.46029148838E+03  0.20088614632E+04  0.25500000920E-02 0. -1.
</event>
<event>
 5   0  0.4750125E-08  0.3891882E+04  0.7818609E-02  0.8026720E-01
        1   -1    0    0  501    0  0.00000000000E+00  0.00000000000E+00  0.21056047279E+04  0.21056047280E+04  0.50400001928E-02 0.  1.
       -1   -1    0    0    0  501  0.00000000000E+00  0.00000000000E+00 -0.17983846510E+04  0.17983846510E+04  0.50400001928E-02 0. -1.
    10030    2    1    2    0    0  0.00000000000E+00  0.00000000000E+00  0.30722007694E+03  0.39039893790E+04  0.38918824360E+04 0.  0.
        1    1    3    3  502    0  0.27470214532E+03 -0.16720358513E+04 -0.80619565756E+03  0.18764638539E+04  0.50400001928E-02 0. -1.
       -1    1    3    3    0  502 -0.27470214532E+03  0.16720358513E+04  0.11134157345E+04  0.20275255250E+04  0.50400001928E-02 0.  1.
</event>
<event>
 5   0  0.1546846E-07  0.3892448E+04  0.7818609E-02  0.8026602E-01
        2   -1    0    0  501    0  0.00000000000E+00  0.00000000000E+00  0.22902733524E+04  0.22902733524E+04  0.25500000920E-02 0.  1.
       -2   -1    0    0    0  501  0.00000000000E+00  0.00000000000E+00 -0.16538582180E+04  0.16538582180E+04  0.25500000920E-02 0. -1.
    10030    2    1    2    0    0  0.00000000000E+00  0.00000000000E+00  0.63641513441E+03  0.39441315704E+04  0.38924477673E+04 0.  0.
        2    1    3    3  502    0 -0.18299147134E+03  0.16466558129E+04  0.13529554802E+04  0.21390301018E+04  0.25500000920E-02 0.  1.
       -2    1    3    3    0  502  0.18299147134E+03 -0.16466558129E+04 -0.71654034579E+03  0.18051014686E+04  0.25500000920E-02 0. -1.
</event>
<event>
 5   0  0.4762788E-08  0.3887264E+04  0.7818609E-02  0.8027683E-01
       -1   -1    0    0    0  501  0.00000000000E+00  0.00000000000E+00  0.14671312403E+04  0.14671312403E+04  0.50400001928E-02 0.  1.
        1   -1    0    0  501    0  0.00000000000E+00  0.00000000000E+00 -0.25748929469E+04  0.25748929469E+04  0.50400001928E-02 0. -1.
    10030    2    1    2    0    0  0.00000000000E+00  0.00000000000E+00 -0.11077617066E+04  0.40420241872E+04  0.38872642734E+04 0.  0.
        2    1    3    3  502    0 -0.36528791786E+03  0.16340319773E+04  0.47243528679E+03  0.17397387350E+04  0.25500000920E-02 0.  1.
       -2    1    3    3    0  502  0.36528791786E+03 -0.16340319773E+04 -0.15801969934E+04  0.23022854523E+04  0.25500000920E-02 0. -1.
</event>
<event>
 5   0  0.4762788E-08  0.3915691E+04  0.7818609E-02  0.8021774E-01
        1   -1    0    0  501    0  0.00000000000E+00  0.00000000000E+00  0.22343393665E+04  0.22343393665E+04  0.50400001928E-02 0. -1.
       -1   -1    0    0    0  501  0.00000000000E+00  0.00000000000E+00 -0.17155672815E+04  0.17155672815E+04  0.50400001928E-02 0.  1.
    10030    2    1    2    0    0  0.00000000000E+00  0.00000000000E+00  0.51877208499E+03  0.39499066480E+04  0.39156912610E+04 0.  0.
        2    1    3    3  502    0  0.16696525469E+04  0.31188631472E+02 -0.77152602981E+03  0.18395555911E+04  0.25500000920E-02 0.  1.
       -2    1    3    3    0  502 -0.16696525469E+04 -0.31188631472E+02  0.12902981148E+04  0.21103510569E+04  0.25500000920E-02 0. -1.
</event>
<event>
 5   0  0.4750125E-08  0.3903197E+04  0.7818609E-02  0.8024365E-01
       -1   -1    0    0    0  501  0.00000000000E+00  0.00000000000E+00  0.17348386348E+04  0.17348386348E+04  0.50400001928E-02 0. -1.
        1   -1    0    0  501    0  0.00000000000E+00  0.00000000000E+00 -0.21954418199E+04  0.21954418199E+04  0.50400001928E-02 0.  1.
    10030    2    1    2    0    0  0.00000000000E+00  0.00000000000E+00 -0.46060318505E+03  0.39302804547E+04  0.39031972995E+04 0.  0.
        4    1    3    3  502    0  0.94170852819E+03 -0.16823077383E+04 -0.53532491587E+03  0.20008869675E+04  0.12699999809E+01 0. -1.
       -4    1    3    3    0  502 -0.94170852819E+03  0.16823077383E+04  0.74721730819E+02  0.19293934872E+04  0.12699999809E+01 0.  1.
</event>
<event>
 5   0  0.4750125E-08  0.3842080E+04  0.7818609E-02  0.8037185E-01
        1   -1    0    0  501    0  0.00000000000E+00  0.00000000000E+00  0.16857842337E+04  0.16857842337E+04  0.50400001928E-02 0.  1.
       -1   -1    0    0    0  501  0.00000000000E+00  0.00000000000E+00 -0.21891259514E+04  0.21891259515E+04  0.50400001928E-02 0. -1.
    10030    2    1    2    0    0  0.00000000000E+00  0.00000000000E+00 -0.50334171779E+03  0.38749101851E+04  0.38420796527E+04 0.  0.
        4    1    3    3  502    0  0.75594679530E+03 -0.84315392445E+03  0.13133714046E+04  0.17341597841E+04  0.12699999809E+01 0.  1.
       -4    1    3    3    0  502 -0.75594679530E+03  0.84315392445E+03 -0.18167131223E+04  0.21407504010E+04  0.12699999809E+01 0. -1.
</event>
<event>
 5   0  0.4750125E-08  0.3882610E+04  0.7818609E-02  0.8028656E-01
        1   -1    0    0  501    0  0.00000000000E+00  0.00000000000E+00  0.14931992107E+04  0.14931992107E+04  0.50400001928E-02 0.  1.
       -1   -1    0    0    0  501  0.00000000000E+00  0.00000000000E+00 -0.25238866883E+04  0.25238866883E+04  0.50400001928E-02 0. -1.
    10030    2    1    2    0    0  0.00000000000E+00  0.00000000000E+00 -0.10306874775E+04  0.40170858990E+04  0.38826102616E+04 0.  0.
        5    1    3    3  502    0 -0.11868018081E+04 -0.12983414918E+04 -0.13650397972E+04  0.22265544905E+04  0.46999998093E+01 0. -1.
       -5    1    3    3    0  502  0.11868018081E+04  0.12983414918E+04  0.33435231965E+03  0.17905314085E+04  0.46999998093E+01 0.  1.
</event>
<event>
 5   0  0.4750125E-08  0.3872925E+04  0.7818609E-02  0.8030684E-01
        1   -1    0    0  501    0  0.00000000000E+00  0.00000000000E+00  0.26848303121E+04  0.26848303121E+04  0.50400001928E-02 0. -1.
       -1   -1    0    0    0  501  0.00000000000E+00  0.00000000000E+00 -0.13966938842E+04  0.13966938842E+04  0.50400001928E-02 0.  1.
    10030    2    1    2    0    0  0.00000000000E+00  0.00000000000E+00  0.12881364279E+04  0.40815241963E+04  0.38729245162E+04 0.  0.
        3    1    3    3  502    0  0.15220093863E+04  0.10518879563E+04  0.41516574958E+02  0.18505957097E+04  0.10100000352E+00 0.  1.
       -3    1    3    3    0  502 -0.15220093863E+04 -0.10518879563E+04  0.12466198529E+04  0.22309284866E+04  0.10100000352E+00 0. -1.
</event>
<event>
 5   0  0.1501585E-07  0.3907738E+04  0.7818609E-02  0.8023422E-01
       -2   -1    0    0    0  501  0.00000000000E+00  0.00000000000E+00  0.22278786128E+04  0.22278786128E+04  0.25500000920E-02 0.  1.
        2   -1    0    0  501    0  0.00000000000E+00  0.00000000000E+00 -0.17135600704E+04  0.17135600704E+04  0.25500000920E-02 0. -1.
    10030    2    1    2    0    0  0.00000000000E+00  0.00000000000E+00  0.51431854239E+03  0.39414386832E+04  0.39077378790E+04 0.  0.
        5    1    3    3  502    0  0.64065289757E+03  0.72308343822E+03 -0.14558087683E+04  0.17471940515E+04  0.46999998093E+01 0. -1.
       -5    1    3    3    0  502 -0.64065289757E+03 -0.72308343822E+03  0.19701273107E+04  0.21942446318E+04  0.46999998093E+01 0.  1.
</event>
<event>
 5   0  0.4750125E-08  0.3907373E+04  0.7818609E-02  0.8023498E-01
        1   -1    0    0  501    0  0.00000000000E+00  0.00000000000E+00  0.20108578672E+04  0.20108578672E+04  0.50400001928E-02 0.  1.
       -1   -1    0    0    0  501  0.00000000000E+00  0.00000000000E+00 -0.18981405569E+04  0.18981405569E+04  0.50400001928E-02 0. -1.
    10030    2    1    2    0    0  0.00000000000E+00  0.00000000000E+00  0.11271731033E+03  0.39089984241E+04  0.39073729650E+04 0.  0.
        5    1    3    3  502    0 -0.64708348941E+03  0.34577120609E+03 -0.17550834104E+04  0.19022656588E+04  0.46999998093E+01 0. -1.
       -5    1    3    3    0  502  0.64708348941E+03 -0.34577120609E+03  0.18678007207E+04  0.20067327653E+04  0.46999998093E+01 0.  1.
</event>
<event>
 5   0  0.1538018E-07  0.3893252E+04  0.7818609E-02  0.8026434E-01
       -2   -1    0    0    0  501  0.00000000000E+00  0.00000000000E+00  0.29383286363E+04  0.29383286363E+04  0.25500000920E-02 0.  1.
        2   -1    0    0  501    0  0.00000000000E+00  0.00000000000E+00 -0.12896288900E+04  0.12896288900E+04  0.25500000920E-02 0. -1.
    10030    2    1    2    0    0  0.00000000000E+00  0.00000000000E+00  0.16486997463E+04  0.42279575263E+04  0.38932523667E+04 0.  0.
        1    1    3    3  502    0 -0.12226573643E+04  0.19552005723E+03  0.24555609627E+04  0.27500725017E+04  0.50400001928E-02 0.  1.
       -1    1    3    3    0  502  0.12226573643E+04 -0.19552005723E+03 -0.80686121637E+03  0.14778850245E+04  0.50400001928E-02 0. -1.
</event>
<event>
 5   0  0.4750125E-08  0.3917360E+04  0.7818609E-02  0.8021428E-01
        1   -1    0    0  501    0  0.00000000000E+00  0.00000000000E+00  0.22542175431E+04  0.22542175431E+04  0.50400001928E-02 0. -1.
       -1   -1    0    0    0  501  0.00000000000E+00  0.00000000000E+00 -0.17018889850E+04  0.17018889850E+04  0.50400001928E-02 0.  1.
    10030    2    1    2    0    0  0.00000000000E+00  0.00000000000E+00  0.55232855809E+03  0.39561065281E+04  0.39173603390E+04 0.  0.
        3    1    3    3  502    0  0.78106137232E+03  0.25293460324E+03  0.20720658388E+04  0.22287865827E+04  0.10100000352E+00 0. -1.
       -3    1    3    3    0  502 -0.78106137232E+03 -0.25293460324E+03 -0.15197372807E+04  0.17273199453E+04  0.10100000352E+00 0.  1.
</event>
<event>
 5   0  0.4750125E-08  0.3913824E+04  0.7818609E-02  0.8022160E-01
       -1   -1    0    0    0  501  0.00000000000E+00  0.00000000000E+00  0.26653069520E+04  0.26653069520E+04  0.50400001928E-02 0.  1.
        1   -1    0    0  501    0  0.00000000000E+00  0.00000000000E+00 -0.14367970964E+04  0.14367970964E+04  0.50400001928E-02 0. -1.
    10030    2    1    2    0    0  0.00000000000E+00  0.00000000000E+00  0.12285098557E+04  0.41021040484E+04  0.39138243648E+04 0.  0.
        4    1    3    3  502    0  0.14762852578E+04  0.82628082664E+03  0.16451065280E+04  0.23597744105E+04  0.12699999809E+01 0.  1.
       -4    1    3    3    0  502 -0.14762852578E+04 -0.82628082664E+03 -0.41659667235E+03  0.17423296380E+04  0.12699999809E+01 0. -1.
</event>
<event>
 5   0  0.1538018E-07  0.3857972E+04  0.7818609E-02  0.8033827E-01
        2   -1    0    0  501    0  0.00000000000E+00  0.00000000000E+00  0.21612101534E+04  0.21612101534E+04  0.25500000920E-02 0. -1.
       -2   -1    0    0    0  501  0.00000000000E+00  0.00000000000E+00 -0.17217149026E+04  0.17217149026E+04  0.25500000920E-02 0.  1.
    10030    2    1    2    0    0  0.00000000000E+00  0.00000000000E+00  0.43949525081E+03  0.38829250560E+04  0.38579723839E+04 0.  0.
        1    1    3    3  502    0  0.79651641296E+03  0.10173597420E+04 -0.12218321137E+04  0.17782949572E+04  0.50400001928E-02 0.  1.
       -1    1    3    3    0  502 -0.79651641296E+03 -0.10173597420E+04  0.16613273645E+04  0.21046300988E+04  0.50400001928E-02 0. -1.
</event>
<event>
 5   0  0.1503228E-07  0.3875241E+04  0.7818609E-02  0.8030198E-01
       -2   -1    0    0    0  501  0.00000000000E+00  0.00000000000E+00  0.20467872160E+04  0.20467872160E+04  0.25500000920E-02 0. -1.
        2   -1    0    0  501    0  0.00000000000E+00  0.00000000000E+00 -0.18342765718E+04  0.18342765718E+04  0.25500000920E-02 0.  1.
    10030    2    1    2    0    0  0.00000000000E+00  0.00000000000E+00  0.21251064420E+03  0.38810637879E+04  0.38752413282E+04 0.  0.
        3    1    3    3  502    0 -0.46926182951E+03 -0.26471911079E+03 -0.17577479523E+04  0.18384669555E+04  0.10100000352E+00 0.  1.
       -3    1    3    3    0  502  0.46926182951E+03  0.26471911079E+03  0.19702585965E+04  0.20425968324E+04  0.10100000352E+00 0. -1.
</event>
<event>
 5   0  0.1538018E-07  0.3865122E+04  0.7818609E-02  0.8032323E-01
        2   -1    0    0  501    0  0.00000000000E+00  0.00000000000E+00  0.32449625496E+04  0.32449625496E+04  0.25500000920E-02 0.  1.
       -2   -1    0    0    0  501  0.00000000000E+00  0.00000000000E+00 -0.11509505203E+04  0.11509505204E+04  0.25500000920E-02 0. -1.
    10030    2    1    2    0    0  0.00000000000E+00  0.00000000000E+00  0.20940120292E+04  0.43959130699E+04  0.38651216462E+04 0.  0.
        1    1    3    3  502    0 -0.10827592049E+04  0.29126908321E+03  0.28372008993E+04  0.30507235400E+04  0.50400001928E-02 0.  1.
       -1    1    3    3    0  502  0.10827592049E+04 -0.29126908321E+03 -0.74318887012E+03  0.13451895299E+04  0.50400001928E-02 0. -1.
</event>
<event>
 5   0  0.1503228E-07  0.3540899E+04  0.7818609E-02  0.8104165E-01
        2   -1    0    0  501    0  0.00000000000E+00  0.00000000000E+00  0.18411333850E+04  0.18411333850E+04  0.25500000920E-02 0. -1.
       -2   -1    0    0    0  501  0.00000000000E+00  0.00000000000E+00 -0.17024796698E+04  0.17024796698E+04  0.25500000920E-02 0.  1.
    10030    2    1    2    0    0  0.00000000000E+00  0.00000000000E+00  0.13865371522E+03  0.35436130548E+04  0.35408994097E+04 0.  0.
        3    1    3    3  502    0 -0.73229638584E+03 -0.15424284872E+04 -0.39916491323E+03  0.17534754840E+04  0.10100000352E+00 0.  1.
       -3    1    3    3    0  502  0.73229638584E+03  0.15424284872E+04  0.53781862845E+03  0.17901375708E+04  0.10100000352E+00 0. -1.
</event>
<event>
 5   0  0.1546846E-07  0.3895483E+04  0.7818609E-02  0.8025969E-01
        2   -1    0    0  501    0  0.00000000000E+00  0.00000000000E+00  0.14995936159E+04  0.14995936159E+04  0.25500000920E-02 0. -1.
       -2   -1    0    0    0  501  0.00000000000E+00  0.00000000000E+00 -0.25298166313E+04  0.25298166313E+04  0.25500000920E-02 0.  1.
    10030    2    1    2    0    0  0.00000000000E+00  0.00000000000E+00 -0.10302230154E+04  0.40294102472E+04  0.38954829583E+04 0.  0.
        2    1    3    3  502    0  0.13431419129E+04 -0.23322244951E+03 -0.19540803964E+04  0.23826147621E+04  0.25500000920E-02 0.  1.
       -2    1    3    3    0  502 -0.13431419129E+04  0.23322244951E+03  0.92385738107E+03  0.16467954850E+04  0.25500000920E-02 0. -1.
</event>
<event>
 5   0  0.1538018E-07  0.3957507E+04  0.7818609E-02  0.8013174E-01
       -2   -1    0    0    0  501  0.00000000000E+00  0.00000000000E+00  0.20411131077E+04  0.20411131077E+04  0.25500000920E-02 0.  1.
        2   -1    0    0  501    0  0.00000000000E+00  0.00000000000E+00 -0.19182987901E+04  0.19182987901E+04  0.25500000920E-02 0. -1.
    10030    2    1    2    0    0  0.00000000000E+00  0.00000000000E+00  0.12281431762E+03  0.39594118978E+04  0.39575066923E+04 0.  0.
        1    1    3    3  502    0 -0.17110706275E+04  0.98304349658E+03  0.20751717357E+03  0.19842380366E+04  0.50400001928E-02 0.  1.
       -1    1    3    3    0  502  0.17110706275E+04 -0.98304349658E+03 -0.84702855954E+02  0.19751738613E+04  0.50400001928E-02 0. -1.
</event>
<event>
 5   0  0.4750125E-08  0.3926385E+04  0.7818609E-02  0.8019564E-01
       -1   -1    0    0    0  501  0.00000000000E+00  0.00000000000E+00  0.16388451412E+04  0.16388451412E+04  0.50400001928E-02 0.  1.
        1   -1    0    0  501    0  0.00000000000E+00  0.00000000000E+00 -0.23517323926E+04  0.23517323926E+04  0.50400001928E-02 0. -1.
    10030    2    1    2    0    0  0.00000000000E+00  0.00000000000E+00 -0.71288725140E+03  0.39905775339E+04  0.39263852104E+04 0.  0.
        5    1    3    3  502    0  0.15441270997E+04  0.11891121839E+04 -0.59649748157E+03  0.20381726182E+04  0.46999998093E+01 0.  1.
       -5    1    3    3    0  502 -0.15441270997E+04 -0.11891121839E+04 -0.11638976983E+03  0.19524049157E+04  0.46999998093E+01 0. -1.
</event>
<event>
 5   0  0.4750125E-08  0.3867761E+04  0.7818609E-02  0.8031768E-01
       -1   -1    0    0    0  501  0.00000000000E+00  0.00000000000E+00  0.14395403654E+04  0.14395403654E+04  0.50400001928E-02 0. -1.
        1   -1    0    0  501    0  0.00000000000E+00  0.00000000000E+00 -0.25979778398E+04  0.25979778398E+04  0.50400001928E-02 0.  1.
    10030    2    1    2    0    0  0.00000000000E+00  0.00000000000E+00 -0.11584374744E+04  0.40375182052E+04  0.38677610933E+04 0.  0.
        5    1    3    3  502    0 -0.25200947742E+03 -0.41871863096E+03 -0.25324481418E+04  0.25791761765E+04  0.46999998093E+01 0.  1.
       -5    1    3    3    0  502  0.25200947742E+03  0.41871863096E+03  0.13740106673E+04  0.14583420287E+04  0.46999998093E+01 0. -1.
</event>
<event>
 5   0  0.1546846E-07  0.3853105E+04  0.7818609E-02  0.8034854E-01
        2   -1    0    0  501    0  0.00000000000E+00  0.00000000000E+00  0.16275413236E+04  0.16275413236E+04  0.25500000920E-02 0.  1.
       -2   -1    0    0    0  501  0.00000000000E+00  0.00000000000E+00 -0.22804976299E+04  0.22804976299E+04  0.25500000920E-02 0. -1.
    10030    2    1    2    0    0  0.00000000000E+00  0.00000000000E+00 -0.65295630628E+03  0.39080389534E+04  0.38531047901E+04 0.  0.
        2    1    3    3  502    0  0.83669591206E+03 -0.10757930969E+04  0.10546306988E+04  0.17232634005E+04  0.25500000920E-02 0.  1.
       -2    1    3    3    0  502 -0.83669591206E+03  0.10757930969E+04 -0.17075870051E+04  0.21847755529E+04  0.25500000920E-02 0. -1.
</event>
<event>
 5   0  0.4750125E-08  0.3969055E+04  0.7818609E-02  0.8010818E-01
       -1   -1    0    0    0  501  0.00000000000E+00  0.00000000000E+00  0.22660669448E+04  0.22660669448E+04  0.50400001928E-02 0. -1.
        1   -1    0    0  501    0  0.00000000000E+00  0.00000000000E+00 -0.17379665355E+04  0.17379665355E+04  0.50400001928E-02 0.  1.
    10030    2    1    2    0    0  0.00000000000E+00  0.00000000000E+00  0.52810040935E+03  0.40040334803E+04  0.39690545561E+04 0.  0.
        3    1    3    3  502    0  0.11748728612E+03 -0.48146518687E+03 -0.16745345471E+04  0.17463327140E+04  0.10100000352E+00 0.  1.
       -3    1    3    3    0  502 -0.11748728612E+03  0.48146518687E+03  0.22026349564E+04  0.22577007663E+04  0.10100000352E+00 0. -1.
</event>
<event>
 5   0  0.4750125E-08  0.3660169E+04  0.7818609E-02  0.8076847E-01
        1   -1    0    0  501    0  0.00000000000E+00  0.00000000000E+00  0.16528971483E+04  0.16528971483E+04  0.50400001928E-02 0.  1.
       -1   -1    0    0    0  501  0.00000000000E+00  0.00000000000E+00 -0.20262654426E+04  0.20262654426E+04  0.50400001928E-02 0. -1.
    10030    2    1    2    0    0  0.00000000000E+00  0.00000000000E+00 -0.37336829433E+03  0.36791625909E+04  0.36601685053E+04 0.  0.
        5    1    3    3  502    0  0.84467664686E+03 -0.33590448151E+03 -0.17832830942E+04  0.20016071399E+04  0.46999998093E+01 0. -1.
       -5    1    3    3    0  502 -0.84467664686E+03  0.33590448151E+03  0.14099147998E+04  0.16775554510E+04  0.46999998093E+01 0.  1.
</event>
<event>
 5   0  0.4750125E-08  0.3956314E+04  0.7818609E-02  0.8013418E-01
        4   -1    0    0  501    0  0.00000000000E+00  0.00000000000E+00  0.23909964459E+04  0.23909967832E+04  0.12699999809E+01 0. -1.
       -4   -1    0    0    0  501  0.00000000000E+00  0.00000000000E+00 -0.16365996501E+04  0.16366001428E+04  0.12699999809E+01 0.  1.
    10030    2    1    2    0    0  0.00000000000E+00  0.00000000000E+00  0.75439679586E+03  0.40275969260E+04  0.39563142536E+04 0.  0.
        2    1    3    3  502    0 -0.11197158362E+04 -0.16196877356E+04  0.57022938750E+03  0.20499545041E+04  0.25500000920E-02 0.  1.
       -2    1    3    3    0  502  0.11197158362E+04  0.16196877356E+04  0.18416740836E+03  0.19776424219E+04  0.25500000920E-02 0. -1.
</event>
<event>
 5   0  0.1503228E-07  0.3890887E+04  0.7818609E-02  0.8026927E-01
       -2   -1    0    0    0  501  0.00000000000E+00  0.00000000000E+00  0.17881157430E+04  0.17881157430E+04  0.25500000920E-02 0. -1.
        2   -1    0    0  501    0  0.00000000000E+00  0.00000000000E+00 -0.21166135990E+04  0.21166135990E+04  0.25500000920E-02 0.  1.
    10030    2    1    2    0    0  0.00000000000E+00  0.00000000000E+00 -0.32849785598E+03  0.39047293421E+04  0.38908868389E+04 0.  0.
        3    1    3    3  502    0  0.87059566547E+03  0.74078352200E+03  0.14155347973E+04  0.18194603078E+04  0.10100000352E+00 0. -1.
       -3    1    3    3    0  502 -0.87059566547E+03 -0.74078352200E+03 -0.17440326533E+04  0.20852690342E+04  0.10100000352E+00 0.  1.
</event>
<event>
 5   0  0.1546846E-07  0.3876365E+04  0.7818609E-02  0.8029963E-01
       -2   -1    0    0    0  501  0.00000000000E+00  0.00000000000E+00  0.18760094811E+04  0.18760094811E+04  0.25500000920E-02 0. -1.
        2   -1    0    0  501    0  0.00000000000E+00  0.00000000000E+00 -0.20024156115E+04  0.20024156115E+04  0.25500000920E-02 0.  1.
    10030    2    1    2    0    0  0.00000000000E+00  0.00000000000E+00 -0.12640613038E+03  0.38784250926E+04  0.38763646228E+04 0.  0.
        2    1    3    3  502    0 -0.10114106416E+04  0.16372603131E+04  0.16708846481E+03  0.19317068551E+04  0.25500000920E-02 0. -1.
       -2    1    3    3    0  502  0.10114106416E+04 -0.16372603131E+04 -0.29349459520E+03  0.19467182375E+04  0.25500000920E-02 0.  1.
</event>
<event>
 5   0  0.4750125E-08  0.3897344E+04  0.7818609E-02  0.8025582E-01
       -1   -1    0    0    0  501  0.00000000000E+00  0.00000000000E+00  0.15239374729E+04  0.15239374729E+04  0.50400001928E-02 0. -1.
        1   -1    0    0  501    0  0.00000000000E+00  0.00000000000E+00 -0.24917831720E+04  0.24917831720E+04  0.50400001928E-02 0.  1.
    10030    2    1    2    0    0  0.00000000000E+00  0.00000000000E+00 -0.96784569907E+03  0.40157206449E+04  0.38973435826E+04 0.  0.
        3    1    3    3  502    0 -0.66373247769E+03 -0.20718443425E+02 -0.23716035236E+04  0.24628181702E+04  0.10100000352E+00 0.  1.
       -3    1    3    3    0  502  0.66373247769E+03  0.20718443425E+02  0.14037578246E+04  0.15529024747E+04  0.10100000352E+00 0. -1.
</event>
<event>
 5   0  0.1503228E-07  0.3913095E+04  0.7818609E-02  0.8022311E-01
        2   -1    0    0  501    0  0.00000000000E+00  0.00000000000E+00  0.16097772798E+04  0.16097772798E+04  0.25500000920E-02 0.  1.
       -2   -1    0    0    0  501  0.00000000000E+00  0.00000000000E+00 -0.23780172759E+04  0.23780172759E+04  0.25500000920E-02 0. -1.
    10030    2    1    2    0    0  0.00000000000E+00  0.00000000000E+00 -0.76823999619E+03  0.39877945557E+04  0.39130950317E+04 0.  0.
        3    1    3    3  502    0  0.37973383647E+03 -0.14746792065E+04 -0.16360671969E+04  0.22350821979E+04  0.10100000352E+00 0. -1.
       -3    1    3    3    0  502 -0.37973383647E+03  0.14746792065E+04  0.86782720071E+03  0.17527123578E+04  0.10100000352E+00 0.  1.
</event>
<event>
 5   0  0.4762788E-08  0.3903496E+04  0.7818609E-02  0.8024303E-01
        1   -1    0    0  501    0  0.00000000000E+00  0.00000000000E+00  0.23238922830E+04  0.23238922831E+04  0.50400001928E-02 0. -1.
       -1   -1    0    0    0  501  0.00000000000E+00  0.00000000000E+00 -0.16391980597E+04  0.16391980597E+04  0.50400001928E-02 0.  1.
    10030    2    1    2    0    0  0.00000000000E+00  0.00000000000E+00  0.68469422339E+03  0.39630903427E+04  0.39034957263E+04 0.  0.
        2    1    3    3  502    0 -0.37633744721E+03 -0.16265611814E+04  0.13687155386E+04  0.21588685408E+04  0.25500000920E-02 0. -1.
       -2    1    3    3    0  502  0.37633744721E+03  0.16265611814E+04 -0.68402131520E+03  0.18042218019E+04  0.25500000920E-02 0.  1.
</event>
<event>
 5   0  0.4750125E-08  0.3888601E+04  0.7818609E-02  0.8027404E-01
       -1   -1    0    0    0  501  0.00000000000E+00  0.00000000000E+00  0.14868823586E+04  0.14868823586E+04  0.50400001928E-02 0.  1.
        1   -1    0    0  501    0  0.00000000000E+00  0.00000000000E+00 -0.25424366662E+04  0.25424366662E+04  0.50400001928E-02 0. -1.
    10030    2    1    2    0    0  0.00000000000E+00  0.00000000000E+00 -0.10555543075E+04  0.40293190248E+04  0.38886008933E+04 0.  0.
        5    1    3    3  502    0  0.65974684879E+03  0.19714488630E+03  0.13563038373E+04  0.15210898066E+04  0.46999998093E+01 0.  1.
       -5    1    3    3    0  502 -0.65974684879E+03 -0.19714488630E+03 -0.24118581448E+04  0.25082292183E+04  0.46999998093E+01 0. -1.
</event>
<event>
 5   0  0.4750125E-08  0.3890275E+04  0.7818609E-02  0.8027055E-01
        1   -1    0    0  501    0  0.00000000000E+00  0.00000000000E+00  0.10710659141E+04  0.10710659141E+04  0.50400001928E-02 0.  1.
       -1   -1    0    0    0  501  0.00000000000E+00  0.00000000000E+00 -0.35325189326E+04  0.35325189326E+04  0.50400001928E-02 0. -1.
    10030    2    1    2    0    0  0.00000000000E+00  0.00000000000E+00 -0.24614530186E+04  0.46035848467E+04  0.38902753731E+04 0.  0.
        5    1    3    3  502    0  0.15288844101E+04 -0.11303503704E+04 -0.17162765735E+04  0.25614072042E+04  0.46999998093E+01 0. -1.
       -5    1    3    3    0  502 -0.15288844101E+04  0.11303503704E+04 -0.74517644505E+03  0.20421776425E+04  0.46999998093E+01 0.  1.
</event>
<event>
 5   0  0.4762788E-08  0.3896564E+04  0.7818609E-02  0.8025744E-01
        1   -1    0    0  501    0  0.00000000000E+00  0.00000000000E+00  0.12758706229E+04  0.12758706230E+04  0.50400001928E-02 0.  1.
       -1   -1    0    0    0  501  0.00000000000E+00  0.00000000000E+00 -0.29750686141E+04  0.29750686141E+04  0.50400001928E-02 0. -1.
    10030    2    1    2    0    0  0.00000000000E+00  0.00000000000E+00 -0.16991979911E+04  0.42509392370E+04  0.38965639458E+04 0.  0.
        2    1    3    3  502    0 -0.19350266396E+04 -0.18788995855E+03 -0.71086471237E+03  0.20700143409E+04  0.25500000920E-02 0.  1.
       -2    1    3    3    0  502  0.19350266396E+04  0.18788995855E+03 -0.98833327875E+03  0.21809248961E+04  0.25500000920E-02 0. -1.
</event>
<event>
 5   0  0.1520986E-07  0.3906366E+04  0.7818609E-02  0.8023707E-01
       -2   -1    0    0    0  501  0.00000000000E+00  0.00000000000E+00  0.34943737361E+04  0.34943737361E+04  0.25500000920E-02 0.  1.
        2   -1    0    0  501    0  0.00000000000E+00  0.00000000000E+00 -0.10917331433E+04  0.10917331433E+04  0.25500000920E-02 0. -1.
    10030    2    1    2    0    0  0.00000000000E+00  0.00000000000E+00  0.24026405928E+04  0.45861068794E+04  0.39063658931E+04 0.  0.
        4    1    3    3  502    0  0.63831518034E+03  0.14299322396E+03 -0.95931113326E+03  0.11611084337E+04  0.12699999809E+01 0. -1.
       -4    1    3    3    0  502 -0.63831518034E+03 -0.14299322396E+03  0.33619517261E+04  0.34249984457E+04  0.12699999809E+01 0.  1.
</event>
<event>
 5   0  0.4750125E-08  0.3711662E+04  0.7818609E-02  0.8065382E-01
       -1   -1    0    0    0  501  0.00000000000E+00  0.00000000000E+00  0.24333879465E+04  0.24333879465E+04  0.50400001928E-02 0.  1.
        1   -1    0    0  501    0  0.00000000000E+00  0.00000000000E+00 -0.14153557046E+04  0.14153557046E+04  0.50400001928E-02 0. -1.
    10030    2    1    2    0    0  0.00000000000E+00  0.00000000000E+00  0.10180322420E+04  0.38487436511E+04  0.37116624370E+04 0.  0.
        4    1    3    3  502    0 -0.74286184189E+03  0.13871805647E+04 -0.51118760548E+03  0.16545174572E+04  0.12699999809E+01 0. -1.
       -4    1    3    3    0  502  0.74286184189E+03 -0.13871805647E+04  0.15292198475E+04  0.21942261939E+04  0.12699999809E+01 0.  1.
</event>
<event>
 5   0  0.4750125E-08  0.3926366E+04  0.7818609E-02  0.8019568E-01
        1   -1    0    0  501    0  0.00000000000E+00  0.00000000000E+00  0.25357735166E+04  0.25357735166E+04  0.50400001928E-02 0. -1.
       -1   -1    0    0    0  501  0.00000000000E+00  0.00000000000E+00 -0.15198861240E+04  0.15198861240E+04  0.50400001928E-02 0.  1.
    10030    2    1    2    0    0  0.00000000000E+00  0.00000000000E+00  0.10158873926E+04  0.40556596406E+04  0.39263657402E+04 0.  0.
        5    1    3    3  502    0  0.23614963879E+03  0.10938963361E+04 -0.11581462493E+04  0.16104970260E+04  0.46999998093E+01 0.  1.
       -5    1    3    3    0  502 -0.23614963879E+03 -0.10938963361E+04  0.21740336419E+04  0.24451626146E+04  0.46999998093E+01 0. -1.
</event>
<event>
 5   0  0.4762788E-08  0.3881894E+04  0.7818609E-02  0.8028805E-01
        1   -1    0    0  501    0  0.00000000000E+00  0.00000000000E+00  0.17859535597E+04  0.17859535598E+04  0.50400001928E-02 0. -1.
       -1   -1    0    0    0  501  0.00000000000E+00  0.00000000000E+00 -0.21093917455E+04  0.21093917455E+04  0.50400001928E-02 0.  1.
    10030    2    1    2    0    0  0.00000000000E+00  0.00000000000E+00 -0.32343818578E+03  0.38953453053E+04  0.38818942267E+04 0.  0.
        2    1    3    3  502    0 -0.45498736595E+02 -0.19127773755E+04  0.16573706156E+03  0.19204833238E+04  0.25500000920E-02 0.  1.
       -2    1    3    3    0  502  0.45498736595E+02  0.19127773755E+04 -0.48917524734E+03  0.19748619815E+04  0.25500000920E-02 0. -1.
</event>
<event>
 5   0  0.1538018E-07  0.3896800E+04  0.7818609E-02  0.8025695E-01
        2   -1    0    0  501    0  0.00000000000E+00  0.00000000000E+00  0.17947328106E+04  0.17947328106E+04  0.25500000920E-02 0. -1.
       -2   -1    0    0    0  501  0.00000000000E+00  0.00000000000E+00 -0.21152248298E+04  0.21152248298E+04  0.25500000920E-02 0.  1.
    10030    2    1    2    0    0  0.00000000000E+00  0.00000000000E+00 -0.32049201924E+03  0.39099576404E+04  0.38968004331E+04 0.  0.
        1    1    3    3  502    0 -0.84447400267E+03 -0.11003776157E+04  0.12126927362E+04  0.18424415624E+04  0.50400001928E-02 0. -1.
       -1    1    3    3    0  502  0.84447400267E+03  0.11003776157E+04 -0.15331847555E+04  0.20675160780E+04  0.50400001928E-02 0.  1.
</event>
<event>
 5   0  0.1503228E-07  0.3895037E+04  0.7818609E-02  0.8026062E-01
       -2   -1    0    0    0  501  0.00000000000E+00  0.00000000000E+00  0.25143794903E+04  0.25143794903E+04  0.25500000920E-02 0.  1.
        2   -1    0    0  501    0  0.00000000000E+00  0.00000000000E+00 -0.15084549102E+04  0.15084549102E+04  0.25500000920E-02 0. -1.
    10030    2    1    2    0    0  0.00000000000E+00  0.00000000000E+00  0.10059245801E+04  0.40228344004E+04  0.38950368872E+04 0.  0.
        3    1    3    3  502    0  0.96748782728E+03  0.13280547195E+04  0.15827634307E+04  0.22814254583E+04  0.10100000352E+00 0. -1.
       -3    1    3    3    0  502 -0.96748782728E+03 -0.13280547195E+04 -0.57683885064E+03  0.17414089421E+04  0.10100000352E+00 0.  1.
</event>
<event>
 5   0  0.1503228E-07  0.3880798E+04  0.7818609E-02  0.8029035E-01
       -2   -1    0    0    0  501  0.00000000000E+00  0.00000000000E+00  0.28799571040E+04  0.28799571040E+04  0.25500000920E-02 0. -1.
        2   -1    0    0  501    0  0.00000000000E+00  0.00000000000E+00 -0.13073628107E+04  0.13073628107E+04  0.25500000920E-02 0.  1.
    10030    2    1    2    0    0  0.00000000000E+00  0.00000000000E+00  0.15725942933E+04  0.41873199146E+04  0.38807982756E+04 0.  0.
        3    1    3    3  502    0  0.79184910571E+03  0.17708370270E+04  0.73500258319E+03  0.20743957168E+04  0.10100000352E+00 0.  1.
       -3    1    3    3    0  502 -0.79184910571E+03 -0.17708370270E+04  0.83759171011E+03  0.21129241978E+04  0.10100000352E+00 0. -1.
</event>
<event>
 5   0  0.4750125E-08  0.3906601E+04  0.7818609E-02  0.8023658E-01
        1   -1    0    0  501    0  0.00000000000E+00  0.00000000000E+00  0.15312249069E+04  0.15312249069E+04  0.50400001928E-02 0.  1.
       -1   -1    0    0    0  501  0.00000000000E+00  0.00000000000E+00 -0.24917191015E+04  0.24917191016E+04  0.50400001928E-02 0. -1.
    10030    2    1    2    0    0  0.00000000000E+00  0.00000000000E+00 -0.96049419462E+03  0.40229440085E+04  0.39066007471E+04 0.  0.
        4    1    3    3  502    0 -0.11243864969E+04  0.15815325426E+04 -0.71026102980E+03  0.20663887633E+04  0.12699999809E+01 0.  1.
       -4    1    3    3    0  502  0.11243864969E+04 -0.15815325426E+04 -0.25023316482E+03  0.19565552452E+04  0.12699999809E+01 0. -1.
</event>
<event>
 5   0  0.1538018E-07  0.3918858E+04  0.7818609E-02  0.8021119E-01
        2   -1    0    0  501    0  0.00000000000E+00  0.00000000000E+00  0.13516820159E+04  0.13516820159E+04  0.25500000920E-02 0.  1.
       -2   -1    0    0    0  501  0.00000000000E+00  0.00000000000E+00 -0.28404325503E+04  0.28404325503E+04  0.25500000920E-02 0. -1.
    10030    2    1    2    0    0  0.00000000000E+00  0.00000000000E+00 -0.14887505344E+04  0.41921145662E+04  0.39188577906E+04 0.  0.
        1    1    3    3  502    0 -0.50615326321E+03  0.18819918768E+04 -0.96170940143E+03  0.21732394076E+04  0.50400001928E-02 0. -1.
       -1    1    3    3    0  502  0.50615326321E+03 -0.18819918768E+04 -0.52704113293E+03  0.20188751586E+04  0.50400001928E-02 0.  1.
</event>
<event>
 5   0  0.4762788E-08  0.3918032E+04  0.7818609E-02  0.8021289E-01
       -1   -1    0    0    0  501  0.00000000000E+00  0.00000000000E+00  0.16053490175E+04  0.16053490176E+04  0.50400001928E-02 0.  1.
        1   -1    0    0  501    0  0.00000000000E+00  0.00000000000E+00 -0.23905974936E+04  0.23905974936E+04  0.50400001928E-02 0. -1.
    10030    2    1    2    0    0  0.00000000000E+00  0.00000000000E+00 -0.78524847601E+03  0.39959465111E+04  0.39180318210E+04 0.  0.
        2    1    3    3  502    0 -0.10610210907E+04  0.15369822869E+04 -0.99570651684E+03  0.21164857129E+04  0.25500000920E-02 0. -1.
       -2    1    3    3    0  502  0.10610210907E+04 -0.15369822869E+04  0.21045804083E+03  0.18794607982E+04  0.25500000920E-02 0.  1.
</event>
<event>
 5   0  0.4750125E-08  0.3821818E+04  0.7818609E-02  0.8041489E-01
       -1   -1    0    0    0  501  0.00000000000E+00  0.00000000000E+00  0.22073759678E+04  0.22073759678E+04  0.50400001928E-02 0.  1.
        1   -1    0    0  501    0  0.00000000000E+00  0.00000000000E+00 -0.16542600742E+04  0.16542600742E+04  0.50400001928E-02 0. -1.
    10030    2    1    2    0    0  0.00000000000E+00  0.00000000000E+00  0.55311589367E+03  0.38616360420E+04  0.38218183799E+04 0.  0.
        3    1    3    3  502    0  0.15445715314E+04  0.64420232859E+03  0.12085977265E+04  0.20643174006E+04  0.10100000352E+00 0.  1.
       -3    1    3    3    0  502 -0.15445715314E+04 -0.64420232859E+03 -0.65548183279E+03  0.17973186415E+04  0.10100000352E+00 0. -1.
</event>
<event>
 5   0  0.4750125E-08  0.3925340E+04  0.7818609E-02  0.8019779E-01
        3   -1    0    0  501    0  0.00000000000E+00  0.00000000000E+00  0.22067261869E+04  0.22067261893E+04  0.10100000352E+00 0. -1.
       -3   -1    0    0    0  501  0.00000000000E+00  0.00000000000E+00 -0.17456059877E+04  0.17456059907E+04  0.10100000352E+00 0.  1.
    10030    2    1    2    0    0  0.00000000000E+00  0.00000000000E+00  0.46112019921E+03  0.39523321799E+04  0.39253404722E+04 0.  0.
        4    1    3    3  502    0  0.68112444394E+03 -0.27403763745E+03  0.20632535175E+04  0.21899871747E+04  0.12699999809E+01 0. -1.
       -4    1    3    3    0  502 -0.68112444394E+03  0.27403763745E+03 -0.16021333183E+04  0.17623450052E+04  0.12699999809E+01 0.  1.
</event>
<event>
 5   0  0.1546846E-07  0.3918130E+04  0.7818609E-02  0.8021269E-01
       -2   -1    0    0    0  501  0.00000000000E+00  0.00000000000E+00  0.13063364665E+04  0.13063364665E+04  0.25500000920E-02 0. -1.
        2   -1    0    0  501    0  0.00000000000E+00  0.00000000000E+00 -0.29379386197E+04  0.29379386197E+04  0.25500000920E-02 0.  1.
    10030    2    1    2    0    0  0.00000000000E+00  0.00000000000E+00 -0.16316021532E+04  0.42442750862E+04  0.39181303477E+04 0.  0.
        2    1    3    3  502    0 -0.17113128303E+04 -0.79165600444E+03 -0.23992328088E+03  0.19007561688E+04  0.25500000920E-02 0. -1.
       -2    1    3    3    0  502  0.17113128303E+04  0.79165600444E+03 -0.13916788723E+04  0.23435189174E+04  0.25500000920E-02 0.  1.
</event>
<event>
 5   0  0.1538018E-07  0.3898430E+04  0.7818609E-02  0.8025356E-01
       -2   -1    0    0    0  501  0.00000000000E+00  0.00000000000E+00  0.14518961750E+04  0.14518961750E+04  0.25500000920E-02 0.  1.
        2   -1    0    0  501    0  0.00000000000E+00  0.00000000000E+00 -0.26168812762E+04  0.26168812762E+04  0.25500000920E-02 0. -1.
    10030    2    1    2    0    0  0.00000000000E+00  0.00000000000E+00 -0.11649851011E+04  0.40687774512E+04  0.38984304100E+04 0.  0.
        1    1    3    3  502    0 -0.17325936336E+04  0.66487576345E+03  0.39798574739E+02  0.18562123819E+04  0.50400001928E-02 0.  1.
       -1    1    3    3    0  502  0.17325936336E+04 -0.66487576345E+03 -0.12047836759E+04  0.22125650693E+04  0.50400001928E-02 0. -1.
</event>
<event>
 5   0  0.1501585E-07  0.3910727E+04  0.7818609E-02  0.8022802E-01
        2   -1    0    0  501    0  0.00000000000E+00  0.00000000000E+00  0.13321149876E+04  0.13321149876E+04  0.25500000920E-02 0. -1.
       -2   -1    0    0    0  501  0.00000000000E+00  0.00000000000E+00 -0.28702077302E+04  0.28702077302E+04  0.25500000920E-02 0.  1.
    10030    2    1    2    0    0  0.00000000000E+00  0.00000000000E+00 -0.15380927426E+04  0.42023227177E+04  0.39107271625E+04 0.  0.
        5    1    3    3  502    0  0.12617161633E+04 -0.14212545192E+04 -0.27482616723E+03  0.19202717509E+04  0.46999998093E+01 0. -1.
       -5    1    3    3    0  502 -0.12617161633E+04  0.14212545192E+04 -0.12632665753E+04  0.22820509669E+04  0.46999998093E+01 0.  1.
</event>
<event>
 5   0  0.4762788E-08  0.3891601E+04  0.7818609E-02  0.8026778E-01
       -1   -1    0    0    0  501  0.00000000000E+00  0.00000000000E+00  0.13171617730E+04  0.13171617730E+04  0.50400001928E-02 0.  1.
        1   -1    0    0  501    0  0.00000000000E+00  0.00000000000E+00 -0.28744680656E+04  0.28744680656E+04  0.50400001928E-02 0. -1.
    10030    2    1    2    0    0  0.00000000000E+00  0.00000000000E+00 -0.15573062925E+04  0.41916298386E+04  0.38916009322E+04 0.  0.
        2    1    3    3  502    0 -0.48912794929E+02  0.89966892405E+03 -0.26362443086E+04  0.27859613581E+04  0.25500000920E-02 0. -1.
       -2    1    3    3    0  502  0.48912794929E+02 -0.89966892405E+03  0.10789380161E+04  0.14056684805E+04  0.25500000920E-02 0.  1.
</event>
<event>
 5   0  0.1520986E-07  0.3963962E+04  0.7818609E-02  0.8011856E-01
       -2   -1    0    0    0  501  0.00000000000E+00  0.00000000000E+00  0.13230012493E+04  0.13230012493E+04  0.25500000920E-02 0.  1.
        2   -1    0    0  501    0  0.00000000000E+00  0.00000000000E+00 -0.29691944798E+04  0.29691944798E+04  0.25500000920E-02 0. -1.
    10030    2    1    2    0    0  0.00000000000E+00  0.00000000000E+00 -0.16461932305E+04  0.42921957291E+04  0.39639616578E+04 0.  0.
        4    1    3    3  502    0  0.12944760400E+04 -0.13756840843E+04 -0.14728438383E+04  0.23952965376E+04  0.12699999809E+01 0. -1.
       -4    1    3    3    0  502 -0.12944760400E+04  0.13756840843E+04 -0.17334939213E+03  0.18968991915E+04  0.12699999809E+01 0.  1.
</event>
<event>
 5   0  0.1538018E-07  0.3847664E+04  0.7818609E-02  0.8036003E-01
        2   -1    0    0  501    0  0.00000000000E+00  0.00000000000E+00  0.21210979545E+04  0.21210979545E+04  0.25500000920E-02 0.  1.
       -2   -1    0    0    0  501  0.00000000000E+00  0.00000000000E+00 -0.17449119275E+04  0.17449119275E+04  0.25500000920E-02 0. -1.
    10030    2    1    2    0    0  0.00000000000E+00  0.00000000000E+00  0.37618602700E+03  0.38660098820E+04  0.38476637692E+04 0.  0.
        1    1    3    3  502    0 -0.11688769228E+04  0.39902133465E+03 -0.12939443310E+04  0.17887937885E+04  0.50400001928E-02 0. -1.
       -1    1    3    3    0  502  0.11688769228E+04 -0.39902133465E+03  0.16701303580E+04  0.20772160934E+04  0.50400001928E-02 0.  1.
</event>
<event>
 5   0  0.4750125E-08  0.3845189E+04  0.7818609E-02  0.8036526E-01
        1   -1    0    0  501    0  0.00000000000E+00  0.00000000000E+00  0.17211690709E+04  0.17211690709E+04  0.50400001928E-02 0.  1.
       -1   -1    0    0    0  501  0.00000000000E+00  0.00000000000E+00 -0.21475925301E+04  0.21475925301E+04  0.50400001928E-02 0. -1.
    10030    2    1    2    0    0  0.00000000000E+00  0.00000000000E+00 -0.42642345917E+03  0.38687616009E+04  0.38451891187E+04 0.  0.
        1    1    3    3  502    0 -0.38207714167E+03  0.15750633252E+04  0.82732480002E+03  0.18196905631E+04  0.50400001928E-02 0. -1.
       -1    1    3    3    0  502  0.38207714167E+03 -0.15750633252E+04 -0.12537482592E+04  0.20490710378E+04  0.50400001928E-02 0.  1.
</event>
<event>
 5   0  0.4750125E-08  0.3773256E+04  0.7818609E-02  0.8051919E-01
       -1   -1    0    0    0  501  0.00000000000E+00  0.00000000000E+00  0.19708271796E+04  0.19708271796E+04  0.50400001928E-02 0. -1.
        1   -1    0    0  501    0  0.00000000000E+00  0.00000000000E+00 -0.18060256808E+04  0.18060256808E+04  0.50400001928E-02 0.  1.
    10030    2    1    2    0    0  0.00000000000E+00  0.00000000000E+00  0.16480149879E+03  0.37768528605E+04  0.37732556229E+04 0.  0.
        5    1    3    3  502    0  0.10816620633E+04  0.53067714232E+02 -0.14639129268E+04  0.18209536372E+04  0.46999998093E+01 0.  1.
       -5    1    3    3    0  502 -0.10816620633E+04 -0.53067714232E+02  0.16287144256E+04  0.19558992233E+04  0.46999998093E+01 0. -1.
</event>
<event>
 5   0  0.1501585E-07  0.3495209E+04  0.7818609E-02  0.8114926E-01
       -2   -1    0    0    0  501  0.00000000000E+00  0.00000000000E+00  0.23474504592E+04  0.23474504592E+04  0.25500000920E-02 0. -1.
        2   -1    0    0  501    0  0.00000000000E+00  0.00000000000E+00 -0.13010376255E+04  0.13010376255E+04  0.25500000920E-02 0.  1.
    10030    2    1    2    0    0  0.00000000000E+00  0.00000000000E+00  0.10464128336E+04  0.36484880847E+04  0.34952089331E+04 0.  0.
        5    1    3    3  502    0  0.14351721724E+04  0.42170818839E+03 -0.42004863541E+03  0.15537116549E+04  0.46999998093E+01 0. -1.
       -5    1    3    3    0  502 -0.14351721724E+04 -0.42170818839E+03  0.14664614690E+04  0.20947764298E+04  0.46999998093E+01 0.  1.
</event>
<event>
 5   0  0.1501585E-07  0.3894828E+04  0.7818609E-02  0.8026106E-01
        2   -1    0    0  501    0  0.00000000000E+00  0.00000000000E+00  0.13712266909E+04  0.13712266909E+04  0.25500000920E-02 0.  1.
       -2   -1    0    0    0  501  0.00000000000E+00  0.00000000000E+00 -0.27657142024E+04  0.27657142024E+04  0.25500000920E-02 0. -1.
    10030    2    1    2    0    0  0.00000000000E+00  0.00000000000E+00 -0.13944875116E+04  0.41369408933E+04  0.38948279211E+04 0.  0.
        5    1    3    3  502    0 -0.14908757779E+04 -0.80098634247E+03 -0.17205146289E+04  0.24133964416E+04  0.46999998093E+01 0.  1.
       -5    1    3    3    0  502  0.14908757779E+04  0.80098634247E+03  0.32602711733E+03  0.17235444518E+04  0.46999998093E+01 0. -1.
</event>
<event>
 5   0  0.1501585E-07  0.3885696E+04  0.7818609E-02  0.8028011E-01
       -2   -1    0    0    0  501  0.00000000000E+00  0.00000000000E+00  0.17572905529E+04  0.17572905529E+04  0.25500000920E-02 0. -1.
        2   -1    0    0  501    0  0.00000000000E+00  0.00000000000E+00 -0.21479987638E+04  0.21479987638E+04  0.25500000920E-02 0.  1.
    10030    2    1    2    0    0  0.00000000000E+00  0.00000000000E+00 -0.39070821087E+03  0.39052893167E+04  0.38856957859E+04 0.  0.
        5    1    3    3  502    0  0.13002325022E+04 -0.14371799713E+04 -0.33222087570E+03  0.19663376185E+04  0.46999998093E+01 0.  1.
       -5    1    3    3    0  502 -0.13002325022E+04  0.14371799713E+04 -0.58487335167E+02  0.19389516982E+04  0.46999998093E+01 0. -1.
</event>
<event>
 5   0  0.1520986E-07  0.3934952E+04  0.7818609E-02  0.8017799E-01
       -2   -1    0    0    0  501  0.00000000000E+00  0.00000000000E+00  0.28855950974E+04  0.28855950974E+04  0.25500000920E-02 0.  1.
        2   -1    0    0  501    0  0.00000000000E+00  0.00000000000E+00 -0.13414780942E+04  0.13414780942E+04  0.25500000920E-02 0. -1.
    10030    2    1    2    0    0  0.00000000000E+00  0.00000000000E+00  0.15441170032E+04  0.42270731916E+04  0.39349524073E+04 0.  0.
        4    1    3    3  502    0  0.17401815396E+04 -0.28743251483E+03 -0.16450883815E+03  0.17714158214E+04  0.12699999809E+01 0.  1.
       -4    1    3    3    0  502 -0.17401815396E+04  0.28743251483E+03  0.17086258414E+04  0.24556573703E+04  0.12699999809E+01 0. -1.
</event>
<event>
 5   0  0.1520986E-07  0.3900489E+04  0.7818609E-02  0.8024928E-01
        2   -1    0    0  501    0  0.00000000000E+00  0.00000000000E+00  0.29217797662E+04  0.29217797662E+04  0.25500000920E-02 0. -1.
       -2   -1    0    0    0  501  0.00000000000E+00  0.00000000000E+00 -0.13017591516E+04  0.13017591516E+04  0.25500000920E-02 0.  1.
    10030    2    1    2    0    0  0.00000000000E+00  0.00000000000E+00  0.16200206146E+04  0.42235389177E+04  0.39004889691E+04 0.  0.
        4    1    3    3  502    0 -0.14688764307E+04 -0.10951981900E+04  0.15334745232E+04  0.23892682499E+04  0.12699999809E+01 0. -1.
       -4    1    3    3    0  502  0.14688764307E+04  0.10951981900E+04  0.86546091452E+02  0.18342706678E+04  0.12699999809E+01 0.  1.
</event>
<event>
 5   0  0.4750125E-08  0.3863486E+04  0.7818609E-02  0.8032666E-01
        1   -1    0    0  501    0  0.00000000000E+00  0.00000000000E+00  0.18719498357E+04  0.18719498357E+04  0.50400001928E-02 0. -1.
       -1   -1    0    0    0  501  0.00000000000E+00  0.00000000000E+00 -0.19934463552E+04  0.19934463552E+04  0.50400001928E-02 0.  1.
    10030    2    1    2    0    0  0.00000000000E+00  0.00000000000E+00 -0.12149651952E+03  0.38653961909E+04  0.38634862894E+04 0.  0.
        5    1    3    3  502    0 -0.15494288311E+04  0.98198776085E+03 -0.66650592314E+03  0.19517381742E+04  0.46999998093E+01 0.  1.
       -5    1    3    3    0  502  0.15494288311E+04 -0.98198776085E+03  0.54500940362E+03  0.19136580167E+04  0.46999998093E+01 0. -1.
</event>
<event>
 5   0  0.1503228E-07  0.3641248E+04  0.7818609E-02  0.8081108E-01
       -2   -1    0    0    0  501  0.00000000000E+00  0.00000000000E+00  0.11324112985E+04  0.11324112985E+04  0.25500000920E-02 0.  1.
        2   -1    0    0  501    0  0.00000000000E+00  0.00000000000E+00 -0.29270921529E+04  0.29270921529E+04  0.25500000920E-02 0. -1.
    10030    2    1    2    0    0  0.00000000000E+00  0.00000000000E+00 -0.17946808544E+04  0.40595034514E+04  0.36412482617E+04 0.  0.
        3    1    3    3  502    0  0.11368552207E+04  0.12064964656E+04 -0.17365306436E+04  0.24007524239E+04  0.10100000352E+00 0. -1.
       -3    1    3    3    0  502 -0.11368552207E+04 -0.12064964656E+04 -0.58150210799E+02  0.16587510276E+04  0.10100000352E+00 0.  1.
</event>
<event>
 5   0  0.1546846E-07  0.3918054E+04  0.7818609E-02  0.8021285E-01
       -2   -1    0    0    0  501  0.00000000000E+00  0.00000000000E+00  0.31976503479E+04  0.31976503479E+04  0.25500000920E-02 0.  1.
        2   -1    0    0  501    0  0.00000000000E+00  0.00000000000E+00 -0.12001897897E+04  0.12001897897E+04  0.25500000920E-02 0. -1.
    10030    2    1    2    0    0  0.00000000000E+00  0.00000000000E+00  0.19974605583E+04  0.43978401376E+04  0.39180542612E+04 0.  0.
        2    1    3    3  502    0 -0.15474070102E+04  0.10724981165E+04  0.39108212917E+03  0.19229315892E+04  0.25500000920E-02 0.  1.
       -2    1    3    3    0  502  0.15474070102E+04 -0.10724981165E+04  0.16063784291E+04  0.24749085483E+04  0.25500000920E-02 0. -1.
</event>
<event>
 5   0  0.4750125E-08  0.3891454E+04  0.7818609E-02  0.8026809E-01
       -1   -1    0    0    0  501  0.00000000000E+00  0.00000000000E+00  0.15204282864E+04  0.15204282864E+04  0.50400001928E-02 0. -1.
        1   -1    0    0  501    0  0.00000000000E+00  0.00000000000E+00 -0.24899912893E+04  0.24899912893E+04  0.50400001928E-02 0.  1.
    10030    2    1    2    0    0  0.00000000000E+00  0.00000000000E+00 -0.96956300288E+03  0.40104195757E+04  0.38914538102E+04 0.  0.
        3    1    3    3  502    0  0.19282815471E+04 -0.15510498015E+03 -0.69978810977E+03  0.20571899981E+04  0.10100000352E+00 0.  1.
       -3    1    3    3    0  502 -0.19282815471E+04  0.15510498015E+03 -0.26977489311E+03  0.19532295776E+04  0.10100000352E+00 0. -1.
</event>
<event>
 5   0  0.1501585E-07  0.3878971E+04  0.7818609E-02  0.8029417E-01
        2   -1    0    0  501    0  0.00000000000E+00  0.00000000000E+00  0.17271003158E+04  0.17271003158E+04  0.25500000920E-02 0. -1.
       -2   -1    0    0    0  501  0.00000000000E+00  0.00000000000E+00 -0.21779886489E+04  0.21779886489E+04  0.25500000920E-02 0.  1.
    10030    2    1    2    0    0  0.00000000000E+00  0.00000000000E+00 -0.45088833303E+03  0.39050889647E+04  0.38789714530E+04 0.  0.
        5    1    3    3  502    0 -0.10739123127E+04  0.47728626579E+03 -0.17787171891E+04  0.21318880748E+04  0.46999998093E+01 0.  1.
       -5    1    3    3    0  502  0.10739123127E+04 -0.47728626579E+03  0.13278288560E+04  0.17732008899E+04  0.46999998093E+01 0. -1.
</event>
<event>
 5   0  0.1546846E-07  0.3888014E+04  0.7818609E-02  0.8027527E-01
       -2   -1    0    0    0  501  0.00000000000E+00  0.00000000000E+00  0.20405151060E+04  0.20405151060E+04  0.25500000920E-02 0.  1.
        2   -1    0    0  501    0  0.00000000000E+00  0.00000000000E+00 -0.18520637459E+04  0.18520637459E+04  0.25500000920E-02 0. -1.
    10030    2    1    2    0    0  0.00000000000E+00  0.00000000000E+00  0.18845136005E+03  0.38925788519E+04  0.38880144294E+04 0.  0.
        2    1    3    3  502    0  0.43743948731E+03 -0.99536891041E+03 -0.15192032127E+04  0.18681785178E+04  0.25500000920E-02 0. -1.
       -2    1    3    3    0  502 -0.43743948731E+03  0.99536891041E+03  0.17076545728E+04  0.20244003341E+04  0.25500000920E-02 0.  1.
</event>
<event>
 5   0  0.4750125E-08  0.3866107E+04  0.7818609E-02  0.8032116E-01
       -1   -1    0    0    0  501  0.00000000000E+00  0.00000000000E+00  0.26637072337E+04  0.26637072337E+04  0.50400001928E-02 0.  1.
        1   -1    0    0  501    0  0.00000000000E+00  0.00000000000E+00 -0.14028175880E+04  0.14028175880E+04  0.50400001928E-02 0. -1.
    10030    2    1    2    0    0  0.00000000000E+00  0.00000000000E+00  0.12608896457E+04  0.40665248217E+04  0.38661067532E+04 0.  0.
        1    1    3    3  502    0  0.16690458832E+04 -0.53696908869E+03  0.14866743049E+04  0.22987497583E+04  0.50400001928E-02 0.  1.
       -1    1    3    3    0  502 -0.16690458832E+04  0.53696908869E+03 -0.22578465918E+03  0.17677750634E+04  0.50400001928E-02 0. -1.
</event>
<event>
 5   0  0.1501585E-07  0.3884635E+04  0.7818609E-02  0.8028233E-01
        2   -1    0    0  501    0  0.00000000000E+00  0.00000000000E+00  0.20509534965E+04  0.20509534965E+04  0.25500000920E-02 0. -1.
       -2   -1    0    0    0  501  0.00000000000E+00  0.00000000000E+00 -0.18394355018E+04  0.18394355019E+04  0.25500000920E-02 0.  1.
    10030    2    1    2    0    0  0.00000000000E+00  0.00000000000E+00  0.21151799465E+03  0.38903889984E+04  0.38846346928E+04 0.  0.
        5    1    3    3  502    0 -0.39017202583E+03 -0.73187312011E+03 -0.16531746602E+04  0.18495623863E+04  0.46999998093E+01 0.  1.
       -5    1    3    3    0  502  0.39017202583E+03  0.73187312011E+03  0.18646926548E+04  0.20408266121E+04  0.46999998093E+01 0. -1.
</event>
<event>
 5   0  0.1501585E-07  0.3471631E+04  0.7818609E-02  0.8120546E-01
        2   -1    0    0  501    0  0.00000000000E+00  0.00000000000E+00  0.28900100244E+04  0.28900100244E+04  0.25500000920E-02 0. -1.
       -2   -1    0    0    0  501  0.00000000000E+00  0.00000000000E+00 -0.10425762550E+04  0.10425762550E+04  0.25500000920E-02 0.  1.
    10030    2    1    2    0    0  0.00000000000E+00  0.00000000000E+00  0.18474337694E+04  0.39325862794E+04  0.34716312178E+04 0.  0.
        5    1    3    3  502    0 -0.49445308023E+02 -0.31308432362E+03 -0.10095091931E+04  0.10581103596E+04  0.46999998093E+01 0.  1.
       -5    1    3    3    0  502  0.49445308023E+02  0.31308432362E+03  0.28569429625E+04  0.28744759197E+04  0.46999998093E+01 0. -1.
</event>
<event>
 5   0  0.1503228E-07  0.3911349E+04  0.7818609E-02  0.8022673E-01
        2   -1    0    0  501    0  0.00000000000E+00  0.00000000000E+00  0.19438341680E+04  0.19438341680E+04  0.25500000920E-02 0.  1.
       -2   -1    0    0    0  501  0.00000000000E+00  0.00000000000E+00 -0.19675871629E+04  0.19675871629E+04  0.25500000920E-02 0. -1.
    10030    2    1    2    0    0  0.00000000000E+00  0.00000000000E+00 -0.23752994925E+02  0.39114213310E+04  0.39113492076E+04 0.  0.
        3    1    3    3  502    0 -0.44407939447E+03 -0.18492052857E+04 -0.46784153518E+03  0.19584796168E+04  0.10100000352E+00 0. -1.
       -3    1    3    3    0  502  0.44407939447E+03  0.18492052857E+04  0.44408854026E+03  0.19529417142E+04  0.10100000352E+00 0.  1.
</event>
<event>
 5   0  0.4762788E-08  0.3934130E+04  0.7818609E-02  0.8017968E-01
       -1   -1    0    0    0  501  0.00000000000E+00  0.00000000000E+00  0.29905172638E+04  0.29905172638E+04  0.50400001928E-02 0. -1.
        1   -1    0    0  501    0  0.00000000000E+00  0.00000000000E+00 -0.12938714378E+04  0.12938714378E+04  0.50400001928E-02 0.  1.
    10030    2    1    2    0    0  0.00000000000E+00  0.00000000000E+00  0.16966458259E+04  0.42843887016E+04  0.39341300802E+04 0.  0.
        2    1    3    3  502    0  0.15776695044E+02 -0.99540563177E+03 -0.99926636050E+03  0.14105369669E+04  0.25500000920E-02 0.  1.
       -2    1    3    3    0  502 -0.15776695044E+02  0.99540563177E+03  0.26959121864E+04  0.28738517347E+04  0.25500000920E-02 0. -1.
</event>
<event>
 5   0  0.4750125E-08  0.3914013E+04  0.7818609E-02  0.8022121E-01
        1   -1    0    0  501    0  0.00000000000E+00  0.00000000000E+00  0.13319496519E+04  0.13319496519E+04  0.50400001928E-02 0. -1.
       -1   -1    0    0    0  501  0.00000000000E+00  0.00000000000E+00 -0.28753893609E+04  0.28753893609E+04  0.50400001928E-02 0.  1.
    10030    2    1    2    0    0  0.00000000000E+00  0.00000000000E+00 -0.15434397090E+04  0.42073390129E+04  0.39140127023E+04 0.  0.
        5    1    3    3  502    0 -0.10756518283E+04 -0.13840430735E+04  0.16369621612E+03  0.17605171473E+04  0.46999998093E+01 0.  1.
       -5    1    3    3    0  502  0.10756518283E+04  0.13840430735E+04 -0.17071359251E+04  0.24468218656E+04  0.46999998093E+01 0. -1.
</event>
<event>
 5   0  0.1546846E-07  0.3931371E+04  0.7818609E-02  0.8018536E-01
        2   -1    0    0  501    0  0.00000000000E+00  0.00000000000E+00  0.18647442205E+04  0.18647442205E+04  0.25500000920E-02 0.  1.
       -2   -1    0    0    0  501  0.00000000000E+00  0.00000000000E+00 -0.20720907389E+04  0.20720907389E+04  0.25500000920E-02 0. -1.
    10030    2    1    2    0    0  0.00000000000E+00  0.00000000000E+00 -0.20734651837E+03  0.39368349594E+04  0.39313708701E+04 0.  0.
        2    1    3    3  502    0  0.18207024214E+04 -0.37109193089E+03 -0.74585444096E+03  0.20022400894E+04  0.25500000920E-02 0. -1.
       -2    1    3    3    0  502 -0.18207024214E+04  0.37109193089E+03  0.53850792259E+03  0.19345948700E+04  0.25500000920E-02 0.  1.
</event>
<event>
 5   0  0.1538018E-07  0.3901810E+04  0.7818609E-02  0.8024653E-01
       -2   -1    0    0    0  501  0.00000000000E+00  0.00000000000E+00  0.22662913911E+04  0.22662913911E+04  0.25500000920E-02 0.  1.
        2   -1    0    0  501    0  0.00000000000E+00  0.00000000000E+00 -0.16794091904E+04  0.16794091904E+04  0.25500000920E-02 0. -1.
    10030    2    1    2    0    0  0.00000000000E+00  0.00000000000E+00  0.58688220076E+03  0.39457005815E+04  0.39018101391E+04 0.  0.
        1    1    3    3  502    0  0.18746943574E+04  0.86810752972E+02  0.83236699589E+03  0.20530099504E+04  0.50400001928E-02 0.  1.
       -1    1    3    3    0  502 -0.18746943574E+04 -0.86810752972E+02 -0.24548479513E+03  0.18926906311E+04  0.50400001928E-02 0. -1.
</event>
<event>
 5   0  0.4750125E-08  0.3903710E+04  0.7818609E-02  0.8024258E-01
       -1   -1    0    0    0  501  0.00000000000E+00  0.00000000000E+00  0.31814519107E+04  0.31814519107E+04  0.50400001928E-02 0. -1.
        1   -1    0    0  501    0  0.00000000000E+00  0.00000000000E+00 -0.11974840605E+04  0.11974840605E+04  0.50400001928E-02 0.  1.
    10030    2    1    2    0    0  0.00000000000E+00  0.00000000000E+00  0.19839678502E+04  0.43789359712E+04  0.39037100058E+04 0.  0.
        4    1    3    3  502    0 -0.16355559026E+04 -0.72380049534E+03  0.11530065287E+03  0.17922684288E+04  0.12699999809E+01 0.  1.
       -4    1    3    3    0  502  0.16355559026E+04  0.72380049534E+03  0.18686671974E+04  0.25866675424E+04  0.12699999809E+01 0. -1.
</event>
<event>
 5   0  0.4750125E-08  0.3901757E+04  0.7818609E-02  0.8024664E-01
        1   -1    0    0  501    0  0.00000000000E+00  0.00000000000E+00  0.23024848437E+04  0.23024848437E+04  0.50400001928E-02 0.  1.
       -1   -1    0    0    0  501  0.00000000000E+00  0.00000000000E+00 -0.16529647719E+04  0.16529647719E+04  0.50400001928E-02 0. -1.
    10030    2    1    2    0    0  0.00000000000E+00  0.00000000000E+00  0.64952007183E+03  0.39554496156E+04  0.39017566989E+04 0.  0.
        3    1    3    3  502    0 -0.10005829371E+04 -0.15828640727E+04 -0.22985300021E+03  0.18866524054E+04  0.10100000352E+00 0.  1.
       -3    1    3    3    0  502  0.10005829371E+04  0.15828640727E+04  0.87937307204E+03  0.20687972102E+04  0.10100000352E+00 0. -1.
</event>
<event>
 5   0  0.1546846E-07  0.3973507E+04  0.7818609E-02  0.8009912E-01
        2   -1    0    0  501    0  0.00000000000E+00  0.00000000000E+00  0.13128480187E+04  0.13128480187E+04  0.25500000920E-02 0. -1.
       -2   -1    0    0    0  501  0.00000000000E+00  0.00000000000E+00 -0.30065849023E+04  0.30065849023E+04  0.25500000920E-02 0.  1.
    10030    2    1    2    0    0  0.00000000000E+00  0.00000000000E+00 -0.16937368836E+04  0.43194329210E+04  0.39735067796E+04 0.  0.
        2    1    3    3  502    0  0.86212030828E+03 -0.12823400599E+04 -0.22044041261E+04  0.26920336191E+04  0.25500000920E-02 0.  1.
       -2    1    3    3    0  502 -0.86212030828E+03  0.12823400599E+04  0.51066724249E+03  0.16273993019E+04  0.25500000920E-02 0. -1.
</event>
<event>
 5   0  0.4750125E-08  0.3890551E+04  0.7818609E-02  0.8026997E-01
       -1   -1    0    0    0  501  0.00000000000E+00  0.00000000000E+00  0.15233746747E+04  0.15233746748E+04  0.50400001928E-02 0.  1.
        1   -1    0    0  501    0  0.00000000000E+00  0.00000000000E+00 -0.24840224436E+04  0.24840224436E+04  0.50400001928E-02 0. -1.
    10030    2    1    2    0    0  0.00000000000E+00  0.00000000000E+00 -0.96064776886E+03  0.40073971184E+04  0.38905510572E+04 0.  0.
        3    1    3    3  502    0  0.43739569650E+03  0.39194051409E+03 -0.23905190329E+04  0.24616079336E+04  0.10100000352E+00 0. -1.
       -3    1    3    3    0  502 -0.43739569650E+03 -0.39194051409E+03  0.14298712640E+04  0.15457891848E+04  0.10100000352E+00 0.  1.
</event>
<event>
 5   0  0.4750125E-08  0.3913808E+04  0.7818609E-02  0.8022164E-01
        1   -1    0    0  501    0  0.00000000000E+00  0.00000000000E+00  0.14720283407E+04  0.14720283407E+04  0.50400001928E-02 0.  1.
       -1   -1    0    0    0  501  0.00000000000E+00  0.00000000000E+00 -0.26014941952E+04  0.26014941952E+04  0.50400001928E-02 0. -1.
    10030    2    1    2    0    0  0.00000000000E+00  0.00000000000E+00 -0.11294658545E+04  0.40735225359E+04  0.39138079582E+04 0.  0.
        1    1    3    3  502    0  0.84146351394E+03  0.57694020203E+03 -0.23027739052E+04  0.25186680013E+04  0.50400001928E-02 0. -1.
       -1    1    3    3    0  502 -0.84146351394E+03 -0.57694020203E+03  0.11733080507E+04  0.15548545346E+04  0.50400001928E-02 0.  1.
</event>
<event>
 5   0  0.4762788E-08  0.3859619E+04  0.7818609E-02  0.8033480E-01
        1   -1    0    0  501    0  0.00000000000E+00  0.00000000000E+00  0.18816938051E+04  0.18816938051E+04  0.50400001928E-02 0. -1.
       -1   -1    0    0    0  501  0.00000000000E+00  0.00000000000E+00 -0.19791556463E+04  0.19791556463E+04  0.50400001928E-02 0.  1.
    10030    2    1    2    0    0  0.00000000000E+00  0.00000000000E+00 -0.97461841249E+02  0.38608494514E+04  0.38596191102E+04 0.  0.
        2    1    3    3  502    0 -0.13074281068E+04  0.39952880850E+03 -0.14112126054E+04  0.19648187044E+04  0.25500000920E-02 0.  1.
       -2    1    3    3    0  502  0.13074281068E+04 -0.39952880850E+03  0.13137507642E+04  0.18960307470E+04  0.25500000920E-02 0. -1.
</event>
<event>
 5   0  0.1520986E-07  0.3770426E+04  0.7818609E-02  0.8052531E-01
       -2   -1    0    0    0  501  0.00000000000E+00  0.00000000000E+00  0.24777057686E+04  0.24777057686E+04  0.25500000920E-02 0.  1.
        2   -1    0    0  501    0  0.00000000000E+00  0.00000000000E+00 -0.14344027625E+04  0.14344027625E+04  0.25500000920E-02 0. -1.
    10030    2    1    2    0    0  0.00000000000E+00  0.00000000000E+00  0.10433030061E+04  0.39121085311E+04  0.37704259702E+04 0.  0.
        4    1    3    3  502    0  0.16258014192E+04  0.27963322606E+03 -0.42510662530E+03  0.17035675072E+04  0.12699999809E+01 0. -1.
       -4    1    3    3    0  502 -0.16258014192E+04 -0.27963322606E+03  0.14684096313E+04  0.22085410239E+04  0.12699999809E+01 0.  1.
</event>
<event>
 5   0  0.4762788E-08  0.3918141E+04  0.7818609E-02  0.8021267E-01
        1   -1    0    0  501    0  0.00000000000E+00  0.00000000000E+00  0.16185412291E+04  0.16185412291E+04  0.50400001928E-02 0.  1.
       -1   -1    0    0    0  501  0.00000000000E+00  0.00000000000E+00 -0.23712445229E+04  0.23712445229E+04  0.50400001928E-02 0. -1.
    10030    2    1    2    0    0  0.00000000000E+00  0.00000000000E+00 -0.75270329376E+03  0.39897857520E+04  0.39181408982E+04 0.  0.
        2    1    3    3  502    0 -0.47227038766E+03 -0.18914326822E+04 -0.57327897530E+03  0.20320447077E+04  0.25500000920E-02 0. -1.
       -2    1    3    3    0  502  0.47227038766E+03  0.18914326822E+04 -0.17942431845E+03  0.19577410443E+04  0.25500000920E-02 0.  1.
</event>
<event>
 5   0  0.1520986E-07  0.3883798E+04  0.7818609E-02  0.8028407E-01
       -2   -1    0    0    0  501  0.00000000000E+00  0.00000000000E+00  0.13637333330E+04  0.13637333330E+04  0.25500000920E-02 0.  1.
        2   -1    0    0  501    0  0.00000000000E+00  0.00000000000E+00 -0.27651820578E+04  0.27651820578E+04  0.25500000920E-02 0. -1.
    10030    2    1    2    0    0  0.00000000000E+00  0.00000000000E+00 -0.14014487248E+04  0.41289153909E+04  0.38837975973E+04 0.  0.
        4    1    3    3  502    0  0.11114342600E+03 -0.11025942303E+04  0.99456658686E+03  0.14890370064E+04  0.12699999809E+01 0.  1.
       -4    1    3    3    0  502 -0.11114342600E+03  0.11025942303E+04 -0.23960153117E+04  0.26398783844E+04  0.12699999809E+01 0. -1.
</event>
<event>
 5   0  0.1538018E-07  0.3910669E+04  0.7818609E-02  0.8022814E-01
       -2   -1    0    0    0  501  0.00000000000E+00  0.00000000000E+00  0.21442680530E+04  0.21442680530E+04  0.25500000920E-02 0. -1.
        2   -1    0    0  501    0  0.00000000000E+00  0.00000000000E+00 -0.17830477692E+04  0.17830477692E+04  0.25500000920E-02 0.  1.
    10030    2    1    2    0    0  0.00000000000E+00  0.00000000000E+00  0.36122028379E+03  0.39273158221E+04  0.39106686734E+04 0.  0.
        1    1    3    3  502    0  0.94865769512E+03  0.66242680311E+03 -0.14023521509E+04  0.18180627732E+04  0.50400001928E-02 0.  1.
       -1    1    3    3    0  502 -0.94865769512E+03 -0.66242680311E+03  0.17635724347E+04  0.21092530490E+04  0.50400001928E-02 0. -1.
</event>
<event>
 5   0  0.1501585E-07  0.3864190E+04  0.7818609E-02  0.8032519E-01
        2   -1    0    0  501    0  0.00000000000E+00  0.00000000000E+00  0.24523532933E+04  0.24523532933E+04  0.25500000920E-02 0.  1.
       -2   -1    0    0    0  501  0.00000000000E+00  0.00000000000E+00 -0.15222075005E+04  0.15222075005E+04  0.25500000920E-02 0. -1.
    10030    2    1    2    0    0  0.00000000000E+00  0.00000000000E+00  0.93014579279E+03  0.39745607938E+04  0.38641897350E+04 0.  0.
        5    1    3    3  502    0 -0.68232766178E+03 -0.51852000192E+03 -0.13160144720E+04  0.15704617827E+04  0.46999998093E+01 0. -1.
       -5    1    3    3    0  502  0.68232766178E+03  0.51852000192E+03  0.22461602647E+04  0.24040990111E+04  0.46999998093E+01 0.  1.
</event>
<event>
 5   0  0.1503228E-07  0.3908365E+04  0.7818609E-02  0.8023292E-01
       -2   -1    0    0    0  501  0.00000000000E+00  0.00000000000E+00  0.15921999680E+04  0.15921999680E+04  0.25500000920E-02 0.  1.
        2   -1    0    0  501    0  0.00000000000E+00  0.00000000000E+00 -0.23984608930E+04  0.23984608930E+04  0.25500000920E-02 0. -1.
    10030    2    1    2    0    0  0.00000000000E+00  0.00000000000E+00 -0.80626092500E+03  0.39906608610E+04  0.39083650583E+04 0.  0.
        3    1    3    3  502    0 -0.15716994290E+04 -0.72152581370E+03  0.52596950051E+03  0.18076179133E+04  0.10100000352E+00 0. -1.
       -3    1    3    3    0  502  0.15716994290E+04  0.72152581370E+03 -0.13322304255E+04  0.21830429477E+04  0.10100000352E+00 0.  1.
</event>
<event>
 5   0  0.1520986E-07  0.3905225E+04  0.7818609E-02  0.8023943E-01
       -2   -1    0    0    0  501  0.00000000000E+00  0.00000000000E+00  0.15002510653E+04  0.15002510653E+04  0.25500000920E-02 0.  1.
        2   -1    0    0  501    0  0.00000000000E+00  0.00000000000E+00 -0.25413718765E+04  0.25413718765E+04  0.25500000920E-02 0. -1.
    10030    2    1    2    0    0  0.00000000000E+00  0.00000000000E+00 -0.10411208112E+04  0.40416229419E+04  0.39052251485E+04 0.  0.
        4    1    3    3  502    0  0.15139330193E+04  0.86621201647E+03  0.38780711760E+03  0.17868162798E+04  0.12699999809E+01 0.  1.
       -4    1    3    3    0  502 -0.15139330193E+04 -0.86621201647E+03 -0.14289279288E+04  0.22548066620E+04  0.12699999809E+01 0. -1.
</event>
<event>
 5   0  0.4750125E-08  0.3899297E+04  0.7818609E-02  0.8025175E-01
        1   -1    0    0  501    0  0.00000000000E+00  0.00000000000E+00  0.23453493815E+04  0.23453493815E+04  0.50400001928E-02 0.  1.
       -1   -1    0    0    0  501  0.00000000000E+00  0.00000000000E+00 -0.16207092193E+04  0.16207092193E+04  0.50400001928E-02 0. -1.
    10030    2    1    2    0    0  0.00000000000E+00  0.00000000000E+00  0.72464016222E+03  0.39660586008E+04  0.38992970469E+04 0.  0.
        3    1    3    3  502    0 -0.37035225745E+02  0.12765286789E+04  0.18607137017E+04  0.22568014015E+04  0.10100000352E+00 0.  1.
       -3    1    3    3    0  502  0.37035225745E+02 -0.12765286789E+04 -0.11360735394E+04  0.17092571993E+04  0.10100000352E+00 0. -1.
</event>
<event>
 5   0  0.4762788E-08  0.3952559E+04  0.7818609E-02  0.8014186E-01
       -1   -1    0    0    0  501  0.00000000000E+00  0.00000000000E+00  0.18662741899E+04  0.18662741899E+04  0.50400001928E-02 0. -1.
        1   -1    0    0  501    0  0.00000000000E+00  0.00000000000E+00 -0.20927688170E+04  0.20927688170E+04  0.50400001928E-02 0.  1.
    10030    2    1    2    0    0  0.00000000000E+00  0.00000000000E+00 -0.22649462713E+03  0.39590430069E+04  0.39525588819E+04 0.  0.
        2    1    3    3  502    0 -0.72498125384E+03  0.70310902437E+03 -0.18147748786E+04  0.20768649399E+04  0.25500000920E-02 0.  1.
       -2    1    3    3    0  502  0.72498125384E+03 -0.70310902437E+03  0.15882802515E+04  0.18821780670E+04  0.25500000920E-02 0. -1.
</event>
<event>
 5   0  0.4750125E-08  0.3884003E+04  0.7818609E-02  0.8028365E-01
        1   -1    0    0  501    0  0.00000000000E+00  0.00000000000E+00  0.23446383061E+04  0.23446383061E+04  0.50400001928E-02 0.  1.
       -1   -1    0    0    0  501  0.00000000000E+00  0.00000000000E+00 -0.16085080750E+04  0.16085080750E+04  0.50400001928E-02 0. -1.
    10030    2    1    2    0    0  0.00000000000E+00  0.00000000000E+00  0.73613023104E+03  0.39531463811E+04  0.38840029085E+04 0.  0.
        5    1    3    3  502    0 -0.92752597215E+03 -0.15637699150E+04 -0.32648082812E+03  0.18472391825E+04  0.46999998093E+01 0. -1.
       -5    1    3    3    0  502  0.92752597215E+03  0.15637699150E+04  0.10626110592E+04  0.21059071986E+04  0.46999998093E+01 0.  1.
</event>
<event>
 5   0  0.1520986E-07  0.3860594E+04  0.7818609E-02  0.8033275E-01
        2   -1    0    0  501    0  0.00000000000E+00  0.00000000000E+00  0.21100486324E+04  0.21100486324E+04  0.25500000920E-02 0. -1.
       -2   -1    0    0    0  501  0.00000000000E+00  0.00000000000E+00 -0.17658577973E+04  0.17658577973E+04  0.25500000920E-02 0.  1.
    10030    2    1    2    0    0  0.00000000000E+00  0.00000000000E+00  0.34419083514E+03  0.38759064297E+04  0.38605936488E+04 0.  0.
        4    1    3    3  502    0 -0.32964652193E+01  0.15659774439E+04 -0.96098556096E+03  0.18373325999E+04  0.12699999809E+01 0.  1.
       -4    1    3    3    0  502  0.32964652193E+01 -0.15659774439E+04  0.13051763961E+04  0.20385738298E+04  0.12699999809E+01 0. -1.
</event>
<event>
 5   0  0.4750125E-08  0.3957204E+04  0.7818609E-02  0.8013236E-01
       -1   -1    0    0    0  501  0.00000000000E+00  0.00000000000E+00  0.22693493476E+04  0.22693493476E+04  0.50400001928E-02 0.  1.
        1   -1    0    0  501    0  0.00000000000E+00  0.00000000000E+00 -0.17251053210E+04  0.17251053210E+04  0.50400001928E-02 0. -1.
    10030    2    1    2    0    0  0.00000000000E+00  0.00000000000E+00  0.54424402653E+03  0.39944546686E+04  0.39572043843E+04 0.  0.
        1    1    3    3  502    0 -0.14682237552E+04  0.10057718973E+04  0.11449047336E+04  0.21161438877E+04  0.50400001928E-02 0.  1.
       -1    1    3    3    0  502  0.14682237552E+04 -0.10057718973E+04 -0.60066070702E+03  0.18783107809E+04  0.50400001928E-02 0. -1.
</event>
<event>
 5   0  0.4750125E-08  0.3864432E+04  0.7818609E-02  0.8032467E-01
       -1   -1    0    0    0  501  0.00000000000E+00  0.00000000000E+00  0.17699622370E+04  0.17699622370E+04  0.50400001928E-02 0. -1.
        1   -1    0    0  501    0  0.00000000000E+00  0.00000000000E+00 -0.21093442121E+04  0.21093442121E+04  0.50400001928E-02 0.  1.
    10030    2    1    2    0    0  0.00000000000E+00  0.00000000000E+00 -0.33938197508E+03  0.38793064491E+04  0.38644324811E+04 0.  0.
        5    1    3    3  502    0  0.12616388197E+04 -0.29028178997E+03  0.12702082790E+04  0.18136833216E+04  0.46999998093E+01 0. -1.
       -5    1    3    3    0  502 -0.12616388197E+04  0.29028178997E+03 -0.16095902540E+04  0.20656231275E+04  0.46999998093E+01 0.  1.
</event>
<event>
 5   0  0.4750125E-08  0.4074636E+04  0.7818609E-02  0.7989657E-01
       -1   -1    0    0    0  501  0.00000000000E+00  0.00000000000E+00  0.24502559051E+04  0.24502559051E+04  0.50400001928E-02 0.  1.
        1   -1    0    0  501    0  0.00000000000E+00  0.00000000000E+00 -0.16939716022E+04  0.16939716022E+04  0.50400001928E-02 0. -1.
    10030    2    1    2    0    0  0.00000000000E+00  0.00000000000E+00  0.75628430293E+03  0.41442275073E+04  0.40746356507E+04 0.  0.
        1    1    3    3  502    0 -0.18970382605E+03  0.68610421318E+03 -0.15633706633E+04  0.17178051007E+04  0.50400001928E-02 0. -1.
       -1    1    3    3    0  502  0.18970382605E+03 -0.68610421318E+03  0.23196549663E+04  0.24264224066E+04  0.50400001928E-02 0.  1.
</event>
<event>
 5   0  0.4762788E-08  0.3842713E+04  0.7818609E-02  0.8037050E-01
        1   -1    0    0  501    0  0.00000000000E+00  0.00000000000E+00  0.30943109499E+04  0.30943109499E+04  0.50400001928E-02 0.  1.
       -1   -1    0    0    0  501  0.00000000000E+00  0.00000000000E+00 -0.11930318159E+04  0.11930318159E+04  0.50400001928E-02 0. -1.
    10030    2    1    2    0    0  0.00000000000E+00  0.00000000000E+00  0.19012791340E+04  0.42873427659E+04  0.38427133183E+04 0.  0.
        2    1    3    3  502    0 -0.10095038244E+04  0.14599644643E+04  0.12999375422E+03  0.17797450898E+04  0.25500000920E-02 0. -1.
       -2    1    3    3    0  502  0.10095038244E+04 -0.14599644643E+04  0.17712853798E+04  0.25075976761E+04  0.25500000920E-02 0.  1.
</event>
<event>
 5   0  0.1501585E-07  0.3895250E+04  0.7818609E-02  0.8026018E-01
        2   -1    0    0  501    0  0.00000000000E+00  0.00000000000E+00  0.20941193525E+04  0.20941193525E+04  0.25500000920E-02 0.  1.
       -2   -1    0    0    0  501  0.00000000000E+00  0.00000000000E+00 -0.18113790030E+04  0.18113790030E+04  0.25500000920E-02 0. -1.
    10030    2    1    2    0    0  0.00000000000E+00  0.00000000000E+00  0.28274034946E+03  0.39054983554E+04  0.38952503513E+04 0.  0.
        5    1    3    3  502    0 -0.19280455122E+04  0.41877610748E+02 -0.13157480180E+03  0.19329892006E+04  0.46999998093E+01 0.  1.
       -5    1    3    3    0  502  0.19280455122E+04 -0.41877610748E+02  0.41431515126E+03  0.19725091548E+04  0.46999998093E+01 0. -1.
</event>
<event>
 5   0  0.1520986E-07  0.3585314E+04  0.7818609E-02  0.8093864E-01
        2   -1    0    0  501    0  0.00000000000E+00  0.00000000000E+00  0.18833898735E+04  0.18833898735E+04  0.25500000920E-02 0. -1.
       -2   -1    0    0    0  501  0.00000000000E+00  0.00000000000E+00 -0.17062948840E+04  0.17062948840E+04  0.25500000920E-02 0.  1.
    10030    2    1    2    0    0  0.00000000000E+00  0.00000000000E+00  0.17709498955E+03  0.35896847575E+04  0.35853136575E+04 0.  0.
        4    1    3    3  502    0  0.27543659732E+03 -0.43559818487E+03  0.18076165469E+04  0.18796516410E+04  0.12699999809E+01 0. -1.
       -4    1    3    3    0  502 -0.27543659732E+03  0.43559818487E+03 -0.16305215574E+04  0.17100331166E+04  0.12699999809E+01 0.  1.
</event>
<event>
 5   0  0.4750125E-08  0.3801194E+04  0.7818609E-02  0.8045899E-01
        1   -1    0    0  501    0  0.00000000000E+00  0.00000000000E+00  0.17664280564E+04  0.17664280564E+04  0.50400001928E-02 0.  1.
       -1   -1    0    0    0  501  0.00000000000E+00  0.00000000000E+00 -0.20449569913E+04  0.20449569913E+04  0.50400001928E-02 0. -1.
    10030    2    1    2    0    0  0.00000000000E+00  0.00000000000E+00 -0.27852893487E+03  0.38113850478E+04  0.38011942353E+04 0.  0.
        5    1    3    3  502    0  0.14908819956E+03 -0.13040900137E+04  0.12389639056E+04  0.18049741562E+04  0.46999998093E+01 0.  1.
       -5    1    3    3    0  502 -0.14908819956E+03  0.13040900137E+04 -0.15174928404E+04  0.20064108916E+04  0.46999998093E+01 0. -1.
</event>
<event>
 5   0  0.4762788E-08  0.3881478E+04  0.7818609E-02  0.8028892E-01
       -1   -1    0    0    0  501  0.00000000000E+00  0.00000000000E+00  0.17283954944E+04  0.17283954944E+04  0.50400001928E-02 0. -1.
        1   -1    0    0  501    0  0.00000000000E+00  0.00000000000E+00 -0.21791706306E+04  0.21791706306E+04  0.50400001928E-02 0.  1.
    10030    2    1    2    0    0  0.00000000000E+00  0.00000000000E+00 -0.45077513618E+03  0.39075661250E+04  0.38814784294E+04 0.  0.
        2    1    3    3  502    0 -0.41758883984E+03  0.86229411959E+03  0.14737169707E+04  0.17577750987E+04  0.25500000920E-02 0. -1.
       -2    1    3    3    0  502  0.41758883984E+03 -0.86229411959E+03 -0.19244921068E+04  0.21497910264E+04  0.25500000920E-02 0.  1.
</event>
<event>
 5   0  0.1520986E-07  0.3906425E+04  0.7818609E-02  0.8023694E-01
       -2   -1    0    0    0  501  0.00000000000E+00  0.00000000000E+00  0.22087962855E+04  0.22087962855E+04  0.25500000920E-02 0.  1.
        2   -1    0    0  501    0  0.00000000000E+00  0.00000000000E+00 -0.17272030880E+04  0.17272030880E+04  0.25500000920E-02 0. -1.
    10030    2    1    2    0    0  0.00000000000E+00  0.00000000000E+00  0.48159319746E+03  0.39359993735E+04  0.39064253558E+04 0.  0.
        4    1    3    3  502    0 -0.14677751182E+04  0.11731577694E+04 -0.29650898299E+03  0.19022571171E+04  0.12699999809E+01 0. -1.
       -4    1    3    3    0  502  0.14677751182E+04 -0.11731577694E+04  0.77810218045E+03  0.20337422564E+04  0.12699999809E+01 0.  1.
</event>
<event>
 5   0  0.4750125E-08  0.3928344E+04  0.7818609E-02  0.8019160E-01
       -1   -1    0    0    0  501  0.00000000000E+00  0.00000000000E+00  0.18233976660E+04  0.18233976660E+04  0.50400001928E-02 0. -1.
        1   -1    0    0  501    0  0.00000000000E+00  0.00000000000E+00 -0.21158142198E+04  0.21158142198E+04  0.50400001928E-02 0.  1.
    10030    2    1    2    0    0  0.00000000000E+00  0.00000000000E+00 -0.29241655378E+03  0.39392118858E+04  0.39283435237E+04 0.  0.
        1    1    3    3  502    0 -0.17289318734E+04  0.92906166244E+03 -0.22131352229E+03  0.19751811741E+04  0.50400001928E-02 0. -1.
       -1    1    3    3    0  502  0.17289318734E+04 -0.92906166244E+03 -0.71103031496E+02  0.19640307117E+04  0.50400001928E-02 0.  1.
</event>
<event>
 5   0  0.1538018E-07  0.3910393E+04  0.7818609E-02  0.8022871E-01
        2   -1    0    0  501    0  0.00000000000E+00  0.00000000000E+00  0.21835658687E+04  0.21835658687E+04  0.25500000920E-02 0.  1.
       -2   -1    0    0    0  501  0.00000000000E+00  0.00000000000E+00 -0.17507113316E+04  0.17507113316E+04  0.25500000920E-02 0. -1.
    10030    2    1    2    0    0  0.00000000000E+00  0.00000000000E+00  0.43285453717E+03  0.39342772003E+04  0.39103930798E+04 0.  0.
        1    1    3    3  502    0  0.11476366024E+04 -0.12158806350E+04  0.12362048214E+04  0.20793359157E+04  0.50400001928E-02 0. -1.
       -1    1    3    3    0  502 -0.11476366024E+04  0.12158806350E+04 -0.80335028425E+03  0.18549412846E+04  0.50400001928E-02 0.  1.
</event>
<event>
 5   0  0.4750125E-08  0.3917205E+04  0.7818609E-02  0.8021460E-01
        1   -1    0    0  501    0  0.00000000000E+00  0.00000000000E+00  0.16357488327E+04  0.16357488327E+04  0.50400001928E-02 0. -1.
       -1   -1    0    0    0  501  0.00000000000E+00  0.00000000000E+00 -0.23451785205E+04  0.23451785205E+04  0.50400001928E-02 0.  1.
    10030    2    1    2    0    0  0.00000000000E+00  0.00000000000E+00 -0.70942968781E+03  0.39809273531E+04  0.39172046295E+04 0.  0.
        1    1    3    3  502    0 -0.53513255294E+03  0.47196064558E+03  0.14989661729E+04  0.16601244796E+04  0.50400001928E-02 0. -1.
       -1    1    3    3    0  502  0.53513255294E+03 -0.47196064558E+03 -0.22083958607E+04  0.23208028735E+04  0.50400001928E-02 0.  1.
</event>
<event>
 5   0  0.4750125E-08  0.3870996E+04  0.7818609E-02  0.8031089E-01
        1   -1    0    0  501    0  0.00000000000E+00  0.00000000000E+00  0.21330579641E+04  0.21330579641E+04  0.50400001928E-02 0. -1.
       -1   -1    0    0    0  501  0.00000000000E+00  0.00000000000E+00 -0.17562360527E+04  0.17562360527E+04  0.50400001928E-02 0.  1.
    10030    2    1    2    0    0  0.00000000000E+00  0.00000000000E+00  0.37682191140E+03  0.38892940168E+04  0.38709964087E+04 0.  0.
        1    1    3    3  502    0 -0.10693636854E+04  0.93503911098E+03  0.15092796318E+04  0.20726219718E+04  0.50400001928E-02 0. -1.
       -1    1    3    3    0  502  0.10693636854E+04 -0.93503911098E+03 -0.11324577204E+04  0.18166720451E+04  0.50400001928E-02 0.  1.
</event>
<event>
 5   0  0.1503228E-07  0.3908371E+04  0.7818609E-02  0.8023290E-01
        2   -1    0    0  501    0  0.00000000000E+00  0.00000000000E+00  0.13677526308E+04  0.13677526308E+04  0.25500000920E-02 0. -1.
       -2   -1    0    0    0  501  0.00000000000E+00  0.00000000000E+00 -0.27920549593E+04  0.27920549593E+04  0.25500000920E-02 0.  1.
    10030    2    1    2    0    0  0.00000000000E+00  0.00000000000E+00 -0.14243023285E+04  0.41598075901E+04  0.39083707684E+04 0.  0.
        3    1    3    3  502    0 -0.23209456959E+03 -0.38723045441E+03 -0.27357906767E+04  0.27727902825E+04  0.10100000352E+00 0.  1.
       -3    1    3    3    0  502  0.23209456959E+03  0.38723045441E+03  0.13114883481E+04  0.13870173076E+04  0.10100000352E+00 0. -1.
</event>
<event>
 5   0  0.1503228E-07  0.3844636E+04  0.7818609E-02  0.8036643E-01
        2   -1    0    0  501    0  0.00000000000E+00  0.00000000000E+00  0.12296828373E+04  0.12296828373E+04  0.25500000920E-02 0. -1.
       -2   -1    0    0    0  501  0.00000000000E+00  0.00000000000E+00 -0.30050896866E+04  0.30050896866E+04  0.25500000920E-02 0.  1.
    10030    2    1    2    0    0  0.00000000000E+00  0.00000000000E+00 -0.17754068494E+04  0.42347725239E+04  0.38446363740E+04 0.  0.
        3    1    3    3  502    0 -0.71533341159E+03  0.11513445944E+04  0.61370534835E+03  0.14879282676E+04  0.10100000352E+00 0. -1.
       -3    1    3    3    0  502  0.71533341159E+03 -0.11513445944E+04 -0.23891121977E+04  0.27468442563E+04  0.10100000352E+00 0.  1.
</event>
<event>
 5   0  0.1520986E-07  0.3904462E+04  0.7818609E-02  0.8024102E-01
        2   -1    0    0  501    0  0.00000000000E+00  0.00000000000E+00  0.11659108532E+04  0.11659108532E+04  0.25500000920E-02 0. -1.
       -2   -1    0    0    0  501  0.00000000000E+00  0.00000000000E+00 -0.32688652610E+04  0.32688652610E+04  0.25500000920E-02 0.  1.
    10030    2    1    2    0    0  0.00000000000E+00  0.00000000000E+00 -0.21029544079E+04  0.44347761142E+04  0.39044617992E+04 0.  0.
        4    1    3    3  502    0  0.71144120496E+01  0.16633617823E+04  0.10927620903E+03  0.16669630879E+04  0.12699999809E+01 0. -1.
       -4    1    3    3    0  502 -0.71144120496E+01 -0.16633617823E+04 -0.22122306169E+04  0.27678130264E+04  0.12699999809E+01 0.  1.
</event>
<event>
 5   0  0.1503228E-07  0.3902414E+04  0.7818609E-02  0.8024527E-01
        2   -1    0    0  501    0  0.00000000000E+00  0.00000000000E+00  0.20928910709E+04  0.20928910709E+04  0.25500000920E-02 0.  1.
       -2   -1    0    0    0  501  0.00000000000E+00  0.00000000000E+00 -0.18191143736E+04  0.18191143736E+04  0.25500000920E-02 0. -1.
    10030    2    1    2    0    0  0.00000000000E+00  0.00000000000E+00  0.27377669731E+03  0.39120054445E+04  0.39024137298E+04 0.  0.
        3    1    3    3  502    0  0.58820324175E+02  0.27589695430E+03 -0.17985640547E+04  0.18205525614E+04  0.10100000352E+00 0. -1.
       -3    1    3    3    0  502 -0.58820324175E+02 -0.27589695430E+03  0.20723407520E+04  0.20914528831E+04  0.10100000352E+00 0.  1.
</event>
<event>
 5   0  0.1538018E-07  0.3877389E+04  0.7818609E-02  0.8029748E-01
       -2   -1    0    0    0  501  0.00000000000E+00  0.00000000000E+00  0.27993614529E+04  0.27993614529E+04  0.25500000920E-02 0.  1.
        2   -1    0    0  501    0  0.00000000000E+00  0.00000000000E+00 -0.13426403130E+04  0.13426403130E+04  0.25500000920E-02 0. -1.
    10030    2    1    2    0    0  0.00000000000E+00  0.00000000000E+00  0.14567211399E+04  0.41420017659E+04  0.38773885735E+04 0.  0.
        1    1    3    3  502    0 -0.37776537370E+03  0.14047945402E+04 -0.64065356065E+03  0.15895255149E+04  0.50400001928E-02 0.  1.
       -1    1    3    3    0  502  0.37776537370E+03 -0.14047945402E+04  0.20973747005E+04  0.25524762510E+04  0.50400001928E-02 0. -1.
</event>
<event>
 5   0  0.4762788E-08  0.3824728E+04  0.7818609E-02  0.8040869E-01
        1   -1    0    0  501    0  0.00000000000E+00  0.00000000000E+00  0.12913180626E+04  0.12913180626E+04  0.50400001928E-02 0. -1.
       -1   -1    0    0    0  501  0.00000000000E+00  0.00000000000E+00 -0.28320960794E+04  0.28320960794E+04  0.50400001928E-02 0.  1.
    10030    2    1    2    0    0  0.00000000000E+00  0.00000000000E+00 -0.15407780169E+04  0.41234141420E+04  0.38247283942E+04 0.  0.
        2    1    3    3  502    0  0.15753152177E+04 -0.62721222323E+03  0.18305250039E+03  0.17054387781E+04  0.25500000920E-02 0. -1.
       -2    1    3    3    0  502 -0.15753152177E+04  0.62721222323E+03 -0.17238305173E+04  0.24179753639E+04  0.25500000920E-02 0.  1.
</event>
<event>
 5   0  0.4750125E-08  0.3888649E+04  0.7818609E-02  0.8027394E-01
        1   -1    0    0  501    0  0.00000000000E+00  0.00000000000E+00  0.26563679760E+04  0.26563679760E+04  0.50400001928E-02 0.  1.
       -1   -1    0    0    0  501  0.00000000000E+00  0.00000000000E+00 -0.14231450870E+04  0.14231450870E+04  0.50400001928E-02 0. -1.
    10030    2    1    2    0    0  0.00000000000E+00  0.00000000000E+00  0.12332228890E+04  0.40795130630E+04  0.38886486261E+04 0.  0.
        4    1    3    3  502    0  0.78187934338E+03  0.44758824782E+03  0.24241792654E+04  0.25861781205E+04  0.12699999809E+01 0.  1.
       -4    1    3    3    0  502 -0.78187934338E+03 -0.44758824782E+03 -0.11909563764E+04  0.14933349425E+04  0.12699999809E+01 0. -1.
</event>
<event>
 5   0  0.1501585E-07  0.3897155E+04  0.7818609E-02  0.8025621E-01
       -2   -1    0    0    0  501  0.00000000000E+00  0.00000000000E+00  0.26382356948E+04  0.26382356948E+04  0.25500000920E-02 0.  1.
        2   -1    0    0  501    0  0.00000000000E+00  0.00000000000E+00 -0.14392023900E+04  0.14392023900E+04  0.25500000920E-02 0. -1.
    10030    2    1    2    0    0  0.00000000000E+00  0.00000000000E+00  0.11990333048E+04  0.40774380847E+04  0.38971554330E+04 0.  0.
        5    1    3    3  502    0  0.14875027993E+04  0.13881862811E+03  0.19083866675E+04  0.24236123767E+04  0.46999998093E+01 0.  1.
       -5    1    3    3    0  502 -0.14875027993E+04 -0.13881862811E+03 -0.70935336275E+03  0.16538257081E+04  0.46999998093E+01 0. -1.
</event>
<event>
 5   0  0.4750125E-08  0.3916587E+04  0.7818609E-02  0.8021588E-01
       -1   -1    0    0    0  501  0.00000000000E+00  0.00000000000E+00  0.17810819187E+04  0.17810819187E+04  0.50400001928E-02 0.  1.
        1   -1    0    0  501    0  0.00000000000E+00  0.00000000000E+00 -0.21531371408E+04  0.21531371408E+04  0.50400001928E-02 0. -1.
    10030    2    1    2    0    0  0.00000000000E+00  0.00000000000E+00 -0.37205522209E+03  0.39342190595E+04  0.39165871010E+04 0.  0.
        1    1    3    3  502    0 -0.18289872968E+04  0.45048670346E+03 -0.72395766157E+03  0.20179810449E+04  0.50400001928E-02 0. -1.
       -1    1    3    3    0  502  0.18289872968E+04 -0.45048670346E+03  0.35190243949E+03  0.19162380146E+04  0.50400001928E-02 0.  1.
</event>
<event>
 5   0  0.4750125E-08  0.3898196E+04  0.7818609E-02  0.8025404E-01
       -1   -1    0    0    0  501  0.00000000000E+00  0.00000000000E+00  0.32121332319E+04  0.32121332319E+04  0.50400001928E-02 0.  1.
        1   -1    0    0  501    0  0.00000000000E+00  0.00000000000E+00 -0.11826981240E+04  0.11826981240E+04  0.50400001928E-02 0. -1.
    10030    2    1    2    0    0  0.00000000000E+00  0.00000000000E+00  0.20294351079E+04  0.43948313559E+04  0.38981964791E+04 0.  0.
        4    1    3    3  502    0  0.69131596892E+03  0.14265978545E+04  0.22931542804E+04  0.27877692469E+04  0.12699999809E+01 0.  1.
       -4    1    3    3    0  502 -0.69131596892E+03 -0.14265978545E+04 -0.26371917253E+03  0.16070621090E+04  0.12699999809E+01 0. -1.
</event>
<event>
 5   0  0.4750125E-08  0.3890471E+04  0.7818609E-02  0.8027014E-01
        1   -1    0    0  501    0  0.00000000000E+00  0.00000000000E+00  0.12985933479E+04  0.12985933479E+04  0.50400001928E-02 0. -1.
       -1   -1    0    0    0  501  0.00000000000E+00  0.00000000000E+00 -0.29138771539E+04  0.29138771539E+04  0.50400001928E-02 0.  1.
    10030    2    1    2    0    0  0.00000000000E+00  0.00000000000E+00 -0.16152838061E+04  0.42124705018E+04  0.38904711738E+04 0.  0.
        5    1    3    3  502    0  0.11947897707E+04  0.84926069979E+03 -0.21922085877E+04  0.26371512878E+04  0.46999998093E+01 0.  1.
       -5    1    3    3    0  502 -0.11947897707E+04 -0.84926069979E+03  0.57692478165E+03  0.15753192141E+04  0.46999998093E+01 0. -1.
</event>
<event>
 5   0  0.1520986E-07  0.4125289E+04  0.7818609E-02  0.7979738E-01
        2   -1    0    0  501    0  0.00000000000E+00  0.00000000000E+00  0.23811551723E+04  0.23811551723E+04  0.25500000920E-02 0.  1.
       -2   -1    0    0    0  501  0.00000000000E+00  0.00000000000E+00 -0.17867383754E+04  0.17867383754E+04  0.25500000920E-02 0. -1.
    10030    2    1    2    0    0  0.00000000000E+00  0.00000000000E+00  0.59441679685E+03  0.41678935477E+04  0.41252885108E+04 0.  0.
        4    1    3    3  502    0 -0.15257984043E+04 -0.12889574511E+04  0.81733356428E+03  0.21581260041E+04  0.12699999809E+01 0.  1.
       -4    1    3    3    0  502  0.15257984043E+04  0.12889574511E+04 -0.22291676744E+03  0.20097675436E+04  0.12699999809E+01 0. -1.
</event>
<event>
 5   0  0.4750125E-08  0.3805519E+04  0.7818609E-02  0.8044972E-01
        1   -1    0    0  501    0  0.00000000000E+00  0.00000000000E+00  0.11667630724E+04  0.11667630724E+04  0.50400001928E-02 0.  1.
       -1   -1    0    0    0  501  0.00000000000E+00  0.00000000000E+00 -0.31030237997E+04  0.31030237997E+04  0.50400001928E-02 0. -1.
    10030    2    1    2    0    0  0.00000000000E+00  0.00000000000E+00 -0.19362607273E+04  0.42697868721E+04  0.38055189303E+04 0.  0.
        1    1    3    3  502    0 -0.17200023897E+04 -0.52430586866E+03 -0.16662882657E+04  0.24514937179E+04  0.50400001928E-02 0. -1.
       -1    1    3    3    0  502  0.17200023897E+04  0.52430586866E+03 -0.26997246162E+03  0.18182931542E+04  0.50400001928E-02 0.  1.
</event>
<event>
 5   0  0.1546846E-07  0.3998040E+04  0.7818609E-02  0.8004942E-01
        2   -1    0    0  501    0  0.00000000000E+00  0.00000000000E+00  0.30485360768E+04  0.30485360768E+04  0.25500000920E-02 0.  1.
       -2   -1    0    0    0  501  0.00000000000E+00  0.00000000000E+00 -0.13108195347E+04  0.13108195347E+04  0.25500000920E-02 0. -1.
    10030    2    1    2    0    0  0.00000000000E+00  0.00000000000E+00  0.17377165420E+04  0.43593556115E+04  0.39980398406E+04 0.  0.
        2    1    3    3  502    0 -0.96866445076E+03  0.16603970044E+04  0.14669273526E+04  0.24180787597E+04  0.25500000920E-02 0. -1.
       -2    1    3    3    0  502  0.96866445076E+03 -0.16603970044E+04  0.27078918943E+03  0.19412768518E+04  0.25500000920E-02 0.  1.
</event>
<event>
 5   0  0.1501585E-07  0.3961213E+04  0.7818609E-02  0.8012417E-01
        2   -1    0    0  501    0  0.00000000000E+00  0.00000000000E+00  0.18414545915E+04  0.18414545915E+04  0.25500000920E-02 0.  1.
       -2   -1    0    0    0  501  0.00000000000E+00  0.00000000000E+00 -0.21302738847E+04  0.21302738847E+04  0.25500000920E-02 0. -1.
    10030    2    1    2    0    0  0.00000000000E+00  0.00000000000E+00 -0.28881929325E+03  0.39717284762E+04  0.39612132617E+04 0.  0.
        5    1    3    3  502    0  0.28911557056E+03 -0.91454497306E+03  0.15930492752E+04  0.18595183258E+04  0.46999998093E+01 0.  1.
       -5    1    3    3    0  502 -0.28911557056E+03  0.91454497306E+03 -0.18818685684E+04  0.21122101504E+04  0.46999998093E+01 0. -1.
</event>
<event>
 5   0  0.4750125E-08  0.3843935E+04  0.7818609E-02  0.8036792E-01
       -1   -1    0    0    0  501  0.00000000000E+00  0.00000000000E+00  0.29868695413E+04  0.29868695413E+04  0.50400001928E-02 0. -1.
        1   -1    0    0  501    0  0.00000000000E+00  0.00000000000E+00 -0.12367326112E+04  0.12367326112E+04  0.50400001928E-02 0.  1.
    10030    2    1    2    0    0  0.00000000000E+00  0.00000000000E+00  0.17501369301E+04  0.42236021525E+04  0.38439349459E+04 0.  0.
        3    1    3    3  502    0 -0.11190940130E+04  0.12046221085E+04 -0.21845553952E+03  0.16586767820E+04  0.10100000352E+00 0.  1.
       -3    1    3    3    0  502  0.11190940130E+04 -0.12046221085E+04  0.19685924696E+04  0.25649253704E+04  0.10100000352E+00 0. -1.
</event>
<event>
 5   0  0.4750125E-08  0.3907948E+04  0.7818609E-02  0.8023378E-01
        1   -1    0    0  501    0  0.00000000000E+00  0.00000000000E+00  0.26393434660E+04  0.26393434660E+04  0.50400001928E-02 0.  1.
       -1   -1    0    0    0  501  0.00000000000E+00  0.00000000000E+00 -0.14465775627E+04  0.14465775627E+04  0.50400001928E-02 0. -1.
    10030    2    1    2    0    0  0.00000000000E+00  0.00000000000E+00  0.11927659033E+04  0.40859210287E+04  0.39079483303E+04 0.  0.
        5    1    3    3  502    0  0.11392338920E+04 -0.80579002811E+03  0.20264607196E+04  0.24604301592E+04  0.46999998093E+01 0.  1.
       -5    1    3    3    0  502 -0.11392338920E+04  0.80579002811E+03 -0.83369481635E+03  0.16254908695E+04  0.46999998093E+01 0. -1.
</event>
<event>
 5   0  0.1546846E-07  0.3873498E+04  0.7818609E-02  0.8030564E-01
        2   -1    0    0  501    0  0.00000000000E+00  0.00000000000E+00  0.15560179752E+04  0.15560179752E+04  0.25500000920E-02 0. -1.
       -2   -1    0    0    0  501  0.00000000000E+00  0.00000000000E+00 -0.24106381846E+04  0.24106381846E+04  0.25500000920E-02 0.  1.
    10030    2    1    2    0    0  0.00000000000E+00  0.00000000000E+00 -0.85462020943E+03  0.39666561598E+04  0.38734978233E+04 0.  0.
        2    1    3    3  502    0  0.18754412131E+04  0.27764615885E+03 -0.83259239227E+03  0.20706465717E+04  0.25500000920E-02 0. -1.
       -2    1    3    3    0  502 -0.18754412131E+04 -0.27764615885E+03 -0.22027817161E+02  0.18960095881E+04  0.25500000920E-02 0.  1.
</event>
<event>
 5   0  0.4750125E-08  0.3883631E+04  0.7818609E-02  0.8028442E-01
        1   -1    0    0  501    0  0.00000000000E+00  0.00000000000E+00  0.15241910150E+04  0.15241910150E+04  0.50400001928E-02 0.  1.
       -1   -1    0    0    0  501  0.00000000000E+00  0.00000000000E+00 -0.24738680607E+04  0.24738680607E+04  0.50400001928E-02 0. -1.
    10030    2    1    2    0    0  0.00000000000E+00  0.00000000000E+00 -0.94967704570E+03  0.39980590757E+04  0.38836310177E+04 0.  0.
        4    1    3    3  502    0  0.51555619296E+03  0.32679133035E+03  0.14228566552E+04  0.15482614236E+04  0.12699999809E+01 0.  1.
       -4    1    3    3    0  502 -0.51555619296E+03 -0.32679133035E+03 -0.23725337009E+04  0.24497976521E+04  0.12699999809E+01 0. -1.
</event>
<event>
 5   0  0.1503228E-07  0.3912366E+04  0.7818609E-02  0.8022462E-01
       -2   -1    0    0    0  501  0.00000000000E+00  0.00000000000E+00  0.28898310357E+04  0.28898310357E+04  0.25500000920E-02 0. -1.
        2   -1    0    0  501    0  0.00000000000E+00  0.00000000000E+00 -0.13241782416E+04  0.13241782416E+04  0.25500000920E-02 0.  1.
    10030    2    1    2    0    0  0.00000000000E+00  0.00000000000E+00  0.15656527941E+04  0.42140092774E+04  0.39123657188E+04 0.  0.
        3    1    3    3  502    0  0.47060924162E+03  0.16336120888E+04  0.18251620210E+04  0.24942690168E+04  0.10100000352E+00 0. -1.
       -3    1    3    3    0  502 -0.47060924162E+03 -0.16336120888E+04 -0.25950922688E+03  0.17197402606E+04  0.10100000352E+00 0.  1.
</event>
<event>
 5   0  0.1501585E-07  0.3897079E+04  0.7818609E-02  0.8025637E-01
       -2   -1    0    0    0  501  0.00000000000E+00  0.00000000000E+00  0.15655357499E+04  0.15655357499E+04  0.25500000920E-02 0. -1.
        2   -1    0    0  501    0  0.00000000000E+00  0.00000000000E+00 -0.24252436938E+04  0.24252436938E+04  0.25500000920E-02 0.  1.
    10030    2    1    2    0    0  0.00000000000E+00  0.00000000000E+00 -0.85970794390E+03  0.39907794438E+04  0.38970787546E+04 0.  0.
        5    1    3    3  502    0  0.48733194444E+03 -0.82592062316E+02  0.15002634814E+04  0.15795969348E+04  0.46999998093E+01 0. -1.
       -5    1    3    3    0  502 -0.48733194444E+03  0.82592062316E+02 -0.23599714253E+04  0.24111825089E+04  0.46999998093E+01 0.  1.
</event>
<event>
 5   0  0.1538018E-07  0.3912957E+04  0.7818609E-02  0.8022340E-01
        2   -1    0    0  501    0  0.00000000000E+00  0.00000000000E+00  0.19136943708E+04  0.19136943708E+04  0.25500000920E-02 0. -1.
       -2   -1    0    0    0  501  0.00000000000E+00  0.00000000000E+00 -0.20002193110E+04  0.20002193110E+04  0.25500000920E-02 0.  1.
    10030    2    1    2    0    0  0.00000000000E+00  0.00000000000E+00 -0.86524940239E+02  0.39139136818E+04  0.39129571609E+04 0.  0.
        1    1    3    3  502    0  0.12391852350E+04 -0.93630724622E+02 -0.15547445890E+04  0.19903711956E+04  0.50400001928E-02 0.  1.
       -1    1    3    3    0  502 -0.12391852350E+04  0.93630724622E+02  0.14682196487E+04  0.19235424862E+04  0.50400001928E-02 0. -1.
</event>
<event>
 5   0  0.4750125E-08  0.3920946E+04  0.7818609E-02  0.8020687E-01
        1   -1    0    0  501    0  0.00000000000E+00  0.00000000000E+00  0.16927371229E+04  0.16927371229E+04  0.50400001928E-02 0.  1.
       -1   -1    0    0    0  501  0.00000000000E+00  0.00000000000E+00 -0.22705558886E+04  0.22705558886E+04  0.50400001928E-02 0. -1.
    10030    2    1    2    0    0  0.00000000000E+00  0.00000000000E+00 -0.57781876572E+03  0.39632930115E+04  0.39209459278E+04 0.  0.
        1    1    3    3  502    0  0.11599513909E+04 -0.15759748148E+04 -0.16816043768E+03  0.19640422039E+04  0.50400001928E-02 0.  1.
       -1    1    3    3    0  502 -0.11599513909E+04  0.15759748148E+04 -0.40965832804E+03  0.19992508076E+04  0.50400001928E-02 0. -1.
</event>
<event>
 5   0  0.1538018E-07  0.3982662E+04  0.7818609E-02  0.8008053E-01
       -2   -1    0    0    0  501  0.00000000000E+00  0.00000000000E+00  0.19223817181E+04  0.19223817181E+04  0.25500000920E-02 0.  1.
        2   -1    0    0  501    0  0.00000000000E+00  0.00000000000E+00 -0.20627527446E+04  0.20627527446E+04  0.25500000920E-02 0. -1.
    10030    2    1    2    0    0  0.00000000000E+00  0.00000000000E+00 -0.14037102653E+03  0.39851344627E+04  0.39826615047E+04 0.  0.
        1    1    3    3  502    0  0.14428732204E+04 -0.22267820401E+03 -0.14252529090E+04  0.20402976663E+04  0.50400001928E-02 0. -1.
       -1    1    3    3    0  502 -0.14428732204E+04  0.22267820401E+03  0.12848818824E+04  0.19448367964E+04  0.50400001928E-02 0.  1.
</event>
<event>
 5   0  0.4750125E-08  0.3893866E+04  0.7818609E-02  0.8026306E-01
       -1   -1    0    0    0  501  0.00000000000E+00  0.00000000000E+00  0.18504094142E+04  0.18504094142E+04  0.50400001928E-02 0. -1.
        1   -1    0    0  501    0  0.00000000000E+00  0.00000000000E+00 -0.20484913875E+04  0.20484913875E+04  0.50400001928E-02 0.  1.
    10030    2    1    2    0    0  0.00000000000E+00  0.00000000000E+00 -0.19808197335E+03  0.38989008017E+04  0.38938658160E+04 0.  0.
        1    1    3    3  502    0 -0.17124941219E+04 -0.79127050685E+03  0.38304040761E+03  0.19249584636E+04  0.50400001928E-02 0. -1.
       -1    1    3    3    0  502  0.17124941219E+04  0.79127050685E+03 -0.58112238096E+03  0.19739423381E+04  0.50400001928E-02 0.  1.
</event>
<event>
 5   0  0.1520986E-07  0.4136521E+04  0.7818609E-02  0.7977558E-01
       -2   -1    0    0    0  501  0.00000000000E+00  0.00000000000E+00  0.20730463609E+04  0.20730463609E+04  0.25500000920E-02 0.  1.
        2   -1    0    0  501    0  0.00000000000E+00  0.00000000000E+00 -0.20634858852E+04  0.20634858852E+04  0.25500000920E-02 0. -1.
    10030    2    1    2    0    0  0.00000000000E+00  0.00000000000E+00  0.95604756752E+01  0.41365322461E+04  0.41365211978E+04 0.  0.
        4    1    3    3  502    0 -0.97437127984E+03  0.13372846174E+04 -0.12361786572E+04  0.20653979821E+04  0.12699999809E+01 0. -1.
       -4    1    3    3    0  502  0.97437127984E+03 -0.13372846174E+04  0.12457391329E+04  0.20711342639E+04  0.12699999809E+01 0.  1.
</event>
<event>
 5   0  0.4750125E-08  0.3920885E+04  0.7818609E-02  0.8020699E-01
       -1   -1    0    0    0  501  0.00000000000E+00  0.00000000000E+00  0.27169324725E+04  0.27169324725E+04  0.50400001928E-02 0.  1.
        1   -1    0    0  501    0  0.00000000000E+00  0.00000000000E+00 -0.14145863236E+04  0.14145863236E+04  0.50400001928E-02 0. -1.
    10030    2    1    2    0    0  0.00000000000E+00  0.00000000000E+00  0.13023461489E+04  0.41315187961E+04  0.39208853683E+04 0.  0.
        1    1    3    3  502    0 -0.86364308440E+03 -0.24085851528E+03 -0.11858838409E+04  0.14866784070E+04  0.50400001928E-02 0. -1.
       -1    1    3    3    0  502  0.86364308440E+03  0.24085851528E+03  0.24882299898E+04  0.26448403891E+04  0.50400001928E-02 0.  1.
</event>
<event>
 5   0  0.1501585E-07  0.3909117E+04  0.7818609E-02  0.8023136E-01
       -2   -1    0    0    0  501  0.00000000000E+00  0.00000000000E+00  0.20070557796E+04  0.20070557796E+04  0.25500000920E-02 0.  1.
        2   -1    0    0  501    0  0.00000000000E+00  0.00000000000E+00 -0.19034347210E+04  0.19034347210E+04  0.25500000920E-02 0. -1.
    10030    2    1    2    0    0  0.00000000000E+00  0.00000000000E+00  0.10362105866E+03  0.39104905006E+04  0.39091173724E+04 0.  0.
        5    1    3    3  502    0 -0.15778320390E+04  0.92301268318E+03 -0.64036547397E+03  0.19369038146E+04  0.46999998093E+01 0. -1.
       -5    1    3    3    0  502  0.15778320390E+04 -0.92301268318E+03  0.74398653263E+03  0.19735866860E+04  0.46999998093E+01 0.  1.
</event>
<event>
 5   0  0.1501585E-07  0.3930967E+04  0.7818609E-02  0.8018619E-01
       -2   -1    0    0    0  501  0.00000000000E+00  0.00000000000E+00  0.28890261112E+04  0.28890261113E+04  0.25500000920E-02 0. -1.
        2   -1    0    0  501    0  0.00000000000E+00  0.00000000000E+00 -0.13371720477E+04  0.13371720477E+04  0.25500000920E-02 0.  1.
    10030    2    1    2    0    0  0.00000000000E+00  0.00000000000E+00  0.15518540635E+04  0.42261981590E+04  0.39309667824E+04 0.  0.
        5    1    3    3  502    0 -0.11171013750E+04 -0.12049053779E+04 -0.38368636513E+03  0.16872906592E+04  0.46999998093E+01 0.  1.
       -5    1    3    3    0  502  0.11171013750E+04  0.12049053779E+04  0.19355404286E+04  0.25389074998E+04  0.46999998093E+01 0. -1.
</event>
<event>
 5   0  0.1546846E-07  0.3954813E+04  0.7818609E-02  0.8013725E-01
        2   -1    0    0  501    0  0.00000000000E+00  0.00000000000E+00  0.20381030830E+04  0.20381030830E+04  0.25500000920E-02 0. -1.
       -2   -1    0    0    0  501  0.00000000000E+00  0.00000000000E+00 -0.19185176485E+04  0.19185176485E+04  0.25500000920E-02 0.  1.
    10030    2    1    2    0    0  0.00000000000E+00  0.00000000000E+00  0.11958543447E+03  0.39566207315E+04  0.39548131355E+04 0.  0.
        2    1    3    3  502    0 -0.15204359297E+03 -0.22918542476E+03  0.20188740139E+04  0.20375219010E+04  0.25500000920E-02 0. -1.
       -2    1    3    3    0  502  0.15204359297E+03  0.22918542476E+03 -0.18992885794E+04  0.19190988305E+04  0.25500000920E-02 0.  1.
</event>
<event>
 5   0  0.1546846E-07  0.3926897E+04  0.7818609E-02  0.8019458E-01
       -2   -1    0    0    0  501  0.00000000000E+00  0.00000000000E+00  0.25745953890E+04  0.25745953890E+04  0.25500000920E-02 0. -1.
        2   -1    0    0  501    0  0.00000000000E+00  0.00000000000E+00 -0.14973733973E+04  0.14973733973E+04  0.25500000920E-02 0.  1.
    10030    2    1    2    0    0  0.00000000000E+00  0.00000000000E+00  0.10772219917E+04  0.40719687864E+04  0.39268973220E+04 0.  0.
        2    1    3    3  502    0  0.11214229106E+04  0.11532547073E+04  0.17060563660E+04  0.23448270914E+04  0.25500000920E-02 0.  1.
       -2    1    3    3    0  502 -0.11214229106E+04 -0.11532547073E+04 -0.62883437432E+03  0.17271416950E+04  0.25500000920E-02 0. -1.
</event>
<event>
 5   0  0.1538018E-07  0.3891057E+04  0.7818609E-02  0.8026892E-01
        2   -1    0    0  501    0  0.00000000000E+00  0.00000000000E+00  0.27263745658E+04  0.27263745658E+04  0.25500000920E-02 0.  1.
       -2   -1    0    0    0  501  0.00000000000E+00  0.00000000000E+00 -0.13883204261E+04  0.13883204261E+04  0.25500000920E-02 0. -1.
    10030    2    1    2    0    0  0.00000000000E+00  0.00000000000E+00  0.13380541397E+04  0.41146949920E+04  0.38910571823E+04 0.  0.
        1    1    3    3  502    0 -0.17788614193E+04 -0.27354952508E+03 -0.11229169621E+03  0.18032711157E+04  0.50400001928E-02 0. -1.
       -1    1    3    3    0  502  0.17788614193E+04  0.27354952508E+03  0.14503458359E+04  0.23114238762E+04  0.50400001928E-02 0.  1.
</event>
<event>
 5   0  0.4750125E-08  0.3882107E+04  0.7818609E-02  0.8028761E-01
        1   -1    0    0  501    0  0.00000000000E+00  0.00000000000E+00  0.11954059944E+04  0.11954059944E+04  0.50400001928E-02 0.  1.
       -1   -1    0    0    0  501  0.00000000000E+00  0.00000000000E+00 -0.31518072686E+04  0.31518072686E+04  0.50400001928E-02 0. -1.
    10030    2    1    2    0    0  0.00000000000E+00  0.00000000000E+00 -0.19564012742E+04  0.43472132630E+04  0.38821073154E+04 0.  0.
        5    1    3    3  502    0 -0.15775261494E+04 -0.52894792720E+03 -0.20976120600E+04  0.26773817632E+04  0.46999998093E+01 0.  1.
       -5    1    3    3    0  502  0.15775261494E+04  0.52894792720E+03  0.14121078577E+03  0.16698314998E+04  0.46999998093E+01 0. -1.
</event>
<event>
 5   0  0.4750125E-08  0.3889366E+04  0.7818609E-02  0.8027244E-01
        1   -1    0    0  501    0  0.00000000000E+00  0.00000000000E+00  0.12056830248E+04  0.12056830248E+04  0.50400001928E-02 0. -1.
       -1   -1    0    0    0  501  0.00000000000E+00  0.00000000000E+00 -0.31366393891E+04  0.31366393891E+04  0.50400001928E-02 0.  1.
    10030    2    1    2    0    0  0.00000000000E+00  0.00000000000E+00 -0.19309563643E+04  0.43423224139E+04  0.38893664606E+04 0.  0.
        3    1    3    3  502    0  0.33940302084E+03  0.18507820236E+04 -0.41715606195E+03  0.19273317565E+04  0.10100000352E+00 0. -1.
       -3    1    3    3    0  502 -0.33940302084E+03 -0.18507820236E+04 -0.15138003024E+04  0.24149906574E+04  0.10100000352E+00 0.  1.
</event>
<event>
 5   0  0.1503228E-07  0.3883602E+04  0.7818609E-02  0.8028448E-01
        2   -1    0    0  501    0  0.00000000000E+00  0.00000000000E+00  0.26813874354E+04  0.26813874354E+04  0.25500000920E-02 0. -1.
       -2   -1    0    0    0  501  0.00000000000E+00  0.00000000000E+00 -0.14062090638E+04  0.14062090638E+04  0.25500000920E-02 0.  1.
    10030    2    1    2    0    0  0.00000000000E+00  0.00000000000E+00  0.12751783716E+04  0.40875964992E+04  0.38836020987E+04 0.  0.
        3    1    3    3  502    0  0.18974556669E+04 -0.31985710568E+03  0.36323526074E+03  0.19582100093E+04  0.10100000352E+00 0.  1.
       -3    1    3    3    0  502 -0.18974556669E+04  0.31985710568E+03  0.91194311082E+03  0.21293864899E+04  0.10100000352E+00 0. -1.
</event>
<event>
 5   0  0.4750125E-08  0.3935481E+04  0.7818609E-02  0.8017690E-01
        1   -1    0    0  501    0  0.00000000000E+00  0.00000000000E+00  0.23974657944E+04  0.23974657944E+04  0.50400001928E-02 0. -1.
       -1   -1    0    0    0  501  0.00000000000E+00  0.00000000000E+00 -0.16150396089E+04  0.16150396089E+04  0.50400001928E-02 0.  1.
    10030    2    1    2    0    0  0.00000000000E+00  0.00000000000E+00  0.78242618549E+03  0.40125054033E+04  0.39354807680E+04 0.  0.
        1    1    3    3  502    0  0.11884278847E+04  0.12624659588E+04 -0.55749349125E+03  0.18212578420E+04  0.50400001928E-02 0.  1.
       -1    1    3    3    0  502 -0.11884278847E+04 -0.12624659588E+04  0.13399196767E+04  0.21912475612E+04  0.50400001928E-02 0. -1.
</event>
<event>
 5   0  0.1546846E-07  0.3813576E+04  0.7818609E-02  0.8043248E-01
        2   -1    0    0  501    0  0.00000000000E+00  0.00000000000E+00  0.16483056698E+04  0.16483056698E+04  0.25500000920E-02 0. -1.
       -2   -1    0    0    0  501  0.00000000000E+00  0.00000000000E+00 -0.22058045053E+04  0.22058045053E+04  0.25500000920E-02 0.  1.
    10030    2    1    2    0    0  0.00000000000E+00  0.00000000000E+00 -0.55749883552E+03  0.38541101751E+04  0.38135757879E+04 0.  0.
        2    1    3    3  502    0  0.73272159929E+03  0.17160686044E+04 -0.67543599821E+03  0.19844359865E+04  0.25500000920E-02 0.  1.
       -2    1    3    3    0  502 -0.73272159929E+03 -0.17160686044E+04  0.11793716269E+03  0.18696741885E+04  0.25500000920E-02 0. -1.
</event>
<event>
 5   0  0.4750125E-08  0.3847284E+04  0.7818609E-02  0.8036083E-01
       -1   -1    0    0    0  501  0.00000000000E+00  0.00000000000E+00  0.20980109292E+04  0.20980109293E+04  0.50400001928E-02 0. -1.
        1   -1    0    0  501    0  0.00000000000E+00  0.00000000000E+00 -0.17637647968E+04  0.17637647968E+04  0.50400001928E-02 0.  1.
    10030    2    1    2    0    0  0.00000000000E+00  0.00000000000E+00  0.33424613246E+03  0.38617757261E+04  0.38472836237E+04 0.  0.
        4    1    3    3  502    0  0.17517810586E+04 -0.79127123852E+03  0.24189633337E+03  0.19373596721E+04  0.12699999809E+01 0.  1.
       -4    1    3    3    0  502 -0.17517810586E+04  0.79127123852E+03  0.92349799081E+02  0.19244160539E+04  0.12699999809E+01 0. -1.
</event>
<event>
 5   0  0.4750125E-08  0.3942015E+04  0.7818609E-02  0.8016347E-01
       -1   -1    0    0    0  501  0.00000000000E+00  0.00000000000E+00  0.13839991780E+04  0.13839991780E+04  0.50400001928E-02 0.  1.
        1   -1    0    0  501    0  0.00000000000E+00  0.00000000000E+00 -0.28069884662E+04  0.28069884662E+04  0.50400001928E-02 0. -1.
    10030    2    1    2    0    0  0.00000000000E+00  0.00000000000E+00 -0.14229892882E+04  0.41909876441E+04  0.39420145762E+04 0.  0.
        1    1    3    3  502    0 -0.80701396122E+03  0.85965031520E+03  0.96769045949E+03  0.15253507870E+04  0.50400001928E-02 0.  1.
       -1    1    3    3    0  502  0.80701396122E+03 -0.85965031520E+03 -0.23906797477E+04  0.26656368571E+04  0.50400001928E-02 0. -1.
</event>
<event>
 5   0  0.4762788E-08  0.3900698E+04  0.7818609E-02  0.8024884E-01
       -1   -1    0    0    0  501  0.00000000000E+00  0.00000000000E+00  0.19545801288E+04  0.19545801288E+04  0.50400001928E-02 0.  1.
        1   -1    0    0  501    0  0.00000000000E+00  0.00000000000E+00 -0.19461268641E+04  0.19461268641E+04  0.50400001928E-02 0. -1.
    10030    2    1    2    0    0  0.00000000000E+00  0.00000000000E+00  0.84532646473E+01  0.39007069929E+04  0.39006978333E+04 0.  0.
        2    1    3    3  502    0  0.78547581826E+03 -0.63834438855E+03 -0.16629320675E+04  0.19467405787E+04  0.25500000920E-02 0. -1.
       -2    1    3    3    0  502 -0.78547581826E+03  0.63834438855E+03  0.16713853321E+04  0.19539664142E+04  0.25500000920E-02 0.  1.
</event>
<event>
 5   0  0.4750125E-08  0.3903821E+04  0.7818609E-02  0.8024235E-01
        1   -1    0    0  501    0  0.00000000000E+00  0.00000000000E+00  0.18519867798E+04  0.18519867798E+04  0.50400001928E-02 0. -1.
       -1   -1    0    0    0  501  0.00000000000E+00  0.00000000000E+00 -0.20572253700E+04  0.20572253700E+04  0.50400001928E-02 0.  1.
    10030    2    1    2    0    0  0.00000000000E+00  0.00000000000E+00 -0.20523859017E+03  0.39092121498E+04  0.39038207891E+04 0.  0.
        5    1    3    3  502    0  0.97210683297E+03 -0.13218715644E+04  0.95600481575E+03  0.18990269680E+04  0.46999998093E+01 0. -1.
       -5    1    3    3    0  502 -0.97210683297E+03  0.13218715644E+04 -0.11612434059E+04  0.20101851818E+04  0.46999998093E+01 0.  1.
</event>
<event>
 5   0  0.1520986E-07  0.3899698E+04  0.7818609E-02  0.8025092E-01
        2   -1    0    0  501    0  0.00000000000E+00  0.00000000000E+00  0.12771384769E+04  0.12771384769E+04  0.25500000920E-02 0. -1.
       -2   -1    0    0    0  501  0.00000000000E+00  0.00000000000E+00 -0.29768986508E+04  0.29768986508E+04  0.25500000920E-02 0.  1.
    10030    2    1    2    0    0  0.00000000000E+00  0.00000000000E+00 -0.16997601739E+04  0.42540371276E+04  0.38996983517E+04 0.  0.
        4    1    3    3  502    0 -0.16319785837E+04  0.10650294557E+04 -0.92114907770E+03  0.21554950882E+04  0.12699999809E+01 0.  1.
       -4    1    3    3    0  502  0.16319785837E+04 -0.10650294557E+04 -0.77861109619E+03  0.20985420394E+04  0.12699999809E+01 0. -1.
</event>
<event>
 5   0  0.1520986E-07  0.3827570E+04  0.7818609E-02  0.8040264E-01
       -2   -1    0    0    0  501  0.00000000000E+00  0.00000000000E+00  0.17192632147E+04  0.17192632147E+04  0.25500000920E-02 0. -1.
        2   -1    0    0  501    0  0.00000000000E+00  0.00000000000E+00 -0.21303151687E+04  0.21303151687E+04  0.25500000920E-02 0.  1.
    10030    2    1    2    0    0  0.00000000000E+00  0.00000000000E+00 -0.41105195404E+03  0.38495783834E+04  0.38275697278E+04 0.  0.
        4    1    3    3  502    0 -0.10072900835E+04 -0.83528529301E+03  0.11990125189E+04  0.17748147696E+04  0.12699999809E+01 0. -1.
       -4    1    3    3    0  502  0.10072900835E+04  0.83528529301E+03 -0.16100644729E+04  0.20747636138E+04  0.12699999809E+01 0.  1.
</event>
<event>
 5   0  0.4762788E-08  0.3907695E+04  0.7818609E-02  0.8023431E-01
        1   -1    0    0  501    0  0.00000000000E+00  0.00000000000E+00  0.30709001334E+04  0.30709001334E+04  0.50400001928E-02 0.  1.
       -1   -1    0    0    0  501  0.00000000000E+00  0.00000000000E+00 -0.12431272183E+04  0.12431272183E+04  0.50400001928E-02 0. -1.
    10030    2    1    2    0    0  0.00000000000E+00  0.00000000000E+00  0.18277729151E+04  0.43140273517E+04  0.39076947376E+04 0.  0.
        2    1    3    3  502    0 -0.12788577181E+04 -0.76897997903E+03 -0.47849451435E+03  0.15670878315E+04  0.25500000920E-02 0. -1.
       -2    1    3    3    0  502  0.12788577181E+04  0.76897997903E+03  0.23062674294E+04  0.27469395202E+04  0.25500000920E-02 0.  1.
</event>
<event>
 5   0  0.1520986E-07  0.3924397E+04  0.7818609E-02  0.8019974E-01
       -2   -1    0    0    0  501  0.00000000000E+00  0.00000000000E+00  0.17647968904E+04  0.17647968904E+04  0.25500000920E-02 0.  1.
        2   -1    0    0  501    0  0.00000000000E+00  0.00000000000E+00 -0.21816800949E+04  0.21816800949E+04  0.25500000920E-02 0. -1.
    10030    2    1    2    0    0  0.00000000000E+00  0.00000000000E+00 -0.41688320450E+03  0.39464769853E+04  0.39243966402E+04 0.  0.
        4    1    3    3  502    0  0.14505100666E+02  0.15992387665E+04  0.93481262561E+03  0.18524716700E+04  0.12699999809E+01 0.  1.
       -4    1    3    3    0  502 -0.14505100666E+02 -0.15992387665E+04 -0.13516958301E+04  0.20940053153E+04  0.12699999809E+01 0. -1.
</event>
<event>
 5   0  0.1538018E-07  0.3912181E+04  0.7818609E-02  0.8022501E-01
       -2   -1    0    0    0  501  0.00000000000E+00  0.00000000000E+00  0.15771698641E+04  0.15771698641E+04  0.25500000920E-02 0.  1.
        2   -1    0    0  501    0  0.00000000000E+00  0.00000000000E+00 -0.24260483655E+04  0.24260483655E+04  0.25500000920E-02 0. -1.
    10030    2    1    2    0    0  0.00000000000E+00  0.00000000000E+00 -0.84887850139E+03  0.40032182296E+04  0.39121811670E+04 0.  0.
        1    1    3    3  502    0 -0.56558181355E+03  0.44756071437E+03  0.14361396972E+04  0.16070751727E+04  0.50400001928E-02 0.  1.
       -1    1    3    3    0  502  0.56558181355E+03 -0.44756071437E+03 -0.22850181986E+04  0.23961430568E+04  0.50400001928E-02 0. -1.
</event>
<event>
 5   0  0.1520986E-07  0.3890908E+04  0.7818609E-02  0.8026923E-01
        2   -1    0    0  501    0  0.00000000000E+00  0.00000000000E+00  0.14294647341E+04  0.14294647341E+04  0.25500000920E-02 0.  1.
       -2   -1    0    0    0  501  0.00000000000E+00  0.00000000000E+00 -0.26476986295E+04  0.26476986295E+04  0.25500000920E-02 0. -1.
    10030    2    1    2    0    0  0.00000000000E+00  0.00000000000E+00 -0.12182338955E+04  0.40771633636E+04  0.38909082833E+04 0.  0.
        4    1    3    3  502    0  0.15744131748E+04 -0.11193924785E+04 -0.36793886406E+03  0.19665190024E+04  0.12699999809E+01 0. -1.
       -4    1    3    3    0  502 -0.15744131748E+04  0.11193924785E+04 -0.85029503140E+03  0.21106443612E+04  0.12699999809E+01 0.  1.
</event>
<event>
 5   0  0.4750125E-08  0.3873202E+04  0.7818609E-02  0.8030626E-01
        1   -1    0    0  501    0  0.00000000000E+00  0.00000000000E+00  0.12766496152E+04  0.12766496152E+04  0.50400001928E-02 0. -1.
       -1   -1    0    0    0  501  0.00000000000E+00  0.00000000000E+00 -0.29377079736E+04  0.29377079736E+04  0.50400001928E-02 0.  1.
    10030    2    1    2    0    0  0.00000000000E+00  0.00000000000E+00 -0.16610583584E+04  0.42143575888E+04  0.38732021657E+04 0.  0.
        5    1    3    3  502    0  0.13079854919E+02  0.18913171885E+04 -0.37776474304E+03  0.19287249885E+04  0.46999998093E+01 0. -1.
       -5    1    3    3    0  502 -0.13079854919E+02 -0.18913171885E+04 -0.12832936154E+04  0.22856326003E+04  0.46999998093E+01 0.  1.
</event>
<event>
 5   0  0.1501585E-07  0.3507931E+04  0.7818609E-02  0.8111913E-01
        2   -1    0    0  501    0  0.00000000000E+00  0.00000000000E+00  0.14462756390E+04  0.14462756390E+04  0.25500000920E-02 0.  1.
       -2   -1    0    0    0  501  0.00000000000E+00  0.00000000000E+00 -0.21271148387E+04  0.21271148387E+04  0.25500000920E-02 0. -1.
    10030    2    1    2    0    0  0.00000000000E+00  0.00000000000E+00 -0.68083919974E+03  0.35733904777E+04  0.35079306565E+04 0.  0.
        5    1    3    3  502    0  0.60637500094E+03  0.14195727174E+04 -0.11887228376E+04  0.19483227187E+04  0.46999998093E+01 0. -1.
       -5    1    3    3    0  502 -0.60637500094E+03 -0.14195727174E+04  0.50788363781E+03  0.16250677590E+04  0.46999998093E+01 0.  1.
</event>
<event>
 5   0  0.4750125E-08  0.3878626E+04  0.7818609E-02  0.8029489E-01
       -1   -1    0    0    0  501  0.00000000000E+00  0.00000000000E+00  0.15039766075E+04  0.15039766075E+04  0.50400001928E-02 0.  1.
        1   -1    0    0  501    0  0.00000000000E+00  0.00000000000E+00 -0.25006599132E+04  0.25006599132E+04  0.50400001928E-02 0. -1.
    10030    2    1    2    0    0  0.00000000000E+00  0.00000000000E+00 -0.99668330565E+03  0.40046365207E+04  0.38786255363E+04 0.  0.
        5    1    3    3  502    0 -0.17270245807E+04 -0.63646732465E+03  0.13241284204E+03  0.18453346061E+04  0.46999998093E+01 0. -1.
       -5    1    3    3    0  502  0.17270245807E+04  0.63646732465E+03 -0.11290961477E+04  0.21593019146E+04  0.46999998093E+01 0.  1.
</event>
<event>
 5   0  0.4750125E-08  0.3891477E+04  0.7818609E-02  0.8026804E-01
       -1   -1    0    0    0  501  0.00000000000E+00  0.00000000000E+00  0.17390012309E+04  0.17390012309E+04  0.50400001928E-02 0.  1.
        1   -1    0    0  501    0  0.00000000000E+00  0.00000000000E+00 -0.21770530028E+04  0.21770530028E+04  0.50400001928E-02 0. -1.
    10030    2    1    2    0    0  0.00000000000E+00  0.00000000000E+00 -0.43805177190E+03  0.39160542337E+04  0.38914767642E+04 0.  0.
        3    1    3    3  502    0  0.40043933563E+02  0.15118441704E+04  0.10128876858E+04  0.18202246527E+04  0.10100000352E+00 0.  1.
       -3    1    3    3    0  502 -0.40043933563E+02 -0.15118441704E+04 -0.14509394577E+04  0.20958295809E+04  0.10100000352E+00 0. -1.
</event>
<event>
 5   0  0.1503228E-07  0.3891382E+04  0.7818609E-02  0.8026824E-01
        2   -1    0    0  501    0  0.00000000000E+00  0.00000000000E+00  0.21761862889E+04  0.21761862889E+04  0.25500000920E-02 0. -1.
       -2   -1    0    0    0  501  0.00000000000E+00  0.00000000000E+00 -0.17396094261E+04  0.17396094261E+04  0.25500000920E-02 0.  1.
    10030    2    1    2    0    0  0.00000000000E+00  0.00000000000E+00  0.43657686275E+03  0.39157957150E+04  0.38913823668E+04 0.  0.
        3    1    3    3  502    0 -0.18711303657E+04 -0.31179678413E+03  0.65386442507E+03  0.20064607588E+04  0.10100000352E+00 0.  1.
       -3    1    3    3    0  502  0.18711303657E+04  0.31179678413E+03 -0.21728756232E+03  0.19093349562E+04  0.10100000352E+00 0. -1.
</event>
<event>
 5   0  0.4750125E-08  0.3900375E+04  0.7818609E-02  0.8024951E-01
        1   -1    0    0  501    0  0.00000000000E+00  0.00000000000E+00  0.16708789950E+04  0.16708789950E+04  0.50400001928E-02 0.  1.
       -1   -1    0    0    0  501  0.00000000000E+00  0.00000000000E+00 -0.22761859726E+04  0.22761859726E+04  0.50400001928E-02 0. -1.
    10030    2    1    2    0    0  0.00000000000E+00  0.00000000000E+00 -0.60530697761E+03  0.39470649676E+04  0.39003750231E+04 0.  0.
        1    1    3    3  502    0  0.14702113808E+04  0.10635486412E+04  0.42044475080E+03  0.18626408685E+04  0.50400001928E-02 0.  1.
       -1    1    3    3    0  502 -0.14702113808E+04 -0.10635486412E+04 -0.10257517284E+04  0.20844240991E+04  0.50400001928E-02 0. -1.
</event>
<event>
 5   0  0.4750125E-08  0.3958892E+04  0.7818609E-02  0.8012891E-01
       -1   -1    0    0    0  501  0.00000000000E+00  0.00000000000E+00  0.13416227310E+04  0.13416227310E+04  0.50400001928E-02 0. -1.
        1   -1    0    0  501    0  0.00000000000E+00  0.00000000000E+00 -0.29204975977E+04  0.29204975977E+04  0.50400001928E-02 0.  1.
    10030    2    1    2    0    0  0.00000000000E+00  0.00000000000E+00 -0.15788748667E+04  0.42621203286E+04  0.39588917453E+04 0.  0.
        4    1    3    3  502    0  0.96459043941E+03  0.48505398452E+03 -0.25755759428E+04  0.27927236049E+04  0.12699999809E+01 0.  1.
       -4    1    3    3    0  502 -0.96459043941E+03 -0.48505398452E+03  0.99670107606E+03  0.14693967237E+04  0.12699999809E+01 0. -1.
</event>
<event>
 5   0  0.4750125E-08  0.3904358E+04  0.7818609E-02  0.8024124E-01
        1   -1    0    0  501    0  0.00000000000E+00  0.00000000000E+00  0.19923921304E+04  0.19923921304E+04  0.50400001928E-02 0. -1.
       -1   -1    0    0    0  501  0.00000000000E+00  0.00000000000E+00 -0.19127770372E+04  0.19127770372E+04  0.50400001928E-02 0.  1.
    10030    2    1    2    0    0  0.00000000000E+00  0.00000000000E+00  0.79615093141E+02  0.39051691676E+04  0.39043575226E+04 0.  0.
        5    1    3    3  502    0 -0.15742693624E+04  0.47872024390E+03 -0.10108786885E+04  0.19311641334E+04  0.46999998093E+01 0.  1.
       -5    1    3    3    0  502  0.15742693624E+04 -0.47872024390E+03  0.10904937816E+04  0.19740050342E+04  0.46999998093E+01 0. -1.
</event>
<event>
 5   0  0.4750125E-08  0.3864107E+04  0.7818609E-02  0.8032536E-01
        1   -1    0    0  501    0  0.00000000000E+00  0.00000000000E+00  0.21792828798E+04  0.21792828798E+04  0.50400001928E-02 0. -1.
       -1   -1    0    0    0  501  0.00000000000E+00  0.00000000000E+00 -0.17128707359E+04  0.17128707359E+04  0.50400001928E-02 0.  1.
    10030    2    1    2    0    0  0.00000000000E+00  0.00000000000E+00  0.46641214384E+03  0.38921536157E+04  0.38641065566E+04 0.  0.
        1    1    3    3  502    0 -0.15065190379E+04  0.11004636767E+04 -0.27264420357E+03  0.18854587710E+04  0.50400001928E-02 0.  1.
       -1    1    3    3    0  502  0.15065190379E+04 -0.11004636767E+04  0.73905634741E+03  0.20066948447E+04  0.50400001928E-02 0. -1.
</event>
<event>
 5   0  0.4750125E-08  0.3880696E+04  0.7818609E-02  0.8029056E-01
       -1   -1    0    0    0  501  0.00000000000E+00  0.00000000000E+00  0.29734570625E+04  0.29734570625E+04  0.50400001928E-02 0.  1.
        1   -1    0    0  501    0  0.00000000000E+00  0.00000000000E+00 -0.12661859823E+04  0.12661859823E+04  0.50400001928E-02 0. -1.
    10030    2    1    2    0    0  0.00000000000E+00  0.00000000000E+00  0.17072710802E+04  0.42396430448E+04  0.38806956344E+04 0.  0.
        1    1    3    3  502    0 -0.13984955979E+04 -0.42878381600E+03 -0.53915892869E+03  0.15589540881E+04  0.50400001928E-02 0. -1.
       -1    1    3    3    0  502  0.13984955979E+04  0.42878381600E+03  0.22464300088E+04  0.26806889568E+04  0.50400001928E-02 0.  1.
</event>
<event>
 5   0  0.1520986E-07  0.3897549E+04  0.7818609E-02  0.8025539E-01
       -2   -1    0    0    0  501  0.00000000000E+00  0.00000000000E+00  0.16237938850E+04  0.16237938850E+04  0.25500000920E-02 0.  1.
        2   -1    0    0  501    0  0.00000000000E+00  0.00000000000E+00 -0.23387954763E+04  0.23387954763E+04  0.25500000920E-02 0. -1.
    10030    2    1    2    0    0  0.00000000000E+00  0.00000000000E+00 -0.71500159131E+03  0.39625893613E+04  0.38975488670E+04 0.  0.
        4    1    3    3  502    0  0.10573660469E+04  0.10386439328E+04  0.92888659149E+03  0.17491815483E+04  0.12699999809E+01 0.  1.
       -4    1    3    3    0  502 -0.10573660469E+04 -0.10386439328E+04 -0.16438881828E+04  0.22134078130E+04  0.12699999809E+01 0. -1.
</event>
<event>
 5   0  0.4750125E-08  0.3865603E+04  0.7818609E-02  0.8032221E-01
       -1   -1    0    0    0  501  0.00000000000E+00  0.00000000000E+00  0.11858898080E+04  0.11858898080E+04  0.50400001928E-02 0.  1.
        1   -1    0    0  501    0  0.00000000000E+00  0.00000000000E+00 -0.31501416379E+04  0.31501416379E+04  0.50400001928E-02 0. -1.
    10030    2    1    2    0    0  0.00000000000E+00  0.00000000000E+00 -0.19642518299E+04  0.43360314460E+04  0.38656025985E+04 0.  0.
        4    1    3    3  502    0 -0.18751393892E+04  0.15040392265E+03 -0.14799242162E+04  0.23935217499E+04  0.12699999809E+01 0. -1.
       -4    1    3    3    0  502  0.18751393892E+04 -0.15040392265E+03 -0.48432761375E+03  0.19425096961E+04  0.12699999809E+01 0.  1.
</event>
<event>
 5   0  0.4750125E-08  0.3984056E+04  0.7818609E-02  0.8007771E-01
       -1   -1    0    0    0  501  0.00000000000E+00  0.00000000000E+00  0.14462201396E+04  0.14462201396E+04  0.50400001928E-02 0. -1.
        1   -1    0    0  501    0  0.00000000000E+00  0.00000000000E+00 -0.27438255917E+04  0.27438255917E+04  0.50400001928E-02 0.  1.
    10030    2    1    2    0    0  0.00000000000E+00  0.00000000000E+00 -0.12976054521E+04  0.41900457312E+04  0.39840561392E+04 0.  0.
        1    1    3    3  502    0 -0.63404952414E+03 -0.37562978575E+03  0.12975760524E+04  0.14922533789E+04  0.50400001928E-02 0. -1.
       -1    1    3    3    0  502  0.63404952414E+03  0.37562978575E+03 -0.25951815045E+04  0.26977923523E+04  0.50400001928E-02 0.  1.
</event>
<event>
 5   0  0.4750125E-08  0.3910147E+04  0.7818609E-02  0.8022922E-01
       -1   -1    0    0    0  501  0.00000000000E+00  0.00000000000E+00  0.17683669814E+04  0.17683669814E+04  0.50400001928E-02 0.  1.
        1   -1    0    0  501    0  0.00000000000E+00  0.00000000000E+00 -0.21614928073E+04  0.21614928073E+04  0.50400001928E-02 0. -1.
    10030    2    1    2    0    0  0.00000000000E+00  0.00000000000E+00 -0.39312582589E+03  0.39298597887E+04  0.39101470617E+04 0.  0.
        3    1    3    3  502    0  0.80346647676E+03 -0.60316872537E+03 -0.18822009501E+04  0.21335536828E+04  0.10100000352E+00 0. -1.
       -3    1    3    3    0  502 -0.80346647676E+03  0.60316872537E+03  0.14890751242E+04  0.17963061059E+04  0.10100000352E+00 0.  1.
</event>
<event>
 5   0  0.4750125E-08  0.3591343E+04  0.7818609E-02  0.8092478E-01
       -1   -1    0    0    0  501  0.00000000000E+00  0.00000000000E+00  0.20124678393E+04  0.20124678393E+04  0.50400001928E-02 0. -1.
        1   -1    0    0  501    0  0.00000000000E+00  0.00000000000E+00 -0.16022300121E+04  0.16022300121E+04  0.50400001928E-02 0.  1.
    10030    2    1    2    0    0  0.00000000000E+00  0.00000000000E+00  0.41023782716E+03  0.36146978514E+04  0.35913431307E+04 0.  0.
        5    1    3    3  502    0  0.38370125763E+03  0.94431989104E+03  0.16930584908E+04  0.19762175626E+04  0.46999998093E+01 0. -1.
       -5    1    3    3    0  502 -0.38370125763E+03 -0.94431989104E+03 -0.12828206636E+04  0.16384802888E+04  0.46999998093E+01 0.  1.
</event>
<event>
 5   0  0.1520986E-07  0.3909571E+04  0.7818609E-02  0.8023042E-01
       -2   -1    0    0    0  501  0.00000000000E+00  0.00000000000E+00  0.18562772836E+04  0.18562772836E+04  0.25500000920E-02 0. -1.
        2   -1    0    0  501    0  0.00000000000E+00  0.00000000000E+00 -0.20585212760E+04  0.20585212760E+04  0.25500000920E-02 0.  1.
    10030    2    1    2    0    0  0.00000000000E+00  0.00000000000E+00 -0.20224399237E+03  0.39147985596E+04  0.39095709649E+04 0.  0.
        4    1    3    3  502    0 -0.54208173968E+03 -0.87147179231E+03 -0.17670379329E+04  0.20434628370E+04  0.12699999809E+01 0.  1.
       -4    1    3    3    0  502  0.54208173968E+03  0.87147179231E+03  0.15647939405E+04  0.18713357225E+04  0.12699999809E+01 0. -1.
</event>
<event>
 5   0  0.4762788E-08  0.3863451E+04  0.7818609E-02  0.8032674E-01
       -1   -1    0    0    0  501  0.00000000000E+00  0.00000000000E+00  0.22586208097E+04  0.22586208097E+04  0.50400001928E-02 0. -1.
        1   -1    0    0  501    0  0.00000000000E+00  0.00000000000E+00 -0.16521421603E+04  0.16521421604E+04  0.50400001928E-02 0.  1.
    10030    2    1    2    0    0  0.00000000000E+00  0.00000000000E+00  0.60647864938E+03  0.39107629701E+04  0.38634506152E+04 0.  0.
        2    1    3    3  502    0  0.10072966627E+03  0.18361634460E+04  0.90202377081E+03  0.20482405985E+04  0.25500000920E-02 0. -1.
       -2    1    3    3    0  502 -0.10072966627E+03 -0.18361634460E+04 -0.29554512143E+03  0.18625223716E+04  0.25500000920E-02 0.  1.
</event>
<event>
 5   0  0.4750125E-08  0.3886753E+04  0.7818609E-02  0.8027790E-01
        1   -1    0    0  501    0  0.00000000000E+00  0.00000000000E+00  0.26451214971E+04  0.26451214971E+04  0.50400001928E-02 0. -1.
       -1   -1    0    0    0  501  0.00000000000E+00  0.00000000000E+00 -0.14278025684E+04  0.14278025684E+04  0.50400001928E-02 0.  1.
    10030    2    1    2    0    0  0.00000000000E+00  0.00000000000E+00  0.12173189287E+04  0.40729240655E+04  0.38867525094E+04 0.  0.
        4    1    3    3  502    0  0.17019485981E+04 -0.49059606419E+03 -0.22926414220E+03  0.17860227291E+04  0.12699999809E+01 0. -1.
       -4    1    3    3    0  502 -0.17019485981E+04  0.49059606419E+03  0.14465830709E+04  0.22869013365E+04  0.12699999809E+01 0.  1.
</event>
<event>
 5   0  0.1520986E-07  0.3891820E+04  0.7818609E-02  0.8026733E-01
        2   -1    0    0  501    0  0.00000000000E+00  0.00000000000E+00  0.25292820136E+04  0.25292820136E+04  0.25500000920E-02 0.  1.
       -2   -1    0    0    0  501  0.00000000000E+00  0.00000000000E+00 -0.14970907884E+04  0.14970907884E+04  0.25500000920E-02 0. -1.
    10030    2    1    2    0    0  0.00000000000E+00  0.00000000000E+00  0.10321912253E+04  0.40263728020E+04  0.38918195250E+04 0.  0.
        4    1    3    3  502    0 -0.19506143977E+03 -0.14770723404E+04  0.18110787891E+04  0.23451651663E+04  0.12699999809E+01 0.  1.
       -4    1    3    3    0  502  0.19506143977E+03  0.14770723404E+04 -0.77888756389E+03  0.16812076356E+04  0.12699999809E+01 0. -1.
</event>
<event>
 5   0  0.1501585E-07  0.3780780E+04  0.7818609E-02  0.8050292E-01
       -2   -1    0    0    0  501  0.00000000000E+00  0.00000000000E+00  0.15762934442E+04  0.15762934442E+04  0.25500000920E-02 0.  1.
        2   -1    0    0  501    0  0.00000000000E+00  0.00000000000E+00 -0.22670745460E+04  0.22670745460E+04  0.25500000920E-02 0. -1.
    10030    2    1    2    0    0  0.00000000000E+00  0.00000000000E+00 -0.69078110176E+03  0.38433679901E+04  0.37807802075E+04 0.  0.
        5    1    3    3  502    0 -0.71765122167E+03 -0.20848940684E+03 -0.21105284058E+04  0.22389379961E+04  0.46999998093E+01 0. -1.
       -5    1    3    3    0  502  0.71765122167E+03  0.20848940684E+03  0.14197473040E+04  0.16044299941E+04  0.46999998093E+01 0.  1.
</event>
<event>
 5   0  0.4750125E-08  0.3899961E+04  0.7818609E-02  0.8025037E-01
        1   -1    0    0  501    0  0.00000000000E+00  0.00000000000E+00  0.20242836321E+04  0.20242836321E+04  0.50400001928E-02 0. -1.
       -1   -1    0    0    0  501  0.00000000000E+00  0.00000000000E+00 -0.18784047515E+04  0.18784047515E+04  0.50400001928E-02 0.  1.
    10030    2    1    2    0    0  0.00000000000E+00  0.00000000000E+00  0.14587888067E+03  0.39026883836E+04  0.38999610218E+04 0.  0.
        4    1    3    3  502    0  0.23643989635E+03  0.56387645359E+03  0.19258719737E+04  0.20206050954E+04  0.12699999809E+01 0. -1.
       -4    1    3    3    0  502 -0.23643989635E+03 -0.56387645359E+03 -0.17799930930E+04  0.18820832882E+04  0.12699999809E+01 0.  1.
</event>
<event>
 5   0  0.1520986E-07  0.3908113E+04  0.7818609E-02  0.8023344E-01
       -2   -1    0    0    0  501  0.00000000000E+00  0.00000000000E+00  0.17871016792E+04  0.17871016792E+04  0.25500000920E-02 0. -1.
        2   -1    0    0  501    0  0.00000000000E+00  0.00000000000E+00 -0.21366082258E+04  0.21366082258E+04  0.25500000920E-02 0.  1.
    10030    2    1    2    0    0  0.00000000000E+00  0.00000000000E+00 -0.34950654661E+03  0.39237099050E+04  0.39081126637E+04 0.  0.
        4    1    3    3  502    0 -0.17552791596E+04  0.60884292010E+03  0.43317127659E+03  0.19077037499E+04  0.12699999809E+01 0.  1.
       -4    1    3    3    0  502  0.17552791596E+04 -0.60884292010E+03 -0.78267782320E+03  0.20160061551E+04  0.12699999809E+01 0. -1.
</event>
<event>
 5   0  0.1503228E-07  0.3911644E+04  0.7818609E-02  0.8022612E-01
        2   -1    0    0  501    0  0.00000000000E+00  0.00000000000E+00  0.25750530893E+04  0.25750530893E+04  0.25500000920E-02 0. -1.
       -2   -1    0    0    0  501  0.00000000000E+00  0.00000000000E+00 -0.14854992077E+04  0.14854992077E+04  0.25500000920E-02 0.  1.
    10030    2    1    2    0    0  0.00000000000E+00  0.00000000000E+00  0.10895538816E+04  0.40605522970E+04  0.39116438100E+04 0.  0.
        3    1    3    3  502    0  0.14474757346E+04 -0.50943736349E+03  0.18035930474E+04  0.23680498982E+04  0.10100000352E+00 0. -1.
       -3    1    3    3    0  502 -0.14474757346E+04  0.50943736349E+03 -0.71403916580E+03  0.16925023988E+04  0.10100000352E+00 0.  1.
</event>
<event>
 5   0  0.4750125E-08  0.3868878E+04  0.7818609E-02  0.8031533E-01
        1   -1    0    0  501    0  0.00000000000E+00  0.00000000000E+00  0.19578308520E+04  0.19578308520E+04  0.50400001928E-02 0. -1.
       -1   -1    0    0    0  501  0.00000000000E+00  0.00000000000E+00 -0.19113266429E+04  0.19113266429E+04  0.50400001928E-02 0.  1.
    10030    2    1    2    0    0  0.00000000000E+00  0.00000000000E+00  0.46504209084E+02  0.38691574949E+04  0.38688780130E+04 0.  0.
        5    1    3    3  502    0  0.63668728553E+02  0.16379996203E+04 -0.10039227278E+04  0.19222329194E+04  0.46999998093E+01 0. -1.
       -5    1    3    3    0  502 -0.63668728553E+02 -0.16379996203E+04  0.10504269369E+04  0.19469245755E+04  0.46999998093E+01 0.  1.
</event>
<event>
 5   0  0.1546846E-07  0.3875980E+04  0.7818609E-02  0.8030043E-01
       -2   -1    0    0    0  501  0.00000000000E+00  0.00000000000E+00  0.15330077641E+04  0.15330077641E+04  0.25500000920E-02 0. -1.
        2   -1    0    0  501    0  0.00000000000E+00  0.00000000000E+00 -0.24499586672E+04  0.24499586672E+04  0.25500000920E-02 0.  1.
    10030    2    1    2    0    0  0.00000000000E+00  0.00000000000E+00 -0.91695090305E+03  0.39829664313E+04  0.38759802159E+04 0.  0.
        2    1    3    3  502    0  0.55771383719E+03 -0.14262428664E+04  0.76199097407E+03  0.17105097728E+04  0.25500000920E-02 0. -1.
       -2    1    3    3    0  502 -0.55771383719E+03  0.14262428664E+04 -0.16789418771E+04  0.22724566585E+04  0.25500000920E-02 0.  1.
</event>
<event>
 5   0  0.1546846E-07  0.3851036E+04  0.7818609E-02  0.8035291E-01
        2   -1    0    0  501    0  0.00000000000E+00  0.00000000000E+00  0.23357555749E+04  0.23357555749E+04  0.25500000920E-02 0. -1.
       -2   -1    0    0    0  501  0.00000000000E+00  0.00000000000E+00 -0.15873320229E+04  0.15873320229E+04  0.25500000920E-02 0.  1.
    10030    2    1    2    0    0  0.00000000000E+00  0.00000000000E+00  0.74842355199E+03  0.39230875978E+04  0.38510360277E+04 0.  0.
        2    1    3    3  502    0  0.14386194895E+04  0.85484025406E+03  0.13445249592E+04  0.21466544346E+04  0.25500000920E-02 0. -1.
       -2    1    3    3    0  502 -0.14386194895E+04 -0.85484025406E+03 -0.59610140717E+03  0.17764331632E+04  0.25500000920E-02 0.  1.
</event>
<event>
 5   0  0.4750125E-08  0.3915187E+04  0.7818609E-02  0.8021878E-01
        1   -1    0    0  501    0  0.00000000000E+00  0.00000000000E+00  0.15296425913E+04  0.15296425913E+04  0.50400001928E-02 0. -1.
       -1   -1    0    0    0  501  0.00000000000E+00  0.00000000000E+00 -0.25052725536E+04  0.25052725536E+04  0.50400001928E-02 0.  1.
    10030    2    1    2    0    0  0.00000000000E+00  0.00000000000E+00 -0.97562996230E+03  0.40349151449E+04  0.39151866371E+04 0.  0.
        3    1    3    3  502    0  0.15551867682E+04  0.96846732738E+03  0.22293954518E+03  0.18455993333E+04  0.10100000352E+00 0. -1.
       -3    1    3    3    0  502 -0.15551867682E+04 -0.96846732738E+03 -0.11985695075E+04  0.21893158115E+04  0.10100000352E+00 0.  1.
</event>
<event>
 5   0  0.1503228E-07  0.3911882E+04  0.7818609E-02  0.8022562E-01
        2   -1    0    0  501    0  0.00000000000E+00  0.00000000000E+00  0.29140185435E+04  0.29140185435E+04  0.25500000920E-02 0.  1.
       -2   -1    0    0    0  501  0.00000000000E+00  0.00000000000E+00 -0.13128625912E+04  0.13128625912E+04  0.25500000920E-02 0. -1.
    10030    2    1    2    0    0  0.00000000000E+00  0.00000000000E+00  0.16011559522E+04  0.42268811347E+04  0.39118823785E+04 0.  0.
        3    1    3    3  502    0 -0.17171125156E+04 -0.31910033238E+02  0.18120151602E+04  0.24965761740E+04  0.10100000352E+00 0. -1.
       -3    1    3    3    0  502  0.17171125156E+04  0.31910033238E+02 -0.21085920796E+03  0.17303049607E+04  0.10100000352E+00 0.  1.
</event>
<event>
 5   0  0.4750125E-08  0.3742733E+04  0.7818609E-02  0.8058557E-01
       -1   -1    0    0    0  501  0.00000000000E+00  0.00000000000E+00  0.21689078913E+04  0.21689078913E+04  0.50400001928E-02 0.  1.
        1   -1    0    0  501    0  0.00000000000E+00  0.00000000000E+00 -0.16146431374E+04  0.16146431374E+04  0.50400001928E-02 0. -1.
    10030    2    1    2    0    0  0.00000000000E+00  0.00000000000E+00  0.55426475389E+03  0.37835510287E+04  0.37427328210E+04 0.  0.
        4    1    3    3  502    0 -0.10897281759E+04  0.86768972859E+01 -0.12607835435E+04  0.16664811857E+04  0.12699999809E+01 0. -1.
       -4    1    3    3    0  502  0.10897281759E+04 -0.86768972859E+01  0.18150482973E+04  0.21170698431E+04  0.12699999809E+01 0.  1.
</event>
<event>
 5   0  0.4750125E-08  0.3883221E+04  0.7818609E-02  0.8028528E-01
        1   -1    0    0  501    0  0.00000000000E+00  0.00000000000E+00  0.11907503304E+04  0.11907503304E+04  0.50400001928E-02 0. -1.
       -1   -1    0    0    0  501  0.00000000000E+00  0.00000000000E+00 -0.31659458821E+04  0.31659458822E+04  0.50400001928E-02 0.  1.
    10030    2    1    2    0    0  0.00000000000E+00  0.00000000000E+00 -0.19751955517E+04  0.43566962126E+04  0.38832208823E+04 0.  0.
        3    1    3    3  502    0 -0.44385293757E+03  0.11398202418E+04 -0.26793139940E+04  0.29453215618E+04  0.10100000352E+00 0.  1.
       -3    1    3    3    0  502  0.44385293757E+03 -0.11398202418E+04  0.70411844229E+03  0.14113746507E+04  0.10100000352E+00 0. -1.
</event>
<event>
 5   0  0.1546846E-07  0.3892762E+04  0.7818609E-02  0.8026536E-01
        2   -1    0    0  501    0  0.00000000000E+00  0.00000000000E+00  0.26298528310E+04  0.26298528310E+04  0.25500000920E-02 0.  1.
       -2   -1    0    0    0  501  0.00000000000E+00  0.00000000000E+00 -0.14405361529E+04  0.14405361529E+04  0.25500000920E-02 0. -1.
    10030    2    1    2    0    0  0.00000000000E+00  0.00000000000E+00  0.11893166781E+04  0.40703889839E+04  0.38927615287E+04 0.  0.
        2    1    3    3  502    0 -0.64855325467E+02 -0.67779549415E+03 -0.13119430573E+04  0.14781094448E+04  0.25500000920E-02 0. -1.
       -2    1    3    3    0  502  0.64855325467E+02  0.67779549415E+03  0.25012597354E+04  0.25922795391E+04  0.25500000920E-02 0.  1.
</event>
<event>
 5   0  0.4750125E-08  0.3868931E+04  0.7818609E-02  0.8031522E-01
       -1   -1    0    0    0  501  0.00000000000E+00  0.00000000000E+00  0.17951701914E+04  0.17951701914E+04  0.50400001928E-02 0.  1.
        1   -1    0    0  501    0  0.00000000000E+00  0.00000000000E+00 -0.20845696707E+04  0.20845696707E+04  0.50400001928E-02 0. -1.
    10030    2    1    2    0    0  0.00000000000E+00  0.00000000000E+00 -0.28939947931E+03  0.38797398621E+04  0.38689312916E+04 0.  0.
        5    1    3    3  502    0  0.78159210311E+02 -0.19306633708E+04 -0.23750736739E+03  0.19467926837E+04  0.46999998093E+01 0. -1.
       -5    1    3    3    0  502 -0.78159210311E+02  0.19306633708E+04 -0.51892111924E+02  0.19329471785E+04  0.46999998093E+01 0.  1.
</event>
<event>
 5   0  0.1520986E-07  0.3897475E+04  0.7818609E-02  0.8025555E-01
       -2   -1    0    0    0  501  0.00000000000E+00  0.00000000000E+00  0.18779436228E+04  0.18779436228E+04  0.25500000920E-02 0. -1.
        2   -1    0    0  501    0  0.00000000000E+00  0.00000000000E+00 -0.20221998988E+04  0.20221998988E+04  0.25500000920E-02 0.  1.
    10030    2    1    2    0    0  0.00000000000E+00  0.00000000000E+00 -0.14425627596E+03  0.39001435217E+04  0.38974747743E+04 0.  0.
        4    1    3    3  502    0  0.96585009998E+03 -0.84135951636E+03  0.13974902707E+04  0.18957143564E+04  0.12699999809E+01 0. -1.
       -4    1    3    3    0  502 -0.96585009998E+03  0.84135951636E+03 -0.15417465467E+04  0.20044291653E+04  0.12699999809E+01 0.  1.
</event>
<event>
 5   0  0.1503228E-07  0.3764134E+04  0.7818609E-02  0.8053896E-01
        2   -1    0    0  501    0  0.00000000000E+00  0.00000000000E+00  0.31844372000E+04  0.31844372000E+04  0.25500000920E-02 0.  1.
       -2   -1    0    0    0  501  0.00000000000E+00  0.00000000000E+00 -0.11123395342E+04  0.11123395342E+04  0.25500000920E-02 0. -1.
    10030    2    1    2    0    0  0.00000000000E+00  0.00000000000E+00  0.20720976658E+04  0.42967767343E+04  0.37641335746E+04 0.  0.
        3    1    3    3  502    0  0.15207680272E+04  0.11068548138E+04  0.96108741550E+03  0.21122386233E+04  0.10100000352E+00 0.  1.
       -3    1    3    3    0  502 -0.15207680272E+04 -0.11068548138E+04  0.11110102503E+04  0.21845381109E+04  0.10100000352E+00 0. -1.
</event>
<event>
 5   0  0.1501585E-07  0.3906989E+04  0.7818609E-02  0.8023577E-01
        2   -1    0    0  501    0  0.00000000000E+00  0.00000000000E+00  0.19831523908E+04  0.19831523908E+04  0.25500000920E-02 0.  1.
       -2   -1    0    0    0  501  0.00000000000E+00  0.00000000000E+00 -0.19242805534E+04  0.19242805534E+04  0.25500000920E-02 0. -1.
    10030    2    1    2    0    0  0.00000000000E+00  0.00000000000E+00  0.58871837440E+02  0.39074329442E+04  0.39069894190E+04 0.  0.
        5    1    3    3  502    0  0.43059983715E+03 -0.17743109889E+04  0.72415409496E+03  0.19641835322E+04  0.46999998093E+01 0. -1.
       -5    1    3    3    0  502 -0.43059983715E+03  0.17743109889E+04 -0.66528225751E+03  0.19432494120E+04  0.46999998093E+01 0.  1.
</event>
<event>
 5   0  0.4750125E-08  0.3887966E+04  0.7818609E-02  0.8027537E-01
       -1   -1    0    0    0  501  0.00000000000E+00  0.00000000000E+00  0.13923370013E+04  0.13923370013E+04  0.50400001928E-02 0. -1.
        1   -1    0    0  501    0  0.00000000000E+00  0.00000000000E+00 -0.27141916758E+04  0.27141916758E+04  0.50400001928E-02 0.  1.
    10030    2    1    2    0    0  0.00000000000E+00  0.00000000000E+00 -0.13218546745E+04  0.41065286770E+04  0.38879657914E+04 0.  0.
        4    1    3    3  502    0 -0.72562182249E+03  0.11042317011E+04  0.84513825225E+03  0.15684753607E+04  0.12699999809E+01 0. -1.
       -4    1    3    3    0  502  0.72562182249E+03 -0.11042317011E+04 -0.21669929267E+04  0.25380533163E+04  0.12699999809E+01 0.  1.
</event>
<event>
 5   0  0.4750125E-08  0.3947892E+04  0.7818609E-02  0.8015142E-01
       -1   -1    0    0    0  501  0.00000000000E+00  0.00000000000E+00  0.11149719284E+04  0.11149719284E+04  0.50400001928E-02 0.  1.
        1   -1    0    0  501    0  0.00000000000E+00  0.00000000000E+00 -0.34946741664E+04  0.34946741664E+04  0.50400001928E-02 0. -1.
    10030    2    1    2    0    0  0.00000000000E+00  0.00000000000E+00 -0.23797022380E+04  0.46096460949E+04  0.39478923970E+04 0.  0.
        3    1    3    3  502    0  0.17873090218E+04 -0.67573717746E+03 -0.17682299636E+04  0.26034076682E+04  0.10100000352E+00 0. -1.
       -3    1    3    3    0  502 -0.17873090218E+04  0.67573717746E+03 -0.61147227443E+03  0.20062384267E+04  0.10100000352E+00 0.  1.
</event>
<event>
 5   0  0.4750125E-08  0.3906372E+04  0.7818609E-02  0.8023705E-01
       -1   -1    0    0    0  501  0.00000000000E+00  0.00000000000E+00  0.32400233444E+04  0.32400233444E+04  0.50400001928E-02 0.  1.
        1   -1    0    0  501    0  0.00000000000E+00  0.00000000000E+00 -0.11774410202E+04  0.11774410202E+04  0.50400001928E-02 0. -1.
    10030    2    1    2    0    0  0.00000000000E+00  0.00000000000E+00  0.20625823242E+04  0.44174643645E+04  0.39063724308E+04 0.  0.
        5    1    3    3  502    0 -0.92590815912E+03  0.41327642829E+03 -0.85649659289E+03  0.13272949291E+04  0.46999998093E+01 0. -1.
       -5    1    3    3    0  502  0.92590815912E+03 -0.41327642829E+03  0.29190789171E+04  0.30901694354E+04  0.46999998093E+01 0.  1.
</event>
<event>
 5   0  0.1520986E-07  0.3905024E+04  0.7818609E-02  0.8023985E-01
        2   -1    0    0  501    0  0.00000000000E+00  0.00000000000E+00  0.21018735887E+04  0.21018735887E+04  0.25500000920E-02 0. -1.
       -2   -1    0    0    0  501  0.00000000000E+00  0.00000000000E+00 -0.18137638993E+04  0.18137638993E+04  0.25500000920E-02 0.  1.
    10030    2    1    2    0    0  0.00000000000E+00  0.00000000000E+00  0.28810968937E+03  0.39156374880E+04  0.39050236547E+04 0.  0.
        4    1    3    3  502    0  0.76329969307E+03 -0.17889955534E+04 -0.27199618056E+02  0.19452179682E+04  0.12699999809E+01 0.  1.
       -4    1    3    3    0  502 -0.76329969307E+03  0.17889955534E+04  0.31530930743E+03  0.19704195198E+04  0.12699999809E+01 0. -1.
</event>
<event>
 5   0  0.1538018E-07  0.3895974E+04  0.7818609E-02  0.8025867E-01
       -2   -1    0    0    0  501  0.00000000000E+00  0.00000000000E+00  0.17146221719E+04  0.17146221719E+04  0.25500000920E-02 0.  1.
        2   -1    0    0  501    0  0.00000000000E+00  0.00000000000E+00 -0.22131135575E+04  0.22131135575E+04  0.25500000920E-02 0. -1.
    10030    2    1    2    0    0  0.00000000000E+00  0.00000000000E+00 -0.49849138562E+03  0.39277357294E+04  0.38959741142E+04 0.  0.
        1    1    3    3  502    0  0.16023343413E+04 -0.10707433731E+04  0.37124367162E+02  0.19275230040E+04  0.50400001928E-02 0. -1.
       -1    1    3    3    0  502 -0.16023343413E+04  0.10707433731E+04 -0.53561575278E+03  0.20002127254E+04  0.50400001928E-02 0.  1.
</event>
<event>
 5   0  0.1501585E-07  0.3902116E+04  0.7818609E-02  0.8024589E-01
       -2   -1    0    0    0  501  0.00000000000E+00  0.00000000000E+00  0.15778174186E+04  0.15778174186E+04  0.25500000920E-02 0.  1.
        2   -1    0    0  501    0  0.00000000000E+00  0.00000000000E+00 -0.24125904020E+04  0.24125904020E+04  0.25500000920E-02 0. -1.
    10030    2    1    2    0    0  0.00000000000E+00  0.00000000000E+00 -0.83477298340E+03  0.39904078207E+04  0.39021159185E+04 0.  0.
        5    1    3    3  502    0  0.41433904492E+03  0.14179665316E+04  0.88593069916E+03  0.17225565949E+04  0.46999998093E+01 0.  1.
       -5    1    3    3    0  502 -0.41433904492E+03 -0.14179665316E+04 -0.17207036826E+04  0.22678512258E+04  0.46999998093E+01 0. -1.
</event>
<event>
 5   0  0.1520986E-07  0.3884169E+04  0.7818609E-02  0.8028330E-01
       -2   -1    0    0    0  501  0.00000000000E+00  0.00000000000E+00  0.16980441687E+04  0.16980441687E+04  0.25500000920E-02 0. -1.
        2   -1    0    0  501    0  0.00000000000E+00  0.00000000000E+00 -0.22211974280E+04  0.22211974280E+04  0.25500000920E-02 0.  1.
    10030    2    1    2    0    0  0.00000000000E+00  0.00000000000E+00 -0.52315325927E+03  0.39192415966E+04  0.38841685545E+04 0.  0.
        4    1    3    3  502    0 -0.70242360015E+03 -0.82291991510E+03 -0.18889303470E+04  0.21768453251E+04  0.12699999809E+01 0.  1.
       -4    1    3    3    0  502  0.70242360015E+03  0.82291991510E+03  0.13657770877E+04  0.17423962715E+04  0.12699999809E+01 0. -1.
</event>
<event>
 5   0  0.1546846E-07  0.3914379E+04  0.7818609E-02  0.8022045E-01
        2   -1    0    0  501    0  0.00000000000E+00  0.00000000000E+00  0.20757478501E+04  0.20757478501E+04  0.25500000920E-02 0. -1.
       -2   -1    0    0    0  501  0.00000000000E+00  0.00000000000E+00 -0.18454023410E+04  0.18454023410E+04  0.25500000920E-02 0.  1.
    10030    2    1    2    0    0  0.00000000000E+00  0.00000000000E+00  0.23034550916E+03  0.39211501911E+04  0.39143785928E+04 0.  0.
        2    1    3    3  502    0  0.70572388701E+03  0.71971500527E+03 -0.15653927546E+04  0.18618513285E+04  0.25500000920E-02 0.  1.
       -2    1    3    3    0  502 -0.70572388701E+03 -0.71971500527E+03  0.17957382637E+04  0.20592988626E+04  0.25500000920E-02 0. -1.
</event>
<event>
 5   0  0.1501585E-07  0.3909540E+04  0.7818609E-02  0.8023048E-01
       -2   -1    0    0    0  501  0.00000000000E+00  0.00000000000E+00  0.23381925764E+04  0.23381925765E+04  0.25500000920E-02 0.  1.
        2   -1    0    0  501    0  0.00000000000E+00  0.00000000000E+00 -0.16342221947E+04  0.16342221947E+04  0.25500000920E-02 0. -1.
    10030    2    1    2    0    0  0.00000000000E+00  0.00000000000E+00  0.70397038179E+03  0.39724147711E+04  0.39095402307E+04 0.  0.
        5    1    3    3  502    0 -0.13637723276E+04 -0.86967776066E+03 -0.76334268166E+03  0.17885548660E+04  0.46999998093E+01 0. -1.
       -5    1    3    3    0  502  0.13637723276E+04  0.86967776066E+03  0.14673130634E+04  0.21838599051E+04  0.46999998093E+01 0.  1.
</event>
<event>
 5   0  0.1501585E-07  0.3900808E+04  0.7818609E-02  0.8024861E-01
        2   -1    0    0  501    0  0.00000000000E+00  0.00000000000E+00  0.21942136559E+04  0.21942136559E+04  0.25500000920E-02 0.  1.
       -2   -1    0    0    0  501  0.00000000000E+00  0.00000000000E+00 -0.17336849655E+04  0.17336849655E+04  0.25500000920E-02 0. -1.
    10030    2    1    2    0    0  0.00000000000E+00  0.00000000000E+00  0.46052869037E+03  0.39278986213E+04  0.39008077247E+04 0.  0.
        5    1    3    3  502    0 -0.10399743157E+03 -0.82918345189E+03  0.20048009037E+04  0.21720058508E+04  0.46999998093E+01 0.  1.
       -5    1    3    3    0  502  0.10399743157E+03  0.82918345189E+03 -0.15442722133E+04  0.17558927705E+04  0.46999998093E+01 0. -1.
</event>
<event>
 5   0  0.4762788E-08  0.3922539E+04  0.7818609E-02  0.8020358E-01
       -1   -1    0    0    0  501  0.00000000000E+00  0.00000000000E+00  0.28540694253E+04  0.28540694253E+04  0.50400001928E-02 0. -1.
        1   -1    0    0  501    0  0.00000000000E+00  0.00000000000E+00 -0.13477519680E+04  0.13477519680E+04  0.50400001928E-02 0.  1.
    10030    2    1    2    0    0  0.00000000000E+00  0.00000000000E+00  0.15063174574E+04  0.42018213933E+04  0.39225388129E+04 0.  0.
        2    1    3    3  502    0  0.41123888216E+03  0.19139866371E+04  0.62589131124E+03  0.20552864031E+04  0.25500000920E-02 0.  1.
       -2    1    3    3    0  502 -0.41123888216E+03 -0.19139866371E+04  0.88042614613E+03  0.21465349902E+04  0.25500000920E-02 0. -1.
</event>
<event>
 5   0  0.4762788E-08  0.3876574E+04  0.7818609E-02  0.8029919E-01
       -1   -1    0    0    0  501  0.00000000000E+00  0.00000000000E+00  0.18623226083E+04  0.18623226083E+04  0.50400001928E-02 0. -1.
        1   -1    0    0  501    0  0.00000000000E+00  0.00000000000E+00 -0.20173497888E+04  0.20173497888E+04  0.50400001928E-02 0.  1.
    10030    2    1    2    0    0  0.00000000000E+00  0.00000000000E+00 -0.15502718042E+03  0.38796723971E+04  0.38765738071E+04 0.  0.
        2    1    3    3  502    0  0.58544640767E+03 -0.16170664838E+04  0.81723939722E+03  0.19040829136E+04  0.25500000920E-02 0. -1.
       -2    1    3    3    0  502 -0.58544640767E+03  0.16170664838E+04 -0.97226657765E+03  0.19755894835E+04  0.25500000920E-02 0.  1.
</event>
<event>
 5   0  0.4762788E-08  0.3883314E+04  0.7818609E-02  0.8028508E-01
       -1   -1    0    0    0  501  0.00000000000E+00  0.00000000000E+00  0.17492680261E+04  0.17492680261E+04  0.50400001928E-02 0. -1.
        1   -1    0    0  501    0  0.00000000000E+00  0.00000000000E+00 -0.21552057906E+04  0.21552057906E+04  0.50400001928E-02 0.  1.
    10030    2    1    2    0    0  0.00000000000E+00  0.00000000000E+00 -0.40593776454E+03  0.39044738167E+04  0.38833143469E+04 0.  0.
        2    1    3    3  502    0  0.12939314395E+04  0.65812003030E+03 -0.14994334487E+04  0.20870268833E+04  0.25500000920E-02 0.  1.
       -2    1    3    3    0  502 -0.12939314395E+04 -0.65812003030E+03  0.10934956842E+04  0.18174469334E+04  0.25500000920E-02 0. -1.
</event>
<event>
 5   0  0.4750125E-08  0.3961166E+04  0.7818609E-02  0.8012427E-01
       -1   -1    0    0    0  501  0.00000000000E+00  0.00000000000E+00  0.19321156162E+04  0.19321156162E+04  0.50400001928E-02 0.  1.
        1   -1    0    0  501    0  0.00000000000E+00  0.00000000000E+00 -0.20302666630E+04  0.20302666630E+04  0.50400001928E-02 0. -1.
    10030    2    1    2    0    0  0.00000000000E+00  0.00000000000E+00 -0.98151046834E+02  0.39623822792E+04  0.39611664568E+04 0.  0.
        5    1    3    3  502    0  0.11354791229E+04 -0.12698765528E+04  0.96157538823E+03  0.19561565927E+04  0.46999998093E+01 0.  1.
       -5    1    3    3    0  502 -0.11354791229E+04  0.12698765528E+04 -0.10597264351E+04  0.20062256865E+04  0.46999998093E+01 0. -1.
</event>
<event>
 5   0  0.1503228E-07  0.3877697E+04  0.7818609E-02  0.8029684E-01
       -2   -1    0    0    0  501  0.00000000000E+00  0.00000000000E+00  0.16657467498E+04  0.16657467498E+04  0.25500000920E-02 0. -1.
        2   -1    0    0  501    0  0.00000000000E+00  0.00000000000E+00 -0.22567253710E+04  0.22567253710E+04  0.25500000920E-02 0.  1.
    10030    2    1    2    0    0  0.00000000000E+00  0.00000000000E+00 -0.59097862116E+03  0.39224721208E+04  0.38776967142E+04 0.  0.
        3    1    3    3  502    0 -0.13026529611E+04 -0.12711005973E+04 -0.97143540927E+03  0.20630773689E+04  0.10100000352E+00 0.  1.
       -3    1    3    3    0  502  0.13026529611E+04  0.12711005973E+04  0.38045678811E+03  0.18593947519E+04  0.10100000352E+00 0. -1.
</event>
<event>
 5   0  0.4750125E-08  0.3869845E+04  0.7818609E-02  0.8031330E-01
       -1   -1    0    0    0  501  0.00000000000E+00  0.00000000000E+00  0.16255063672E+04  0.16255063672E+04  0.50400001928E-02 0.  1.
        1   -1    0    0  501    0  0.00000000000E+00  0.00000000000E+00 -0.23032356004E+04  0.23032356004E+04  0.50400001928E-02 0. -1.
    10030    2    1    2    0    0  0.00000000000E+00  0.00000000000E+00 -0.67772923320E+03  0.39287419677E+04  0.38698445104E+04 0.  0.
        3    1    3    3  502    0 -0.15738994382E+04 -0.72284034471E+03 -0.12147035192E+04  0.21154579304E+04  0.10100000352E+00 0. -1.
       -3    1    3    3    0  502  0.15738994382E+04  0.72284034471E+03  0.53697428600E+03  0.18132840372E+04  0.10100000352E+00 0.  1.
</event>
<event>
 5   0  0.4762788E-08  0.3826586E+04  0.7818609E-02  0.8040474E-01
       -1   -1    0    0    0  501  0.00000000000E+00  0.00000000000E+00  0.24845874112E+04  0.24845874112E+04  0.50400001928E-02 0. -1.
        1   -1    0    0  501    0  0.00000000000E+00  0.00000000000E+00 -0.14733591613E+04  0.14733591613E+04  0.50400001928E-02 0.  1.
    10030    2    1    2    0    0  0.00000000000E+00  0.00000000000E+00  0.10112282500E+04  0.39579465725E+04  0.38265857494E+04 0.  0.
        2    1    3    3  502    0 -0.11708076184E+04  0.40413245375E+03  0.20139530627E+04  0.23643435575E+04  0.25500000920E-02 0. -1.
       -2    1    3    3    0  502  0.11708076184E+04 -0.40413245375E+03 -0.10027248127E+04  0.15936030150E+04  0.25500000920E-02 0.  1.
</event>
<event>
 5   0  0.4750125E-08  0.3883166E+04  0.7818609E-02  0.8028539E-01
        1   -1    0    0  501    0  0.00000000000E+00  0.00000000000E+00  0.20892230652E+04  0.20892230652E+04  0.50400001928E-02 0. -1.
       -1   -1    0    0    0  501  0.00000000000E+00  0.00000000000E+00 -0.18043762914E+04  0.18043762914E+04  0.50400001928E-02 0.  1.
    10030    2    1    2    0    0  0.00000000000E+00  0.00000000000E+00  0.28484677385E+03  0.38935993566E+04  0.38831660105E+04 0.  0.
        5    1    3    3  502    0  0.72968118166E+03 -0.12025274368E+04 -0.11995355810E+04  0.18486250467E+04  0.46999998093E+01 0.  1.
       -5    1    3    3    0  502 -0.72968118166E+03  0.12025274368E+04  0.14843823549E+04  0.20449743100E+04  0.46999998093E+01 0. -1.
</event>
<event>
 5   0  0.1546846E-07  0.3824692E+04  0.7818609E-02  0.8040877E-01
       -2   -1    0    0    0  501  0.00000000000E+00  0.00000000000E+00  0.17866711280E+04  0.17866711280E+04  0.25500000920E-02 0.  1.
        2   -1    0    0  501    0  0.00000000000E+00  0.00000000000E+00 -0.20468608465E+04  0.20468608465E+04  0.25500000920E-02 0. -1.
    10030    2    1    2    0    0  0.00000000000E+00  0.00000000000E+00 -0.26018971849E+03  0.38335319746E+04  0.38246919759E+04 0.  0.
        2    1    3    3  502    0 -0.48618773485E+03 -0.10343212418E+04  0.14067030781E+04  0.18124603429E+04  0.25500000920E-02 0.  1.
       -2    1    3    3    0  502  0.48618773485E+03  0.10343212418E+04 -0.16668927966E+04  0.20210716316E+04  0.25500000920E-02 0. -1.
</event>
<event>
 5   0  0.1520986E-07  0.3863478E+04  0.7818609E-02  0.8032668E-01
       -2   -1    0    0    0  501  0.00000000000E+00  0.00000000000E+00  0.16356103858E+04  0.16356103858E+04  0.25500000920E-02 0. -1.
        2   -1    0    0  501    0  0.00000000000E+00  0.00000000000E+00 -0.22814821391E+04  0.22814821391E+04  0.25500000920E-02 0.  1.
    10030    2    1    2    0    0  0.00000000000E+00  0.00000000000E+00 -0.64587175328E+03  0.39170925249E+04  0.38634781644E+04 0.  0.
        4    1    3    3  502    0 -0.81394339347E+03  0.30754083740E+03 -0.20715519885E+04  0.22468677016E+04  0.12699999809E+01 0.  1.
       -4    1    3    3    0  502  0.81394339347E+03 -0.30754083740E+03  0.14256802352E+04  0.16702248233E+04  0.12699999809E+01 0. -1.
</event>
<event>
 5   0  0.4750125E-08  0.3858033E+04  0.7818609E-02  0.8033815E-01
        1   -1    0    0  501    0  0.00000000000E+00  0.00000000000E+00  0.13650124407E+04  0.13650124407E+04  0.50400001928E-02 0. -1.
       -1   -1    0    0    0  501  0.00000000000E+00  0.00000000000E+00 -0.27260589217E+04  0.27260589217E+04  0.50400001928E-02 0.  1.
    10030    2    1    2    0    0  0.00000000000E+00  0.00000000000E+00 -0.13610464810E+04  0.40910713624E+04  0.38580328367E+04 0.  0.
        3    1    3    3  502    0 -0.19770019935E+03  0.15561667277E+04  0.50994864648E+03  0.16494810958E+04  0.10100000352E+00 0. -1.
       -3    1    3    3    0  502  0.19770019935E+03 -0.15561667277E+04 -0.18709951274E+04  0.24415902667E+04  0.10100000352E+00 0.  1.
</event>
<event>
 5   0  0.1546846E-07  0.4044447E+04  0.7818609E-02  0.7995640E-01
        2   -1    0    0  501    0  0.00000000000E+00  0.00000000000E+00  0.20017650944E+04  0.20017650944E+04  0.25500000920E-02 0. -1.
       -2   -1    0    0    0  501  0.00000000000E+00  0.00000000000E+00 -0.20428910180E+04  0.20428910180E+04  0.25500000920E-02 0.  1.
    10030    2    1    2    0    0  0.00000000000E+00  0.00000000000E+00 -0.41125923550E+02  0.40446561124E+04  0.40444470236E+04 0.  0.
        2    1    3    3  502    0  0.11196121538E+04  0.93197919975E+03  0.13821040480E+04  0.20080657865E+04  0.25500000920E-02 0. -1.
       -2    1    3    3    0  502 -0.11196121538E+04 -0.93197919975E+03 -0.14232299715E+04  0.20365903259E+04  0.25500000920E-02 0.  1.
</event>
<event>
 5   0  0.4750125E-08  0.3884242E+04  0.7818609E-02  0.8028315E-01
        1   -1    0    0  501    0  0.00000000000E+00  0.00000000000E+00  0.24698767036E+04  0.24698767036E+04  0.50400001928E-02 0.  1.
       -1   -1    0    0    0  501  0.00000000000E+00  0.00000000000E+00 -0.15271345442E+04  0.15271345442E+04  0.50400001928E-02 0. -1.
    10030    2    1    2    0    0  0.00000000000E+00  0.00000000000E+00  0.94274215944E+03  0.39970112478E+04  0.38842420285E+04 0.  0.
        5    1    3    3  502    0  0.15946438124E+04 -0.37305812209E+03 -0.60284751114E+03  0.17451385225E+04  0.46999998093E+01 0. -1.
       -5    1    3    3    0  502 -0.15946438124E+04  0.37305812209E+03  0.15455896706E+04  0.22518727253E+04  0.46999998093E+01 0.  1.
</event>
<event>
 5   0  0.4750125E-08  0.3882494E+04  0.7818609E-02  0.8028680E-01
       -1   -1    0    0    0  501  0.00000000000E+00  0.00000000000E+00  0.24712628955E+04  0.24712628955E+04  0.50400001928E-02 0. -1.
        1   -1    0    0  501    0  0.00000000000E+00  0.00000000000E+00 -0.15249044024E+04  0.15249044024E+04  0.50400001928E-02 0.  1.
    10030    2    1    2    0    0  0.00000000000E+00  0.00000000000E+00  0.94635849310E+03  0.39961672979E+04  0.38824938732E+04 0.  0.
        1    1    3    3  502    0 -0.12954558960E+04  0.80624073333E+03  0.17084032676E+04  0.22906051217E+04  0.50400001928E-02 0. -1.
       -1    1    3    3    0  502  0.12954558960E+04 -0.80624073333E+03 -0.76204477450E+03  0.17055621762E+04  0.50400001928E-02 0.  1.
</event>
<event>
 5   0  0.4750125E-08  0.3919234E+04  0.7818609E-02  0.8021041E-01
        1   -1    0    0  501    0  0.00000000000E+00  0.00000000000E+00  0.11385484268E+04  0.11385484268E+04  0.50400001928E-02 0.  1.
       -1   -1    0    0    0  501  0.00000000000E+00  0.00000000000E+00 -0.33728021537E+04  0.33728021537E+04  0.50400001928E-02 0. -1.
    10030    2    1    2    0    0  0.00000000000E+00  0.00000000000E+00 -0.22342537269E+04  0.45113505805E+04  0.39192338976E+04 0.  0.
        4    1    3    3  502    0 -0.19263201072E+04  0.20729662277E+03 -0.14555049993E+04  0.24232576135E+04  0.12699999809E+01 0. -1.
       -4    1    3    3    0  502  0.19263201072E+04 -0.20729662277E+03 -0.77874872761E+03  0.20880929670E+04  0.12699999809E+01 0.  1.
</event>
<event>
 5   0  0.4750125E-08  0.3899076E+04  0.7818609E-02  0.8025221E-01
       -3   -1    0    0    0  501  0.00000000000E+00  0.00000000000E+00  0.18069627771E+04  0.18069627799E+04  0.10100000352E+00 0.  1.
        3   -1    0    0  501    0  0.00000000000E+00  0.00000000000E+00 -0.21033624452E+04  0.21033624476E+04  0.10100000352E+00 0. -1.
    10030    2    1    2    0    0  0.00000000000E+00  0.00000000000E+00 -0.29639966808E+03  0.39103252275E+04  0.38990756112E+04 0.  0.
        2    1    3    3  502    0 -0.57802234634E+03  0.26264272928E+03 -0.19967777895E+04  0.20952834120E+04  0.25500000920E-02 0. -1.
       -2    1    3    3    0  502  0.57802234634E+03 -0.26264272928E+03  0.17003781214E+04  0.18150418155E+04  0.25500000920E-02 0.  1.
</event>
<event>
 5   0  0.4750125E-08  0.3902144E+04  0.7818609E-02  0.8024583E-01
        1   -1    0    0  501    0  0.00000000000E+00  0.00000000000E+00  0.19778968648E+04  0.19778968648E+04  0.50400001928E-02 0. -1.
       -1   -1    0    0    0  501  0.00000000000E+00  0.00000000000E+00 -0.19246112778E+04  0.19246112778E+04  0.50400001928E-02 0.  1.
    10030    2    1    2    0    0  0.00000000000E+00  0.00000000000E+00  0.53285587032E+02  0.39025081426E+04  0.39021443398E+04 0.  0.
        3    1    3    3  502    0 -0.33112529870E+03 -0.18725828597E+04 -0.40982895802E+03  0.19452944031E+04  0.10100000352E+00 0. -1.
       -3    1    3    3    0  502  0.33112529870E+03  0.18725828597E+04  0.46311454506E+03  0.19572137394E+04  0.10100000352E+00 0.  1.
</event>
<event>
 5   0  0.1503228E-07  0.3893951E+04  0.7818609E-02  0.8026289E-01
        2   -1    0    0  501    0  0.00000000000E+00  0.00000000000E+00  0.17512502717E+04  0.17512502717E+04  0.25500000920E-02 0.  1.
       -2   -1    0    0    0  501  0.00000000000E+00  0.00000000000E+00 -0.21645751916E+04  0.21645751916E+04  0.25500000920E-02 0. -1.
    10030    2    1    2    0    0  0.00000000000E+00  0.00000000000E+00 -0.41332491997E+03  0.39158254633E+04  0.38939506378E+04 0.  0.
        3    1    3    3  502    0 -0.37881704894E+03 -0.11881200723E+04 -0.17102478966E+04  0.21166198385E+04  0.10100000352E+00 0. -1.
       -3    1    3    3    0  502  0.37881704894E+03  0.11881200723E+04  0.12969229766E+04  0.17992056248E+04  0.10100000352E+00 0.  1.
</event>
<event>
 5   0  0.1503228E-07  0.4009903E+04  0.7818609E-02  0.8002552E-01
        2   -1    0    0  501    0  0.00000000000E+00  0.00000000000E+00  0.25688068132E+04  0.25688068132E+04  0.25500000920E-02 0.  1.
       -2   -1    0    0    0  501  0.00000000000E+00  0.00000000000E+00 -0.15648631413E+04  0.15648631413E+04  0.25500000920E-02 0. -1.
    10030    2    1    2    0    0  0.00000000000E+00  0.00000000000E+00  0.10039436719E+04  0.41336699544E+04  0.40099032901E+04 0.  0.
        3    1    3    3  502    0  0.14884075863E+04  0.13432354140E+04  0.51627705287E+03  0.20703092827E+04  0.10100000352E+00 0. -1.
       -3    1    3    3    0  502 -0.14884075863E+04 -0.13432354140E+04  0.48766661907E+03  0.20633606718E+04  0.10100000352E+00 0.  1.
</event>
<event>
 5   0  0.4750125E-08  0.3876495E+04  0.7818609E-02  0.8029936E-01
        1   -1    0    0  501    0  0.00000000000E+00  0.00000000000E+00  0.15972884005E+04  0.15972884005E+04  0.50400001928E-02 0. -1.
       -1   -1    0    0    0  501  0.00000000000E+00  0.00000000000E+00 -0.23519879875E+04  0.23519879875E+04  0.50400001928E-02 0.  1.
    10030    2    1    2    0    0  0.00000000000E+00  0.00000000000E+00 -0.75469958703E+03  0.39492763880E+04  0.38764948758E+04 0.  0.
        5    1    3    3  502    0  0.15783704745E+04  0.82558297400E+03 -0.11558569162E+04  0.21234094995E+04  0.46999998093E+01 0.  1.
       -5    1    3    3    0  502 -0.15783704745E+04 -0.82558297400E+03  0.40115732915E+03  0.18258668885E+04  0.46999998093E+01 0. -1.
</event>
<event>
 5   0  0.4750125E-08  0.3906540E+04  0.7818609E-02  0.8023670E-01
        1   -1    0    0  501    0  0.00000000000E+00  0.00000000000E+00  0.22701945817E+04  0.22701945817E+04  0.50400001928E-02 0. -1.
       -1   -1    0    0    0  501  0.00000000000E+00  0.00000000000E+00 -0.16805891159E+04  0.16805891159E+04  0.50400001928E-02 0.  1.
    10030    2    1    2    0    0  0.00000000000E+00  0.00000000000E+00  0.58960546579E+03  0.39507836976E+04  0.39065403134E+04 0.  0.
        3    1    3    3  502    0 -0.34392506738E+03  0.15238647079E+04 -0.89100222650E+03  0.17984251660E+04  0.10100000352E+00 0.  1.
       -3    1    3    3    0  502  0.34392506738E+03 -0.15238647079E+04  0.14806076923E+04  0.21523585316E+04  0.10100000352E+00 0. -1.
</event>
<event>
 5   0  0.4750125E-08  0.3924030E+04  0.7818609E-02  0.8020050E-01
        1   -1    0    0  501    0  0.00000000000E+00  0.00000000000E+00  0.27455379630E+04  0.27455379630E+04  0.50400001928E-02 0.  1.
       -1   -1    0    0    0  501  0.00000000000E+00  0.00000000000E+00 -0.14020940701E+04  0.14020940701E+04  0.50400001928E-02 0. -1.
    10030    2    1    2    0    0  0.00000000000E+00  0.00000000000E+00  0.13434438929E+04  0.41476320331E+04  0.39240298150E+04 0.  0.
        3    1    3    3  502    0  0.25550423160E+03  0.66522989193E+03  0.26039169434E+04  0.26996660312E+04  0.10100000352E+00 0.  1.
       -3    1    3    3    0  502 -0.25550423160E+03 -0.66522989193E+03 -0.12604730505E+04  0.14479660019E+04  0.10100000352E+00 0. -1.
</event>
<event>
 5   0  0.1546846E-07  0.3873001E+04  0.7818609E-02  0.8030668E-01
       -2   -1    0    0    0  501  0.00000000000E+00  0.00000000000E+00  0.13774169354E+04  0.13774169354E+04  0.25500000920E-02 0.  1.
        2   -1    0    0  501    0  0.00000000000E+00  0.00000000000E+00 -0.27225118548E+04  0.27225118548E+04  0.25500000920E-02 0. -1.
    10030    2    1    2    0    0  0.00000000000E+00  0.00000000000E+00 -0.13450949194E+04  0.40999287902E+04  0.38730008705E+04 0.  0.
        2    1    3    3  502    0  0.33354110572E+03 -0.16757954304E+03 -0.26840681503E+04  0.27098993354E+04  0.25500000920E-02 0. -1.
       -2    1    3    3    0  502 -0.33354110572E+03  0.16757954304E+03  0.13389732309E+04  0.13900294549E+04  0.25500000920E-02 0.  1.
</event>
<event>
 5   0  0.1546846E-07  0.3854971E+04  0.7818609E-02  0.8034460E-01
       -2   -1    0    0    0  501  0.00000000000E+00  0.00000000000E+00  0.10844028373E+04  0.10844028373E+04  0.25500000920E-02 0.  1.
        2   -1    0    0  501    0  0.00000000000E+00  0.00000000000E+00 -0.34260329128E+04  0.34260329128E+04  0.25500000920E-02 0. -1.
    10030    2    1    2    0    0  0.00000000000E+00  0.00000000000E+00 -0.23416300756E+04  0.45104357501E+04  0.38549707191E+04 0.  0.
        2    1    3    3  502    0 -0.64646614423E+02  0.88699872887E+03  0.82999084046E+03  0.12164829325E+04  0.25500000920E-02 0.  1.
       -2    1    3    3    0  502  0.64646614423E+02 -0.88699872887E+03 -0.31716209160E+04  0.32939528176E+04  0.25500000920E-02 0. -1.
</event>
<event>
 5   0  0.4750125E-08  0.3913355E+04  0.7818609E-02  0.8022257E-01
       -1   -1    0    0    0  501  0.00000000000E+00  0.00000000000E+00  0.20914815261E+04  0.20914815261E+04  0.50400001928E-02 0.  1.
        1   -1    0    0  501    0  0.00000000000E+00  0.00000000000E+00 -0.18305624373E+04  0.18305624373E+04  0.50400001928E-02 0. -1.
    10030    2    1    2    0    0  0.00000000000E+00  0.00000000000E+00  0.26091908876E+03  0.39220439634E+04  0.39133553481E+04 0.  0.
        1    1    3    3  502    0 -0.14409085764E+04 -0.11351554228E+04 -0.55207537281E+03  0.19156154564E+04  0.50400001928E-02 0. -1.
       -1    1    3    3    0  502  0.14409085764E+04  0.11351554228E+04  0.81299446157E+03  0.20064285071E+04  0.50400001928E-02 0.  1.
</event>
<event>
 5   0  0.1538018E-07  0.3907870E+04  0.7818609E-02  0.8023394E-01
        2   -1    0    0  501    0  0.00000000000E+00  0.00000000000E+00  0.17288503516E+04  0.17288503516E+04  0.25500000920E-02 0.  1.
       -2   -1    0    0    0  501  0.00000000000E+00  0.00000000000E+00 -0.22083239489E+04  0.22083239489E+04  0.25500000920E-02 0. -1.
    10030    2    1    2    0    0  0.00000000000E+00  0.00000000000E+00 -0.47947359735E+03  0.39371743005E+04  0.39078698216E+04 0.  0.
        1    1    3    3  502    0  0.47665072227E+03  0.18873046973E+04 -0.41055674561E+03  0.19893897991E+04  0.50400001928E-02 0. -1.
       -1    1    3    3    0  502 -0.47665072227E+03 -0.18873046973E+04 -0.68916851739E+02  0.19477845014E+04  0.50400001928E-02 0.  1.
</event>
<event>
 5   0  0.1501585E-07  0.3888232E+04  0.7818609E-02  0.8027481E-01
        2   -1    0    0  501    0  0.00000000000E+00  0.00000000000E+00  0.13573813039E+04  0.13573813039E+04  0.25500000920E-02 0.  1.
       -2   -1    0    0    0  501  0.00000000000E+00  0.00000000000E+00 -0.27844701390E+04  0.27844701390E+04  0.25500000920E-02 0. -1.
    10030    2    1    2    0    0  0.00000000000E+00  0.00000000000E+00 -0.14270888351E+04  0.41418514429E+04  0.38882323531E+04 0.  0.
        5    1    3    3  502    0 -0.49966818676E+03 -0.16065478603E+04 -0.17511990461E+04  0.24284531112E+04  0.46999998093E+01 0. -1.
       -5    1    3    3    0  502  0.49966818676E+03  0.16065478603E+04  0.32411021096E+03  0.17133983317E+04  0.46999998093E+01 0.  1.
</event>
<event>
 5   0  0.1501585E-07  0.3895579E+04  0.7818609E-02  0.8025949E-01
        2   -1    0    0  501    0  0.00000000000E+00  0.00000000000E+00  0.24983543205E+04  0.24983543205E+04  0.25500000920E-02 0.  1.
       -2   -1    0    0    0  501  0.00000000000E+00  0.00000000000E+00 -0.15185533519E+04  0.15185533519E+04  0.25500000920E-02 0. -1.
    10030    2    1    2    0    0  0.00000000000E+00  0.00000000000E+00  0.97980096862E+03  0.40169076724E+04  0.38955792009E+04 0.  0.
        5    1    3    3  502    0  0.11792391615E+04  0.97786037671E+03 -0.75049743214E+03  0.17058969494E+04  0.46999998093E+01 0. -1.
       -5    1    3    3    0  502 -0.11792391615E+04 -0.97786037671E+03  0.17302984008E+04  0.23110107230E+04  0.46999998093E+01 0.  1.
</event>
<event>
 5   0  0.1546846E-07  0.3863663E+04  0.7818609E-02  0.8032629E-01
       -2   -1    0    0    0  501  0.00000000000E+00  0.00000000000E+00  0.24504461500E+04  0.24504461500E+04  0.25500000920E-02 0. -1.
        2   -1    0    0  501    0  0.00000000000E+00  0.00000000000E+00 -0.15229771715E+04  0.15229771715E+04  0.25500000920E-02 0.  1.
    10030    2    1    2    0    0  0.00000000000E+00  0.00000000000E+00  0.92746897852E+03  0.39734233215E+04  0.38636633116E+04 0.  0.
        2    1    3    3  502    0  0.12178571363E+04 -0.14869004689E+04  0.26345996476E+03  0.19399639589E+04  0.25500000920E-02 0.  1.
       -2    1    3    3    0  502 -0.12178571363E+04  0.14869004689E+04  0.66400901376E+03  0.20334593626E+04  0.25500000920E-02 0. -1.
</event>
<event>
 5   0  0.4750125E-08  0.3928785E+04  0.7818609E-02  0.8019069E-01
       -3   -1    0    0    0  501  0.00000000000E+00  0.00000000000E+00  0.12834997490E+04  0.12834997529E+04  0.10100000352E+00 0.  1.
        3   -1    0    0  501    0  0.00000000000E+00  0.00000000000E+00 -0.30064962313E+04  0.30064962329E+04  0.10100000352E+00 0. -1.
    10030    2    1    2    0    0  0.00000000000E+00  0.00000000000E+00 -0.17229964823E+04  0.42899959859E+04  0.39287846315E+04 0.  0.
        5    1    3    3  502    0 -0.97536211400E+03 -0.89693548304E+03 -0.24449955360E+04  0.27809800026E+04  0.46999998093E+01 0. -1.
       -5    1    3    3    0  502  0.97536211400E+03  0.89693548304E+03  0.72199905367E+03  0.15090159832E+04  0.46999998093E+01 0.  1.
</event>
<event>
 5   0  0.1503228E-07  0.3908483E+04  0.7818609E-02  0.8023267E-01
        2   -1    0    0  501    0  0.00000000000E+00  0.00000000000E+00  0.12578645542E+04  0.12578645542E+04  0.25500000920E-02 0. -1.
       -2   -1    0    0    0  501  0.00000000000E+00  0.00000000000E+00 -0.30361458751E+04  0.30361458751E+04  0.25500000920E-02 0.  1.
    10030    2    1    2    0    0  0.00000000000E+00  0.00000000000E+00 -0.17782813209E+04  0.42940104293E+04  0.39084832238E+04 0.  0.
        3    1    3    3  502    0 -0.61170270761E+02  0.37918362053E+03 -0.29942704215E+04  0.30188039664E+04  0.10100000352E+00 0.  1.
       -3    1    3    3    0  502  0.61170270761E+02 -0.37918362053E+03  0.12159891006E+04  0.12752064629E+04  0.10100000352E+00 0. -1.
</event>
<event>
 5   0  0.4750125E-08  0.3885172E+04  0.7818609E-02  0.8028120E-01
        1   -1    0    0  501    0  0.00000000000E+00  0.00000000000E+00  0.21941746872E+04  0.21941746873E+04  0.50400001928E-02 0. -1.
       -1   -1    0    0    0  501  0.00000000000E+00  0.00000000000E+00 -0.17198449755E+04  0.17198449755E+04  0.50400001928E-02 0.  1.
    10030    2    1    2    0    0  0.00000000000E+00  0.00000000000E+00  0.47432971180E+03  0.39140196627E+04  0.38851719711E+04 0.  0.
        3    1    3    3  502    0  0.11496255891E+04 -0.14749703232E+04  0.76686724675E+03  0.20212030659E+04  0.10100000352E+00 0. -1.
       -3    1    3    3    0  502 -0.11496255891E+04  0.14749703232E+04 -0.29253753495E+03  0.18928165968E+04  0.10100000352E+00 0.  1.
</event>
<event>
 5   0  0.1520986E-07  0.3943731E+04  0.7818609E-02  0.8015995E-01
        2   -1    0    0  501    0  0.00000000000E+00  0.00000000000E+00  0.26847664937E+04  0.26847664937E+04  0.25500000920E-02 0. -1.
       -2   -1    0    0    0  501  0.00000000000E+00  0.00000000000E+00 -0.14482647283E+04  0.14482647283E+04  0.25500000920E-02 0.  1.
    10030    2    1    2    0    0  0.00000000000E+00  0.00000000000E+00  0.12365017654E+04  0.41330312220E+04  0.39437305266E+04 0.  0.
        4    1    3    3  502    0 -0.13582456881E+04 -0.12738516975E+04 -0.61514134470E+02  0.18631465585E+04  0.12699999809E+01 0.  1.
       -4    1    3    3    0  502  0.13582456881E+04  0.12738516975E+04  0.12980158998E+04  0.22698846635E+04  0.12699999809E+01 0. -1.
</event>
<event>
 5   0  0.4750125E-08  0.3861145E+04  0.7818609E-02  0.8033159E-01
        1   -1    0    0  501    0  0.00000000000E+00  0.00000000000E+00  0.16752669721E+04  0.16752669721E+04  0.50400001928E-02 0.  1.
       -1   -1    0    0    0  501  0.00000000000E+00  0.00000000000E+00 -0.22247854665E+04  0.22247854665E+04  0.50400001928E-02 0. -1.
    10030    2    1    2    0    0  0.00000000000E+00  0.00000000000E+00 -0.54951849438E+03  0.39000524386E+04  0.38611447070E+04 0.  0.
        4    1    3    3  502    0 -0.17085451782E+04  0.58919775214E+03 -0.96044244345E+03  0.20466391761E+04  0.12699999809E+01 0.  1.
       -4    1    3    3    0  502  0.17085451782E+04 -0.58919775214E+03  0.41092394907E+03  0.18534132626E+04  0.12699999809E+01 0. -1.
</event>
<event>
 5   0  0.4750125E-08  0.3875010E+04  0.7818609E-02  0.8030247E-01
        1   -1    0    0  501    0  0.00000000000E+00  0.00000000000E+00  0.17650929717E+04  0.17650929717E+04  0.50400001928E-02 0. -1.
       -1   -1    0    0    0  501  0.00000000000E+00  0.00000000000E+00 -0.21267575883E+04  0.21267575883E+04  0.50400001928E-02 0.  1.
    10030    2    1    2    0    0  0.00000000000E+00  0.00000000000E+00 -0.36166461662E+03  0.38918505601E+04  0.38750096112E+04 0.  0.
        1    1    3    3  502    0  0.14027736386E+04 -0.12130981578E+04  0.38244722431E+03  0.18935804448E+04  0.50400001928E-02 0. -1.
       -1    1    3    3    0  502 -0.14027736386E+04  0.12130981578E+04 -0.74411184093E+03  0.19982701152E+04  0.50400001928E-02 0.  1.
</event>
<event>
 5   0  0.1501585E-07  0.3890499E+04  0.7818609E-02  0.8027008E-01
        2   -1    0    0  501    0  0.00000000000E+00  0.00000000000E+00  0.23850499695E+04  0.23850499695E+04  0.25500000920E-02 0. -1.
       -2   -1    0    0    0  501  0.00000000000E+00  0.00000000000E+00 -0.15865480845E+04  0.15865480845E+04  0.25500000920E-02 0.  1.
    10030    2    1    2    0    0  0.00000000000E+00  0.00000000000E+00  0.79850188500E+03  0.39715980540E+04  0.38904994335E+04 0.  0.
        5    1    3    3  502    0  0.16295008259E+04 -0.89699538161E+03  0.98041657853E+03  0.21026441482E+04  0.46999998093E+01 0. -1.
       -5    1    3    3    0  502 -0.16295008259E+04  0.89699538161E+03 -0.18191469353E+03  0.18689539058E+04  0.46999998093E+01 0.  1.
</event>
<event>
 5   0  0.4750125E-08  0.3839213E+04  0.7818609E-02  0.8037792E-01
        1   -1    0    0  501    0  0.00000000000E+00  0.00000000000E+00  0.27881320190E+04  0.27881320190E+04  0.50400001928E-02 0.  1.
       -1   -1    0    0    0  501  0.00000000000E+00  0.00000000000E+00 -0.13216338904E+04  0.13216338904E+04  0.50400001928E-02 0. -1.
    10030    2    1    2    0    0  0.00000000000E+00  0.00000000000E+00  0.14664981286E+04  0.41097659094E+04  0.38392133398E+04 0.  0.
        5    1    3    3  502    0  0.63678293235E+01 -0.17233084385E+04 -0.17193841135E+03  0.17318826261E+04  0.46999998093E+01 0. -1.
       -5    1    3    3    0  502 -0.63678293235E+01  0.17233084385E+04  0.16384365399E+04  0.23778832833E+04  0.46999998093E+01 0.  1.
</event>
<event>
 5   0  0.1503228E-07  0.3875194E+04  0.7818609E-02  0.8030208E-01
       -2   -1    0    0    0  501  0.00000000000E+00  0.00000000000E+00  0.22005239766E+04  0.22005239766E+04  0.25500000920E-02 0.  1.
        2   -1    0    0  501    0  0.00000000000E+00  0.00000000000E+00 -0.17060856033E+04  0.17060856033E+04  0.25500000920E-02 0. -1.
    10030    2    1    2    0    0  0.00000000000E+00  0.00000000000E+00  0.49443837336E+03  0.39066095799E+04  0.38751940732E+04 0.  0.
        3    1    3    3  502    0 -0.72360668756E+03 -0.16874838545E+04 -0.37672798053E+03  0.18743351832E+04  0.10100000352E+00 0. -1.
       -3    1    3    3    0  502  0.72360668756E+03  0.16874838545E+04  0.87116635389E+03  0.20322743968E+04  0.10100000352E+00 0.  1.
</event>
<event>
 5   0  0.1538018E-07  0.3902454E+04  0.7818609E-02  0.8024519E-01
        2   -1    0    0  501    0  0.00000000000E+00  0.00000000000E+00  0.24468417928E+04  0.24468417928E+04  0.25500000920E-02 0. -1.
       -2   -1    0    0    0  501  0.00000000000E+00  0.00000000000E+00 -0.15560001982E+04  0.15560001982E+04  0.25500000920E-02 0.  1.
    10030    2    1    2    0    0  0.00000000000E+00  0.00000000000E+00  0.89084159454E+03  0.40028419910E+04  0.39024537484E+04 0.  0.
        1    1    3    3  502    0 -0.34600387263E+03  0.19109111703E+04  0.64000083297E+03  0.20447252253E+04  0.50400001928E-02 0. -1.
       -1    1    3    3    0  502  0.34600387263E+03 -0.19109111703E+04  0.25084076157E+03  0.19581167658E+04  0.50400001928E-02 0.  1.
</event>
<event>
 5   0  0.4762788E-08  0.3930480E+04  0.7818609E-02  0.8018720E-01
       -1   -1    0    0    0  501  0.00000000000E+00  0.00000000000E+00  0.32129409639E+04  0.32129409639E+04  0.50400001928E-02 0. -1.
        1   -1    0    0  501    0  0.00000000000E+00  0.00000000000E+00 -0.12020663232E+04  0.12020663232E+04  0.50400001928E-02 0.  1.
    10030    2    1    2    0    0  0.00000000000E+00  0.00000000000E+00  0.20108746407E+04  0.44150072872E+04  0.39304799357E+04 0.  0.
        2    1    3    3  502    0 -0.12748035557E+04  0.79454629152E+03  0.24288259208E+04  0.28558051875E+04  0.25500000920E-02 0. -1.
       -2    1    3    3    0  502  0.12748035557E+04 -0.79454629152E+03 -0.41795128017E+03  0.15592020997E+04  0.25500000920E-02 0.  1.
</event>
<event>
 5   0  0.4762788E-08  0.3891993E+04  0.7818609E-02  0.8026697E-01
        1   -1    0    0  501    0  0.00000000000E+00  0.00000000000E+00  0.21816346430E+04  0.21816346430E+04  0.50400001928E-02 0. -1.
       -1   -1    0    0    0  501  0.00000000000E+00  0.00000000000E+00 -0.17358097253E+04  0.17358097253E+04  0.50400001928E-02 0.  1.
    10030    2    1    2    0    0  0.00000000000E+00  0.00000000000E+00  0.44582491776E+03  0.39174443683E+04  0.38919931297E+04 0.  0.
        2    1    3    3  502    0 -0.18648478203E+04 -0.22080544055E+03  0.73663244606E+03  0.20171861085E+04  0.25500000920E-02 0.  1.
       -2    1    3    3    0  502  0.18648478203E+04  0.22080544055E+03 -0.29080752829E+03  0.19002582599E+04  0.25500000920E-02 0. -1.
</event>
<event>
 5   0  0.1503228E-07  0.3628279E+04  0.7818609E-02  0.8084045E-01
        2   -1    0    0  501    0  0.00000000000E+00  0.00000000000E+00  0.19227209738E+04  0.19227209738E+04  0.25500000920E-02 0. -1.
       -2   -1    0    0    0  501  0.00000000000E+00  0.00000000000E+00 -0.17116896004E+04  0.17116896004E+04  0.25500000920E-02 0.  1.
    10030    2    1    2    0    0  0.00000000000E+00  0.00000000000E+00  0.21103137342E+03  0.36344105742E+04  0.36282786526E+04 0.  0.
        3    1    3    3  502    0 -0.11566949566E+04 -0.12771797264E+02  0.15053735317E+04  0.18984877723E+04  0.10100000352E+00 0. -1.
       -3    1    3    3    0  502  0.11566949566E+04  0.12771797264E+02 -0.12943421582E+04  0.17359228019E+04  0.10100000352E+00 0.  1.
</event>
<event>
 5   0  0.1501585E-07  0.3917952E+04  0.7818609E-02  0.8021306E-01
        2   -1    0    0  501    0  0.00000000000E+00  0.00000000000E+00  0.17943273037E+04  0.17943273037E+04  0.25500000920E-02 0.  1.
       -2   -1    0    0    0  501  0.00000000000E+00  0.00000000000E+00 -0.21387330601E+04  0.21387330601E+04  0.25500000920E-02 0. -1.
    10030    2    1    2    0    0  0.00000000000E+00  0.00000000000E+00 -0.34440575641E+03  0.39330603639E+04  0.39179520799E+04 0.  0.
        5    1    3    3  502    0  0.58846851740E+03 -0.32191910511E+03  0.16754483090E+04  0.18047371643E+04  0.46999998093E+01 0.  1.
       -5    1    3    3    0  502 -0.58846851740E+03  0.32191910511E+03 -0.20198540654E+04  0.21283231995E+04  0.46999998093E+01 0. -1.
</event>
<event>
 5   0  0.4750125E-08  0.3915305E+04  0.7818609E-02  0.8021854E-01
       -1   -1    0    0    0  501  0.00000000000E+00  0.00000000000E+00  0.23217668537E+04  0.23217668537E+04  0.50400001928E-02 0.  1.
        1   -1    0    0  501    0  0.00000000000E+00  0.00000000000E+00 -0.16506410538E+04  0.16506410538E+04  0.50400001928E-02 0. -1.
    10030    2    1    2    0    0  0.00000000000E+00  0.00000000000E+00  0.67112579989E+03  0.39724079076E+04  0.39153051918E+04 0.  0.
        4    1    3    3  502    0  0.15661345287E+04  0.10414643687E+04  0.88660154708E+03  0.20793001970E+04  0.12699999809E+01 0.  1.
       -4    1    3    3    0  502 -0.15661345287E+04 -0.10414643687E+04 -0.21547574719E+03  0.18931077105E+04  0.12699999809E+01 0. -1.
</event>
<event>
 5   0  0.4750125E-08  0.3902989E+04  0.7818609E-02  0.8024408E-01
       -1   -1    0    0    0  501  0.00000000000E+00  0.00000000000E+00  0.16700024125E+04  0.16700024125E+04  0.50400001928E-02 0. -1.
        1   -1    0    0  501    0  0.00000000000E+00  0.00000000000E+00 -0.22804337557E+04  0.22804337557E+04  0.50400001928E-02 0.  1.
    10030    2    1    2    0    0  0.00000000000E+00  0.00000000000E+00 -0.61043134328E+03  0.39504361682E+04  0.39029885337E+04 0.  0.
        4    1    3    3  502    0 -0.14065158017E+04 -0.83341920689E+03 -0.13837464494E+04  0.21418753755E+04  0.12699999809E+01 0.  1.
       -4    1    3    3    0  502  0.14065158017E+04  0.83341920689E+03  0.77331510615E+03  0.18085607928E+04  0.12699999809E+01 0. -1.
</event>
<event>
 5   0  0.4750125E-08  0.3905995E+04  0.7818609E-02  0.8023784E-01
       -1   -1    0    0    0  501  0.00000000000E+00  0.00000000000E+00  0.17833341748E+04  0.17833341748E+04  0.50400001928E-02 0.  1.
        1   -1    0    0  501    0  0.00000000000E+00  0.00000000000E+00 -0.21388018521E+04  0.21388018521E+04  0.50400001928E-02 0. -1.
    10030    2    1    2    0    0  0.00000000000E+00  0.00000000000E+00 -0.35546767734E+03  0.39221360269E+04  0.39059945909E+04 0.  0.
        1    1    3    3  502    0 -0.54233017678E+03 -0.17909633350E+04  0.38361730362E+03  0.19101921169E+04  0.50400001928E-02 0.  1.
       -1    1    3    3    0  502  0.54233017678E+03  0.17909633350E+04 -0.73908498097E+03  0.20119439100E+04  0.50400001928E-02 0. -1.
</event>
<event>
 5   0  0.4750125E-08  0.3866448E+04  0.7818609E-02  0.8032044E-01
        1   -1    0    0  501    0  0.00000000000E+00  0.00000000000E+00  0.25544700168E+04  0.25544700168E+04  0.50400001928E-02 0. -1.
       -1   -1    0    0    0  501  0.00000000000E+00  0.00000000000E+00 -0.14630649908E+04  0.14630649908E+04  0.50400001928E-02 0.  1.
    10030    2    1    2    0    0  0.00000000000E+00  0.00000000000E+00  0.10914050261E+04  0.40175350076E+04  0.38664483194E+04 0.  0.
        1    1    3    3  502    0  0.18811031320E+04  0.15898200277E+03  0.97855156608E+03  0.21263554355E+04  0.50400001928E-02 0. -1.
       -1    1    3    3    0  502 -0.18811031320E+04 -0.15898200277E+03  0.11285345999E+03  0.18911795721E+04  0.50400001928E-02 0.  1.
</event>
<event>
 5   0  0.4762788E-08  0.3482223E+04  0.7818609E-02  0.8118016E-01
       -1   -1    0    0    0  501  0.00000000000E+00  0.00000000000E+00  0.14722346263E+04  0.14722346263E+04  0.50400001928E-02 0.  1.
        1   -1    0    0  501    0  0.00000000000E+00  0.00000000000E+00 -0.20590943763E+04  0.20590943763E+04  0.50400001928E-02 0. -1.
    10030    2    1    2    0    0  0.00000000000E+00  0.00000000000E+00 -0.58685975001E+03  0.35313290026E+04  0.34822234504E+04 0.  0.
        2    1    3    3  502    0 -0.45975987224E+02 -0.12997505124E+04 -0.14673396829E+04  0.19607526440E+04  0.25500000920E-02 0. -1.
       -2    1    3    3    0  502  0.45975987224E+02  0.12997505124E+04  0.88047993293E+03  0.15705763586E+04  0.25500000920E-02 0.  1.
</event>
<event>
 5   0  0.4750125E-08  0.3778221E+04  0.7818609E-02  0.8050845E-01
        1   -1    0    0  501    0  0.00000000000E+00  0.00000000000E+00  0.11011640720E+04  0.11011640720E+04  0.50400001928E-02 0. -1.
       -1   -1    0    0    0  501  0.00000000000E+00  0.00000000000E+00 -0.32408788705E+04  0.32408788705E+04  0.50400001928E-02 0.  1.
    10030    2    1    2    0    0  0.00000000000E+00  0.00000000000E+00 -0.21397147985E+04  0.43420429426E+04  0.37782214726E+04 0.  0.
        5    1    3    3  502    0 -0.74748821105E+02  0.14837097247E+04 -0.24109323738E+04  0.28318896402E+04  0.46999998093E+01 0. -1.
       -5    1    3    3    0  502  0.74748821105E+02 -0.14837097247E+04  0.27121757530E+03  0.15101533023E+04  0.46999998093E+01 0.  1.
</event>
<event>
 5   0  0.4762788E-08  0.3898686E+04  0.7818609E-02  0.8025302E-01
        1   -1    0    0  501    0  0.00000000000E+00  0.00000000000E+00  0.12719153736E+04  0.12719153736E+04  0.50400001928E-02 0. -1.
       -1   -1    0    0    0  501  0.00000000000E+00  0.00000000000E+00 -0.29875718908E+04  0.29875718908E+04  0.50400001928E-02 0.  1.
    10030    2    1    2    0    0  0.00000000000E+00  0.00000000000E+00 -0.17156565172E+04  0.42594872644E+04  0.38986862494E+04 0.  0.
        2    1    3    3  502    0 -0.11551503988E+04 -0.12307365649E+04  0.20753050802E+03  0.17006333667E+04  0.25500000920E-02 0. -1.
       -2    1    3    3    0  502  0.11551503988E+04  0.12307365649E+04 -0.19231870252E+04  0.25588538977E+04  0.25500000920E-02 0.  1.
</event>
<event>
 5   0  0.1538018E-07  0.3880596E+04  0.7818609E-02  0.8029077E-01
       -2   -1    0    0    0  501  0.00000000000E+00  0.00000000000E+00  0.15722465588E+04  0.15722465588E+04  0.25500000920E-02 0.  1.
        2   -1    0    0  501    0  0.00000000000E+00  0.00000000000E+00 -0.23945081632E+04  0.23945081632E+04  0.25500000920E-02 0. -1.
    10030    2    1    2    0    0  0.00000000000E+00  0.00000000000E+00 -0.82226160437E+03  0.39667547220E+04  0.38805964591E+04 0.  0.
        1    1    3    3  502    0 -0.13439512303E+04  0.63594474396E+03 -0.16854553823E+04  0.22475298603E+04  0.50400001928E-02 0. -1.
       -1    1    3    3    0  502  0.13439512303E+04 -0.63594474396E+03  0.86319377796E+03  0.17192248617E+04  0.50400001928E-02 0.  1.
</event>
<event>
 5   0  0.1538018E-07  0.3867399E+04  0.7818609E-02  0.8031844E-01
        2   -1    0    0  501    0  0.00000000000E+00  0.00000000000E+00  0.28004727316E+04  0.28004727316E+04  0.25500000920E-02 0.  1.
       -2   -1    0    0    0  501  0.00000000000E+00  0.00000000000E+00 -0.13352008557E+04  0.13352008557E+04  0.25500000920E-02 0. -1.
    10030    2    1    2    0    0  0.00000000000E+00  0.00000000000E+00  0.14652718760E+04  0.41356735873E+04  0.38673989127E+04 0.  0.
        1    1    3    3  502    0  0.43138726818E+03 -0.73548726973E+03  0.25885851691E+04  0.27254008287E+04  0.50400001928E-02 0.  1.
       -1    1    3    3    0  502 -0.43138726818E+03  0.73548726973E+03 -0.11233132932E+04  0.14102727586E+04  0.50400001928E-02 0. -1.
</event>
<event>
 5   0  0.1546846E-07  0.3869689E+04  0.7818609E-02  0.8031363E-01
       -2   -1    0    0    0  501  0.00000000000E+00  0.00000000000E+00  0.16692280806E+04  0.16692280806E+04  0.25500000920E-02 0.  1.
        2   -1    0    0  501    0  0.00000000000E+00  0.00000000000E+00 -0.22427275184E+04  0.22427275184E+04  0.25500000920E-02 0. -1.
    10030    2    1    2    0    0  0.00000000000E+00  0.00000000000E+00 -0.57349943786E+03  0.39119555990E+04  0.38696892644E+04 0.  0.
        2    1    3    3  502    0 -0.12168727904E+04  0.14898910039E+04 -0.49654756335E+03  0.19867345253E+04  0.25500000920E-02 0. -1.
       -2    1    3    3    0  502  0.12168727904E+04 -0.14898910039E+04 -0.76951874505E+02  0.19252210736E+04  0.25500000920E-02 0.  1.
</event>
<event>
 5   0  0.4750125E-08  0.3571809E+04  0.7818609E-02  0.8096980E-01
       -1   -1    0    0    0  501  0.00000000000E+00  0.00000000000E+00  0.18246334656E+04  0.18246334656E+04  0.50400001928E-02 0.  1.
        1   -1    0    0  501    0  0.00000000000E+00  0.00000000000E+00 -0.17479979513E+04  0.17479979513E+04  0.50400001928E-02 0. -1.
    10030    2    1    2    0    0  0.00000000000E+00  0.00000000000E+00  0.76635514300E+02  0.35726314170E+04  0.35718093789E+04 0.  0.
        4    1    3    3  502    0 -0.16044981975E+04  0.51345914961E+03 -0.55460799520E+03  0.17735970245E+04  0.12699999809E+01 0. -1.
       -4    1    3    3    0  502  0.16044981975E+04 -0.51345914961E+03  0.63124350950E+03  0.17990343925E+04  0.12699999809E+01 0.  1.
</event>
<event>
 5   0  0.4750125E-08  0.3894938E+04  0.7818609E-02  0.8026083E-01
        1   -1    0    0  501    0  0.00000000000E+00  0.00000000000E+00  0.22696874172E+04  0.22696874172E+04  0.50400001928E-02 0. -1.
       -1   -1    0    0    0  501  0.00000000000E+00  0.00000000000E+00 -0.16709943099E+04  0.16709943099E+04  0.50400001928E-02 0.  1.
    10030    2    1    2    0    0  0.00000000000E+00  0.00000000000E+00  0.59869310726E+03  0.39406817271E+04  0.38949376166E+04 0.  0.
        4    1    3    3  502    0  0.13777493836E+04  0.17244509821E+03  0.16809252472E+04  0.21802389721E+04  0.12699999809E+01 0. -1.
       -4    1    3    3    0  502 -0.13777493836E+04 -0.17244509821E+03 -0.10822321400E+04  0.17604427550E+04  0.12699999809E+01 0.  1.
</event>
<event>
 5   0  0.4750125E-08  0.3898305E+04  0.7818609E-02  0.8025382E-01
       -1   -1    0    0    0  501  0.00000000000E+00  0.00000000000E+00  0.31745434383E+04  0.31745434383E+04  0.50400001928E-02 0.  1.
        1   -1    0    0  501    0  0.00000000000E+00  0.00000000000E+00 -0.11967689619E+04  0.11967689619E+04  0.50400001928E-02 0. -1.
    10030    2    1    2    0    0  0.00000000000E+00  0.00000000000E+00  0.19777744765E+04  0.43713124002E+04  0.38983047880E+04 0.  0.
        1    1    3    3  502    0 -0.70981557171E+03  0.14848601022E+04  0.21598910915E+04  0.27154699770E+04  0.50400001928E-02 0.  1.
       -1    1    3    3    0  502  0.70981557171E+03 -0.14848601022E+04 -0.18211661501E+03  0.16558424232E+04  0.50400001928E-02 0. -1.
</event>
<event>
 5   0  0.4762788E-08  0.3890228E+04  0.7818609E-02  0.8027065E-01
        1   -1    0    0  501    0  0.00000000000E+00  0.00000000000E+00  0.20883555369E+04  0.20883555369E+04  0.50400001928E-02 0. -1.
       -1   -1    0    0    0  501  0.00000000000E+00  0.00000000000E+00 -0.18116970790E+04  0.18116970790E+04  0.50400001928E-02 0.  1.
    10030    2    1    2    0    0  0.00000000000E+00  0.00000000000E+00  0.27665845787E+03  0.39000526159E+04  0.38902275646E+04 0.  0.
        2    1    3    3  502    0  0.79041472956E+03 -0.17283578567E+04  0.55349018801E+03  0.19794766262E+04  0.25500000920E-02 0. -1.
       -2    1    3    3    0  502 -0.79041472956E+03  0.17283578567E+04 -0.27683173014E+03  0.19205759897E+04  0.25500000920E-02 0.  1.
</event>
<event>
 5   0  0.4762788E-08  0.3908500E+04  0.7818609E-02  0.8023264E-01
       -1   -1    0    0    0  501  0.00000000000E+00  0.00000000000E+00  0.30042959265E+04  0.30042959265E+04  0.50400001928E-02 0.  1.
        1   -1    0    0  501    0  0.00000000000E+00  0.00000000000E+00 -0.12712106590E+04  0.12712106590E+04  0.50400001928E-02 0. -1.
    10030    2    1    2    0    0  0.00000000000E+00  0.00000000000E+00  0.17330852675E+04  0.42755065855E+04  0.39084999704E+04 0.  0.
        2    1    3    3  502    0  0.41441270405E+03 -0.11417326484E+04 -0.80816074631E+03  0.14589088805E+04  0.25500000920E-02 0. -1.
       -2    1    3    3    0  502 -0.41441270405E+03  0.11417326484E+04  0.25412460138E+04  0.28165977051E+04  0.25500000920E-02 0.  1.
</event>
<event>
 5   0  0.1503228E-07  0.3900520E+04  0.7818609E-02  0.8024921E-01
       -2   -1    0    0    0  501  0.00000000000E+00  0.00000000000E+00  0.13365311465E+04  0.13365311465E+04  0.25500000920E-02 0. -1.
        2   -1    0    0  501    0  0.00000000000E+00  0.00000000000E+00 -0.28458106525E+04  0.28458106525E+04  0.25500000920E-02 0.  1.
    10030    2    1    2    0    0  0.00000000000E+00  0.00000000000E+00 -0.15092795060E+04  0.41823417990E+04  0.39005202597E+04 0.  0.
        3    1    3    3  502    0 -0.14466304393E+04  0.71890287279E+03  0.41699085328E+03  0.16683651730E+04  0.10100000352E+00 0. -1.
       -3    1    3    3    0  502  0.14466304393E+04 -0.71890287279E+03 -0.19262703593E+04  0.25139766260E+04  0.10100000352E+00 0.  1.
</event>
<event>
 5   0  0.1538018E-07  0.3957092E+04  0.7818609E-02  0.8013259E-01
        2   -1    0    0  501    0  0.00000000000E+00  0.00000000000E+00  0.25686154129E+04  0.25686154129E+04  0.25500000920E-02 0.  1.
       -2   -1    0    0    0  501  0.00000000000E+00  0.00000000000E+00 -0.15240285850E+04  0.15240285850E+04  0.25500000920E-02 0. -1.
    10030    2    1    2    0    0  0.00000000000E+00  0.00000000000E+00  0.10445868279E+04  0.40926439979E+04  0.39570915143E+04 0.  0.
        1    1    3    3  502    0 -0.34653037968E+03  0.17835008791E+04 -0.28792198930E+03  0.18395265048E+04  0.50400001928E-02 0.  1.
       -1    1    3    3    0  502  0.34653037968E+03 -0.17835008791E+04  0.13325088172E+04  0.22531174931E+04  0.50400001928E-02 0. -1.
</event>
<event>
 5   0  0.1503228E-07  0.3768678E+04  0.7818609E-02  0.8052910E-01
       -2   -1    0    0    0  501  0.00000000000E+00  0.00000000000E+00  0.24063640768E+04  0.24063640768E+04  0.25500000920E-02 0.  1.
        2   -1    0    0  501    0  0.00000000000E+00  0.00000000000E+00 -0.14755596129E+04  0.14755596129E+04  0.25500000920E-02 0. -1.
    10030    2    1    2    0    0  0.00000000000E+00  0.00000000000E+00  0.93080446394E+03  0.38819236897E+04  0.37686780949E+04 0.  0.
        3    1    3    3  502    0 -0.78968263934E+03  0.83336763510E+03  0.20045015802E+04  0.23100058185E+04  0.10100000352E+00 0.  1.
       -3    1    3    3    0  502  0.78968263934E+03 -0.83336763510E+03 -0.10736971163E+04  0.15719178712E+04  0.10100000352E+00 0. -1.
</event>
<event>
 5   0  0.4750125E-08  0.3867748E+04  0.7818609E-02  0.8031771E-01
        1   -1    0    0  501    0  0.00000000000E+00  0.00000000000E+00  0.26415618105E+04  0.26415618105E+04  0.50400001928E-02 0. -1.
       -1   -1    0    0    0  501  0.00000000000E+00  0.00000000000E+00 -0.14157796842E+04  0.14157796842E+04  0.50400001928E-02 0.  1.
    10030    2    1    2    0    0  0.00000000000E+00  0.00000000000E+00  0.12257821263E+04  0.40573414947E+04  0.38677484644E+04 0.  0.
        1    1    3    3  502    0  0.13158006625E+02 -0.39925862830E+03 -0.13720260675E+04  0.14289982909E+04  0.50400001928E-02 0.  1.
       -1    1    3    3    0  502 -0.13158006625E+02  0.39925862830E+03  0.25978081938E+04  0.26283432038E+04  0.50400001928E-02 0. -1.
</event>
<event>
 5   0  0.1546846E-07  0.3912581E+04  0.7818609E-02  0.8022418E-01
       -2   -1    0    0    0  501  0.00000000000E+00  0.00000000000E+00  0.17077485835E+04  0.17077485835E+04  0.25500000920E-02 0. -1.
        2   -1    0    0  501    0  0.00000000000E+00  0.00000000000E+00 -0.22410049779E+04  0.22410049779E+04  0.25500000920E-02 0.  1.
    10030    2    1    2    0    0  0.00000000000E+00  0.00000000000E+00 -0.53325639445E+03  0.39487535614E+04  0.39125812843E+04 0.  0.
        2    1    3    3  502    0  0.89973101471E+03 -0.40311956813E+03 -0.19719394306E+04  0.22046692276E+04  0.25500000920E-02 0.  1.
       -2    1    3    3    0  502 -0.89973101471E+03  0.40311956813E+03  0.14386830361E+04  0.17440843338E+04  0.25500000920E-02 0. -1.
</event>
<event>
 5   0  0.1546846E-07  0.3908013E+04  0.7818609E-02  0.8023365E-01
       -2   -1    0    0    0  501  0.00000000000E+00  0.00000000000E+00  0.27882221209E+04  0.27882221209E+04  0.25500000920E-02 0.  1.
        2   -1    0    0  501    0  0.00000000000E+00  0.00000000000E+00 -0.13693821180E+04  0.13693821180E+04  0.25500000920E-02 0. -1.
    10030    2    1    2    0    0  0.00000000000E+00  0.00000000000E+00  0.14188400029E+04  0.41576042389E+04  0.39080130570E+04 0.  0.
        2    1    3    3  502    0  0.99809914568E+03 -0.63323022117E+03 -0.94589582135E+03  0.15139026793E+04  0.25500000920E-02 0. -1.
       -2    1    3    3    0  502 -0.99809914568E+03  0.63323022117E+03  0.23647358242E+04  0.26437015595E+04  0.25500000920E-02 0.  1.
</event>
<event>
 5   0  0.4750125E-08  0.3879555E+04  0.7818609E-02  0.8029295E-01
       -1   -1    0    0    0  501  0.00000000000E+00  0.00000000000E+00  0.15625450031E+04  0.15625450031E+04  0.50400001928E-02 0.  1.
        1   -1    0    0  501    0  0.00000000000E+00  0.00000000000E+00 -0.24080826909E+04  0.24080826909E+04  0.50400001928E-02 0. -1.
    10030    2    1    2    0    0  0.00000000000E+00  0.00000000000E+00 -0.84553768779E+03  0.39706276940E+04  0.38795554259E+04 0.  0.
        1    1    3    3  502    0 -0.52315773425E+03  0.17986388530E+04  0.92987210782E+02  0.18754845667E+04  0.50400001928E-02 0.  1.
       -1    1    3    3    0  502  0.52315773425E+03 -0.17986388530E+04 -0.93852489858E+03  0.20951431273E+04  0.50400001928E-02 0. -1.
</event>
<event>
 5   0  0.4750125E-08  0.3897315E+04  0.7818609E-02  0.8025588E-01
       -1   -1    0    0    0  501  0.00000000000E+00  0.00000000000E+00  0.16169134193E+04  0.16169134193E+04  0.50400001928E-02 0. -1.
        1   -1    0    0  501    0  0.00000000000E+00  0.00000000000E+00 -0.23484664168E+04  0.23484664168E+04  0.50400001928E-02 0.  1.
    10030    2    1    2    0    0  0.00000000000E+00  0.00000000000E+00 -0.73155299750E+03  0.39653798362E+04  0.38973154167E+04 0.  0.
        4    1    3    3  502    0  0.42495852695E+03  0.53294345849E+03 -0.22232125945E+04  0.23253589686E+04  0.12699999809E+01 0.  1.
       -4    1    3    3    0  502 -0.42495852695E+03 -0.53294345849E+03  0.14916595970E+04  0.16400208675E+04  0.12699999809E+01 0. -1.
</event>
<event>
 5   0  0.4750125E-08  0.3883416E+04  0.7818609E-02  0.8028487E-01
        3   -1    0    0  501    0  0.00000000000E+00  0.00000000000E+00  0.25070512779E+04  0.25070512799E+04  0.10100000352E+00 0.  1.
       -3   -1    0    0    0  501  0.00000000000E+00  0.00000000000E+00 -0.15038502236E+04  0.15038502269E+04  0.10100000352E+00 0. -1.
    10030    2    1    2    0    0  0.00000000000E+00  0.00000000000E+00  0.10032010543E+04  0.40109015069E+04  0.38834158343E+04 0.  0.
        4    1    3    3  502    0  0.17000050913E+04  0.86435664168E+03  0.12479751310E+03  0.19112053125E+04  0.12699999809E+01 0.  1.
       -4    1    3    3    0  502 -0.17000050913E+04 -0.86435664168E+03  0.87840354124E+03  0.20996961944E+04  0.12699999809E+01 0. -1.
</event>
<event>
 5   0  0.1520986E-07  0.3649593E+04  0.7818609E-02  0.8079225E-01
       -2   -1    0    0    0  501  0.00000000000E+00  0.00000000000E+00  0.27130038618E+04  0.27130038618E+04  0.25500000920E-02 0. -1.
        2   -1    0    0  501    0  0.00000000000E+00  0.00000000000E+00 -0.12273785571E+04  0.12273785571E+04  0.25500000920E-02 0.  1.
    10030    2    1    2    0    0  0.00000000000E+00  0.00000000000E+00  0.14856253047E+04  0.39403824189E+04  0.36495932734E+04 0.  0.
        4    1    3    3  502    0 -0.10543549881E+04 -0.14190255076E+04  0.25446509845E+03  0.17860716478E+04  0.12699999809E+01 0.  1.
       -4    1    3    3    0  502  0.10543549881E+04  0.14190255076E+04  0.12311602063E+04  0.21543107711E+04  0.12699999809E+01 0. -1.
</event>
<event>
 5   0  0.4750125E-08  0.3884970E+04  0.7818609E-02  0.8028162E-01
       -1   -1    0    0    0  501  0.00000000000E+00  0.00000000000E+00  0.20221376827E+04  0.20221376827E+04  0.50400001928E-02 0.  1.
        1   -1    0    0  501    0  0.00000000000E+00  0.00000000000E+00 -0.18659700425E+04  0.18659700425E+04  0.50400001928E-02 0. -1.
    10030    2    1    2    0    0  0.00000000000E+00  0.00000000000E+00  0.15616764022E+03  0.38881077252E+04  0.38849701867E+04 0.  0.
        5    1    3    3  502    0  0.72701551336E+03  0.17725952217E+04  0.39862496971E+03  0.19569285457E+04  0.46999998093E+01 0.  1.
       -5    1    3    3    0  502 -0.72701551336E+03 -0.17725952217E+04 -0.24245732949E+03  0.19311791795E+04  0.46999998093E+01 0. -1.
</event>
<event>
 5   0  0.1538018E-07  0.3905552E+04  0.7818609E-02  0.8023875E-01
       -2   -1    0    0    0  501  0.00000000000E+00  0.00000000000E+00  0.15351681515E+04  0.15351681515E+04  0.25500000920E-02 0.  1.
        2   -1    0    0  501    0  0.00000000000E+00  0.00000000000E+00 -0.24839849792E+04  0.24839849792E+04  0.25500000920E-02 0. -1.
    10030    2    1    2    0    0  0.00000000000E+00  0.00000000000E+00 -0.94881682769E+03  0.40191531307E+04  0.39055522677E+04 0.  0.
        1    1    3    3  502    0  0.15962809098E+03  0.97131983058E+02  0.15259469275E+04  0.15373450411E+04  0.50400001928E-02 0.  1.
       -1    1    3    3    0  502 -0.15962809098E+03 -0.97131983058E+02 -0.24747637552E+04  0.24818080896E+04  0.50400001928E-02 0. -1.
</event>
<event>
 5   0  0.4750125E-08  0.3897102E+04  0.7818609E-02  0.8025632E-01
        1   -1    0    0  501    0  0.00000000000E+00  0.00000000000E+00  0.23476150115E+04  0.23476150115E+04  0.50400001928E-02 0. -1.
       -1   -1    0    0    0  501  0.00000000000E+00  0.00000000000E+00 -0.16173227987E+04  0.16173227987E+04  0.50400001928E-02 0.  1.
    10030    2    1    2    0    0  0.00000000000E+00  0.00000000000E+00  0.73029221275E+03  0.39649378102E+04  0.38971021442E+04 0.  0.
        5    1    3    3  502    0  0.17981689219E+04  0.57551337140E+03  0.85540744001E+03  0.20727689429E+04  0.46999998093E+01 0. -1.
       -5    1    3    3    0  502 -0.17981689219E+04 -0.57551337140E+03 -0.12511522726E+03  0.18921688673E+04  0.46999998093E+01 0.  1.
</event>
<event>
 5   0  0.4750125E-08  0.3834882E+04  0.7818609E-02  0.8038710E-01
        1   -1    0    0  501    0  0.00000000000E+00  0.00000000000E+00  0.15259803344E+04  0.15259803344E+04  0.50400001928E-02 0.  1.
       -1   -1    0    0    0  501  0.00000000000E+00  0.00000000000E+00 -0.24093237953E+04  0.24093237953E+04  0.50400001928E-02 0. -1.
    10030    2    1    2    0    0  0.00000000000E+00  0.00000000000E+00 -0.88334346090E+03  0.39353041296E+04  0.38348823871E+04 0.  0.
        3    1    3    3  502    0 -0.81632554688E+03 -0.19732319405E+02 -0.22219806051E+04  0.23672715481E+04  0.10100000352E+00 0. -1.
       -3    1    3    3    0  502  0.81632554688E+03  0.19732319405E+02  0.13386371442E+04  0.15680325816E+04  0.10100000352E+00 0.  1.
</event>
<event>
 5   0  0.4750125E-08  0.3900853E+04  0.7818609E-02  0.8024852E-01
       -1   -1    0    0    0  501  0.00000000000E+00  0.00000000000E+00  0.13691318782E+04  0.13691318782E+04  0.50400001928E-02 0.  1.
        1   -1    0    0  501    0  0.00000000000E+00  0.00000000000E+00 -0.27785226069E+04  0.27785226069E+04  0.50400001928E-02 0. -1.
    10030    2    1    2    0    0  0.00000000000E+00  0.00000000000E+00 -0.14093907286E+04  0.41476544851E+04  0.39008531762E+04 0.  0.
        3    1    3    3  502    0  0.20370435616E+03 -0.15477738830E+04 -0.19478852118E+04  0.24962684684E+04  0.10100000352E+00 0. -1.
       -3    1    3    3    0  502 -0.20370435616E+03  0.15477738830E+04  0.53849448317E+03  0.16513860167E+04  0.10100000352E+00 0.  1.
</event>
<event>
 5   0  0.4750125E-08  0.3842399E+04  0.7818609E-02  0.8037117E-01
       -3   -1    0    0    0  501  0.00000000000E+00  0.00000000000E+00  0.18464707451E+04  0.18464707479E+04  0.10100000352E+00 0. -1.
        3   -1    0    0  501    0  0.00000000000E+00  0.00000000000E+00 -0.19989522661E+04  0.19989522687E+04  0.10100000352E+00 0.  1.
    10030    2    1    2    0    0  0.00000000000E+00  0.00000000000E+00 -0.15248152100E+03  0.38454230165E+04  0.38423986729E+04 0.  0.
        5    1    3    3  502    0  0.18863462547E+04 -0.22745356159E+03 -0.36097741489E+03  0.19340020940E+04  0.46999998093E+01 0.  1.
       -5    1    3    3    0  502 -0.18863462547E+04  0.22745356159E+03  0.20849589389E+03  0.19114209225E+04  0.46999998093E+01 0. -1.
</event>
<event>
 5   0  0.1520986E-07  0.3888770E+04  0.7818609E-02  0.8027369E-01
        2   -1    0    0  501    0  0.00000000000E+00  0.00000000000E+00  0.10625566086E+04  0.10625566086E+04  0.25500000920E-02 0.  1.
       -2   -1    0    0    0  501  0.00000000000E+00  0.00000000000E+00 -0.35580528183E+04  0.35580528183E+04  0.25500000920E-02 0. -1.
    10030    2    1    2    0    0  0.00000000000E+00  0.00000000000E+00 -0.24954962097E+04  0.46206094268E+04  0.38887697467E+04 0.  0.
        4    1    3    3  502    0  0.14663167353E+04  0.12756644926E+04 -0.11802585588E+04  0.22738549963E+04  0.12699999809E+01 0. -1.
       -4    1    3    3    0  502 -0.14663167353E+04 -0.12756644926E+04 -0.13152376510E+04  0.23467544305E+04  0.12699999809E+01 0.  1.
</event>
<event>
 5   0  0.1503228E-07  0.3908312E+04  0.7818609E-02  0.8023303E-01
        2   -1    0    0  501    0  0.00000000000E+00  0.00000000000E+00  0.20325279988E+04  0.20325279988E+04  0.25500000920E-02 0. -1.
       -2   -1    0    0    0  501  0.00000000000E+00  0.00000000000E+00 -0.18788061233E+04  0.18788061233E+04  0.25500000920E-02 0.  1.
    10030    2    1    2    0    0  0.00000000000E+00  0.00000000000E+00  0.15372187547E+03  0.39113341222E+04  0.39083121933E+04 0.  0.
        3    1    3    3  502    0  0.98107813339E+03 -0.16231941755E+04  0.54781209607E+03  0.19741762176E+04  0.10100000352E+00 0. -1.
       -3    1    3    3    0  502 -0.98107813339E+03  0.16231941755E+04 -0.39409022061E+03  0.19371579046E+04  0.10100000352E+00 0.  1.
</event>
<event>
 5   0  0.1546846E-07  0.3888860E+04  0.7818609E-02  0.8027350E-01
        2   -1    0    0  501    0  0.00000000000E+00  0.00000000000E+00  0.22612609238E+04  0.22612609238E+04  0.25500000920E-02 0.  1.
       -2   -1    0    0    0  501  0.00000000000E+00  0.00000000000E+00 -0.16719912436E+04  0.16719912436E+04  0.25500000920E-02 0. -1.
    10030    2    1    2    0    0  0.00000000000E+00  0.00000000000E+00  0.58926968020E+03  0.39332521674E+04  0.38888602259E+04 0.  0.
        2    1    3    3  502    0 -0.11271497633E+04  0.11570240304E+04  0.13894127997E+04  0.21306428898E+04  0.25500000920E-02 0.  1.
       -2    1    3    3    0  502  0.11271497633E+04 -0.11570240304E+04 -0.80014311952E+03  0.18026092776E+04  0.25500000920E-02 0. -1.
</event>
<event>
 5   0  0.1538018E-07  0.3905065E+04  0.7818609E-02  0.8023977E-01
       -2   -1    0    0    0  501  0.00000000000E+00  0.00000000000E+00  0.19467756768E+04  0.19467756768E+04  0.25500000920E-02 0.  1.
        2   -1    0    0  501    0  0.00000000000E+00  0.00000000000E+00 -0.19583059011E+04  0.19583059011E+04  0.25500000920E-02 0. -1.
    10030    2    1    2    0    0  0.00000000000E+00  0.00000000000E+00 -0.11530224217E+02  0.39050815779E+04  0.39050645557E+04 0.  0.
        1    1    3    3  502    0 -0.13985877125E+04  0.11044117618E+04 -0.80364663011E+03  0.19548966303E+04  0.50400001928E-02 0. -1.
       -1    1    3    3    0  502  0.13985877125E+04 -0.11044117618E+04  0.79211640589E+03  0.19501849476E+04  0.50400001928E-02 0.  1.
</event>
<event>
 5   0  0.1501585E-07  0.3902457E+04  0.7818609E-02  0.8024518E-01
       -2   -1    0    0    0  501  0.00000000000E+00  0.00000000000E+00  0.14001810707E+04  0.14001810707E+04  0.25500000920E-02 0. -1.
        2   -1    0    0  501    0  0.00000000000E+00  0.00000000000E+00 -0.27191432235E+04  0.27191432235E+04  0.25500000920E-02 0.  1.
    10030    2    1    2    0    0  0.00000000000E+00  0.00000000000E+00 -0.13189621528E+04  0.41193242942E+04  0.39024571081E+04 0.  0.
        5    1    3    3  502    0 -0.43220659626E+03  0.85225572167E+03 -0.24552346691E+04  0.26346426185E+04  0.46999998093E+01 0.  1.
       -5    1    3    3    0  502  0.43220659626E+03 -0.85225572167E+03  0.11362725163E+04  0.14846816757E+04  0.46999998093E+01 0. -1.
</event>
<event>
 5   0  0.1503228E-07  0.3895198E+04  0.7818609E-02  0.8026029E-01
        2   -1    0    0  501    0  0.00000000000E+00  0.00000000000E+00  0.23086070612E+04  0.23086070612E+04  0.25500000920E-02 0.  1.
       -2   -1    0    0    0  501  0.00000000000E+00  0.00000000000E+00 -0.16430436115E+04  0.16430436115E+04  0.25500000920E-02 0. -1.
    10030    2    1    2    0    0  0.00000000000E+00  0.00000000000E+00  0.66556344971E+03  0.39516506728E+04  0.38951981123E+04 0.  0.
        3    1    3    3  502    0  0.18152514385E+04 -0.72346792054E+02 -0.37936786107E+03  0.18558803376E+04  0.10100000352E+00 0. -1.
       -3    1    3    3    0  502 -0.18152514385E+04  0.72346792054E+02  0.10449313108E+04  0.20957703352E+04  0.10100000352E+00 0.  1.
</event>
<event>
 5   0  0.4750125E-08  0.3945874E+04  0.7818609E-02  0.8015555E-01
       -1   -1    0    0    0  501  0.00000000000E+00  0.00000000000E+00  0.19172007294E+04  0.19172007294E+04  0.50400001928E-02 0.  1.
        1   -1    0    0  501    0  0.00000000000E+00  0.00000000000E+00 -0.20302931858E+04  0.20302931858E+04  0.50400001928E-02 0. -1.
    10030    2    1    2    0    0  0.00000000000E+00  0.00000000000E+00 -0.11309245642E+03  0.39474939152E+04  0.39458735796E+04 0.  0.
        3    1    3    3  502    0 -0.15716706709E+04 -0.10354136038E+04  0.53551563522E+03  0.19567848718E+04  0.10100000352E+00 0.  1.
       -3    1    3    3    0  502  0.15716706709E+04  0.10354136038E+04 -0.64860809164E+03  0.19907090434E+04  0.10100000352E+00 0. -1.
</event>
<event>
 5   0  0.4750125E-08  0.3852324E+04  0.7818609E-02  0.8035019E-01
       -1   -1    0    0    0  501  0.00000000000E+00  0.00000000000E+00  0.13200306053E+04  0.13200306053E+04  0.50400001928E-02 0. -1.
        1   -1    0    0  501    0  0.00000000000E+00  0.00000000000E+00 -0.28106172607E+04  0.28106172607E+04  0.50400001928E-02 0.  1.
    10030    2    1    2    0    0  0.00000000000E+00  0.00000000000E+00 -0.14905866554E+04  0.41306478660E+04  0.38523243912E+04 0.  0.
        3    1    3    3  502    0 -0.61519324279E+03 -0.16167716408E+04 -0.16536638299E+04  0.23931187469E+04  0.10100000352E+00 0.  1.
       -3    1    3    3    0  502  0.61519324279E+03  0.16167716408E+04  0.16307717452E+03  0.17375291190E+04  0.10100000352E+00 0. -1.
</event>
<event>
 5   0  0.4750125E-08  0.3880193E+04  0.7818609E-02  0.8029161E-01
       -1   -1    0    0    0  501  0.00000000000E+00  0.00000000000E+00  0.21932145449E+04  0.21932145449E+04  0.50400001928E-02 0.  1.
        1   -1    0    0  501    0  0.00000000000E+00  0.00000000000E+00 -0.17161910695E+04  0.17161910695E+04  0.50400001928E-02 0. -1.
    10030    2    1    2    0    0  0.00000000000E+00  0.00000000000E+00  0.47702347538E+03  0.39094056144E+04  0.38801934052E+04 0.  0.
        5    1    3    3  502    0  0.10228451400E+04 -0.66962373576E+02 -0.14210859614E+04  0.17521996289E+04  0.46999998093E+01 0. -1.
       -5    1    3    3    0  502 -0.10228451400E+04  0.66962373576E+02  0.18981094368E+04  0.21572059855E+04  0.46999998093E+01 0.  1.
</event>
<event>
 5   0  0.4750125E-08  0.3903001E+04  0.7818609E-02  0.8024405E-01
       -1   -1    0    0    0  501  0.00000000000E+00  0.00000000000E+00  0.14395070605E+04  0.14395070605E+04  0.50400001928E-02 0. -1.
        1   -1    0    0  501    0  0.00000000000E+00  0.00000000000E+00 -0.26455959358E+04  0.26455959358E+04  0.50400001928E-02 0.  1.
    10030    2    1    2    0    0  0.00000000000E+00  0.00000000000E+00 -0.12060888752E+04  0.40851029963E+04  0.39030009115E+04 0.  0.
        5    1    3    3  502    0  0.70841156131E+03 -0.30778831940E+03  0.12727071194E+04  0.14887532004E+04  0.46999998093E+01 0. -1.
       -5    1    3    3    0  502 -0.70841156131E+03  0.30778831940E+03 -0.24787959947E+04  0.25963497959E+04  0.46999998093E+01 0.  1.
</event>
<event>
 5   0  0.1546846E-07  0.3884719E+04  0.7818609E-02  0.8028215E-01
        2   -1    0    0  501    0  0.00000000000E+00  0.00000000000E+00  0.15347167163E+04  0.15347167163E+04  0.25500000920E-02 0. -1.
       -2   -1    0    0    0  501  0.00000000000E+00  0.00000000000E+00 -0.24582786043E+04  0.24582786043E+04  0.25500000920E-02 0.  1.
    10030    2    1    2    0    0  0.00000000000E+00  0.00000000000E+00 -0.92356188802E+03  0.39929953206E+04  0.38847194325E+04 0.  0.
        2    1    3    3  502    0 -0.17567654738E+04 -0.15348405554E+03  0.37514883987E+03  0.18029195593E+04  0.25500000920E-02 0. -1.
       -2    1    3    3    0  502  0.17567654738E+04  0.15348405554E+03 -0.12987107279E+04  0.21900757612E+04  0.25500000920E-02 0.  1.
</event>
<event>
 5   0  0.1503228E-07  0.3871984E+04  0.7818609E-02  0.8030881E-01
        2   -1    0    0  501    0  0.00000000000E+00  0.00000000000E+00  0.20543938083E+04  0.20543938083E+04  0.25500000920E-02 0. -1.
       -2   -1    0    0    0  501  0.00000000000E+00  0.00000000000E+00 -0.18244142994E+04  0.18244142994E+04  0.25500000920E-02 0.  1.
    10030    2    1    2    0    0  0.00000000000E+00  0.00000000000E+00  0.22997950888E+03  0.38788081077E+04  0.38719842151E+04 0.  0.
        3    1    3    3  502    0 -0.84123448648E+03  0.83046680060E+03  0.16508959531E+04  0.20304699028E+04  0.10100000352E+00 0. -1.
       -3    1    3    3    0  502  0.84123448648E+03 -0.83046680060E+03 -0.14209164442E+04  0.18483382049E+04  0.10100000352E+00 0.  1.
</event>
<event>
 5   0  0.4750125E-08  0.3905352E+04  0.7818609E-02  0.8023917E-01
        1   -1    0    0  501    0  0.00000000000E+00  0.00000000000E+00  0.20747671816E+04  0.20747671816E+04  0.50400001928E-02 0. -1.
       -1   -1    0    0    0  501  0.00000000000E+00  0.00000000000E+00 -0.18377689668E+04  0.18377689668E+04  0.50400001928E-02 0.  1.
    10030    2    1    2    0    0  0.00000000000E+00  0.00000000000E+00  0.23699821479E+03  0.39125361485E+04  0.39053515795E+04 0.  0.
        3    1    3    3  502    0 -0.16102840925E+04 -0.72498820947E+03  0.95329067424E+03  0.20068347920E+04  0.10100000352E+00 0. -1.
       -3    1    3    3    0  502  0.16102840925E+04  0.72498820947E+03 -0.71629245945E+03  0.19057013565E+04  0.10100000352E+00 0.  1.
</event>
<event>
 5   0  0.4762788E-08  0.3862836E+04  0.7818609E-02  0.8032803E-01
       -1   -1    0    0    0  501  0.00000000000E+00  0.00000000000E+00  0.16936930795E+04  0.16936930795E+04  0.50400001928E-02 0.  1.
        1   -1    0    0  501    0  0.00000000000E+00  0.00000000000E+00 -0.22025099714E+04  0.22025099714E+04  0.50400001928E-02 0. -1.
    10030    2    1    2    0    0  0.00000000000E+00  0.00000000000E+00 -0.50881689185E+03  0.38962030509E+04  0.38628362099E+04 0.  0.
        2    1    3    3  502    0 -0.11682267482E+04 -0.45606640700E+03  0.12271654953E+04  0.17546183219E+04  0.25500000920E-02 0.  1.
       -2    1    3    3    0  502  0.11682267482E+04  0.45606640700E+03 -0.17359823871E+04  0.21415847290E+04  0.25500000920E-02 0. -1.
</event>
<event>
 5   0  0.1546846E-07  0.3860781E+04  0.7818609E-02  0.8033236E-01
       -2   -1    0    0    0  501  0.00000000000E+00  0.00000000000E+00  0.22238470973E+04  0.22238470973E+04  0.25500000920E-02 0.  1.
        2   -1    0    0  501    0  0.00000000000E+00  0.00000000000E+00 -0.16756577975E+04  0.16756577975E+04  0.25500000920E-02 0. -1.
    10030    2    1    2    0    0  0.00000000000E+00  0.00000000000E+00  0.54818929978E+03  0.38995048948E+04  0.38607806097E+04 0.  0.
        2    1    3    3  502    0  0.60346186100E+03  0.17789195812E+04  0.72317277690E+03  0.20128834937E+04  0.25500000920E-02 0.  1.
       -2    1    3    3    0  502 -0.60346186100E+03 -0.17789195812E+04 -0.17498347711E+03  0.18866214011E+04  0.25500000920E-02 0. -1.
</event>
<event>
 5   0  0.4750125E-08  0.3904659E+04  0.7818609E-02  0.8024061E-01
        1   -1    0    0  501    0  0.00000000000E+00  0.00000000000E+00  0.26416267946E+04  0.26416267946E+04  0.50400001928E-02 0. -1.
       -1   -1    0    0    0  501  0.00000000000E+00  0.00000000000E+00 -0.14428955109E+04  0.14428955109E+04  0.50400001928E-02 0.  1.
    10030    2    1    2    0    0  0.00000000000E+00  0.00000000000E+00  0.11987312837E+04  0.40845223055E+04  0.39046594952E+04 0.  0.
        4    1    3    3  502    0  0.44898050104E+03 -0.32608968012E+03 -0.13586665032E+04  0.14676151572E+04  0.12699999809E+01 0.  1.
       -4    1    3    3    0  502 -0.44898050104E+03  0.32608968012E+03  0.25573977868E+04  0.26169071483E+04  0.12699999809E+01 0. -1.
</event>
<event>
 5   0  0.1538018E-07  0.3915500E+04  0.7818609E-02  0.8021813E-01
        2   -1    0    0  501    0  0.00000000000E+00  0.00000000000E+00  0.23680415533E+04  0.23680415533E+04  0.25500000920E-02 0. -1.
       -2   -1    0    0    0  501  0.00000000000E+00  0.00000000000E+00 -0.16185461501E+04  0.16185461501E+04  0.25500000920E-02 0.  1.
    10030    2    1    2    0    0  0.00000000000E+00  0.00000000000E+00  0.74949540318E+03  0.39865877034E+04  0.39154997328E+04 0.  0.
        1    1    3    3  502    0 -0.18648544114E+04 -0.10458616288E+03  0.97205391519E+03  0.21055899542E+04  0.50400001928E-02 0. -1.
       -1    1    3    3    0  502  0.18648544114E+04  0.10458616288E+03 -0.22255851201E+03  0.18809977492E+04  0.50400001928E-02 0.  1.
</event>
<event>
 5   0  0.4750125E-08  0.3890139E+04  0.7818609E-02  0.8027083E-01
       -1   -1    0    0    0  501  0.00000000000E+00  0.00000000000E+00  0.19666008147E+04  0.19666008147E+04  0.50400001928E-02 0.  1.
        1   -1    0    0  501    0  0.00000000000E+00  0.00000000000E+00 -0.19237737806E+04  0.19237737806E+04  0.50400001928E-02 0. -1.
    10030    2    1    2    0    0  0.00000000000E+00  0.00000000000E+00  0.42827034111E+02  0.38903745952E+04  0.38901388582E+04 0.  0.
        4    1    3    3  502    0  0.14439697768E+03 -0.20956440286E+03 -0.19070512697E+04  0.19239578697E+04  0.12699999809E+01 0. -1.
       -4    1    3    3    0  502 -0.14439697768E+03  0.20956440286E+03  0.19498783038E+04  0.19664167256E+04  0.12699999809E+01 0.  1.
</event>
<event>
 5   0  0.4750125E-08  0.3609412E+04  0.7818609E-02  0.8088339E-01
        1   -1    0    0  501    0  0.00000000000E+00  0.00000000000E+00  0.21121022836E+04  0.21121022836E+04  0.50400001928E-02 0. -1.
       -1   -1    0    0    0  501  0.00000000000E+00  0.00000000000E+00 -0.15420485218E+04  0.15420485218E+04  0.50400001928E-02 0.  1.
    10030    2    1    2    0    0  0.00000000000E+00  0.00000000000E+00  0.57005376176E+03  0.36541508054E+04  0.36094122537E+04 0.  0.
        3    1    3    3  502    0  0.15308332884E+04 -0.21696647463E+03 -0.65733784407E+03  0.16800648974E+04  0.10100000352E+00 0.  1.
       -3    1    3    3    0  502 -0.15308332884E+04  0.21696647463E+03  0.12273916058E+04  0.19740859080E+04  0.10100000352E+00 0. -1.
</event>
<event>
 5   0  0.4762788E-08  0.3887871E+04  0.7818609E-02  0.8027557E-01
        1   -1    0    0  501    0  0.00000000000E+00  0.00000000000E+00  0.18745839986E+04  0.18745839986E+04  0.50400001928E-02 0. -1.
       -1   -1    0    0    0  501  0.00000000000E+00  0.00000000000E+00 -0.20158524219E+04  0.20158524219E+04  0.50400001928E-02 0.  1.
    10030    2    1    2    0    0  0.00000000000E+00  0.00000000000E+00 -0.14126842327E+03  0.38904364206E+04  0.38878707251E+04 0.  0.
        2    1    3    3  502    0  0.10874551102E+04  0.15932793713E+04 -0.31118195534E+03  0.19539529117E+04  0.25500000920E-02 0.  1.
       -2    1    3    3    0  502 -0.10874551102E+04 -0.15932793713E+04  0.16991353207E+03  0.19364835089E+04  0.25500000920E-02 0. -1.
</event>
<event>
 5   0  0.1538018E-07  0.3907830E+04  0.7818609E-02  0.8023403E-01
       -2   -1    0    0    0  501  0.00000000000E+00  0.00000000000E+00  0.23759604489E+04  0.23759604489E+04  0.25500000920E-02 0.  1.
        2   -1    0    0  501    0  0.00000000000E+00  0.00000000000E+00 -0.16068377824E+04  0.16068377824E+04  0.25500000920E-02 0. -1.
    10030    2    1    2    0    0  0.00000000000E+00  0.00000000000E+00  0.76912266650E+03  0.39827982313E+04  0.39078295863E+04 0.  0.
        1    1    3    3  502    0  0.74735437597E+03  0.62831908208E+03 -0.13403788471E+04  0.16582939685E+04  0.50400001928E-02 0. -1.
       -1    1    3    3    0  502 -0.74735437597E+03 -0.62831908208E+03  0.21095015136E+04  0.23245042628E+04  0.50400001928E-02 0.  1.
</event>
<event>
 5   0  0.1501585E-07  0.3887135E+04  0.7818609E-02  0.8027710E-01
        2   -1    0    0  501    0  0.00000000000E+00  0.00000000000E+00  0.23535021749E+04  0.23535021749E+04  0.25500000920E-02 0. -1.
       -2   -1    0    0    0  501  0.00000000000E+00  0.00000000000E+00 -0.16050356220E+04  0.16050356220E+04  0.25500000920E-02 0.  1.
    10030    2    1    2    0    0  0.00000000000E+00  0.00000000000E+00  0.74846655291E+03  0.39585377969E+04  0.38871351029E+04 0.  0.
        5    1    3    3  502    0  0.80262944385E+03 -0.15423892333E+04  0.12586644045E+04  0.21464940587E+04  0.46999998093E+01 0. -1.
       -5    1    3    3    0  502 -0.80262944385E+03  0.15423892333E+04 -0.51019785157E+03  0.18120437381E+04  0.46999998093E+01 0.  1.
</event>
<event>
 5   0  0.4750125E-08  0.3961606E+04  0.7818609E-02  0.8012337E-01
        1   -1    0    0  501    0  0.00000000000E+00  0.00000000000E+00  0.22435789060E+04  0.22435789060E+04  0.50400001928E-02 0.  1.
       -1   -1    0    0    0  501  0.00000000000E+00  0.00000000000E+00 -0.17488044890E+04  0.17488044890E+04  0.50400001928E-02 0. -1.
    10030    2    1    2    0    0  0.00000000000E+00  0.00000000000E+00  0.49477441700E+03  0.39923833950E+04  0.39616061704E+04 0.  0.
        5    1    3    3  502    0 -0.80502756748E+03 -0.17309032327E+04 -0.28536272018E+03  0.19301682200E+04  0.46999998093E+01 0. -1.
       -5    1    3    3    0  502  0.80502756748E+03  0.17309032327E+04  0.78013713719E+03  0.20622151751E+04  0.46999998093E+01 0.  1.
</event>
<event>
 5   0  0.1520986E-07  0.3894273E+04  0.7818609E-02  0.8026221E-01
       -2   -1    0    0    0  501  0.00000000000E+00  0.00000000000E+00  0.16599283580E+04  0.16599283580E+04  0.25500000920E-02 0. -1.
        2   -1    0    0  501    0  0.00000000000E+00  0.00000000000E+00 -0.22840389791E+04  0.22840389791E+04  0.25500000920E-02 0.  1.
    10030    2    1    2    0    0  0.00000000000E+00  0.00000000000E+00 -0.62411062113E+03  0.39439673371E+04  0.38942732684E+04 0.  0.
        4    1    3    3  502    0  0.10935773097E+04  0.11150086277E+04  0.86561781431E+03  0.17856235285E+04  0.12699999809E+01 0. -1.
       -4    1    3    3    0  502 -0.10935773097E+04 -0.11150086277E+04 -0.14897284354E+04  0.21583438086E+04  0.12699999809E+01 0.  1.
</event>
<event>
 5   0  0.4750125E-08  0.3921142E+04  0.7818609E-02  0.8020646E-01
        1   -1    0    0  501    0  0.00000000000E+00  0.00000000000E+00  0.25359120847E+04  0.25359120847E+04  0.50400001928E-02 0. -1.
       -1   -1    0    0    0  501  0.00000000000E+00  0.00000000000E+00 -0.15157620045E+04  0.15157620045E+04  0.50400001928E-02 0.  1.
    10030    2    1    2    0    0  0.00000000000E+00  0.00000000000E+00  0.10201500802E+04  0.40516740892E+04  0.39211422747E+04 0.  0.
        1    1    3    3  502    0 -0.78079663107E+03 -0.11997989686E+04  0.18943271755E+04  0.23743707361E+04  0.50400001928E-02 0. -1.
       -1    1    3    3    0  502  0.78079663107E+03  0.11997989686E+04 -0.87417709536E+03  0.16773033531E+04  0.50400001928E-02 0.  1.
</event>
<event>
 5   0  0.4750125E-08  0.3900108E+04  0.7818609E-02  0.8025007E-01
        3   -1    0    0  501    0  0.00000000000E+00  0.00000000000E+00  0.14400496071E+04  0.14400496107E+04  0.10100000352E+00 0. -1.
       -3   -1    0    0    0  501  0.00000000000E+00  0.00000000000E+00 -0.26406807339E+04  0.26406807359E+04  0.10100000352E+00 0.  1.
    10030    2    1    2    0    0  0.00000000000E+00  0.00000000000E+00 -0.12006311268E+04  0.40807303465E+04  0.39001083393E+04 0.  0.
        2    1    3    3  502    0 -0.58021263282E+03 -0.85978079906E+03 -0.23281064434E+04  0.25487152320E+04  0.25500000920E-02 0.  1.
       -2    1    3    3    0  502  0.58021263282E+03  0.85978079906E+03  0.11274753166E+04  0.15320151146E+04  0.25500000920E-02 0. -1.
</event>
<event>
 5   0  0.4762788E-08  0.3875570E+04  0.7818609E-02  0.8030130E-01
        1   -1    0    0  501    0  0.00000000000E+00  0.00000000000E+00  0.30707965121E+04  0.30707965121E+04  0.50400001928E-02 0. -1.
       -1   -1    0    0    0  501  0.00000000000E+00  0.00000000000E+00 -0.12228129577E+04  0.12228129578E+04  0.50400001928E-02 0.  1.
    10030    2    1    2    0    0  0.00000000000E+00  0.00000000000E+00  0.18479835544E+04  0.42936094699E+04  0.38755695146E+04 0.  0.
        2    1    3    3  502    0  0.11783410210E+04  0.15157170297E+04  0.63271777597E+03  0.20214394525E+04  0.25500000920E-02 0. -1.
       -2    1    3    3    0  502 -0.11783410210E+04 -0.15157170297E+04  0.12152657784E+04  0.22721700174E+04  0.25500000920E-02 0.  1.
</event>
<event>
 5   0  0.4762788E-08  0.3959136E+04  0.7818609E-02  0.8012841E-01
       -1   -1    0    0    0  501  0.00000000000E+00  0.00000000000E+00  0.23567714859E+04  0.23567714859E+04  0.50400001928E-02 0.  1.
        1   -1    0    0  501    0  0.00000000000E+00  0.00000000000E+00 -0.16627363651E+04  0.16627363651E+04  0.50400001928E-02 0. -1.
    10030    2    1    2    0    0  0.00000000000E+00  0.00000000000E+00  0.69403512082E+03  0.40195078511E+04  0.39591360946E+04 0.  0.
        2    1    3    3  502    0 -0.13191557633E+03 -0.19572248703E+04  0.77338104168E+02  0.19631892661E+04  0.25500000920E-02 0. -1.
       -2    1    3    3    0  502  0.13191557633E+03  0.19572248703E+04  0.61669701665E+03  0.20563185849E+04  0.25500000920E-02 0.  1.
</event>
<event>
 5   0  0.4750125E-08  0.3900267E+04  0.7818609E-02  0.8024974E-01
        3   -1    0    0  501    0  0.00000000000E+00  0.00000000000E+00  0.23446625074E+04  0.23446625096E+04  0.10100000352E+00 0.  1.
       -3   -1    0    0    0  501  0.00000000000E+00  0.00000000000E+00 -0.16219909025E+04  0.16219909056E+04  0.10100000352E+00 0. -1.
    10030    2    1    2    0    0  0.00000000000E+00  0.00000000000E+00  0.72267160498E+03  0.39666534152E+04  0.39002673072E+04 0.  0.
        5    1    3    3  502    0  0.76135672003E+03 -0.13732882873E+04 -0.81481465248E+03  0.17690477051E+04  0.46999998093E+01 0. -1.
       -5    1    3    3    0  502 -0.76135672003E+03  0.13732882873E+04  0.15374862575E+04  0.21976057101E+04  0.46999998093E+01 0.  1.
</event>
<event>
 5   0  0.4750125E-08  0.3887733E+04  0.7818609E-02  0.8027585E-01
        3   -1    0    0  501    0  0.00000000000E+00  0.00000000000E+00  0.31364900635E+04  0.31364900651E+04  0.10100000352E+00 0. -1.
       -3   -1    0    0    0  501  0.00000000000E+00  0.00000000000E+00 -0.12047281628E+04  0.12047281671E+04  0.10100000352E+00 0.  1.
    10030    2    1    2    0    0  0.00000000000E+00  0.00000000000E+00  0.19317619006E+04  0.43412182321E+04  0.38877334912E+04 0.  0.
        3    1    3    3  502    0  0.11100968780E+03 -0.68928551431E+03 -0.10598929249E+04  0.12691771718E+04  0.10100000352E+00 0.  1.
       -3    1    3    3    0  502 -0.11100968780E+03  0.68928551431E+03  0.29916548255E+04  0.30720410603E+04  0.10100000352E+00 0. -1.
</event>
<event>
 5   0  0.4762788E-08  0.3894055E+04  0.7818609E-02  0.8026267E-01
       -1   -1    0    0    0  501  0.00000000000E+00  0.00000000000E+00  0.14042068297E+04  0.14042068297E+04  0.50400001928E-02 0. -1.
        1   -1    0    0  501    0  0.00000000000E+00  0.00000000000E+00 -0.26996854180E+04  0.26996854180E+04  0.50400001928E-02 0.  1.
    10030    2    1    2    0    0  0.00000000000E+00  0.00000000000E+00 -0.12954785883E+04  0.41038922478E+04  0.38940553166E+04 0.  0.
        2    1    3    3  502    0 -0.87586913566E+03 -0.12077120088E+04 -0.19662357999E+04  0.24681568548E+04  0.25500000920E-02 0.  1.
       -2    1    3    3    0  502  0.87586913566E+03  0.12077120088E+04  0.67075721157E+03  0.16357353930E+04  0.25500000920E-02 0. -1.
</event>
<event>
 5   0  0.4762788E-08  0.3954011E+04  0.7818609E-02  0.8013889E-01
        1   -1    0    0  501    0  0.00000000000E+00  0.00000000000E+00  0.17432934319E+04  0.17432934319E+04  0.50400001928E-02 0.  1.
       -1   -1    0    0    0  501  0.00000000000E+00  0.00000000000E+00 -0.22420496110E+04  0.22420496111E+04  0.50400001928E-02 0. -1.
    10030    2    1    2    0    0  0.00000000000E+00  0.00000000000E+00 -0.49875617918E+03  0.39853430429E+04  0.39540108047E+04 0.  0.
        2    1    3    3  502    0  0.57781989391E+03  0.15213052706E+04  0.88215081914E+03  0.18510633766E+04  0.25500000920E-02 0.  1.
       -2    1    3    3    0  502 -0.57781989391E+03 -0.15213052706E+04 -0.13809069983E+04  0.21342796664E+04  0.25500000920E-02 0. -1.
</event>
<event>
 5   0  0.4762788E-08  0.3915262E+04  0.7818609E-02  0.8021863E-01
       -1   -1    0    0    0  501  0.00000000000E+00  0.00000000000E+00  0.22501043713E+04  0.22501043713E+04  0.50400001928E-02 0.  1.
        1   -1    0    0  501    0  0.00000000000E+00  0.00000000000E+00 -0.17031736455E+04  0.17031736455E+04  0.50400001928E-02 0. -1.
    10030    2    1    2    0    0  0.00000000000E+00  0.00000000000E+00  0.54693072577E+03  0.39532780169E+04  0.39152616592E+04 0.  0.
        2    1    3    3  502    0 -0.99519201369E+03 -0.76115760890E+03 -0.12453175363E+04  0.17665174258E+04  0.25500000920E-02 0. -1.
       -2    1    3    3    0  502  0.99519201369E+03  0.76115760890E+03  0.17922482620E+04  0.21867605910E+04  0.25500000920E-02 0.  1.
</event>
<event>
 5   0  0.1538018E-07  0.3910210E+04  0.7818609E-02  0.8022909E-01
        2   -1    0    0  501    0  0.00000000000E+00  0.00000000000E+00  0.17091665562E+04  0.17091665562E+04  0.25500000920E-02 0.  1.
       -2   -1    0    0    0  501  0.00000000000E+00  0.00000000000E+00 -0.22364321485E+04  0.22364321485E+04  0.25500000920E-02 0. -1.
    10030    2    1    2    0    0  0.00000000000E+00  0.00000000000E+00 -0.52726559223E+03  0.39455987047E+04  0.39102097301E+04 0.  0.
        1    1    3    3  502    0 -0.65145272296E+02 -0.18421359267E+04  0.39397577533E+03  0.18849205794E+04  0.50400001928E-02 0. -1.
       -1    1    3    3    0  502  0.65145272296E+02  0.18421359267E+04 -0.92124136755E+03  0.20606781253E+04  0.50400001928E-02 0.  1.
</event>
<event>
 5   0  0.4750125E-08  0.3892637E+04  0.7818609E-02  0.8026562E-01
       -3   -1    0    0    0  501  0.00000000000E+00  0.00000000000E+00  0.24929737778E+04  0.24929737799E+04  0.10100000352E+00 0.  1.
        3   -1    0    0  501    0  0.00000000000E+00  0.00000000000E+00 -0.15195328712E+04  0.15195328746E+04  0.10100000352E+00 0. -1.
    10030    2    1    2    0    0  0.00000000000E+00  0.00000000000E+00  0.97344090660E+03  0.40125066544E+04  0.38926369537E+04 0.  0.
        4    1    3    3  502    0 -0.76274736083E+03  0.17602905408E+04  0.82507796324E+03  0.20883394319E+04  0.12699999809E+01 0.  1.
       -4    1    3    3    0  502  0.76274736083E+03 -0.17602905408E+04  0.14836294336E+03  0.19241672225E+04  0.12699999809E+01 0. -1.
</event>
<event>
 5   0  0.4762788E-08  0.3921839E+04  0.7818609E-02  0.8020502E-01
        1   -1    0    0  501    0  0.00000000000E+00  0.00000000000E+00  0.27511359397E+04  0.27511359397E+04  0.50400001928E-02 0. -1.
       -1   -1    0    0    0  501  0.00000000000E+00  0.00000000000E+00 -0.13976793912E+04  0.13976793912E+04  0.50400001928E-02 0.  1.
    10030    2    1    2    0    0  0.00000000000E+00  0.00000000000E+00  0.13534565485E+04  0.41488153310E+04  0.39218393672E+04 0.  0.
        2    1    3    3  502    0  0.13950311564E+03 -0.15502060367E+04  0.19384879404E+04  0.24860280310E+04  0.25500000920E-02 0. -1.
       -2    1    3    3    0  502 -0.13950311564E+03  0.15502060367E+04 -0.58503139194E+03  0.16627873000E+04  0.25500000920E-02 0.  1.
</event>
<event>
 5   0  0.4750125E-08  0.3909741E+04  0.7818609E-02  0.8023006E-01
        1   -1    0    0  501    0  0.00000000000E+00  0.00000000000E+00  0.29884879947E+04  0.29884879947E+04  0.50400001928E-02 0. -1.
       -1   -1    0    0    0  501  0.00000000000E+00  0.00000000000E+00 -0.12787468103E+04  0.12787468103E+04  0.50400001928E-02 0.  1.
    10030    2    1    2    0    0  0.00000000000E+00  0.00000000000E+00  0.17097411844E+04  0.42672348050E+04  0.39097414190E+04 0.  0.
        1    1    3    3  502    0 -0.66242402628E+03  0.56270925664E+03  0.27659982325E+04  0.28993436361E+04  0.50400001928E-02 0. -1.
       -1    1    3    3    0  502  0.66242402628E+03 -0.56270925664E+03 -0.10562570481E+04  0.13678911689E+04  0.50400001928E-02 0.  1.
</event>
<event>
 5   0  0.1501585E-07  0.3884018E+04  0.7818609E-02  0.8028361E-01
        2   -1    0    0  501    0  0.00000000000E+00  0.00000000000E+00  0.11817818062E+04  0.11817818062E+04  0.25500000920E-02 0.  1.
       -2   -1    0    0    0  501  0.00000000000E+00  0.00000000000E+00 -0.31912814045E+04  0.31912814045E+04  0.25500000920E-02 0. -1.
    10030    2    1    2    0    0  0.00000000000E+00  0.00000000000E+00 -0.20094995982E+04  0.43730632107E+04  0.38840176634E+04 0.  0.
        5    1    3    3  502    0 -0.98393261930E+03 -0.10720847119E+04 -0.24527129161E+04  0.28518961706E+04  0.46999998093E+01 0. -1.
       -5    1    3    3    0  502  0.98393261930E+03  0.10720847119E+04  0.44321331791E+03  0.15211670401E+04  0.46999998093E+01 0.  1.
</event>
<event>
 5   0  0.1501585E-07  0.3890583E+04  0.7818609E-02  0.8026991E-01
       -2   -1    0    0    0  501  0.00000000000E+00  0.00000000000E+00  0.16389733224E+04  0.16389733224E+04  0.25500000920E-02 0. -1.
        2   -1    0    0  501    0  0.00000000000E+00  0.00000000000E+00 -0.23088599348E+04  0.23088599348E+04  0.25500000920E-02 0.  1.
    10030    2    1    2    0    0  0.00000000000E+00  0.00000000000E+00 -0.66988661236E+03  0.39478332572E+04  0.38905834207E+04 0.  0.
        5    1    3    3  502    0  0.64332060587E+03 -0.12115019742E+04  0.10646791094E+04  0.17364222215E+04  0.46999998093E+01 0. -1.
       -5    1    3    3    0  502 -0.64332060587E+03  0.12115019742E+04 -0.17345657218E+04  0.22114110356E+04  0.46999998093E+01 0.  1.
</event>
<event>
 5   0  0.1520986E-07  0.3910356E+04  0.7818609E-02  0.8022879E-01
       -2   -1    0    0    0  501  0.00000000000E+00  0.00000000000E+00  0.14805409978E+04  0.14805409978E+04  0.25500000920E-02 0. -1.
        2   -1    0    0  501    0  0.00000000000E+00  0.00000000000E+00 -0.25819764294E+04  0.25819764294E+04  0.25500000920E-02 0.  1.
    10030    2    1    2    0    0  0.00000000000E+00  0.00000000000E+00 -0.11014354317E+04  0.40625174272E+04  0.39103564845E+04 0.  0.
        4    1    3    3  502    0 -0.11791701357E+03 -0.13579685689E+04  0.90551616003E+03  0.16364425395E+04  0.12699999809E+01 0. -1.
       -4    1    3    3    0  502  0.11791701357E+03  0.13579685689E+04 -0.20069515917E+04  0.24260748877E+04  0.12699999809E+01 0.  1.
</event>
<event>
 5   0  0.4750125E-08  0.3875458E+04  0.7818609E-02  0.8030153E-01
       -1   -1    0    0    0  501  0.00000000000E+00  0.00000000000E+00  0.29744109279E+04  0.29744109279E+04  0.50400001928E-02 0.  1.
        1   -1    0    0  501    0  0.00000000000E+00  0.00000000000E+00 -0.12623656496E+04  0.12623656496E+04  0.50400001928E-02 0. -1.
    10030    2    1    2    0    0  0.00000000000E+00  0.00000000000E+00  0.17120452783E+04  0.42367765775E+04  0.38754582610E+04 0.  0.
        5    1    3    3  502    0 -0.41435136724E+03  0.10284063721E+04 -0.88131091529E+03  0.14163466176E+04  0.46999998093E+01 0. -1.
       -5    1    3    3    0  502  0.41435136724E+03 -0.10284063721E+04  0.25933561936E+04  0.28204299599E+04  0.46999998093E+01 0.  1.
</event>
<event>
 5   0  0.1546846E-07  0.3902275E+04  0.7818609E-02  0.8024556E-01
       -2   -1    0    0    0  501  0.00000000000E+00  0.00000000000E+00  0.21647522565E+04  0.21647522565E+04  0.25500000920E-02 0.  1.
        2   -1    0    0  501    0  0.00000000000E+00  0.00000000000E+00 -0.17586021349E+04  0.17586021349E+04  0.25500000920E-02 0. -1.
    10030    2    1    2    0    0  0.00000000000E+00  0.00000000000E+00  0.40615012157E+03  0.39233543913E+04  0.39022752029E+04 0.  0.
        2    1    3    3  502    0 -0.62095514574E+03 -0.17304349309E+04 -0.45386679279E+03  0.18936698257E+04  0.25500000920E-02 0. -1.
       -2    1    3    3    0  502  0.62095514574E+03  0.17304349309E+04  0.86001691436E+03  0.20296845657E+04  0.25500000920E-02 0.  1.
</event>
<event>
 5   0  0.4762788E-08  0.3930576E+04  0.7818609E-02  0.8018700E-01
        1   -1    0    0  501    0  0.00000000000E+00  0.00000000000E+00  0.21873316312E+04  0.21873316312E+04  0.50400001928E-02 0. -1.
       -1   -1    0    0    0  501  0.00000000000E+00  0.00000000000E+00 -0.17657848986E+04  0.17657848986E+04  0.50400001928E-02 0.  1.
    10030    2    1    2    0    0  0.00000000000E+00  0.00000000000E+00  0.42154673254E+03  0.39531165298E+04  0.39305761220E+04 0.  0.
        2    1    3    3  502    0 -0.16624587037E+04 -0.10154409774E+04 -0.50461906801E+02  0.19487010351E+04  0.25500000920E-02 0.  1.
       -2    1    3    3    0  502  0.16624587037E+04  0.10154409774E+04  0.47200863935E+03  0.20044154948E+04  0.25500000920E-02 0. -1.
</event>
<event>
 5   0  0.1546846E-07  0.3892012E+04  0.7818609E-02  0.8026693E-01
        2   -1    0    0  501    0  0.00000000000E+00  0.00000000000E+00  0.30964204083E+04  0.30964204083E+04  0.25500000920E-02 0. -1.
       -2   -1    0    0    0  501  0.00000000000E+00  0.00000000000E+00 -0.12230058054E+04  0.12230058054E+04  0.25500000920E-02 0.  1.
    10030    2    1    2    0    0  0.00000000000E+00  0.00000000000E+00  0.18734146029E+04  0.43194262137E+04  0.38920124025E+04 0.  0.
        2    1    3    3  502    0 -0.68057571621E+03 -0.15845789506E+04  0.19373094351E+04  0.25936926578E+04  0.25500000920E-02 0. -1.
       -2    1    3    3    0  502  0.68057571621E+03  0.15845789506E+04 -0.63894832200E+02  0.17257335558E+04  0.25500000920E-02 0.  1.
</event>
<event>
 5   0  0.4750125E-08  0.3858768E+04  0.7818609E-02  0.8033660E-01
        1   -1    0    0  501    0  0.00000000000E+00  0.00000000000E+00  0.10907711493E+04  0.10907711493E+04  0.50400001928E-02 0.  1.
       -1   -1    0    0    0  501  0.00000000000E+00  0.00000000000E+00 -0.34127432735E+04  0.34127432735E+04  0.50400001928E-02 0. -1.
    10030    2    1    2    0    0  0.00000000000E+00  0.00000000000E+00 -0.23219721242E+04  0.45035144228E+04  0.38587676285E+04 0.  0.
        5    1    3    3  502    0 -0.42929587007E+03  0.17036533457E+04 -0.20915645247E+04  0.27315552195E+04  0.46999998093E+01 0. -1.
       -5    1    3    3    0  502  0.42929587007E+03 -0.17036533457E+04 -0.23040759949E+03  0.17719592033E+04  0.46999998093E+01 0.  1.
</event>
<event>
 5   0  0.1520986E-07  0.3879764E+04  0.7818609E-02  0.8029251E-01
        2   -1    0    0  501    0  0.00000000000E+00  0.00000000000E+00  0.15454001681E+04  0.15454001681E+04  0.25500000920E-02 0. -1.
       -2   -1    0    0    0  501  0.00000000000E+00  0.00000000000E+00 -0.24350599499E+04  0.24350599499E+04  0.25500000920E-02 0.  1.
    10030    2    1    2    0    0  0.00000000000E+00  0.00000000000E+00 -0.88965978184E+03  0.39804601181E+04  0.38797639392E+04 0.  0.
        4    1    3    3  502    0  0.14476815537E+04  0.11534086843E+04 -0.10404199162E+04  0.21233484615E+04  0.12699999809E+01 0.  1.
       -4    1    3    3    0  502 -0.14476815537E+04 -0.11534086843E+04  0.15076013438E+03  0.18571116566E+04  0.12699999809E+01 0. -1.
</event>
<event>
 5   0  0.4750125E-08  0.3879082E+04  0.7818609E-02  0.8029394E-01
       -1   -1    0    0    0  501  0.00000000000E+00  0.00000000000E+00  0.15844575743E+04  0.15844575743E+04  0.50400001928E-02 0.  1.
        1   -1    0    0  501    0  0.00000000000E+00  0.00000000000E+00 -0.23742004638E+04  0.23742004638E+04  0.50400001928E-02 0. -1.
    10030    2    1    2    0    0  0.00000000000E+00  0.00000000000E+00 -0.78974288952E+03  0.39586580380E+04  0.38790823181E+04 0.  0.
        1    1    3    3  502    0  0.12634426528E+04 -0.12069578547E+04 -0.12540359863E+04  0.21507303073E+04  0.50400001928E-02 0.  1.
       -1    1    3    3    0  502 -0.12634426528E+04  0.12069578547E+04  0.46429309679E+03  0.18079277307E+04  0.50400001928E-02 0. -1.
</event>
<event>
 5   0  0.4750125E-08  0.3907717E+04  0.7818609E-02  0.8023426E-01
       -1   -1    0    0    0  501  0.00000000000E+00  0.00000000000E+00  0.21212096312E+04  0.21212096312E+04  0.50400001928E-02 0.  1.
        1   -1    0    0  501    0  0.00000000000E+00  0.00000000000E+00 -0.17997102549E+04  0.17997102549E+04  0.50400001928E-02 0. -1.
    10030    2    1    2    0    0  0.00000000000E+00  0.00000000000E+00  0.32149937622E+03  0.39209198861E+04  0.39077168404E+04 0.  0.
        5    1    3    3  502    0 -0.10675718153E+04  0.88121312274E+03 -0.12227834850E+04  0.18470158878E+04  0.46999998093E+01 0. -1.
       -5    1    3    3    0  502  0.10675718153E+04 -0.88121312274E+03  0.15442828613E+04  0.20739039983E+04  0.46999998093E+01 0.  1.
</event>
<event>
 5   0  0.4750125E-08  0.3830369E+04  0.7818609E-02  0.8039669E-01
       -1   -1    0    0    0  501  0.00000000000E+00  0.00000000000E+00  0.21034705055E+04  0.21034705055E+04  0.50400001928E-02 0. -1.
        1   -1    0    0  501    0  0.00000000000E+00  0.00000000000E+00 -0.17437519315E+04  0.17437519316E+04  0.50400001928E-02 0.  1.
    10030    2    1    2    0    0  0.00000000000E+00  0.00000000000E+00  0.35971857395E+03  0.38472224370E+04  0.38303685237E+04 0.  0.
        1    1    3    3  502    0  0.12878150917E+04 -0.13709933076E+04 -0.18205993871E+03  0.18897714627E+04  0.50400001928E-02 0.  1.
       -1    1    3    3    0  502 -0.12878150917E+04  0.13709933076E+04  0.54177851266E+03  0.19574509743E+04  0.50400001928E-02 0. -1.
</event>
<event>
 5   0  0.1546846E-07  0.3887802E+04  0.7818609E-02  0.8027571E-01
       -2   -1    0    0    0  501  0.00000000000E+00  0.00000000000E+00  0.24535404500E+04  0.24535404500E+04  0.25500000920E-02 0. -1.
        2   -1    0    0  501    0  0.00000000000E+00  0.00000000000E+00 -0.15401218776E+04  0.15401218776E+04  0.25500000920E-02 0.  1.
    10030    2    1    2    0    0  0.00000000000E+00  0.00000000000E+00  0.91341857240E+03  0.39936623276E+04  0.38878021167E+04 0.  0.
        2    1    3    3  502    0 -0.98309970206E+03 -0.18391344288E+03  0.21689620220E+04  0.23884525181E+04  0.25500000920E-02 0. -1.
       -2    1    3    3    0  502  0.98309970206E+03  0.18391344288E+03 -0.12555434496E+04  0.16052098095E+04  0.25500000920E-02 0.  1.
</event>
<event>
 5   0  0.1503228E-07  0.3903107E+04  0.7818609E-02  0.8024383E-01
       -2   -1    0    0    0  501  0.00000000000E+00  0.00000000000E+00  0.22211899755E+04  0.22211899755E+04  0.25500000920E-02 0.  1.
        2   -1    0    0  501    0  0.00000000000E+00  0.00000000000E+00 -0.17146487746E+04  0.17146487746E+04  0.25500000920E-02 0. -1.
    10030    2    1    2    0    0  0.00000000000E+00  0.00000000000E+00  0.50654120088E+03  0.39358387501E+04  0.39031067983E+04 0.  0.
        3    1    3    3  502    0 -0.16523065253E+02  0.68667360578E+03  0.20952713552E+04  0.22049842889E+04  0.10100000352E+00 0.  1.
       -3    1    3    3    0  502  0.16523065253E+02 -0.68667360578E+03 -0.15887301543E+04  0.17308544612E+04  0.10100000352E+00 0. -1.
</event>
<event>
 5   0  0.4750125E-08  0.3891596E+04  0.7818609E-02  0.8026779E-01
        1   -1    0    0  501    0  0.00000000000E+00  0.00000000000E+00  0.26821204408E+04  0.26821204408E+04  0.50400001928E-02 0.  1.
       -1   -1    0    0    0  501  0.00000000000E+00  0.00000000000E+00 -0.14116178958E+04  0.14116178958E+04  0.50400001928E-02 0. -1.
    10030    2    1    2    0    0  0.00000000000E+00  0.00000000000E+00  0.12705025450E+04  0.40937383366E+04  0.38915956690E+04 0.  0.
        5    1    3    3  502    0  0.91953200600E+02 -0.19234094502E+04  0.92932132491E+03  0.21381345886E+04  0.46999998093E+01 0.  1.
       -5    1    3    3    0  502 -0.91953200600E+02  0.19234094502E+04  0.34118122010E+03  0.19556037480E+04  0.46999998093E+01 0. -1.
</event>
<event>
 5   0  0.1501585E-07  0.3878873E+04  0.7818609E-02  0.8029438E-01
       -2   -1    0    0    0  501  0.00000000000E+00  0.00000000000E+00  0.30088442283E+04  0.30088442283E+04  0.25500000920E-02 0. -1.
        2   -1    0    0  501    0  0.00000000000E+00  0.00000000000E+00 -0.12501192602E+04  0.12501192602E+04  0.25500000920E-02 0.  1.
    10030    2    1    2    0    0  0.00000000000E+00  0.00000000000E+00  0.17587249681E+04  0.42589634885E+04  0.38788730944E+04 0.  0.
        5    1    3    3  502    0  0.10376599016E+04 -0.42125220882E+03 -0.85921032056E+03  0.14115438214E+04  0.46999998093E+01 0.  1.
       -5    1    3    3    0  502 -0.10376599016E+04  0.42125220882E+03  0.26179352887E+04  0.28474196671E+04  0.46999998093E+01 0. -1.
</event>
<event>
 5   0  0.1501585E-07  0.3896475E+04  0.7818609E-02  0.8025763E-01
       -2   -1    0    0    0  501  0.00000000000E+00  0.00000000000E+00  0.20052013471E+04  0.20052013471E+04  0.25500000920E-02 0.  1.
        2   -1    0    0  501    0  0.00000000000E+00  0.00000000000E+00 -0.18928917572E+04  0.18928917572E+04  0.25500000920E-02 0. -1.
    10030    2    1    2    0    0  0.00000000000E+00  0.00000000000E+00  0.11230958986E+03  0.38980931042E+04  0.38964748691E+04 0.  0.
        5    1    3    3  502    0 -0.50024013131E+03  0.17230850647E+04 -0.70333417949E+03  0.19271645978E+04  0.46999998093E+01 0. -1.
       -5    1    3    3    0  502  0.50024013131E+03 -0.17230850647E+04  0.81564376935E+03  0.19709285064E+04  0.46999998093E+01 0.  1.
</event>
<event>
 5   0  0.1501585E-07  0.3896738E+04  0.7818609E-02  0.8025708E-01
       -2   -1    0    0    0  501  0.00000000000E+00  0.00000000000E+00  0.24989209054E+04  0.24989209054E+04  0.25500000920E-02 0. -1.
        2   -1    0    0  501    0  0.00000000000E+00  0.00000000000E+00 -0.15191120747E+04  0.15191120747E+04  0.25500000920E-02 0.  1.
    10030    2    1    2    0    0  0.00000000000E+00  0.00000000000E+00  0.97980883064E+03  0.40180329801E+04  0.38967375694E+04 0.  0.
        5    1    3    3  502    0 -0.64646300810E+03  0.18092182562E+04  0.82392240387E+03  0.20904677316E+04  0.46999998093E+01 0.  1.
       -5    1    3    3    0  502  0.64646300810E+03 -0.18092182562E+04  0.15588642677E+03  0.19275652485E+04  0.46999998093E+01 0. -1.
</event>
<event>
 5   0  0.4750125E-08  0.3595357E+04  0.7818609E-02  0.8091556E-01
       -1   -1    0    0    0  501  0.00000000000E+00  0.00000000000E+00  0.15589201913E+04  0.15589201913E+04  0.50400001928E-02 0.  1.
        1   -1    0    0  501    0  0.00000000000E+00  0.00000000000E+00 -0.20730039996E+04  0.20730039996E+04  0.50400001928E-02 0. -1.
    10030    2    1    2    0    0  0.00000000000E+00  0.00000000000E+00 -0.51408380829E+03  0.36319241908E+04  0.35953568899E+04 0.  0.
        1    1    3    3  502    0 -0.46616541682E+03  0.11412234416E+03 -0.20070919267E+04  0.20636744190E+04  0.50400001928E-02 0. -1.
       -1    1    3    3    0  502  0.46616541682E+03 -0.11412234416E+03  0.14930081184E+04  0.15682497719E+04  0.50400001928E-02 0.  1.
</event>
<event>
 5   0  0.1520986E-07  0.3822803E+04  0.7818609E-02  0.8041279E-01
        2   -1    0    0  501    0  0.00000000000E+00  0.00000000000E+00  0.25517676738E+04  0.25517676738E+04  0.25500000920E-02 0. -1.
       -2   -1    0    0    0  501  0.00000000000E+00  0.00000000000E+00 -0.14317355848E+04  0.14317355848E+04  0.25500000920E-02 0.  1.
    10030    2    1    2    0    0  0.00000000000E+00  0.00000000000E+00  0.11200320889E+04  0.39835032586E+04  0.38228034649E+04 0.  0.
        4    1    3    3  502    0 -0.71744011198E+03  0.54459165729E+03 -0.11967221891E+04  0.14978137395E+04  0.12699999809E+01 0.  1.
       -4    1    3    3    0  502  0.71744011198E+03 -0.54459165729E+03  0.23167542780E+04  0.24856895191E+04  0.12699999809E+01 0. -1.
</event>
<event>
 5   0  0.4750125E-08  0.3901326E+04  0.7818609E-02  0.8024753E-01
        1   -1    0    0  501    0  0.00000000000E+00  0.00000000000E+00  0.12619184343E+04  0.12619184343E+04  0.50400001928E-02 0.  1.
       -1   -1    0    0    0  501  0.00000000000E+00  0.00000000000E+00 -0.30153186612E+04  0.30153186612E+04  0.50400001928E-02 0. -1.
    10030    2    1    2    0    0  0.00000000000E+00  0.00000000000E+00 -0.17534002269E+04  0.42772370955E+04  0.39013260329E+04 0.  0.
        1    1    3    3  502    0 -0.17843955397E+04  0.41827706415E+02 -0.17394617406E+04  0.24922969619E+04  0.50400001928E-02 0. -1.
       -1    1    3    3    0  502  0.17843955397E+04 -0.41827706415E+02 -0.13938486301E+02  0.17849401336E+04  0.50400001928E-02 0.  1.
</event>
<event>
 5   0  0.4750125E-08  0.3711120E+04  0.7818609E-02  0.8065502E-01
       -1   -1    0    0    0  501  0.00000000000E+00  0.00000000000E+00  0.23879935335E+04  0.23879935335E+04  0.50400001928E-02 0.  1.
        1   -1    0    0  501    0  0.00000000000E+00  0.00000000000E+00 -0.14418392624E+04  0.14418392624E+04  0.50400001928E-02 0. -1.
    10030    2    1    2    0    0  0.00000000000E+00  0.00000000000E+00  0.94615427104E+03  0.38298327959E+04  0.37111199576E+04 0.  0.
        3    1    3    3  502    0  0.14856509720E+04  0.11102953622E+04  0.53134769185E+03  0.19293120488E+04  0.10100000352E+00 0. -1.
       -3    1    3    3    0  502 -0.14856509720E+04 -0.11102953622E+04  0.41480657919E+03  0.19005207471E+04  0.10100000352E+00 0.  1.
</event>
<event>
 5   0  0.4750125E-08  0.3901506E+04  0.7818609E-02  0.8024716E-01
        1   -1    0    0  501    0  0.00000000000E+00  0.00000000000E+00  0.16239532944E+04  0.16239532944E+04  0.50400001928E-02 0. -1.
       -1   -1    0    0    0  501  0.00000000000E+00  0.00000000000E+00 -0.23433173140E+04  0.23433173140E+04  0.50400001928E-02 0.  1.
    10030    2    1    2    0    0  0.00000000000E+00  0.00000000000E+00 -0.71936401960E+03  0.39672706084E+04  0.39015063101E+04 0.  0.
        4    1    3    3  502    0 -0.15297017412E+04  0.10682200163E+04 -0.93880352739E+03  0.20886443202E+04  0.12699999809E+01 0.  1.
       -4    1    3    3    0  502  0.15297017412E+04 -0.10682200163E+04  0.21943950779E+03  0.18786262882E+04  0.12699999809E+01 0. -1.
</event>
<event>
 5   0  0.1520986E-07  0.3913258E+04  0.7818609E-02  0.8022277E-01
        2   -1    0    0  501    0  0.00000000000E+00  0.00000000000E+00  0.21697662280E+04  0.21697662280E+04  0.25500000920E-02 0. -1.
       -2   -1    0    0    0  501  0.00000000000E+00  0.00000000000E+00 -0.17644285587E+04  0.17644285587E+04  0.25500000920E-02 0.  1.
    10030    2    1    2    0    0  0.00000000000E+00  0.00000000000E+00  0.40533766926E+03  0.39341947867E+04  0.39132582325E+04 0.  0.
        4    1    3    3  502    0  0.15643263328E+04  0.11211129283E+04  0.55723805164E+03  0.20036284417E+04  0.12699999809E+01 0. -1.
       -4    1    3    3    0  502 -0.15643263328E+04 -0.11211129283E+04 -0.15190038238E+03  0.19305663450E+04  0.12699999809E+01 0.  1.
</event>
<event>
 5   0  0.4750125E-08  0.3613143E+04  0.7818609E-02  0.8087488E-01
       -1   -1    0    0    0  501  0.00000000000E+00  0.00000000000E+00  0.23431897585E+04  0.23431897585E+04  0.50400001928E-02 0. -1.
        1   -1    0    0  501    0  0.00000000000E+00  0.00000000000E+00 -0.13928450818E+04  0.13928450818E+04  0.50400001928E-02 0.  1.
    10030    2    1    2    0    0  0.00000000000E+00  0.00000000000E+00  0.95034467677E+03  0.37360348403E+04  0.36131428595E+04 0.  0.
        4    1    3    3  502    0  0.70157439653E+03 -0.57521627417E+03  0.20905561182E+04  0.22789266974E+04  0.12699999809E+01 0. -1.
       -4    1    3    3    0  502 -0.70157439653E+03  0.57521627417E+03 -0.11402114415E+04  0.14571081429E+04  0.12699999809E+01 0.  1.
</event>
<event>
 5   0  0.4750125E-08  0.3982719E+04  0.7818609E-02  0.8008042E-01
        1   -1    0    0  501    0  0.00000000000E+00  0.00000000000E+00  0.22705096844E+04  0.22705096844E+04  0.50400001928E-02 0.  1.
       -1   -1    0    0    0  501  0.00000000000E+00  0.00000000000E+00 -0.17465301597E+04  0.17465301597E+04  0.50400001928E-02 0. -1.
    10030    2    1    2    0    0  0.00000000000E+00  0.00000000000E+00  0.52397952475E+03  0.40170398441E+04  0.39827194938E+04 0.  0.
        3    1    3    3  502    0 -0.62181858138E+03  0.53895192859E+02 -0.16453241403E+04  0.17597313934E+04  0.10100000352E+00 0. -1.
       -3    1    3    3    0  502  0.62181858138E+03 -0.53895192859E+02  0.21693036651E+04  0.22573084507E+04  0.10100000352E+00 0.  1.
</event>
<event>
 5   0  0.1538018E-07  0.3863278E+04  0.7818609E-02  0.8032710E-01
       -2   -1    0    0    0  501  0.00000000000E+00  0.00000000000E+00  0.16856879967E+04  0.16856879967E+04  0.25500000920E-02 0. -1.
        2   -1    0    0  501    0  0.00000000000E+00  0.00000000000E+00 -0.22134757139E+04  0.22134757139E+04  0.25500000920E-02 0.  1.
    10030    2    1    2    0    0  0.00000000000E+00  0.00000000000E+00 -0.52778771719E+03  0.38991637106E+04  0.38632781116E+04 0.  0.
        1    1    3    3  502    0  0.13463670827E+04  0.72380311050E+03  0.92802213805E+03  0.17882450483E+04  0.50400001928E-02 0.  1.
       -1    1    3    3    0  502 -0.13463670827E+04 -0.72380311050E+03 -0.14558098552E+04  0.21109186623E+04  0.50400001928E-02 0. -1.
</event>
<event>
 5   0  0.1501585E-07  0.3865526E+04  0.7818609E-02  0.8032237E-01
       -2   -1    0    0    0  501  0.00000000000E+00  0.00000000000E+00  0.20142769426E+04  0.20142769426E+04  0.25500000920E-02 0.  1.
        2   -1    0    0  501    0  0.00000000000E+00  0.00000000000E+00 -0.18545481184E+04  0.18545481184E+04  0.25500000920E-02 0. -1.
    10030    2    1    2    0    0  0.00000000000E+00  0.00000000000E+00  0.15972882419E+03  0.38688250610E+04  0.38655263620E+04 0.  0.
        5    1    3    3  502    0  0.19920219512E+03  0.39369050874E+03 -0.18034633827E+04  0.18566572096E+04  0.46999998093E+01 0. -1.
       -5    1    3    3    0  502 -0.19920219512E+03 -0.39369050874E+03  0.19631922069E+04  0.20121678514E+04  0.46999998093E+01 0.  1.
</event>
<event>
 5   0  0.4750125E-08  0.3855552E+04  0.7818609E-02  0.8034337E-01
       -1   -1    0    0    0  501  0.00000000000E+00  0.00000000000E+00  0.19794832178E+04  0.19794832178E+04  0.50400001928E-02 0.  1.
        1   -1    0    0  501    0  0.00000000000E+00  0.00000000000E+00 -0.18774197758E+04  0.18774197758E+04  0.50400001928E-02 0. -1.
    10030    2    1    2    0    0  0.00000000000E+00  0.00000000000E+00  0.10206344206E+03  0.38569029936E+04  0.38555523282E+04 0.  0.
        4    1    3    3  502    0  0.10498522010E+04  0.22312238322E+02 -0.15662077065E+04  0.18856552370E+04  0.12699999809E+01 0. -1.
       -4    1    3    3    0  502 -0.10498522010E+04 -0.22312238322E+02  0.16682711486E+04  0.19712477566E+04  0.12699999809E+01 0.  1.
</event>
<event>
 5   0  0.1520986E-07  0.3878945E+04  0.7818609E-02  0.8029422E-01
       -2   -1    0    0    0  501  0.00000000000E+00  0.00000000000E+00  0.27288911868E+04  0.27288911868E+04  0.25500000920E-02 0. -1.
        2   -1    0    0  501    0  0.00000000000E+00  0.00000000000E+00 -0.13784184537E+04  0.13784184537E+04  0.25500000920E-02 0.  1.
    10030    2    1    2    0    0  0.00000000000E+00  0.00000000000E+00  0.13504727330E+04  0.41073096405E+04  0.38789452020E+04 0.  0.
        4    1    3    3  502    0 -0.17912495894E+04 -0.31468489508E+03 -0.38188326209E+02  0.18190826358E+04  0.12699999809E+01 0. -1.
       -4    1    3    3    0  502  0.17912495894E+04  0.31468489508E+03  0.13886610593E+04  0.22882270047E+04  0.12699999809E+01 0.  1.
</event>
<event>
 5   0  0.1546846E-07  0.3912844E+04  0.7818609E-02  0.8022363E-01
        2   -1    0    0  501    0  0.00000000000E+00  0.00000000000E+00  0.20440317191E+04  0.20440317191E+04  0.25500000920E-02 0. -1.
       -2   -1    0    0    0  501  0.00000000000E+00  0.00000000000E+00 -0.18725670724E+04  0.18725670724E+04  0.25500000920E-02 0.  1.
    10030    2    1    2    0    0  0.00000000000E+00  0.00000000000E+00  0.17146464674E+03  0.39165987915E+04  0.39128437189E+04 0.  0.
        2    1    3    3  502    0 -0.15270450818E+04 -0.59522001023E+03 -0.98367163142E+03  0.19114819960E+04  0.25500000920E-02 0.  1.
       -2    1    3    3    0  502  0.15270450818E+04  0.59522001023E+03  0.11551362782E+04  0.20051167955E+04  0.25500000920E-02 0. -1.
</event>
<event>
 5   0  0.4750125E-08  0.3900443E+04  0.7818609E-02  0.8024937E-01
        1   -1    0    0  501    0  0.00000000000E+00  0.00000000000E+00  0.19504651975E+04  0.19504651975E+04  0.50400001928E-02 0. -1.
       -1   -1    0    0    0  501  0.00000000000E+00  0.00000000000E+00 -0.19499776939E+04  0.19499776939E+04  0.50400001928E-02 0.  1.
    10030    2    1    2    0    0  0.00000000000E+00  0.00000000000E+00  0.48750356596E+00  0.39004428914E+04  0.39004428609E+04 0.  0.
        3    1    3    3  502    0  0.11599250852E+04 -0.47016716092E+03 -0.14953766179E+04  0.19500345130E+04  0.10100000352E+00 0.  1.
       -3    1    3    3    0  502 -0.11599250852E+04  0.47016716092E+03  0.14958641214E+04  0.19504083784E+04  0.10100000352E+00 0. -1.
</event>
<event>
 5   0  0.1546846E-07  0.3902084E+04  0.7818609E-02  0.8024596E-01
        2   -1    0    0  501    0  0.00000000000E+00  0.00000000000E+00  0.16350839111E+04  0.16350839111E+04  0.25500000920E-02 0.  1.
       -2   -1    0    0    0  501  0.00000000000E+00  0.00000000000E+00 -0.23280546446E+04  0.23280546446E+04  0.25500000920E-02 0. -1.
    10030    2    1    2    0    0  0.00000000000E+00  0.00000000000E+00 -0.69297073353E+03  0.39631385557E+04  0.39020839015E+04 0.  0.
        2    1    3    3  502    0 -0.36211376404E+03  0.10806169430E+04  0.12618658982E+04  0.17003425833E+04  0.25500000920E-02 0.  1.
       -2    1    3    3    0  502  0.36211376404E+03 -0.10806169430E+04 -0.19548366317E+04  0.22627959723E+04  0.25500000920E-02 0. -1.
</event>
<event>
 5   0  0.4750125E-08  0.3903063E+04  0.7818609E-02  0.8024393E-01
        1   -1    0    0  501    0  0.00000000000E+00  0.00000000000E+00  0.23344650523E+04  0.23344650523E+04  0.50400001928E-02 0.  1.
       -1   -1    0    0    0  501  0.00000000000E+00  0.00000000000E+00 -0.16314120854E+04  0.16314120854E+04  0.50400001928E-02 0. -1.
    10030    2    1    2    0    0  0.00000000000E+00  0.00000000000E+00  0.70305296684E+03  0.39658771377E+04  0.39030626433E+04 0.  0.
        4    1    3    3  502    0 -0.17242264969E+04  0.28808509347E+02 -0.57678833711E+03  0.18183710681E+04  0.12699999809E+01 0. -1.
       -4    1    3    3    0  502  0.17242264969E+04 -0.28808509347E+02  0.12798413039E+04  0.21475060696E+04  0.12699999809E+01 0.  1.
</event>
<event>
 5   0  0.4750125E-08  0.4105482E+04  0.7818609E-02  0.7983599E-01
        1   -1    0    0  501    0  0.00000000000E+00  0.00000000000E+00  0.20183755971E+04  0.20183755971E+04  0.50400001928E-02 0.  1.
       -1   -1    0    0    0  501  0.00000000000E+00  0.00000000000E+00 -0.20876916575E+04  0.20876916575E+04  0.50400001928E-02 0. -1.
    10030    2    1    2    0    0  0.00000000000E+00  0.00000000000E+00 -0.69316060376E+02  0.41060672546E+04  0.41054821377E+04 0.  0.
        1    1    3    3  502    0 -0.36476709025E+03  0.73668338592E+03  0.18465641791E+04  0.20212760100E+04  0.50400001928E-02 0.  1.
       -1    1    3    3    0  502  0.36476709025E+03 -0.73668338592E+03 -0.19158802395E+04  0.20847912445E+04  0.50400001928E-02 0. -1.
</event>
<event>
 5   0  0.1538018E-07  0.3890425E+04  0.7818609E-02  0.8027024E-01
       -2   -1    0    0    0  501  0.00000000000E+00  0.00000000000E+00  0.18582659354E+04  0.18582659354E+04  0.25500000920E-02 0.  1.
        2   -1    0    0  501    0  0.00000000000E+00  0.00000000000E+00 -0.20362272575E+04  0.20362272575E+04  0.25500000920E-02 0. -1.
    10030    2    1    2    0    0  0.00000000000E+00  0.00000000000E+00 -0.17796132215E+03  0.38944931929E+04  0.38904250407E+04 0.  0.
        1    1    3    3  502    0 -0.11259017546E+04  0.10103483980E+04 -0.13131220553E+04  0.20031845094E+04  0.50400001928E-02 0. -1.
       -1    1    3    3    0  502  0.11259017546E+04 -0.10103483980E+04  0.11351607331E+04  0.18913086836E+04  0.50400001928E-02 0.  1.
</event>
<event>
 5   0  0.1546846E-07  0.3578260E+04  0.7818609E-02  0.8095490E-01
        2   -1    0    0  501    0  0.00000000000E+00  0.00000000000E+00  0.22376655020E+04  0.22376655020E+04  0.25500000920E-02 0.  1.
       -2   -1    0    0    0  501  0.00000000000E+00  0.00000000000E+00 -0.14305024751E+04  0.14305024751E+04  0.25500000920E-02 0. -1.
    10030    2    1    2    0    0  0.00000000000E+00  0.00000000000E+00  0.80716302688E+03  0.36681679772E+04  0.35782599342E+04 0.  0.
        2    1    3    3  502    0  0.64474931532E+03 -0.65798704116E+03 -0.11686885214E+04  0.14881133983E+04  0.25500000920E-02 0. -1.
       -2    1    3    3    0  502 -0.64474931532E+03  0.65798704116E+03  0.19758515483E+04  0.21800545789E+04  0.25500000920E-02 0.  1.
</event>
<event>
 5   0  0.4750125E-08  0.3863405E+04  0.7818609E-02  0.8032684E-01
        1   -1    0    0  501    0  0.00000000000E+00  0.00000000000E+00  0.23394189120E+04  0.23394189120E+04  0.50400001928E-02 0. -1.
       -1   -1    0    0    0  501  0.00000000000E+00  0.00000000000E+00 -0.15950429548E+04  0.15950429548E+04  0.50400001928E-02 0.  1.
    10030    2    1    2    0    0  0.00000000000E+00  0.00000000000E+00  0.74437595719E+03  0.39344618667E+04  0.38634045368E+04 0.  0.
        1    1    3    3  502    0  0.95475718052E+03  0.76926414293E+02 -0.13361617895E+04  0.16440216771E+04  0.50400001928E-02 0.  1.
       -1    1    3    3    0  502 -0.95475718052E+03 -0.76926414293E+02  0.20805377467E+04  0.22904401896E+04  0.50400001928E-02 0. -1.
</event>
<event>
 5   0  0.4762788E-08  0.3947656E+04  0.7818609E-02  0.8015190E-01
        1   -1    0    0  501    0  0.00000000000E+00  0.00000000000E+00  0.18751961784E+04  0.18751961784E+04  0.50400001928E-02 0.  1.
       -1   -1    0    0    0  501  0.00000000000E+00  0.00000000000E+00 -0.20776479306E+04  0.20776479306E+04  0.50400001928E-02 0. -1.
    10030    2    1    2    0    0  0.00000000000E+00  0.00000000000E+00 -0.20245175212E+03  0.39528441090E+04  0.39476562462E+04 0.  0.
        2    1    3    3  502    0  0.45687453344E+03 -0.15495332761E+04 -0.12368281593E+04  0.20345838908E+04  0.25500000920E-02 0. -1.
       -2    1    3    3    0  502 -0.45687453344E+03  0.15495332761E+04  0.10343764072E+04  0.19182602182E+04  0.25500000920E-02 0.  1.
</event>
<event>
 5   0  0.1538018E-07  0.3911494E+04  0.7818609E-02  0.8022643E-01
        2   -1    0    0  501    0  0.00000000000E+00  0.00000000000E+00  0.24144171055E+04  0.24144171055E+04  0.25500000920E-02 0. -1.
       -2   -1    0    0    0  501  0.00000000000E+00  0.00000000000E+00 -0.15842110093E+04  0.15842110093E+04  0.25500000920E-02 0.  1.
    10030    2    1    2    0    0  0.00000000000E+00  0.00000000000E+00  0.83020609629E+03  0.39986281148E+04  0.39114939139E+04 0.  0.
        1    1    3    3  502    0  0.17435540066E+04  0.98498088295E+02 -0.48500176619E+03  0.18124318361E+04  0.50400001928E-02 0.  1.
       -1    1    3    3    0  502 -0.17435540066E+04 -0.98498088295E+02  0.13152078625E+04  0.21861962787E+04  0.50400001928E-02 0. -1.
</event>
<event>
 5   0  0.4762788E-08  0.3868520E+04  0.7818609E-02  0.8031609E-01
       -1   -1    0    0    0  501  0.00000000000E+00  0.00000000000E+00  0.22650806074E+04  0.22650806074E+04  0.50400001928E-02 0.  1.
        1   -1    0    0  501    0  0.00000000000E+00  0.00000000000E+00 -0.16517562575E+04  0.16517562575E+04  0.50400001928E-02 0. -1.
    10030    2    1    2    0    0  0.00000000000E+00  0.00000000000E+00  0.61332434990E+03  0.39168368650E+04  0.38685196482E+04 0.  0.
        2    1    3    3  502    0  0.16676229037E+04 -0.49263145002E+03  0.11644204670E+04  0.20927319270E+04  0.25500000920E-02 0.  1.
       -2    1    3    3    0  502 -0.16676229037E+04  0.49263145002E+03 -0.55109611712E+03  0.18241049380E+04  0.25500000920E-02 0. -1.
</event>
<event>
 5   0  0.4750125E-08  0.3882555E+04  0.7818609E-02  0.8028667E-01
       -1   -1    0    0    0  501  0.00000000000E+00  0.00000000000E+00  0.24843366509E+04  0.24843366509E+04  0.50400001928E-02 0. -1.
        1   -1    0    0  501    0  0.00000000000E+00  0.00000000000E+00 -0.15169277670E+04  0.15169277671E+04  0.50400001928E-02 0.  1.
    10030    2    1    2    0    0  0.00000000000E+00  0.00000000000E+00  0.96740888381E+03  0.40012644179E+04  0.38825554721E+04 0.  0.
        3    1    3    3  502    0 -0.97016501868E+03  0.10922233175E+04  0.18012240035E+04  0.23191765478E+04  0.10100000352E+00 0. -1.
       -3    1    3    3    0  502  0.97016501868E+03 -0.10922233175E+04 -0.83381511969E+03  0.16820878701E+04  0.10100000352E+00 0.  1.
</event>
<event>
 5   0  0.1520986E-07  0.3951512E+04  0.7818609E-02  0.8014400E-01
        2   -1    0    0  501    0  0.00000000000E+00  0.00000000000E+00  0.15296919162E+04  0.15296919162E+04  0.25500000920E-02 0.  1.
       -2   -1    0    0    0  501  0.00000000000E+00  0.00000000000E+00 -0.25518935612E+04  0.25518935612E+04  0.25500000920E-02 0. -1.
    10030    2    1    2    0    0  0.00000000000E+00  0.00000000000E+00 -0.10222016450E+04  0.40815854773E+04  0.39515115849E+04 0.  0.
        4    1    3    3  502    0  0.99228994916E+03  0.17021987434E+04 -0.66251903607E+03  0.20787142640E+04  0.12699999809E+01 0. -1.
       -4    1    3    3    0  502 -0.99228994916E+03 -0.17021987434E+04 -0.35968260892E+03  0.20028712133E+04  0.12699999809E+01 0.  1.
</event>
<event>
 5   0  0.1520986E-07  0.3884460E+04  0.7818609E-02  0.8028269E-01
        2   -1    0    0  501    0  0.00000000000E+00  0.00000000000E+00  0.15994389797E+04  0.15994389797E+04  0.25500000920E-02 0. -1.
       -2   -1    0    0    0  501  0.00000000000E+00  0.00000000000E+00 -0.23584877183E+04  0.23584877183E+04  0.25500000920E-02 0.  1.
    10030    2    1    2    0    0  0.00000000000E+00  0.00000000000E+00 -0.75904873859E+03  0.39579266981E+04  0.38844599058E+04 0.  0.
        4    1    3    3  502    0 -0.88609302226E+03 -0.39669135709E+02  0.13810208140E+04  0.16413270807E+04  0.12699999809E+01 0. -1.
       -4    1    3    3    0  502  0.88609302226E+03  0.39669135709E+02 -0.21400695526E+04  0.23165996174E+04  0.12699999809E+01 0.  1.
</event>
<event>
 5   0  0.1520986E-07  0.3918847E+04  0.7818609E-02  0.8021121E-01
        2   -1    0    0  501    0  0.00000000000E+00  0.00000000000E+00  0.22930455484E+04  0.22930455484E+04  0.25500000920E-02 0. -1.
       -2   -1    0    0    0  501  0.00000000000E+00  0.00000000000E+00 -0.16743414046E+04  0.16743414046E+04  0.25500000920E-02 0.  1.
    10030    2    1    2    0    0  0.00000000000E+00  0.00000000000E+00  0.61870414381E+03  0.39673869530E+04  0.39188473327E+04 0.  0.
        4    1    3    3  502    0  0.17099835610E+04 -0.72711422597E+03 -0.32012147821E+03  0.18855286394E+04  0.12699999809E+01 0. -1.
       -4    1    3    3    0  502 -0.17099835610E+04  0.72711422597E+03  0.93882562202E+03  0.20818583136E+04  0.12699999809E+01 0.  1.
</event>
<event>
 5   0  0.1503228E-07  0.3894429E+04  0.7818609E-02  0.8026189E-01
        2   -1    0    0  501    0  0.00000000000E+00  0.00000000000E+00  0.18789441730E+04  0.18789441730E+04  0.25500000920E-02 0.  1.
       -2   -1    0    0    0  501  0.00000000000E+00  0.00000000000E+00 -0.20179654925E+04  0.20179654925E+04  0.25500000920E-02 0. -1.
    10030    2    1    2    0    0  0.00000000000E+00  0.00000000000E+00 -0.13902131944E+03  0.38969096655E+04  0.38944290999E+04 0.  0.
        3    1    3    3  502    0  0.33575669099E+03 -0.11786714355E+04  0.14446106379E+04  0.18944389179E+04  0.10100000352E+00 0. -1.
       -3    1    3    3    0  502 -0.33575669099E+03  0.11786714355E+04 -0.15836319573E+04  0.20024707476E+04  0.10100000352E+00 0.  1.
</event>
<event>
 5   0  0.4750125E-08  0.3848581E+04  0.7818609E-02  0.8035809E-01
       -1   -1    0    0    0  501  0.00000000000E+00  0.00000000000E+00  0.11367529716E+04  0.11367529716E+04  0.50400001928E-02 0.  1.
        1   -1    0    0  501    0  0.00000000000E+00  0.00000000000E+00 -0.32574299449E+04  0.32574299449E+04  0.50400001928E-02 0. -1.
    10030    2    1    2    0    0  0.00000000000E+00  0.00000000000E+00 -0.21206769733E+04  0.43941829165E+04  0.38485806057E+04 0.  0.
        1    1    3    3  502    0 -0.84001269398E+03 -0.47041446357E+03 -0.29626685582E+04  0.31151751282E+04  0.50400001928E-02 0. -1.
       -1    1    3    3    0  502  0.84001269398E+03  0.47041446357E+03  0.84199158489E+03  0.12790077883E+04  0.50400001928E-02 0.  1.
</event>
<event>
 5   0  0.1546846E-07  0.3960464E+04  0.7818609E-02  0.8012570E-01
       -2   -1    0    0    0  501  0.00000000000E+00  0.00000000000E+00  0.16244026681E+04  0.16244026681E+04  0.25500000920E-02 0.  1.
        2   -1    0    0  501    0  0.00000000000E+00  0.00000000000E+00 -0.24140065053E+04  0.24140065053E+04  0.25500000920E-02 0. -1.
    10030    2    1    2    0    0  0.00000000000E+00  0.00000000000E+00 -0.78960383722E+03  0.40384091735E+04  0.39604639163E+04 0.  0.
        2    1    3    3  502    0  0.10630384947E+04 -0.75645130290E+02 -0.20966445307E+04  0.23519547859E+04  0.25500000920E-02 0. -1.
       -2    1    3    3    0  502 -0.10630384947E+04  0.75645130290E+02  0.13070406935E+04  0.16864543876E+04  0.25500000920E-02 0.  1.
</event>
<event>
 5   0  0.1538018E-07  0.3882516E+04  0.7818609E-02  0.8028675E-01
       -2   -1    0    0    0  501  0.00000000000E+00  0.00000000000E+00  0.19691912443E+04  0.19691912443E+04  0.25500000920E-02 0. -1.
        2   -1    0    0  501    0  0.00000000000E+00  0.00000000000E+00 -0.19137206576E+04  0.19137206576E+04  0.25500000920E-02 0.  1.
    10030    2    1    2    0    0  0.00000000000E+00  0.00000000000E+00  0.55470586698E+02  0.38829119019E+04  0.38825156602E+04 0.  0.
        1    1    3    3  502    0 -0.19077155418E+04  0.33210819735E+03  0.16488980031E+03  0.19434153158E+04  0.50400001928E-02 0. -1.
       -1    1    3    3    0  502  0.19077155418E+04 -0.33210819735E+03 -0.10941921361E+03  0.19394965861E+04  0.50400001928E-02 0.  1.
</event>
<event>
 5   0  0.4762788E-08  0.3934620E+04  0.7818609E-02  0.8017867E-01
       -1   -1    0    0    0  501  0.00000000000E+00  0.00000000000E+00  0.21919311497E+04  0.21919311497E+04  0.50400001928E-02 0.  1.
        1   -1    0    0  501    0  0.00000000000E+00  0.00000000000E+00 -0.17657071222E+04  0.17657071222E+04  0.50400001928E-02 0. -1.
    10030    2    1    2    0    0  0.00000000000E+00  0.00000000000E+00  0.42622402742E+03  0.39576382719E+04  0.39346199016E+04 0.  0.
        2    1    3    3  502    0 -0.52722721044E+03 -0.18370960497E+04 -0.25589687774E+03  0.19283084918E+04  0.25500000920E-02 0. -1.
       -2    1    3    3    0  502  0.52722721044E+03  0.18370960497E+04  0.68212090516E+03  0.20293297802E+04  0.25500000920E-02 0.  1.
</event>
<event>
 5   0  0.4762788E-08  0.3907938E+04  0.7818609E-02  0.8023380E-01
       -1   -1    0    0    0  501  0.00000000000E+00  0.00000000000E+00  0.20355173698E+04  0.20355173698E+04  0.50400001928E-02 0.  1.
        1   -1    0    0  501    0  0.00000000000E+00  0.00000000000E+00 -0.18756873735E+04  0.18756873735E+04  0.50400001928E-02 0. -1.
    10030    2    1    2    0    0  0.00000000000E+00  0.00000000000E+00  0.15982999627E+03  0.39112047433E+04  0.39079376807E+04 0.  0.
        2    1    3    3  502    0 -0.16962174580E+04 -0.90926777225E+03  0.41794383358E+03  0.19694158003E+04  0.25500000920E-02 0.  1.
       -2    1    3    3    0  502  0.16962174580E+04  0.90926777225E+03 -0.25811383731E+03  0.19417889430E+04  0.25500000920E-02 0. -1.
</event>
<event>
 5   0  0.1538018E-07  0.3906296E+04  0.7818609E-02  0.8023721E-01
       -2   -1    0    0    0  501  0.00000000000E+00  0.00000000000E+00  0.16028703903E+04  0.16028703903E+04  0.25500000920E-02 0.  1.
        2   -1    0    0  501    0  0.00000000000E+00  0.00000000000E+00 -0.23799720541E+04  0.23799720541E+04  0.25500000920E-02 0. -1.
    10030    2    1    2    0    0  0.00000000000E+00  0.00000000000E+00 -0.77710166384E+03  0.39828424444E+04  0.39062958082E+04 0.  0.
        1    1    3    3  502    0 -0.10285975304E+04 -0.98151906957E+03  0.97686796147E+03  0.17250111819E+04  0.50400001928E-02 0.  1.
       -1    1    3    3    0  502  0.10285975304E+04  0.98151906957E+03 -0.17539696253E+04  0.22578312625E+04  0.50400001928E-02 0. -1.
</event>
<event>
 5   0  0.1520986E-07  0.3692128E+04  0.7818609E-02  0.8069709E-01
       -2   -1    0    0    0  501  0.00000000000E+00  0.00000000000E+00  0.23219050732E+04  0.23219050732E+04  0.25500000920E-02 0.  1.
        2   -1    0    0  501    0  0.00000000000E+00  0.00000000000E+00 -0.14677393406E+04  0.14677393406E+04  0.25500000920E-02 0. -1.
    10030    2    1    2    0    0  0.00000000000E+00  0.00000000000E+00  0.85416573265E+03  0.37896444138E+04  0.36921275282E+04 0.  0.
        4    1    3    3  502    0  0.99311681321E+03  0.15056839377E+04  0.83063997174E+03  0.19857818361E+04  0.12699999809E+01 0. -1.
       -4    1    3    3    0  502 -0.99311681321E+03 -0.15056839377E+04  0.23525760913E+02  0.18038625777E+04  0.12699999809E+01 0.  1.
</event>
<event>
 5   0  0.1520986E-07  0.3899589E+04  0.7818609E-02  0.8025115E-01
       -2   -1    0    0    0  501  0.00000000000E+00  0.00000000000E+00  0.15510944226E+04  0.15510944226E+04  0.25500000920E-02 0. -1.
        2   -1    0    0  501    0  0.00000000000E+00  0.00000000000E+00 -0.24509776421E+04  0.24509776421E+04  0.25500000920E-02 0.  1.
    10030    2    1    2    0    0  0.00000000000E+00  0.00000000000E+00 -0.89988321952E+03  0.40020720647E+04  0.38995885684E+04 0.  0.
        4    1    3    3  502    0  0.47322228581E+03  0.85315847842E+03 -0.21824653965E+04  0.23906015019E+04  0.12699999809E+01 0.  1.
       -4    1    3    3    0  502 -0.47322228581E+03 -0.85315847842E+03  0.12825821770E+04  0.16114705628E+04  0.12699999809E+01 0. -1.
</event>
<event>
 5   0  0.4750125E-08  0.3879169E+04  0.7818609E-02  0.8029376E-01
        1   -1    0    0  501    0  0.00000000000E+00  0.00000000000E+00  0.19593733526E+04  0.19593733526E+04  0.50400001928E-02 0.  1.
       -1   -1    0    0    0  501  0.00000000000E+00  0.00000000000E+00 -0.19199958738E+04  0.19199958738E+04  0.50400001928E-02 0. -1.
    10030    2    1    2    0    0  0.00000000000E+00  0.00000000000E+00  0.39377478810E+02  0.38793692264E+04  0.38791693710E+04 0.  0.
        3    1    3    3  502    0  0.96934014158E+03  0.28308372995E+03  0.16757426641E+04  0.19564943636E+04  0.10100000352E+00 0.  1.
       -3    1    3    3    0  502 -0.96934014158E+03 -0.28308372995E+03 -0.16363651853E+04  0.19228748628E+04  0.10100000352E+00 0. -1.
</event>
<event>
 5   0  0.4750125E-08  0.3911464E+04  0.7818609E-02  0.8022649E-01
       -1   -1    0    0    0  501  0.00000000000E+00  0.00000000000E+00  0.17225647198E+04  0.17225647198E+04  0.50400001928E-02 0. -1.
        1   -1    0    0  501    0  0.00000000000E+00  0.00000000000E+00 -0.22204612975E+04  0.22204612975E+04  0.50400001928E-02 0.  1.
    10030    2    1    2    0    0  0.00000000000E+00  0.00000000000E+00 -0.49789657772E+03  0.39430260172E+04  0.39114643256E+04 0.  0.
        5    1    3    3  502    0 -0.41997254497E+03 -0.13968700106E+04  0.10643468542E+04  0.18056796729E+04  0.46999998093E+01 0. -1.
       -5    1    3    3    0  502  0.41997254497E+03  0.13968700106E+04 -0.15622434319E+04  0.21373463443E+04  0.46999998093E+01 0.  1.
</event>
<event>
 5   0  0.1546846E-07  0.3857868E+04  0.7818609E-02  0.8033849E-01
        2   -1    0    0  501    0  0.00000000000E+00  0.00000000000E+00  0.14728125572E+04  0.14728125572E+04  0.25500000920E-02 0.  1.
       -2   -1    0    0    0  501  0.00000000000E+00  0.00000000000E+00 -0.25263134710E+04  0.25263134710E+04  0.25500000920E-02 0. -1.
    10030    2    1    2    0    0  0.00000000000E+00  0.00000000000E+00 -0.10535009138E+04  0.39991260282E+04  0.38578679104E+04 0.  0.
        2    1    3    3  502    0  0.13346292226E+04  0.10983581784E+04 -0.14143503127E+04  0.22333859176E+04  0.25500000920E-02 0. -1.
       -2    1    3    3    0  502 -0.13346292226E+04 -0.10983581784E+04  0.36084939884E+03  0.17657401107E+04  0.25500000920E-02 0.  1.
</event>
<event>
 5   0  0.4762788E-08  0.3903428E+04  0.7818609E-02  0.8024317E-01
       -1   -1    0    0    0  501  0.00000000000E+00  0.00000000000E+00  0.20655575883E+04  0.20655575883E+04  0.50400001928E-02 0.  1.
        1   -1    0    0  501    0  0.00000000000E+00  0.00000000000E+00 -0.18441452917E+04  0.18441452917E+04  0.50400001928E-02 0. -1.
    10030    2    1    2    0    0  0.00000000000E+00  0.00000000000E+00  0.22141229659E+03  0.39097028800E+04  0.39034283911E+04 0.  0.
        2    1    3    3  502    0 -0.12130068343E+04 -0.37052455988E+03 -0.13750913830E+04  0.18707085131E+04  0.25500000920E-02 0. -1.
       -2    1    3    3    0  502  0.12130068343E+04  0.37052455988E+03  0.15965036795E+04  0.20389943669E+04  0.25500000920E-02 0.  1.
</event>
<event>
 5   0  0.4762788E-08  0.3890025E+04  0.7818609E-02  0.8027107E-01
        1   -1    0    0  501    0  0.00000000000E+00  0.00000000000E+00  0.24816837276E+04  0.24816837277E+04  0.50400001928E-02 0. -1.
       -1   -1    0    0    0  501  0.00000000000E+00  0.00000000000E+00 -0.15243982200E+04  0.15243982200E+04  0.50400001928E-02 0.  1.
    10030    2    1    2    0    0  0.00000000000E+00  0.00000000000E+00  0.95728550766E+03  0.40060819477E+04  0.38900253249E+04 0.  0.
        2    1    3    3  502    0  0.17057145538E+04  0.58212509682E+03  0.12317203837E+04  0.21829949315E+04  0.25500000920E-02 0. -1.
       -2    1    3    3    0  502 -0.17057145538E+04 -0.58212509682E+03 -0.27443487603E+03  0.18230870162E+04  0.25500000920E-02 0.  1.
</event>
<event>
 5   0  0.4750125E-08  0.3766599E+04  0.7818609E-02  0.8053361E-01
       -1   -1    0    0    0  501  0.00000000000E+00  0.00000000000E+00  0.31055608398E+04  0.31055608398E+04  0.50400001928E-02 0.  1.
        1   -1    0    0  501    0  0.00000000000E+00  0.00000000000E+00 -0.11420859076E+04  0.11420859076E+04  0.50400001928E-02 0. -1.
    10030    2    1    2    0    0  0.00000000000E+00  0.00000000000E+00  0.19634749322E+04  0.42476467475E+04  0.37665991401E+04 0.  0.
        1    1    3    3  502    0  0.69500968700E+03 -0.10107950646E+04  0.25932531230E+04  0.28687465708E+04  0.50400001928E-02 0.  1.
       -1    1    3    3    0  502 -0.69500968700E+03  0.10107950646E+04 -0.62977819078E+03  0.13789001767E+04  0.50400001928E-02 0. -1.
</event>
<event>
 5   0  0.1546846E-07  0.3892084E+04  0.7818609E-02  0.8026678E-01
       -2   -1    0    0    0  501  0.00000000000E+00  0.00000000000E+00  0.19488895870E+04  0.19488895870E+04  0.25500000920E-02 0. -1.
        2   -1    0    0  501    0  0.00000000000E+00  0.00000000000E+00 -0.19431981202E+04  0.19431981202E+04  0.25500000920E-02 0.  1.
    10030    2    1    2    0    0  0.00000000000E+00  0.00000000000E+00  0.56914668119E+01  0.38920877072E+04  0.38920835458E+04 0.  0.
        2    1    3    3  502    0  0.59129903605E+03  0.14965778114E+04  0.10972412046E+04  0.19476442069E+04  0.25500000920E-02 0. -1.
       -2    1    3    3    0  502 -0.59129903605E+03 -0.14965778114E+04 -0.10915497378E+04  0.19444435003E+04  0.25500000920E-02 0.  1.
</event>
<event>
 5   0  0.1520986E-07  0.3878069E+04  0.7818609E-02  0.8029606E-01
       -2   -1    0    0    0  501  0.00000000000E+00  0.00000000000E+00  0.25699348436E+04  0.25699348436E+04  0.25500000920E-02 0. -1.
        2   -1    0    0  501    0  0.00000000000E+00  0.00000000000E+00 -0.14630156750E+04  0.14630156750E+04  0.25500000920E-02 0.  1.
    10030    2    1    2    0    0  0.00000000000E+00  0.00000000000E+00  0.11069191686E+04  0.40329505185E+04  0.38780690864E+04 0.  0.
        4    1    3    3  502    0  0.83150672786E+03 -0.17047239431E+04  0.97249926177E+03  0.21314885849E+04  0.12699999809E+01 0. -1.
       -4    1    3    3    0  502 -0.83150672786E+03  0.17047239431E+04  0.13441990684E+03  0.19014619336E+04  0.12699999809E+01 0.  1.
</event>
<event>
 5   0  0.4750125E-08  0.3910114E+04  0.7818609E-02  0.8022929E-01
       -1   -1    0    0    0  501  0.00000000000E+00  0.00000000000E+00  0.20499212388E+04  0.20499212388E+04  0.50400001928E-02 0.  1.
        1   -1    0    0  501    0  0.00000000000E+00  0.00000000000E+00 -0.18645828174E+04  0.18645828174E+04  0.50400001928E-02 0. -1.
    10030    2    1    2    0    0  0.00000000000E+00  0.00000000000E+00  0.18533842138E+03  0.39145040561E+04  0.39101140233E+04 0.  0.
        3    1    3    3  502    0  0.76853901870E+03  0.25522694703E+03 -0.16887821862E+04  0.18729063779E+04  0.10100000352E+00 0. -1.
       -3    1    3    3    0  502 -0.76853901870E+03 -0.25522694703E+03  0.18741206076E+04  0.20415976782E+04  0.10100000352E+00 0.  1.
</event>
<event>
 5   0  0.1538018E-07  0.3859420E+04  0.7818609E-02  0.8033522E-01
       -2   -1    0    0    0  501  0.00000000000E+00  0.00000000000E+00  0.16571946245E+04  0.16571946245E+04  0.25500000920E-02 0. -1.
        2   -1    0    0  501    0  0.00000000000E+00  0.00000000000E+00 -0.22470389057E+04  0.22470389057E+04  0.25500000920E-02 0.  1.
    10030    2    1    2    0    0  0.00000000000E+00  0.00000000000E+00 -0.58984428116E+03  0.39042335302E+04  0.38594200577E+04 0.  0.
        1    1    3    3  502    0  0.10067122593E+04 -0.12895118541E+04 -0.13302660120E+04  0.21085345759E+04  0.50400001928E-02 0.  1.
       -1    1    3    3    0  502 -0.10067122593E+04  0.12895118541E+04  0.74042173084E+03  0.17956989543E+04  0.50400001928E-02 0. -1.
</event>
<event>
 5   0  0.4762788E-08  0.3900069E+04  0.7818609E-02  0.8025015E-01
        1   -1    0    0  501    0  0.00000000000E+00  0.00000000000E+00  0.29229499265E+04  0.29229499265E+04  0.50400001928E-02 0.  1.
       -1   -1    0    0    0  501  0.00000000000E+00  0.00000000000E+00 -0.13009578584E+04  0.13009578584E+04  0.50400001928E-02 0. -1.
    10030    2    1    2    0    0  0.00000000000E+00  0.00000000000E+00  0.16219920681E+04  0.42239077848E+04  0.39000690642E+04 0.  0.
        2    1    3    3  502    0 -0.15057836774E+04 -0.29290348161E+03  0.21148979092E+04  0.26126557559E+04  0.25500000920E-02 0.  1.
       -2    1    3    3    0  502  0.15057836774E+04  0.29290348161E+03 -0.49290584108E+03  0.16112520289E+04  0.25500000920E-02 0. -1.
</event>
<event>
 5   0  0.4750125E-08  0.3931067E+04  0.7818609E-02  0.8018599E-01
        1   -1    0    0  501    0  0.00000000000E+00  0.00000000000E+00  0.16288502243E+04  0.16288502243E+04  0.50400001928E-02 0.  1.
       -1   -1    0    0    0  501  0.00000000000E+00  0.00000000000E+00 -0.23718088190E+04  0.23718088190E+04  0.50400001928E-02 0. -1.
    10030    2    1    2    0    0  0.00000000000E+00  0.00000000000E+00 -0.74295859472E+03  0.40006590433E+04  0.39310666883E+04 0.  0.
        1    1    3    3  502    0 -0.99953248796E+03  0.27217456300E+03 -0.20714326988E+04  0.23160262548E+04  0.50400001928E-02 0. -1.
       -1    1    3    3    0  502  0.99953248796E+03 -0.27217456300E+03  0.13284741040E+04  0.16846327886E+04  0.50400001928E-02 0.  1.
</event>
<event>
 5   0  0.4750125E-08  0.3906615E+04  0.7818609E-02  0.8023655E-01
        1   -1    0    0  501    0  0.00000000000E+00  0.00000000000E+00  0.14958787524E+04  0.14958787525E+04  0.50400001928E-02 0.  1.
       -1   -1    0    0    0  501  0.00000000000E+00  0.00000000000E+00 -0.25506148521E+04  0.25506148521E+04  0.50400001928E-02 0. -1.
    10030    2    1    2    0    0  0.00000000000E+00  0.00000000000E+00 -0.10547360997E+04  0.40464936046E+04  0.39066151912E+04 0.  0.
        3    1    3    3  502    0  0.12061029463E+04  0.35876001273E+03  0.10201189897E+04  0.16198875970E+04  0.10100000352E+00 0.  1.
       -3    1    3    3    0  502 -0.12061029463E+04 -0.35876001273E+03 -0.20748550894E+04  0.24266060075E+04  0.10100000352E+00 0. -1.
</event>
<event>
 5   0  0.4750125E-08  0.3915136E+04  0.7818609E-02  0.8021889E-01
       -1   -1    0    0    0  501  0.00000000000E+00  0.00000000000E+00  0.21968451115E+04  0.21968451115E+04  0.50400001928E-02 0. -1.
        1   -1    0    0  501    0  0.00000000000E+00  0.00000000000E+00 -0.17443528058E+04  0.17443528058E+04  0.50400001928E-02 0.  1.
    10030    2    1    2    0    0  0.00000000000E+00  0.00000000000E+00  0.45249230564E+03  0.39411979173E+04  0.39151362347E+04 0.  0.
        1    1    3    3  502    0 -0.17226135111E+04 -0.69695506199E+03  0.84591610942E+03  0.20417437967E+04  0.50400001928E-02 0. -1.
       -1    1    3    3    0  502  0.17226135111E+04  0.69695506199E+03 -0.39342380378E+03  0.18994541206E+04  0.50400001928E-02 0.  1.
</event>
<event>
 5   0  0.4750125E-08  0.3896396E+04  0.7818609E-02  0.8025779E-01
       -1   -1    0    0    0  501  0.00000000000E+00  0.00000000000E+00  0.25801951465E+04  0.25801951465E+04  0.50400001928E-02 0.  1.
        1   -1    0    0  501    0  0.00000000000E+00  0.00000000000E+00 -0.14710031436E+04  0.14710031436E+04  0.50400001928E-02 0. -1.
    10030    2    1    2    0    0  0.00000000000E+00  0.00000000000E+00  0.11091920029E+04  0.40511982902E+04  0.38963958586E+04 0.  0.
        1    1    3    3  502    0 -0.50621341605E+03 -0.79032819480E+03 -0.12204525755E+04  0.15396022757E+04  0.50400001928E-02 0. -1.
       -1    1    3    3    0  502  0.50621341605E+03  0.79032819480E+03  0.23296445785E+04  0.25115960145E+04  0.50400001928E-02 0.  1.
</event>
<event>
 5   0  0.4762788E-08  0.3868017E+04  0.7818609E-02  0.8031714E-01
       -1   -1    0    0    0  501  0.00000000000E+00  0.00000000000E+00  0.30238503404E+04  0.30238503404E+04  0.50400001928E-02 0. -1.
        1   -1    0    0  501    0  0.00000000000E+00  0.00000000000E+00 -0.12369624406E+04  0.12369624406E+04  0.50400001928E-02 0.  1.
    10030    2    1    2    0    0  0.00000000000E+00  0.00000000000E+00  0.17868878998E+04  0.42608127811E+04  0.38680172167E+04 0.  0.
        2    1    3    3  502    0 -0.85816862994E+03  0.17285362334E+04  0.75367996607E+03  0.20717925569E+04  0.25500000920E-02 0.  1.
       -2    1    3    3    0  502  0.85816862994E+03 -0.17285362334E+04  0.10332079337E+04  0.21890202242E+04  0.25500000920E-02 0. -1.
</event>
<event>
 5   0  0.4750125E-08  0.3915131E+04  0.7818609E-02  0.8021890E-01
       -1   -1    0    0    0  501  0.00000000000E+00  0.00000000000E+00  0.16996739361E+04  0.16996739361E+04  0.50400001928E-02 0.  1.
        1   -1    0    0  501    0  0.00000000000E+00  0.00000000000E+00 -0.22545867449E+04  0.22545867449E+04  0.50400001928E-02 0. -1.
    10030    2    1    2    0    0  0.00000000000E+00  0.00000000000E+00 -0.55491280876E+03  0.39542606810E+04  0.39151308162E+04 0.  0.
        1    1    3    3  502    0 -0.12078990600E+04  0.14495516819E+04  0.24913938772E+03  0.19032316339E+04  0.50400001928E-02 0.  1.
       -1    1    3    3    0  502  0.12078990600E+04 -0.14495516819E+04 -0.80405219648E+03  0.20510290472E+04  0.50400001928E-02 0. -1.
</event>
<event>
 5   0  0.1546846E-07  0.3912796E+04  0.7818609E-02  0.8022373E-01
        2   -1    0    0  501    0  0.00000000000E+00  0.00000000000E+00  0.22889752916E+04  0.22889752916E+04  0.25500000920E-02 0. -1.
       -2   -1    0    0    0  501  0.00000000000E+00  0.00000000000E+00 -0.16721426580E+04  0.16721426581E+04  0.25500000920E-02 0.  1.
    10030    2    1    2    0    0  0.00000000000E+00  0.00000000000E+00  0.61683263351E+03  0.39611179496E+04  0.39127960480E+04 0.  0.
        2    1    3    3  502    0  0.13279796033E+04 -0.11344599006E+03  0.17582670177E+04  0.22063324149E+04  0.25500000920E-02 0. -1.
       -2    1    3    3    0  502 -0.13279796033E+04  0.11344599006E+03 -0.11414343841E+04  0.17547855347E+04  0.25500000920E-02 0.  1.
</event>
<event>
 5   0  0.4762788E-08  0.3901102E+04  0.7818609E-02  0.8024800E-01
       -1   -1    0    0    0  501  0.00000000000E+00  0.00000000000E+00  0.15267151619E+04  0.15267151619E+04  0.50400001928E-02 0. -1.
        1   -1    0    0  501    0  0.00000000000E+00  0.00000000000E+00 -0.24920496308E+04  0.24920496308E+04  0.50400001928E-02 0.  1.
    10030    2    1    2    0    0  0.00000000000E+00  0.00000000000E+00 -0.96533446894E+03  0.40187647927E+04  0.39011023855E+04 0.  0.
        2    1    3    3  502    0  0.30162002663E+03 -0.58581512708E+03  0.14085967188E+04  0.15550880103E+04  0.25500000920E-02 0. -1.
       -2    1    3    3    0  502 -0.30162002663E+03  0.58581512708E+03 -0.23739311878E+04  0.24636767824E+04  0.25500000920E-02 0.  1.
</event>
<event>
 5   0  0.4750125E-08  0.3865123E+04  0.7818609E-02  0.8032322E-01
        1   -1    0    0  501    0  0.00000000000E+00  0.00000000000E+00  0.29849851700E+04  0.29849851700E+04  0.50400001928E-02 0.  1.
       -1   -1    0    0    0  501  0.00000000000E+00  0.00000000000E+00 -0.12511936582E+04  0.12511936582E+04  0.50400001928E-02 0. -1.
    10030    2    1    2    0    0  0.00000000000E+00  0.00000000000E+00  0.17337915118E+04  0.42361788282E+04  0.38651232915E+04 0.  0.
        5    1    3    3  502    0  0.32844267506E+03  0.80301024297E+03 -0.10257530015E+04  0.13434624488E+04  0.46999998093E+01 0. -1.
       -5    1    3    3    0  502 -0.32844267506E+03 -0.80301024297E+03  0.27595445133E+04  0.28927163794E+04  0.46999998093E+01 0.  1.
</event>
<event>
 5   0  0.1538018E-07  0.3915515E+04  0.7818609E-02  0.8021810E-01
       -2   -1    0    0    0  501  0.00000000000E+00  0.00000000000E+00  0.13879692885E+04  0.13879692885E+04  0.25500000920E-02 0.  1.
        2   -1    0    0  501    0  0.00000000000E+00  0.00000000000E+00 -0.27614549897E+04  0.27614549897E+04  0.25500000920E-02 0. -1.
    10030    2    1    2    0    0  0.00000000000E+00  0.00000000000E+00 -0.13734857012E+04  0.41494242782E+04  0.39155151473E+04 0.  0.
        1    1    3    3  502    0 -0.23320083679E+03 -0.12672726423E+03  0.13688155436E+04  0.13943092993E+04  0.50400001928E-02 0.  1.
       -1    1    3    3    0  502  0.23320083679E+03  0.12672726423E+03 -0.27423012448E+04  0.27551149789E+04  0.50400001928E-02 0. -1.
</event>
<event>
 5   0  0.1538018E-07  0.3898000E+04  0.7818609E-02  0.8025445E-01
        2   -1    0    0  501    0  0.00000000000E+00  0.00000000000E+00  0.27220038493E+04  0.27220038493E+04  0.25500000920E-02 0. -1.
       -2   -1    0    0    0  501  0.00000000000E+00  0.00000000000E+00 -0.13955161757E+04  0.13955161757E+04  0.25500000920E-02 0.  1.
    10030    2    1    2    0    0  0.00000000000E+00  0.00000000000E+00  0.13264876736E+04  0.41175200249E+04  0.38979996931E+04 0.  0.
        1    1    3    3  502    0  0.66600773798E+02 -0.11671827663E+03 -0.13906165990E+04  0.13970946083E+04  0.50400001928E-02 0.  1.
       -1    1    3    3    0  502 -0.66600773798E+02  0.11671827663E+03  0.27171042726E+04  0.27204254166E+04  0.50400001928E-02 0. -1.
</event>
<event>
 5   0  0.1546846E-07  0.3902212E+04  0.7818609E-02  0.8024569E-01
       -2   -1    0    0    0  501  0.00000000000E+00  0.00000000000E+00  0.18125038768E+04  0.18125038768E+04  0.25500000920E-02 0. -1.
        2   -1    0    0  501    0  0.00000000000E+00  0.00000000000E+00 -0.21003065147E+04  0.21003065147E+04  0.25500000920E-02 0.  1.
    10030    2    1    2    0    0  0.00000000000E+00  0.00000000000E+00 -0.28780263790E+03  0.39128103914E+04  0.39022115269E+04 0.  0.
        2    1    3    3  502    0 -0.12934259084E+04  0.54125167995E+03  0.12165852019E+04  0.18563360458E+04  0.25500000920E-02 0. -1.
       -2    1    3    3    0  502  0.12934259084E+04 -0.54125167995E+03 -0.15043878398E+04  0.20564743456E+04  0.25500000920E-02 0.  1.
</event>
<event>
 5   0  0.1501585E-07  0.3916977E+04  0.7818609E-02  0.8021508E-01
        2   -1    0    0  501    0  0.00000000000E+00  0.00000000000E+00  0.15139454120E+04  0.15139454120E+04  0.25500000920E-02 0. -1.
       -2   -1    0    0    0  501  0.00000000000E+00  0.00000000000E+00 -0.25335634038E+04  0.25335634038E+04  0.25500000920E-02 0.  1.
    10030    2    1    2    0    0  0.00000000000E+00  0.00000000000E+00 -0.10196179918E+04  0.40475088157E+04  0.39169767378E+04 0.  0.
        5    1    3    3  502    0  0.30877640535E+03  0.32505564611E+03  0.14601996979E+04  0.15274846282E+04  0.46999998093E+01 0. -1.
       -5    1    3    3    0  502 -0.30877640535E+03 -0.32505564611E+03 -0.24798176897E+04  0.25200241876E+04  0.46999998093E+01 0.  1.
</event>
<event>
 5   0  0.4750125E-08  0.3905066E+04  0.7818609E-02  0.8023976E-01
       -1   -1    0    0    0  501  0.00000000000E+00  0.00000000000E+00  0.22188478099E+04  0.22188478099E+04  0.50400001928E-02 0. -1.
        1   -1    0    0  501    0  0.00000000000E+00  0.00000000000E+00 -0.17181825905E+04  0.17181825905E+04  0.50400001928E-02 0.  1.
    10030    2    1    2    0    0  0.00000000000E+00  0.00000000000E+00  0.50066521942E+03  0.39370304005E+04  0.39050662878E+04 0.  0.
        4    1    3    3  502    0  0.17469779486E+04  0.63886237823E+03 -0.34808033294E+03  0.18924160806E+04  0.12699999809E+01 0.  1.
       -4    1    3    3    0  502 -0.17469779486E+04 -0.63886237823E+03  0.84874555236E+03  0.20446143198E+04  0.12699999809E+01 0. -1.
</event>
<event>
 5   0  0.1538018E-07  0.3845638E+04  0.7818609E-02  0.8036432E-01
       -2   -1    0    0    0  501  0.00000000000E+00  0.00000000000E+00  0.16738478863E+04  0.16738478863E+04  0.25500000920E-02 0. -1.
        2   -1    0    0  501    0  0.00000000000E+00  0.00000000000E+00 -0.22088219641E+04  0.22088219641E+04  0.25500000920E-02 0.  1.
    10030    2    1    2    0    0  0.00000000000E+00  0.00000000000E+00 -0.53497407785E+03  0.38826698504E+04  0.38456375158E+04 0.  0.
        1    1    3    3  502    0  0.30478690578E+03 -0.18818891504E+04 -0.52056023107E+03  0.19762046419E+04  0.50400001928E-02 0. -1.
       -1    1    3    3    0  502 -0.30478690578E+03  0.18818891504E+04 -0.14413846786E+02  0.19064652085E+04  0.50400001928E-02 0.  1.
</event>
<event>
 5   0  0.4750125E-08  0.3882319E+04  0.7818609E-02  0.8028717E-01
       -1   -1    0    0    0  501  0.00000000000E+00  0.00000000000E+00  0.29420249884E+04  0.29420249884E+04  0.50400001928E-02 0. -1.
        1   -1    0    0  501    0  0.00000000000E+00  0.00000000000E+00 -0.12807845141E+04  0.12807845141E+04  0.50400001928E-02 0.  1.
    10030    2    1    2    0    0  0.00000000000E+00  0.00000000000E+00  0.16612404743E+04  0.42228095025E+04  0.38823189180E+04 0.  0.
        1    1    3    3  502    0 -0.68558660435E+03 -0.10884636001E+04  0.24118417435E+04  0.27334525049E+04  0.50400001928E-02 0. -1.
       -1    1    3    3    0  502  0.68558660435E+03  0.10884636001E+04 -0.75060126925E+03  0.14893569976E+04  0.50400001928E-02 0.  1.
</event>
<event>
 5   0  0.4762788E-08  0.3919303E+04  0.7818609E-02  0.8021026E-01
        1   -1    0    0  501    0  0.00000000000E+00  0.00000000000E+00  0.17876236655E+04  0.17876236655E+04  0.50400001928E-02 0. -1.
       -1   -1    0    0    0  501  0.00000000000E+00  0.00000000000E+00 -0.21482342346E+04  0.21482342346E+04  0.50400001928E-02 0.  1.
    10030    2    1    2    0    0  0.00000000000E+00  0.00000000000E+00 -0.36061056905E+03  0.39358579001E+04  0.39193031813E+04 0.  0.
        2    1    3    3  502    0  0.16361642956E+04 -0.10288102584E+04  0.14471315038E+03  0.19381501608E+04  0.25500000920E-02 0.  1.
       -2    1    3    3    0  502 -0.16361642956E+04  0.10288102584E+04 -0.50532371943E+03  0.19977077392E+04  0.25500000920E-02 0. -1.
</event>
<event>
 5   0  0.4750125E-08  0.3873911E+04  0.7818609E-02  0.8030477E-01
       -1   -1    0    0    0  501  0.00000000000E+00  0.00000000000E+00  0.24549667063E+04  0.24549667063E+04  0.50400001928E-02 0.  1.
        1   -1    0    0  501    0  0.00000000000E+00  0.00000000000E+00 -0.15282477502E+04  0.15282477502E+04  0.50400001928E-02 0. -1.
    10030    2    1    2    0    0  0.00000000000E+00  0.00000000000E+00  0.92671895604E+03  0.39832144565E+04  0.38739113804E+04 0.  0.
        3    1    3    3  502    0 -0.17730159973E+04  0.29436445490E+03  0.12059281725E+04  0.21643703302E+04  0.10100000352E+00 0.  1.
       -3    1    3    3    0  502  0.17730159973E+04 -0.29436445490E+03 -0.27920921646E+03  0.18188441263E+04  0.10100000352E+00 0. -1.
</event>
<event>
 5   0  0.4750125E-08  0.3898340E+04  0.7818609E-02  0.8025375E-01
        1   -1    0    0  501    0  0.00000000000E+00  0.00000000000E+00  0.24676476240E+04  0.24676476240E+04  0.50400001928E-02 0.  1.
       -1   -1    0    0    0  501  0.00000000000E+00  0.00000000000E+00 -0.15396294492E+04  0.15396294492E+04  0.50400001928E-02 0. -1.
    10030    2    1    2    0    0  0.00000000000E+00  0.00000000000E+00  0.92801817483E+03  0.40072770732E+04  0.38983396220E+04 0.  0.
        5    1    3    3  502    0 -0.12055947065E+04 -0.34267257138E+03 -0.10704741898E+04  0.16482779403E+04  0.46999998093E+01 0. -1.
       -5    1    3    3    0  502  0.12055947065E+04  0.34267257138E+03  0.19984923646E+04  0.23589991329E+04  0.46999998093E+01 0.  1.
</event>
<event>
 5   0  0.4762788E-08  0.3900398E+04  0.7818609E-02  0.8024946E-01
       -1   -1    0    0    0  501  0.00000000000E+00  0.00000000000E+00  0.24124986098E+04  0.24124986098E+04  0.50400001928E-02 0.  1.
        1   -1    0    0  501    0  0.00000000000E+00  0.00000000000E+00 -0.15764888164E+04  0.15764888164E+04  0.50400001928E-02 0. -1.
    10030    2    1    2    0    0  0.00000000000E+00  0.00000000000E+00  0.83600979346E+03  0.39889874262E+04  0.39003984812E+04 0.  0.
        2    1    3    3  502    0  0.80224190455E+02 -0.15382315657E+04  0.16412843224E+04  0.22508679431E+04  0.25500000920E-02 0.  1.
       -2    1    3    3    0  502 -0.80224190455E+02  0.15382315657E+04 -0.80527452895E+03  0.17381194831E+04  0.25500000920E-02 0. -1.
</event>
<event>
 5   0  0.1538018E-07  0.3926386E+04  0.7818609E-02  0.8019564E-01
        2   -1    0    0  501    0  0.00000000000E+00  0.00000000000E+00  0.22525217806E+04  0.22525217806E+04  0.25500000920E-02 0. -1.
       -2   -1    0    0    0  501  0.00000000000E+00  0.00000000000E+00 -0.17110273249E+04  0.17110273249E+04  0.25500000920E-02 0.  1.
    10030    2    1    2    0    0  0.00000000000E+00  0.00000000000E+00  0.54149445571E+03  0.39635491056E+04  0.39263857766E+04 0.  0.
        1    1    3    3  502    0  0.10796664209E+04 -0.13120450590E+04  0.12634083926E+04  0.21173905128E+04  0.50400001928E-02 0. -1.
       -1    1    3    3    0  502 -0.10796664209E+04  0.13120450590E+04 -0.72191393691E+03  0.18461585927E+04  0.50400001928E-02 0.  1.
</event>
<event>
 5   0  0.1503228E-07  0.3918244E+04  0.7818609E-02  0.8021245E-01
       -2   -1    0    0    0  501  0.00000000000E+00  0.00000000000E+00  0.12891451957E+04  0.12891451957E+04  0.25500000920E-02 0.  1.
        2   -1    0    0  501    0  0.00000000000E+00  0.00000000000E+00 -0.29772902755E+04  0.29772902755E+04  0.25500000920E-02 0. -1.
    10030    2    1    2    0    0  0.00000000000E+00  0.00000000000E+00 -0.16881450798E+04  0.42664354713E+04  0.39182442267E+04 0.  0.
        3    1    3    3  502    0  0.12464682050E+04 -0.14465533117E+04 -0.13211391504E+04  0.23219836637E+04  0.10100000352E+00 0.  1.
       -3    1    3    3    0  502 -0.12464682050E+04  0.14465533117E+04 -0.36700592938E+03  0.19444518076E+04  0.10100000352E+00 0. -1.
</event>
<event>
 5   0  0.4750125E-08  0.3457152E+04  0.7818609E-02  0.8124020E-01
        1   -1    0    0  501    0  0.00000000000E+00  0.00000000000E+00  0.17327840007E+04  0.17327840007E+04  0.50400001928E-02 0.  1.
       -1   -1    0    0    0  501  0.00000000000E+00  0.00000000000E+00 -0.17243783943E+04  0.17243783944E+04  0.50400001928E-02 0. -1.
    10030    2    1    2    0    0  0.00000000000E+00  0.00000000000E+00  0.84056063318E+01  0.34571623950E+04  0.34571521765E+04 0.  0.
        1    1    3    3  502    0  0.12893419546E+04  0.14452646920E+03  0.11464341411E+04  0.17313583731E+04  0.50400001928E-02 0.  1.
       -1    1    3    3    0  502 -0.12893419546E+04 -0.14452646920E+03 -0.11380285348E+04  0.17258040219E+04  0.50400001928E-02 0. -1.
</event>
<event>
 5   0  0.4762788E-08  0.4314135E+04  0.7818609E-02  0.7944010E-01
        1   -1    0    0  501    0  0.00000000000E+00  0.00000000000E+00  0.17567385148E+04  0.17567385148E+04  0.50400001928E-02 0. -1.
       -1   -1    0    0    0  501  0.00000000000E+00  0.00000000000E+00 -0.26486244573E+04  0.26486244574E+04  0.50400001928E-02 0.  1.
    10030    2    1    2    0    0  0.00000000000E+00  0.00000000000E+00 -0.89188594253E+03  0.44053629722E+04  0.43141351836E+04 0.  0.
        2    1    3    3  502    0  0.14894458619E+04  0.15430992153E+03  0.11395259602E+04  0.18816960279E+04  0.25500000920E-02 0. -1.
       -2    1    3    3    0  502 -0.14894458619E+04 -0.15430992153E+03 -0.20314119027E+04  0.25236669443E+04  0.25500000920E-02 0.  1.
</event>
<event>
 5   0  0.4750125E-08  0.3885612E+04  0.7818609E-02  0.8028028E-01
       -1   -1    0    0    0  501  0.00000000000E+00  0.00000000000E+00  0.16858388819E+04  0.16858388819E+04  0.50400001928E-02 0.  1.
        1   -1    0    0  501    0  0.00000000000E+00  0.00000000000E+00 -0.22389413686E+04  0.22389413686E+04  0.50400001928E-02 0. -1.
    10030    2    1    2    0    0  0.00000000000E+00  0.00000000000E+00 -0.55310248667E+03  0.39247802505E+04  0.38856116190E+04 0.  0.
        1    1    3    3  502    0  0.14650983573E+03 -0.79719025107E+03  0.15068964257E+04  0.17110564766E+04  0.50400001928E-02 0.  1.
       -1    1    3    3    0  502 -0.14650983573E+03  0.79719025107E+03 -0.20599989123E+04  0.22137237739E+04  0.50400001928E-02 0. -1.
</event>
<event>
 5   0  0.4750125E-08  0.3937352E+04  0.7818609E-02  0.8017305E-01
       -1   -1    0    0    0  501  0.00000000000E+00  0.00000000000E+00  0.28609216437E+04  0.28609216437E+04  0.50400001928E-02 0.  1.
        1   -1    0    0  501    0  0.00000000000E+00  0.00000000000E+00 -0.13546982087E+04  0.13546982087E+04  0.50400001928E-02 0. -1.
    10030    2    1    2    0    0  0.00000000000E+00  0.00000000000E+00  0.15062234351E+04  0.42156198524E+04  0.39373521183E+04 0.  0.
        4    1    3    3  502    0  0.18874419674E+04 -0.81878443479E+02  0.13459040405E+04  0.23196121570E+04  0.12699999809E+01 0.  1.
       -4    1    3    3    0  502 -0.18874419674E+04  0.81878443479E+02  0.16031939458E+03  0.18960076954E+04  0.12699999809E+01 0. -1.
</event>
<event>
 5   0  0.4750125E-08  0.3902046E+04  0.7818609E-02  0.8024604E-01
       -1   -1    0    0    0  501  0.00000000000E+00  0.00000000000E+00  0.17077784286E+04  0.17077784286E+04  0.50400001928E-02 0. -1.
        1   -1    0    0  501    0  0.00000000000E+00  0.00000000000E+00 -0.22289138945E+04  0.22289138945E+04  0.50400001928E-02 0.  1.
    10030    2    1    2    0    0  0.00000000000E+00  0.00000000000E+00 -0.52113546590E+03  0.39366923232E+04  0.39020461650E+04 0.  0.
        5    1    3    3  502    0 -0.15533592090E+04  0.11797222760E+04 -0.21777059431E+03  0.19626807184E+04  0.46999998093E+01 0.  1.
       -5    1    3    3    0  502  0.15533592090E+04 -0.11797222760E+04 -0.30336487159E+03  0.19740116048E+04  0.46999998093E+01 0. -1.
</event>
<event>
 5   0  0.1538018E-07  0.3904426E+04  0.7818609E-02  0.8024109E-01
        2   -1    0    0  501    0  0.00000000000E+00  0.00000000000E+00  0.31204058017E+04  0.31204058017E+04  0.25500000920E-02 0. -1.
       -2   -1    0    0    0  501  0.00000000000E+00  0.00000000000E+00 -0.12213587286E+04  0.12213587286E+04  0.25500000920E-02 0.  1.
    10030    2    1    2    0    0  0.00000000000E+00  0.00000000000E+00  0.18990470730E+04  0.43417645303E+04  0.39044256237E+04 0.  0.
        1    1    3    3  502    0  0.19138741389E+03  0.58646349932E+03  0.30091668659E+04  0.30717509348E+04  0.50400001928E-02 0. -1.
       -1    1    3    3    0  502 -0.19138741389E+03 -0.58646349932E+03 -0.11101197929E+04  0.12700135955E+04  0.50400001928E-02 0.  1.
</event>
<event>
 5   0  0.4750125E-08  0.3892569E+04  0.7818609E-02  0.8026576E-01
       -1   -1    0    0    0  501  0.00000000000E+00  0.00000000000E+00  0.24874415370E+04  0.24874415370E+04  0.50400001928E-02 0. -1.
        1   -1    0    0  501    0  0.00000000000E+00  0.00000000000E+00 -0.15228595259E+04  0.15228595260E+04  0.50400001928E-02 0.  1.
    10030    2    1    2    0    0  0.00000000000E+00  0.00000000000E+00  0.96458201104E+03  0.40103010629E+04  0.38925693519E+04 0.  0.
        5    1    3    3  502    0  0.24124463983E+03  0.11527166199E+04 -0.11141062865E+04  0.16211753420E+04  0.46999998093E+01 0.  1.
       -5    1    3    3    0  502 -0.24124463983E+03 -0.11527166199E+04  0.20786882975E+04  0.23891257209E+04  0.46999998093E+01 0. -1.
</event>
<event>
 5   0  0.1546846E-07  0.3916431E+04  0.7818609E-02  0.8021621E-01
        2   -1    0    0  501    0  0.00000000000E+00  0.00000000000E+00  0.21210286443E+04  0.21210286443E+04  0.25500000920E-02 0. -1.
       -2   -1    0    0    0  501  0.00000000000E+00  0.00000000000E+00 -0.18078996638E+04  0.18078996638E+04  0.25500000920E-02 0.  1.
    10030    2    1    2    0    0  0.00000000000E+00  0.00000000000E+00  0.31312898053E+03  0.39289283081E+04  0.39164305039E+04 0.  0.
        2    1    3    3  502    0 -0.21855255181E+03 -0.47220938914E+03  0.20504076089E+04  0.21154002665E+04  0.25500000920E-02 0. -1.
       -2    1    3    3    0  502  0.21855255181E+03  0.47220938914E+03 -0.17372786283E+04  0.18135280416E+04  0.25500000920E-02 0.  1.
</event>
<event>
 5   0  0.4750125E-08  0.3893747E+04  0.7818609E-02  0.8026331E-01
       -1   -1    0    0    0  501  0.00000000000E+00  0.00000000000E+00  0.14891219890E+04  0.14891219890E+04  0.50400001928E-02 0.  1.
        1   -1    0    0  501    0  0.00000000000E+00  0.00000000000E+00 -0.25453365662E+04  0.25453365662E+04  0.50400001928E-02 0. -1.
    10030    2    1    2    0    0  0.00000000000E+00  0.00000000000E+00 -0.10562145773E+04  0.40344585552E+04  0.38937471156E+04 0.  0.
        4    1    3    3  502    0 -0.16601571763E+04 -0.52467604352E+02  0.52419271546E+03  0.17417388769E+04  0.12699999809E+01 0.  1.
       -4    1    3    3    0  502  0.16601571763E+04  0.52467604352E+02 -0.15804072927E+04  0.22927196783E+04  0.12699999809E+01 0. -1.
</event>
<event>
 5   0  0.1503228E-07  0.3894610E+04  0.7818609E-02  0.8026151E-01
        2   -1    0    0  501    0  0.00000000000E+00  0.00000000000E+00  0.20630070876E+04  0.20630070876E+04  0.25500000920E-02 0. -1.
       -2   -1    0    0    0  501  0.00000000000E+00  0.00000000000E+00 -0.18380919009E+04  0.18380919009E+04  0.25500000920E-02 0.  1.
    10030    2    1    2    0    0  0.00000000000E+00  0.00000000000E+00  0.22491518665E+03  0.39010989885E+04  0.38946099261E+04 0.  0.
        3    1    3    3  502    0 -0.12138813615E+04 -0.35699565105E+03 -0.13702258233E+04  0.18650663987E+04  0.10100000352E+00 0.  1.
       -3    1    3    3    0  502  0.12138813615E+04  0.35699565105E+03  0.15951410099E+04  0.20360325897E+04  0.10100000352E+00 0. -1.
</event>
<event>
 5   0  0.4750125E-08  0.3466917E+04  0.7818609E-02  0.8121675E-01
        1   -1    0    0  501    0  0.00000000000E+00  0.00000000000E+00  0.11521294387E+04  0.11521294387E+04  0.50400001928E-02 0. -1.
       -1   -1    0    0    0  501  0.00000000000E+00  0.00000000000E+00 -0.26081090139E+04  0.26081090139E+04  0.50400001928E-02 0.  1.
    10030    2    1    2    0    0  0.00000000000E+00  0.00000000000E+00 -0.14559795752E+04  0.37602384526E+04  0.34669174632E+04 0.  0.
        1    1    3    3  502    0 -0.89665417387E+03  0.14761246070E+04 -0.56731208240E+03  0.18179041674E+04  0.50400001928E-02 0.  1.
       -1    1    3    3    0  502  0.89665417387E+03 -0.14761246070E+04 -0.88866749276E+03  0.19423342852E+04  0.50400001928E-02 0. -1.
</event>
<event>
 5   0  0.1503228E-07  0.3889261E+04  0.7818609E-02  0.8027266E-01
        2   -1    0    0  501    0  0.00000000000E+00  0.00000000000E+00  0.17866105096E+04  0.17866105097E+04  0.25500000920E-02 0.  1.
       -2   -1    0    0    0  501  0.00000000000E+00  0.00000000000E+00 -0.21166267141E+04  0.21166267141E+04  0.25500000920E-02 0. -1.
    10030    2    1    2    0    0  0.00000000000E+00  0.00000000000E+00 -0.33001620442E+03  0.39032372237E+04  0.38892608719E+04 0.  0.
        3    1    3    3  502    0  0.18637991561E+04  0.53241537655E+03 -0.83250157691E+01  0.19383711574E+04  0.10100000352E+00 0. -1.
       -3    1    3    3    0  502 -0.18637991561E+04 -0.53241537655E+03 -0.32169118865E+03  0.19648660663E+04  0.10100000352E+00 0.  1.
</event>
<event>
 5   0  0.4750125E-08  0.3900772E+04  0.7818609E-02  0.8024869E-01
       -1   -1    0    0    0  501  0.00000000000E+00  0.00000000000E+00  0.25296174586E+04  0.25296174586E+04  0.50400001928E-02 0.  1.
        1   -1    0    0  501    0  0.00000000000E+00  0.00000000000E+00 -0.15037870613E+04  0.15037870613E+04  0.50400001928E-02 0. -1.
    10030    2    1    2    0    0  0.00000000000E+00  0.00000000000E+00  0.10258303973E+04  0.40334045199E+04  0.39007722335E+04 0.  0.
        5    1    3    3  502    0  0.18432226093E+04 -0.22441877174E+03 -0.10415985935E+03  0.18597593228E+04  0.46999998093E+01 0. -1.
       -5    1    3    3    0  502 -0.18432226093E+04  0.22441877174E+03  0.11299902567E+04  0.21736451971E+04  0.46999998093E+01 0.  1.
</event>
<event>
 5   0  0.4750125E-08  0.3791294E+04  0.7818609E-02  0.8048026E-01
        1   -1    0    0  501    0  0.00000000000E+00  0.00000000000E+00  0.22601409852E+04  0.22601409852E+04  0.50400001928E-02 0.  1.
       -1   -1    0    0    0  501  0.00000000000E+00  0.00000000000E+00 -0.15899354234E+04  0.15899354234E+04  0.50400001928E-02 0. -1.
    10030    2    1    2    0    0  0.00000000000E+00  0.00000000000E+00  0.67020556182E+03  0.38500764087E+04  0.37912943512E+04 0.  0.
        5    1    3    3  502    0  0.15608155023E+04 -0.44911779262E+03 -0.65760378096E+03  0.17522319043E+04  0.46999998093E+01 0. -1.
       -5    1    3    3    0  502 -0.15608155023E+04  0.44911779262E+03  0.13278093428E+04  0.20978445044E+04  0.46999998093E+01 0.  1.
</event>
<event>
 5   0  0.4750125E-08  0.3903173E+04  0.7818609E-02  0.8024370E-01
       -1   -1    0    0    0  501  0.00000000000E+00  0.00000000000E+00  0.15822005992E+04  0.15822005992E+04  0.50400001928E-02 0. -1.
        1   -1    0    0  501    0  0.00000000000E+00  0.00000000000E+00 -0.24072110703E+04  0.24072110703E+04  0.50400001928E-02 0.  1.
    10030    2    1    2    0    0  0.00000000000E+00  0.00000000000E+00 -0.82501047113E+03  0.39894116695E+04  0.39031734769E+04 0.  0.
        3    1    3    3  502    0  0.98613500318E+02 -0.87694384142E+02 -0.24026455280E+04  0.24062669160E+04  0.10100000352E+00 0.  1.
       -3    1    3    3    0  502 -0.98613500318E+02  0.87694384142E+02  0.15776350569E+04  0.15831447535E+04  0.10100000352E+00 0. -1.
</event>
<event>
 5   0  0.1501585E-07  0.3925221E+04  0.7818609E-02  0.8019804E-01
        2   -1    0    0  501    0  0.00000000000E+00  0.00000000000E+00  0.12947688456E+04  0.12947688456E+04  0.25500000920E-02 0.  1.
       -2   -1    0    0    0  501  0.00000000000E+00  0.00000000000E+00 -0.29749250577E+04  0.29749250577E+04  0.25500000920E-02 0. -1.
    10030    2    1    2    0    0  0.00000000000E+00  0.00000000000E+00 -0.16801562121E+04  0.42696939033E+04  0.39252211570E+04 0.  0.
        5    1    3    3  502    0 -0.42844328105E+03 -0.16846620496E+04 -0.18311740302E+04  0.25248505471E+04  0.46999998093E+01 0. -1.
       -5    1    3    3    0  502  0.42844328105E+03  0.16846620496E+04  0.15101781810E+03  0.17448433562E+04  0.46999998093E+01 0.  1.
</event>
<event>
 5   0  0.1538018E-07  0.3922921E+04  0.7818609E-02  0.8020279E-01
       -2   -1    0    0    0  501  0.00000000000E+00  0.00000000000E+00  0.17030139055E+04  0.17030139055E+04  0.25500000920E-02 0. -1.
        2   -1    0    0  501    0  0.00000000000E+00  0.00000000000E+00 -0.22591286379E+04  0.22591286379E+04  0.25500000920E-02 0.  1.
    10030    2    1    2    0    0  0.00000000000E+00  0.00000000000E+00 -0.55611473241E+03  0.39621425434E+04  0.39229210977E+04 0.  0.
        1    1    3    3  502    0 -0.14021738792E+03 -0.19564403247E+04 -0.27523211099E+03  0.19806747272E+04  0.50400001928E-02 0.  1.
       -1    1    3    3    0  502  0.14021738792E+03  0.19564403247E+04 -0.28088262142E+03  0.19814678163E+04  0.50400001928E-02 0. -1.
</event>
<event>
 5   0  0.1538018E-07  0.3881984E+04  0.7818609E-02  0.8028787E-01
        2   -1    0    0  501    0  0.00000000000E+00  0.00000000000E+00  0.20741188158E+04  0.20741188158E+04  0.25500000920E-02 0.  1.
       -2   -1    0    0    0  501  0.00000000000E+00  0.00000000000E+00 -0.18164098376E+04  0.18164098376E+04  0.25500000920E-02 0. -1.
    10030    2    1    2    0    0  0.00000000000E+00  0.00000000000E+00  0.25770897823E+03  0.38905286535E+04  0.38819839369E+04 0.  0.
        1    1    3    3  502    0 -0.14053177969E+04 -0.36481295178E+03  0.14198837421E+04  0.20307822240E+04  0.50400001928E-02 0.  1.
       -1    1    3    3    0  502  0.14053177969E+04  0.36481295178E+03 -0.11621747639E+04  0.18597464295E+04  0.50400001928E-02 0. -1.
</event>
<event>
 5   0  0.4762788E-08  0.3877391E+04  0.7818609E-02  0.8029748E-01
        1   -1    0    0  501    0  0.00000000000E+00  0.00000000000E+00  0.14654555744E+04  0.14654555744E+04  0.50400001928E-02 0.  1.
       -1   -1    0    0    0  501  0.00000000000E+00  0.00000000000E+00 -0.25647587053E+04  0.25647587053E+04  0.50400001928E-02 0. -1.
    10030    2    1    2    0    0  0.00000000000E+00  0.00000000000E+00 -0.10993031309E+04  0.40302142797E+04  0.38773908452E+04 0.  0.
        2    1    3    3  502    0 -0.30482073729E+03  0.51833654500E+03  0.13660737096E+04  0.14925635115E+04  0.25500000920E-02 0.  1.
       -2    1    3    3    0  502  0.30482073729E+03 -0.51833654500E+03 -0.24653768405E+04  0.25376507682E+04  0.25500000920E-02 0. -1.
</event>
<event>
 5   0  0.4762788E-08  0.3842261E+04  0.7818609E-02  0.8037146E-01
       -1   -1    0    0    0  501  0.00000000000E+00  0.00000000000E+00  0.16505425494E+04  0.16505425494E+04  0.50400001928E-02 0.  1.
        1   -1    0    0  501    0  0.00000000000E+00  0.00000000000E+00 -0.22360779033E+04  0.22360779033E+04  0.50400001928E-02 0. -1.
    10030    2    1    2    0    0  0.00000000000E+00  0.00000000000E+00 -0.58553535392E+03  0.38866204527E+04  0.38422606487E+04 0.  0.
        2    1    3    3  502    0  0.10076794831E+04  0.15544885956E+04 -0.80745337244E+03  0.20208497429E+04  0.25500000920E-02 0.  1.
       -2    1    3    3    0  502 -0.10076794831E+04 -0.15544885956E+04  0.22191801852E+03  0.18657707098E+04  0.25500000920E-02 0. -1.
</event>
<event>
 5   0  0.1546846E-07  0.3877276E+04  0.7818609E-02  0.8029772E-01
       -2   -1    0    0    0  501  0.00000000000E+00  0.00000000000E+00  0.13263739649E+04  0.13263739649E+04  0.25500000920E-02 0. -1.
        2   -1    0    0  501    0  0.00000000000E+00  0.00000000000E+00 -0.28335283515E+04  0.28335283515E+04  0.25500000920E-02 0.  1.
    10030    2    1    2    0    0  0.00000000000E+00  0.00000000000E+00 -0.15071543865E+04  0.41599023164E+04  0.38772764845E+04 0.  0.
        2    1    3    3  502    0 -0.11013794940E+04 -0.48119890832E+03  0.87839446225E+03  0.14886792839E+04  0.25500000920E-02 0. -1.
       -2    1    3    3    0  502  0.11013794940E+04  0.48119890832E+03 -0.23855488488E+04  0.26712230324E+04  0.25500000920E-02 0.  1.
</event>
<event>
 5   0  0.4750125E-08  0.3677988E+04  0.7818609E-02  0.8072858E-01
        1   -1    0    0  501    0  0.00000000000E+00  0.00000000000E+00  0.21272502298E+04  0.21272502298E+04  0.50400001928E-02 0.  1.
       -1   -1    0    0    0  501  0.00000000000E+00  0.00000000000E+00 -0.15897984268E+04  0.15897984268E+04  0.50400001928E-02 0. -1.
    10030    2    1    2    0    0  0.00000000000E+00  0.00000000000E+00  0.53745180297E+03  0.37170486566E+04  0.36779880744E+04 0.  0.
        5    1    3    3  502    0 -0.16246970899E+04  0.84745285156E+03  0.42548610749E+03  0.18811904441E+04  0.46999998093E+01 0.  1.
       -5    1    3    3    0  502  0.16246970899E+04 -0.84745285156E+03  0.11196569548E+03  0.18358582125E+04  0.46999998093E+01 0. -1.
</event>
<event>
 5   0  0.4750125E-08  0.3880899E+04  0.7818609E-02  0.8029014E-01
       -1   -1    0    0    0  501  0.00000000000E+00  0.00000000000E+00  0.19135148251E+04  0.19135148251E+04  0.50400001928E-02 0. -1.
        1   -1    0    0  501    0  0.00000000000E+00  0.00000000000E+00 -0.19677632423E+04  0.19677632423E+04  0.50400001928E-02 0.  1.
    10030    2    1    2    0    0  0.00000000000E+00  0.00000000000E+00 -0.54248417179E+02  0.38812780674E+04  0.38808989353E+04 0.  0.
        4    1    3    3  502    0  0.20631287699E+03 -0.32210501748E+02  0.19022454311E+04  0.19136723368E+04  0.12699999809E+01 0. -1.
       -4    1    3    3    0  502 -0.20631287699E+03  0.32210501748E+02 -0.19564938483E+04  0.19676057306E+04  0.12699999809E+01 0.  1.
</event>
<event>
 5   0  0.4750125E-08  0.3474720E+04  0.7818609E-02  0.8119807E-01
       -1   -1    0    0    0  501  0.00000000000E+00  0.00000000000E+00  0.21829218778E+04  0.21829218779E+04  0.50400001928E-02 0. -1.
        1   -1    0    0  501    0  0.00000000000E+00  0.00000000000E+00 -0.13827425919E+04  0.13827425919E+04  0.50400001928E-02 0.  1.
    10030    2    1    2    0    0  0.00000000000E+00  0.00000000000E+00  0.80017928591E+03  0.35656644698E+04  0.34747195889E+04 0.  0.
        3    1    3    3  502    0  0.13106281407E+03 -0.15102628697E+04  0.12710367526E+04  0.19782835574E+04  0.10100000352E+00 0. -1.
       -3    1    3    3    0  502 -0.13106281407E+03  0.15102628697E+04 -0.47085746673E+03  0.15873809124E+04  0.10100000352E+00 0.  1.
</event>
<event>
 5   0  0.4750125E-08  0.3874779E+04  0.7818609E-02  0.8030295E-01
       -1   -1    0    0    0  501  0.00000000000E+00  0.00000000000E+00  0.18702846876E+04  0.18702846876E+04  0.50400001928E-02 0. -1.
        1   -1    0    0  501    0  0.00000000000E+00  0.00000000000E+00 -0.20069018066E+04  0.20069018066E+04  0.50400001928E-02 0.  1.
    10030    2    1    2    0    0  0.00000000000E+00  0.00000000000E+00 -0.13661711898E+03  0.38771864942E+04  0.38747788161E+04 0.  0.
        5    1    3    3  502    0  0.19310896756E+03 -0.97194449721E+03 -0.17341218050E+04  0.19972900900E+04  0.46999998093E+01 0.  1.
       -5    1    3    3    0  502 -0.19310896756E+03  0.97194449721E+03  0.15975046860E+04  0.18798964043E+04  0.46999998093E+01 0. -1.
</event>
<event>
 5   0  0.1546846E-07  0.3939444E+04  0.7818609E-02  0.8016875E-01
       -2   -1    0    0    0  501  0.00000000000E+00  0.00000000000E+00  0.15251324171E+04  0.15251324171E+04  0.25500000920E-02 0.  1.
        2   -1    0    0  501    0  0.00000000000E+00  0.00000000000E+00 -0.25439129976E+04  0.25439129976E+04  0.25500000920E-02 0. -1.
    10030    2    1    2    0    0  0.00000000000E+00  0.00000000000E+00 -0.10187805805E+04  0.40690454147E+04  0.39394437064E+04 0.  0.
        2    1    3    3  502    0 -0.14404083525E+04 -0.17021016280E+03  0.86714079010E+03  0.16898759929E+04  0.25500000920E-02 0.  1.
       -2    1    3    3    0  502  0.14404083525E+04  0.17021016280E+03 -0.18859213706E+04  0.23791694218E+04  0.25500000920E-02 0. -1.
</event>
<event>
 5   0  0.1546846E-07  0.3916098E+04  0.7818609E-02  0.8021689E-01
        2   -1    0    0  501    0  0.00000000000E+00  0.00000000000E+00  0.22978493653E+04  0.22978493653E+04  0.25500000920E-02 0.  1.
       -2   -1    0    0    0  501  0.00000000000E+00  0.00000000000E+00 -0.16684974575E+04  0.16684974576E+04  0.25500000920E-02 0. -1.
    10030    2    1    2    0    0  0.00000000000E+00  0.00000000000E+00  0.62935190772E+03  0.39663468228E+04  0.39160979680E+04 0.  0.
        2    1    3    3  502    0  0.17340400460E+04  0.12594062248E+03 -0.59754718438E+03  0.18384282850E+04  0.25500000920E-02 0. -1.
       -2    1    3    3    0  502 -0.17340400460E+04 -0.12594062248E+03  0.12268990921E+04  0.21279185378E+04  0.25500000920E-02 0.  1.
</event>
<event>
 5   0  0.4750125E-08  0.3905835E+04  0.7818609E-02  0.8023817E-01
        1   -1    0    0  501    0  0.00000000000E+00  0.00000000000E+00  0.18604103626E+04  0.18604103626E+04  0.50400001928E-02 0. -1.
       -1   -1    0    0    0  501  0.00000000000E+00  0.00000000000E+00 -0.20500249090E+04  0.20500249090E+04  0.50400001928E-02 0.  1.
    10030    2    1    2    0    0  0.00000000000E+00  0.00000000000E+00 -0.18961454644E+03  0.39104352716E+04  0.39058354212E+04 0.  0.
        4    1    3    3  502    0  0.15784911077E+04  0.90657533635E+03 -0.80301078424E+03  0.19895579786E+04  0.12699999809E+01 0.  1.
       -4    1    3    3    0  502 -0.15784911077E+04 -0.90657533635E+03  0.61339623780E+03  0.19208772931E+04  0.12699999809E+01 0. -1.
</event>
<event>
 5   0  0.4750125E-08  0.3889154E+04  0.7818609E-02  0.8027289E-01
       -1   -1    0    0    0  501  0.00000000000E+00  0.00000000000E+00  0.13684643602E+04  0.13684643602E+04  0.50400001928E-02 0.  1.
        1   -1    0    0  501    0  0.00000000000E+00  0.00000000000E+00 -0.27632279098E+04  0.27632279098E+04  0.50400001928E-02 0. -1.
    10030    2    1    2    0    0  0.00000000000E+00  0.00000000000E+00 -0.13947635496E+04  0.41316922700E+04  0.38891535911E+04 0.  0.
        3    1    3    3  502    0  0.10456487040E+04 -0.15901220349E+04 -0.11216751914E+04  0.22090777586E+04  0.10100000352E+00 0. -1.
       -3    1    3    3    0  502 -0.10456487040E+04  0.15901220349E+04 -0.27308835824E+03  0.19226145115E+04  0.10100000352E+00 0.  1.
</event>
<event>
 5   0  0.4750125E-08  0.3915548E+04  0.7818609E-02  0.8021803E-01
        1   -1    0    0  501    0  0.00000000000E+00  0.00000000000E+00  0.28534585597E+04  0.28534585597E+04  0.50400001928E-02 0. -1.
       -1   -1    0    0    0  501  0.00000000000E+00  0.00000000000E+00 -0.13432399230E+04  0.13432399230E+04  0.50400001928E-02 0.  1.
    10030    2    1    2    0    0  0.00000000000E+00  0.00000000000E+00  0.15102186367E+04  0.41966984827E+04  0.39155482150E+04 0.  0.
        1    1    3    3  502    0  0.26931231926E+03 -0.16855084836E+04  0.17828183031E+04  0.24681793037E+04  0.50400001928E-02 0. -1.
       -1    1    3    3    0  502 -0.26931231926E+03  0.16855084836E+04 -0.27259966640E+03  0.17285191789E+04  0.50400001928E-02 0.  1.
</event>
<event>
 5   0  0.4750125E-08  0.3880947E+04  0.7818609E-02  0.8029004E-01
       -1   -1    0    0    0  501  0.00000000000E+00  0.00000000000E+00  0.17266328039E+04  0.17266328039E+04  0.50400001928E-02 0.  1.
        1   -1    0    0  501    0  0.00000000000E+00  0.00000000000E+00 -0.21807977925E+04  0.21807977925E+04  0.50400001928E-02 0. -1.
    10030    2    1    2    0    0  0.00000000000E+00  0.00000000000E+00 -0.45416498865E+03  0.39074305964E+04  0.38809467954E+04 0.  0.
        5    1    3    3  502    0 -0.11896433684E+04  0.86538645353E+03  0.10469656756E+04  0.18056312674E+04  0.46999998093E+01 0.  1.
       -5    1    3    3    0  502  0.11896433684E+04 -0.86538645353E+03 -0.15011306643E+04  0.21017993289E+04  0.46999998093E+01 0. -1.
</event>
<event>
 5   0  0.1538018E-07  0.3896853E+04  0.7818609E-02  0.8025684E-01
        2   -1    0    0  501    0  0.00000000000E+00  0.00000000000E+00  0.27328171562E+04  0.27328171562E+04  0.25500000920E-02 0.  1.
       -2   -1    0    0    0  501  0.00000000000E+00  0.00000000000E+00 -0.13891765066E+04  0.13891765066E+04  0.25500000920E-02 0. -1.
    10030    2    1    2    0    0  0.00000000000E+00  0.00000000000E+00  0.13436406495E+04  0.41219936628E+04  0.38968527764E+04 0.  0.
        1    1    3    3  502    0  0.51095146737E+03  0.18702310047E+04  0.46690120967E+03  0.19941996271E+04  0.50400001928E-02 0. -1.
       -1    1    3    3    0  502 -0.51095146737E+03 -0.18702310047E+04  0.87673943985E+03  0.21277940357E+04  0.50400001928E-02 0.  1.
</event>
<event>
 5   0  0.1503228E-07  0.3906057E+04  0.7818609E-02  0.8023771E-01
        2   -1    0    0  501    0  0.00000000000E+00  0.00000000000E+00  0.18248470379E+04  0.18248470379E+04  0.25500000920E-02 0. -1.
       -2   -1    0    0    0  501  0.00000000000E+00  0.00000000000E+00 -0.20902134923E+04  0.20902134923E+04  0.25500000920E-02 0.  1.
    10030    2    1    2    0    0  0.00000000000E+00  0.00000000000E+00 -0.26536645441E+03  0.39150605302E+04  0.39060567840E+04 0.  0.
        3    1    3    3  502    0  0.89787277549E+03 -0.11682062408E+04  0.11522384715E+04  0.18704370739E+04  0.10100000352E+00 0. -1.
       -3    1    3    3    0  502 -0.89787277549E+03  0.11682062408E+04 -0.14176049259E+04  0.20446234563E+04  0.10100000352E+00 0.  1.
</event>
<event>
 5   0  0.1538018E-07  0.3923823E+04  0.7818609E-02  0.8020093E-01
        2   -1    0    0  501    0  0.00000000000E+00  0.00000000000E+00  0.24285660972E+04  0.24285660972E+04  0.25500000920E-02 0.  1.
       -2   -1    0    0    0  501  0.00000000000E+00  0.00000000000E+00 -0.15849256962E+04  0.15849256962E+04  0.25500000920E-02 0. -1.
    10030    2    1    2    0    0  0.00000000000E+00  0.00000000000E+00  0.84364040102E+03  0.40134917934E+04  0.39238230400E+04 0.  0.
        1    1    3    3  502    0 -0.13202471086E+04  0.14308618417E+04  0.17404748289E+03  0.19546637982E+04  0.50400001928E-02 0.  1.
       -1    1    3    3    0  502  0.13202471086E+04 -0.14308618417E+04  0.66959291813E+03  0.20588279952E+04  0.50400001928E-02 0. -1.
</event>
<event>
 5   0  0.1503228E-07  0.3951359E+04  0.7818609E-02  0.8014431E-01
       -2   -1    0    0    0  501  0.00000000000E+00  0.00000000000E+00  0.18466403692E+04  0.18466403692E+04  0.25500000920E-02 0.  1.
        2   -1    0    0  501    0  0.00000000000E+00  0.00000000000E+00 -0.21137360086E+04  0.21137360086E+04  0.25500000920E-02 0. -1.
    10030    2    1    2    0    0  0.00000000000E+00  0.00000000000E+00 -0.26709563940E+03  0.39603763779E+04  0.39513593830E+04 0.  0.
        3    1    3    3  502    0  0.16334971205E+04  0.11096334287E+04 -0.19460517884E+03  0.19843060184E+04  0.10100000352E+00 0.  1.
       -3    1    3    3    0  502 -0.16334971205E+04 -0.11096334287E+04 -0.72490460560E+02  0.19760703595E+04  0.10100000352E+00 0. -1.
</event>
<event>
 5   0  0.1501585E-07  0.3889610E+04  0.7818609E-02  0.8027193E-01
        2   -1    0    0  501    0  0.00000000000E+00  0.00000000000E+00  0.23127826027E+04  0.23127826027E+04  0.25500000920E-02 0.  1.
       -2   -1    0    0    0  501  0.00000000000E+00  0.00000000000E+00 -0.16353752611E+04  0.16353752611E+04  0.25500000920E-02 0. -1.
    10030    2    1    2    0    0  0.00000000000E+00  0.00000000000E+00  0.67740734157E+03  0.39481578638E+04  0.38896104960E+04 0.  0.
        5    1    3    3  502    0  0.30558444505E+03 -0.10465333713E+04 -0.12960131241E+04  0.16936015051E+04  0.46999998093E+01 0. -1.
       -5    1    3    3    0  502 -0.30558444505E+03  0.10465333713E+04  0.19734204656E+04  0.22545563587E+04  0.46999998093E+01 0.  1.
</event>
<event>
 5   0  0.4762788E-08  0.3923313E+04  0.7818609E-02  0.8020198E-01
        1   -1    0    0  501    0  0.00000000000E+00  0.00000000000E+00  0.24566747680E+04  0.24566747680E+04  0.50400001928E-02 0. -1.
       -1   -1    0    0    0  501  0.00000000000E+00  0.00000000000E+00 -0.15663839355E+04  0.15663839355E+04  0.50400001928E-02 0.  1.
    10030    2    1    2    0    0  0.00000000000E+00  0.00000000000E+00  0.89029083250E+03  0.40230587034E+04  0.39233128303E+04 0.  0.
        2    1    3    3  502    0  0.10874671010E+04 -0.16315281690E+04  0.50690138671E+03  0.20251957629E+04  0.25500000920E-02 0.  1.
       -2    1    3    3    0  502 -0.10874671010E+04  0.16315281690E+04  0.38338944579E+03  0.19978629406E+04  0.25500000920E-02 0. -1.
</event>
<event>
 5   0  0.4750125E-08  0.3901925E+04  0.7818609E-02  0.8024629E-01
       -1   -1    0    0    0  501  0.00000000000E+00  0.00000000000E+00  0.12553292956E+04  0.12553292957E+04  0.50400001928E-02 0.  1.
        1   -1    0    0  501    0  0.00000000000E+00  0.00000000000E+00 -0.30320772677E+04  0.30320772678E+04  0.50400001928E-02 0. -1.
    10030    2    1    2    0    0  0.00000000000E+00  0.00000000000E+00 -0.17767479721E+04  0.42874065634E+04  0.39019253816E+04 0.  0.
        3    1    3    3  502    0 -0.17416959159E+04 -0.72589695244E+02 -0.18509824183E+04  0.25426186994E+04  0.10100000352E+00 0. -1.
       -3    1    3    3    0  502  0.17416959159E+04  0.72589695244E+02  0.74234446220E+02  0.17447878640E+04  0.10100000352E+00 0.  1.
</event>
<event>
 5   0  0.1538018E-07  0.3879620E+04  0.7818609E-02  0.8029281E-01
       -2   -1    0    0    0  501  0.00000000000E+00  0.00000000000E+00  0.20945951050E+04  0.20945951050E+04  0.25500000920E-02 0. -1.
        2   -1    0    0  501    0  0.00000000000E+00  0.00000000000E+00 -0.17964626874E+04  0.17964626874E+04  0.25500000920E-02 0.  1.
    10030    2    1    2    0    0  0.00000000000E+00  0.00000000000E+00  0.29813241758E+03  0.38910577923E+04  0.38796195438E+04 0.  0.
        1    1    3    3  502    0 -0.24764581231E+03 -0.19112172038E+04  0.37058455064E+03  0.19625016070E+04  0.50400001928E-02 0. -1.
       -1    1    3    3    0  502  0.24764581231E+03  0.19112172038E+04 -0.72452133068E+02  0.19285561853E+04  0.50400001928E-02 0.  1.
</event>
<event>
 5   0  0.4750125E-08  0.3853684E+04  0.7818609E-02  0.8034731E-01
        1   -1    0    0  501    0  0.00000000000E+00  0.00000000000E+00  0.15266788142E+04  0.15266788143E+04  0.50400001928E-02 0. -1.
       -1   -1    0    0    0  501  0.00000000000E+00  0.00000000000E+00 -0.24318939947E+04  0.24318939947E+04  0.50400001928E-02 0.  1.
    10030    2    1    2    0    0  0.00000000000E+00  0.00000000000E+00 -0.90521518045E+03  0.39585728090E+04  0.38536844916E+04 0.  0.
        5    1    3    3  502    0 -0.17246450138E+04  0.60964600008E+03  0.16937273601E+03  0.18370568535E+04  0.46999998093E+01 0. -1.
       -5    1    3    3    0  502  0.17246450138E+04 -0.60964600008E+03 -0.10745879165E+04  0.21215159555E+04  0.46999998093E+01 0.  1.
</event>
<event>
 5   0  0.4762788E-08  0.3925024E+04  0.7818609E-02  0.8019845E-01
        1   -1    0    0  501    0  0.00000000000E+00  0.00000000000E+00  0.24098417179E+04  0.24098417179E+04  0.50400001928E-02 0. -1.
       -1   -1    0    0    0  501  0.00000000000E+00  0.00000000000E+00 -0.15982186395E+04  0.15982186395E+04  0.50400001928E-02 0.  1.
    10030    2    1    2    0    0  0.00000000000E+00  0.00000000000E+00  0.81162307836E+03  0.40080603574E+04  0.39250243066E+04 0.  0.
        2    1    3    3  502    0  0.16222722014E+04 -0.10372246113E+04  0.18509487582E+02  0.19256023968E+04  0.25500000920E-02 0.  1.
       -2    1    3    3    0  502 -0.16222722014E+04  0.10372246113E+04  0.79311359078E+03  0.20824579605E+04  0.25500000920E-02 0. -1.
</event>
<event>
 5   0  0.4750125E-08  0.3910060E+04  0.7818609E-02  0.8022940E-01
       -1   -1    0    0    0  501  0.00000000000E+00  0.00000000000E+00  0.25293598040E+04  0.25293598040E+04  0.50400001928E-02 0.  1.
        1   -1    0    0  501    0  0.00000000000E+00  0.00000000000E+00 -0.15111103565E+04  0.15111103565E+04  0.50400001928E-02 0. -1.
    10030    2    1    2    0    0  0.00000000000E+00  0.00000000000E+00  0.10182494475E+04  0.40404701605E+04  0.39100597413E+04 0.  0.
        4    1    3    3  502    0 -0.73467336462E+02 -0.30051113896E+03 -0.14856567764E+04  0.15175249798E+04  0.12699999809E+01 0. -1.
       -4    1    3    3    0  502  0.73467336462E+02  0.30051113896E+03  0.25039062239E+04  0.25229451808E+04  0.12699999809E+01 0.  1.
</event>
<event>
 5   0  0.1520986E-07  0.3907040E+04  0.7818609E-02  0.8023567E-01
        2   -1    0    0  501    0  0.00000000000E+00  0.00000000000E+00  0.14193811255E+04  0.14193811255E+04  0.25500000920E-02 0.  1.
       -2   -1    0    0    0  501  0.00000000000E+00  0.00000000000E+00 -0.26886646538E+04  0.26886646538E+04  0.25500000920E-02 0. -1.
    10030    2    1    2    0    0  0.00000000000E+00  0.00000000000E+00 -0.12692835283E+04  0.41080457792E+04  0.39070397297E+04 0.  0.
        4    1    3    3  502    0  0.92275600000E+03  0.21068202536E+03  0.11621865685E+04  0.14988478189E+04  0.12699999809E+01 0.  1.
       -4    1    3    3    0  502 -0.92275600000E+03 -0.21068202536E+03 -0.24314700968E+04  0.26091979603E+04  0.12699999809E+01 0. -1.
</event>
<event>
 5   0  0.4750125E-08  0.3970394E+04  0.7818609E-02  0.8010546E-01
        3   -1    0    0  501    0  0.00000000000E+00  0.00000000000E+00  0.20468242413E+04  0.20468242438E+04  0.10100000352E+00 0. -1.
       -3   -1    0    0    0  501  0.00000000000E+00  0.00000000000E+00 -0.19254248185E+04  0.19254248212E+04  0.10100000352E+00 0.  1.
    10030    2    1    2    0    0  0.00000000000E+00  0.00000000000E+00  0.12139942276E+03  0.39722490649E+04  0.39703935339E+04 0.  0.
        5    1    3    3  502    0 -0.42097187178E+03 -0.84609412142E+02  0.19998026238E+04  0.20453871745E+04  0.46999998093E+01 0. -1.
       -5    1    3    3    0  502  0.42097187178E+03  0.84609412142E+02 -0.18784032010E+04  0.19268618905E+04  0.46999998093E+01 0.  1.
</event>
<event>
 5   0  0.4750125E-08  0.3821988E+04  0.7818609E-02  0.8041453E-01
       -1   -1    0    0    0  501  0.00000000000E+00  0.00000000000E+00  0.17179224366E+04  0.17179224366E+04  0.50400001928E-02 0. -1.
        1   -1    0    0  501    0  0.00000000000E+00  0.00000000000E+00 -0.21257644546E+04  0.21257644546E+04  0.50400001928E-02 0.  1.
    10030    2    1    2    0    0  0.00000000000E+00  0.00000000000E+00 -0.40784201796E+03  0.38436868912E+04  0.38219882006E+04 0.  0.
        5    1    3    3  502    0  0.11744640536E+04 -0.46623015263E+03 -0.16456358396E+04  0.20748194560E+04  0.46999998093E+01 0.  1.
       -5    1    3    3    0  502 -0.11744640536E+04  0.46623015263E+03  0.12377938217E+04  0.17688674352E+04  0.46999998093E+01 0. -1.
</event>
<event>
 5   0  0.4750125E-08  0.3928977E+04  0.7818609E-02  0.8019029E-01
        1   -1    0    0  501    0  0.00000000000E+00  0.00000000000E+00  0.22567656876E+04  0.22567656876E+04  0.50400001928E-02 0. -1.
       -1   -1    0    0    0  501  0.00000000000E+00  0.00000000000E+00 -0.17100644755E+04  0.17100644755E+04  0.50400001928E-02 0.  1.
    10030    2    1    2    0    0  0.00000000000E+00  0.00000000000E+00  0.54670121215E+03  0.39668301631E+04  0.39289768805E+04 0.  0.
        5    1    3    3  502    0  0.24405530717E+03  0.75604450678E+02  0.22399135814E+04  0.22544431614E+04  0.46999998093E+01 0. -1.
       -5    1    3    3    0  502 -0.24405530717E+03 -0.75604450678E+02 -0.16932123693E+04  0.17123870016E+04  0.46999998093E+01 0.  1.
</event>
<event>
 5   0  0.1501585E-07  0.3872162E+04  0.7818609E-02  0.8030844E-01
       -2   -1    0    0    0  501  0.00000000000E+00  0.00000000000E+00  0.15344723773E+04  0.15344723773E+04  0.25500000920E-02 0.  1.
        2   -1    0    0  501    0  0.00000000000E+00  0.00000000000E+00 -0.24427997695E+04  0.24427997695E+04  0.25500000920E-02 0. -1.
    10030    2    1    2    0    0  0.00000000000E+00  0.00000000000E+00 -0.90832739226E+03  0.39772721468E+04  0.38721615512E+04 0.  0.
        5    1    3    3  502    0 -0.37730526689E+03 -0.18985942200E+04 -0.49214589637E+03  0.19973104290E+04  0.46999998093E+01 0.  1.
       -5    1    3    3    0  502  0.37730526689E+03  0.18985942200E+04 -0.41618149589E+03  0.19799617178E+04  0.46999998093E+01 0. -1.
</event>
<event>
 5   0  0.1538018E-07  0.3891722E+04  0.7818609E-02  0.8026753E-01
        2   -1    0    0  501    0  0.00000000000E+00  0.00000000000E+00  0.22382316543E+04  0.22382316543E+04  0.25500000920E-02 0. -1.
       -2   -1    0    0    0  501  0.00000000000E+00  0.00000000000E+00 -0.16916811370E+04  0.16916811370E+04  0.25500000920E-02 0.  1.
    10030    2    1    2    0    0  0.00000000000E+00  0.00000000000E+00  0.54655051731E+03  0.39299127913E+04  0.38917216086E+04 0.  0.
        1    1    3    3  502    0  0.43620147686E+03 -0.11322988056E+04  0.18093877054E+04  0.21785904117E+04  0.50400001928E-02 0. -1.
       -1    1    3    3    0  502 -0.43620147686E+03  0.11322988056E+04 -0.12628371881E+04  0.17513223796E+04  0.50400001928E-02 0.  1.
</event>
<event>
 5   0  0.4762788E-08  0.3748425E+04  0.7818609E-02  0.8057314E-01
       -1   -1    0    0    0  501  0.00000000000E+00  0.00000000000E+00  0.15862487104E+04  0.15862487104E+04  0.50400001928E-02 0.  1.
        1   -1    0    0  501    0  0.00000000000E+00  0.00000000000E+00 -0.22144528427E+04  0.22144528427E+04  0.50400001928E-02 0. -1.
    10030    2    1    2    0    0  0.00000000000E+00  0.00000000000E+00 -0.62820413233E+03  0.38007015531E+04  0.37484252513E+04 0.  0.
        2    1    3    3  502    0  0.16411439215E+04 -0.36097971977E+03 -0.11557465787E+04  0.20394631361E+04  0.25500000920E-02 0. -1.
       -2    1    3    3    0  502 -0.16411439215E+04  0.36097971977E+03  0.52754244638E+03  0.17612384171E+04  0.25500000920E-02 0.  1.
</event>
<event>
 5   0  0.4762788E-08  0.3840561E+04  0.7818609E-02  0.8037506E-01
        1   -1    0    0  501    0  0.00000000000E+00  0.00000000000E+00  0.14296787718E+04  0.14296787718E+04  0.50400001928E-02 0.  1.
       -1   -1    0    0    0  501  0.00000000000E+00  0.00000000000E+00 -0.25792352148E+04  0.25792352148E+04  0.50400001928E-02 0. -1.
    10030    2    1    2    0    0  0.00000000000E+00  0.00000000000E+00 -0.11495564430E+04  0.40089139866E+04  0.38405613308E+04 0.  0.
        2    1    3    3  502    0 -0.14438789663E+04  0.85153634318E+03  0.40307732710E+03  0.17240568276E+04  0.25500000920E-02 0.  1.
       -2    1    3    3    0  502  0.14438789663E+04 -0.85153634318E+03 -0.15526337701E+04  0.22848571590E+04  0.25500000920E-02 0. -1.
</event>
<event>
 5   0  0.1538018E-07  0.3899920E+04  0.7818609E-02  0.8025046E-01
        2   -1    0    0  501    0  0.00000000000E+00  0.00000000000E+00  0.33958518777E+04  0.33958518777E+04  0.25500000920E-02 0.  1.
       -2   -1    0    0    0  501  0.00000000000E+00  0.00000000000E+00 -0.11197023620E+04  0.11197023620E+04  0.25500000920E-02 0. -1.
    10030    2    1    2    0    0  0.00000000000E+00  0.00000000000E+00  0.22761495158E+04  0.45155542397E+04  0.38999196752E+04 0.  0.
        1    1    3    3  502    0 -0.61654379466E+03  0.65711902485E+03  0.31403367021E+04  0.32670546776E+04  0.50400001928E-02 0.  1.
       -1    1    3    3    0  502  0.61654379466E+03 -0.65711902485E+03 -0.86418718634E+03  0.12484995621E+04  0.50400001928E-02 0. -1.
</event>
<event>
 5   0  0.1538018E-07  0.3924410E+04  0.7818609E-02  0.8019971E-01
        2   -1    0    0  501    0  0.00000000000E+00  0.00000000000E+00  0.11672507034E+04  0.11672507034E+04  0.25500000920E-02 0.  1.
       -2   -1    0    0    0  501  0.00000000000E+00  0.00000000000E+00 -0.32985616437E+04  0.32985616437E+04  0.25500000920E-02 0. -1.
    10030    2    1    2    0    0  0.00000000000E+00  0.00000000000E+00 -0.21313109403E+04  0.44658123471E+04  0.39244099678E+04 0.  0.
        1    1    3    3  502    0 -0.15010848227E+04  0.11054236162E+04 -0.17625385267E+04  0.25654939240E+04  0.50400001928E-02 0.  1.
       -1    1    3    3    0  502  0.15010848227E+04 -0.11054236162E+04 -0.36877241362E+03  0.19003184231E+04  0.50400001928E-02 0. -1.
</event>
<event>
 5   0  0.1503228E-07  0.3864274E+04  0.7818609E-02  0.8032501E-01
        2   -1    0    0  501    0  0.00000000000E+00  0.00000000000E+00  0.25349041056E+04  0.25349041056E+04  0.25500000920E-02 0. -1.
       -2   -1    0    0    0  501  0.00000000000E+00  0.00000000000E+00 -0.14726996656E+04  0.14726996656E+04  0.25500000920E-02 0.  1.
    10030    2    1    2    0    0  0.00000000000E+00  0.00000000000E+00  0.10622044399E+04  0.40076037712E+04  0.38642735042E+04 0.  0.
        3    1    3    3  502    0 -0.90085766668E+02 -0.64311179728E+03 -0.13561312903E+04  0.15035957953E+04  0.10100000352E+00 0.  1.
       -3    1    3    3    0  502  0.90085766668E+02  0.64311179728E+03  0.24183357302E+04  0.25040079759E+04  0.10100000352E+00 0. -1.
</event>
<event>
 5   0  0.4750125E-08  0.3930071E+04  0.7818609E-02  0.8018804E-01
       -1   -1    0    0    0  501  0.00000000000E+00  0.00000000000E+00  0.13229882391E+04  0.13229882391E+04  0.50400001928E-02 0. -1.
        1   -1    0    0  501    0  0.00000000000E+00  0.00000000000E+00 -0.29186681487E+04  0.29186681487E+04  0.50400001928E-02 0.  1.
    10030    2    1    2    0    0  0.00000000000E+00  0.00000000000E+00 -0.15956799096E+04  0.42416563878E+04  0.39300705513E+04 0.  0.
        4    1    3    3  502    0  0.10508040422E+04  0.62494312176E+02 -0.25886904413E+04  0.27945329642E+04  0.12699999809E+01 0.  1.
       -4    1    3    3    0  502 -0.10508040422E+04 -0.62494312176E+02  0.99301053170E+03  0.14471234236E+04  0.12699999809E+01 0. -1.
</event>
<event>
 5   0  0.4750125E-08  0.3893382E+04  0.7818609E-02  0.8026407E-01
        1   -1    0    0  501    0  0.00000000000E+00  0.00000000000E+00  0.24316407779E+04  0.24316407779E+04  0.50400001928E-02 0. -1.
       -1   -1    0    0    0  501  0.00000000000E+00  0.00000000000E+00 -0.15584560161E+04  0.15584560161E+04  0.50400001928E-02 0.  1.
    10030    2    1    2    0    0  0.00000000000E+00  0.00000000000E+00  0.87318476182E+03  0.39900967940E+04  0.38933816660E+04 0.  0.
        4    1    3    3  502    0 -0.19174774660E+04 -0.19700322732E+02  0.92856935133E+02  0.19198260230E+04  0.12699999809E+01 0. -1.
       -4    1    3    3    0  502  0.19174774660E+04  0.19700322732E+02  0.78032782669E+03  0.20702707710E+04  0.12699999809E+01 0.  1.
</event>
<event>
 5   0  0.4750125E-08  0.3746266E+04  0.7818609E-02  0.8057785E-01
        1   -1    0    0  501    0  0.00000000000E+00  0.00000000000E+00  0.13528608889E+04  0.13528608889E+04  0.50400001928E-02 0. -1.
       -1   -1    0    0    0  501  0.00000000000E+00  0.00000000000E+00 -0.25934869625E+04  0.25934869625E+04  0.50400001928E-02 0.  1.
    10030    2    1    2    0    0  0.00000000000E+00  0.00000000000E+00 -0.12406260736E+04  0.39463478514E+04  0.37462659156E+04 0.  0.
        3    1    3    3  502    0  0.13734098838E+04  0.75729835537E+03 -0.16991552152E+04  0.23123330131E+04  0.10100000352E+00 0.  1.
       -3    1    3    3    0  502 -0.13734098838E+04 -0.75729835537E+03  0.45852914162E+03  0.16340148383E+04  0.10100000352E+00 0. -1.
</event>
<event>
 5   0  0.1501585E-07  0.3850913E+04  0.7818609E-02  0.8035316E-01
        2   -1    0    0  501    0  0.00000000000E+00  0.00000000000E+00  0.21087663741E+04  0.21087663741E+04  0.25500000920E-02 0. -1.
       -2   -1    0    0    0  501  0.00000000000E+00  0.00000000000E+00 -0.17580817185E+04  0.17580817185E+04  0.25500000920E-02 0.  1.
    10030    2    1    2    0    0  0.00000000000E+00  0.00000000000E+00  0.35068465563E+03  0.38668480926E+04  0.38509134557E+04 0.  0.
        5    1    3    3  502    0 -0.15512634600E+03  0.11119607905E+03  0.20992382238E+04  0.21079022657E+04  0.46999998093E+01 0. -1.
       -5    1    3    3    0  502  0.15512634600E+03 -0.11119607905E+03 -0.17485535682E+04  0.17589458269E+04  0.46999998093E+01 0.  1.
</event>
<event>
 5   0  0.4750125E-08  0.3863328E+04  0.7818609E-02  0.8032700E-01
       -1   -1    0    0    0  501  0.00000000000E+00  0.00000000000E+00  0.23213859241E+04  0.23213859241E+04  0.50400001928E-02 0. -1.
        1   -1    0    0  501    0  0.00000000000E+00  0.00000000000E+00 -0.16073697726E+04  0.16073697726E+04  0.50400001928E-02 0.  1.
    10030    2    1    2    0    0  0.00000000000E+00  0.00000000000E+00  0.71401615147E+03  0.39287556967E+04  0.38633278737E+04 0.  0.
        3    1    3    3  502    0 -0.17684821519E+04 -0.39322190733E+03  0.10385620593E+04  0.20882441791E+04  0.10100000352E+00 0. -1.
       -3    1    3    3    0  502  0.17684821519E+04  0.39322190733E+03 -0.32454590784E+03  0.18405115177E+04  0.10100000352E+00 0.  1.
</event>
<event>
 5   0  0.1501585E-07  0.4116363E+04  0.7818609E-02  0.7981475E-01
        2   -1    0    0  501    0  0.00000000000E+00  0.00000000000E+00  0.19303563439E+04  0.19303563439E+04  0.25500000920E-02 0. -1.
       -2   -1    0    0    0  501  0.00000000000E+00  0.00000000000E+00 -0.21944709255E+04  0.21944709255E+04  0.25500000920E-02 0.  1.
    10030    2    1    2    0    0  0.00000000000E+00  0.00000000000E+00 -0.26411458163E+03  0.41248272694E+04  0.41163628958E+04 0.  0.
        5    1    3    3  502    0  0.53612653975E+03  0.40370403797E+03  0.18176260092E+04  0.19375745189E+04  0.46999998093E+01 0. -1.
       -5    1    3    3    0  502 -0.53612653975E+03 -0.40370403797E+03 -0.20817405908E+04  0.21872527505E+04  0.46999998093E+01 0.  1.
</event>
<event>
 5   0  0.1538018E-07  0.3942450E+04  0.7818609E-02  0.8016258E-01
        2   -1    0    0  501    0  0.00000000000E+00  0.00000000000E+00  0.21322621286E+04  0.21322621286E+04  0.25500000920E-02 0. -1.
       -2   -1    0    0    0  501  0.00000000000E+00  0.00000000000E+00 -0.18223504485E+04  0.18223504485E+04  0.25500000920E-02 0.  1.
    10030    2    1    2    0    0  0.00000000000E+00  0.00000000000E+00  0.30991168007E+03  0.39546125771E+04  0.39424504291E+04 0.  0.
        1    1    3    3  502    0  0.31218962649E+03 -0.13076926680E+04 -0.12910899242E+04  0.18639838168E+04  0.50400001928E-02 0.  1.
       -1    1    3    3    0  502 -0.31218962649E+03  0.13076926680E+04  0.16010016043E+04  0.20906287604E+04  0.50400001928E-02 0. -1.
</event>
<event>
 5   0  0.1520986E-07  0.3884059E+04  0.7818609E-02  0.8028353E-01
       -2   -1    0    0    0  501  0.00000000000E+00  0.00000000000E+00  0.14263172561E+04  0.14263172561E+04  0.25500000920E-02 0. -1.
        2   -1    0    0  501    0  0.00000000000E+00  0.00000000000E+00 -0.26442066802E+04  0.26442066802E+04  0.25500000920E-02 0.  1.
    10030    2    1    2    0    0  0.00000000000E+00  0.00000000000E+00 -0.12178894241E+04  0.40705239363E+04  0.38840585046E+04 0.  0.
        4    1    3    3  502    0  0.53857471317E+03  0.14080180342E+04  0.67412620797E+03  0.16513707226E+04  0.12699999809E+01 0. -1.
       -4    1    3    3    0  502 -0.53857471317E+03 -0.14080180342E+04 -0.18920156320E+04  0.24191532137E+04  0.12699999809E+01 0.  1.
</event>
<event>
 5   0  0.1501585E-07  0.3934617E+04  0.7818609E-02  0.8017868E-01
       -2   -1    0    0    0  501  0.00000000000E+00  0.00000000000E+00  0.16536399355E+04  0.16536399355E+04  0.25500000920E-02 0.  1.
        2   -1    0    0  501    0  0.00000000000E+00  0.00000000000E+00 -0.23404752050E+04  0.23404752050E+04  0.25500000920E-02 0. -1.
    10030    2    1    2    0    0  0.00000000000E+00  0.00000000000E+00 -0.68683526944E+03  0.39941151405E+04  0.39346172709E+04 0.  0.
        5    1    3    3  502    0 -0.62925431023E+02  0.16423039112E+04  0.75420980361E+03  0.18083075691E+04  0.46999998093E+01 0.  1.
       -5    1    3    3    0  502  0.62925431023E+02 -0.16423039112E+04 -0.14410450731E+04  0.21858075714E+04  0.46999998093E+01 0. -1.
</event>
<event>
 5   0  0.4750125E-08  0.3901091E+04  0.7818609E-02  0.8024802E-01
       -1   -1    0    0    0  501  0.00000000000E+00  0.00000000000E+00  0.12622227087E+04  0.12622227087E+04  0.50400001928E-02 0. -1.
        1   -1    0    0  501    0  0.00000000000E+00  0.00000000000E+00 -0.30142284503E+04  0.30142284503E+04  0.50400001928E-02 0.  1.
    10030    2    1    2    0    0  0.00000000000E+00  0.00000000000E+00 -0.17520057416E+04  0.42764511590E+04  0.39010909239E+04 0.  0.
        4    1    3    3  502    0  0.16742391826E+04  0.23016384303E+03  0.19165718543E+03  0.17008193099E+04  0.12699999809E+01 0. -1.
       -4    1    3    3    0  502 -0.16742391826E+04 -0.23016384303E+03 -0.19436629270E+04  0.25756318491E+04  0.12699999809E+01 0.  1.
</event>
<event>
 5   0  0.1538018E-07  0.3900037E+04  0.7818609E-02  0.8025022E-01
        2   -1    0    0  501    0  0.00000000000E+00  0.00000000000E+00  0.12513882949E+04  0.12513882949E+04  0.25500000920E-02 0.  1.
       -2   -1    0    0    0  501  0.00000000000E+00  0.00000000000E+00 -0.30386828364E+04  0.30386828364E+04  0.25500000920E-02 0. -1.
    10030    2    1    2    0    0  0.00000000000E+00  0.00000000000E+00 -0.17872945416E+04  0.42900711313E+04  0.39000369913E+04 0.  0.
        1    1    3    3  502    0  0.97446196989E+03  0.36056036944E+03 -0.27088242174E+04  0.29012598215E+04  0.50400001928E-02 0. -1.
       -1    1    3    3    0  502 -0.97446196989E+03 -0.36056036944E+03  0.92152967585E+03  0.13888113098E+04  0.50400001928E-02 0.  1.
</event>
<event>
 5   0  0.4750125E-08  0.3905366E+04  0.7818609E-02  0.8023914E-01
       -1   -1    0    0    0  501  0.00000000000E+00  0.00000000000E+00  0.14389624732E+04  0.14389624732E+04  0.50400001928E-02 0. -1.
        1   -1    0    0  501    0  0.00000000000E+00  0.00000000000E+00 -0.26498053278E+04  0.26498053279E+04  0.50400001928E-02 0.  1.
    10030    2    1    2    0    0  0.00000000000E+00  0.00000000000E+00 -0.12108428547E+04  0.40887678010E+04  0.39053657591E+04 0.  0.
        1    1    3    3  502    0  0.16288431112E+04 -0.90015690159E+03  0.13578244085E+02  0.18610740709E+04  0.50400001928E-02 0.  1.
       -1    1    3    3    0  502 -0.16288431112E+04  0.90015690159E+03 -0.12244210987E+04  0.22276937302E+04  0.50400001928E-02 0. -1.
</event>
<event>
 5   0  0.4762788E-08  0.3839324E+04  0.7818609E-02  0.8037768E-01
        1   -1    0    0  501    0  0.00000000000E+00  0.00000000000E+00  0.28508120074E+04  0.28508120074E+04  0.50400001928E-02 0. -1.
       -1   -1    0    0    0  501  0.00000000000E+00  0.00000000000E+00 -0.12926499874E+04  0.12926499874E+04  0.50400001928E-02 0.  1.
    10030    2    1    2    0    0  0.00000000000E+00  0.00000000000E+00  0.15581620200E+04  0.41434619948E+04  0.38393239538E+04 0.  0.
        2    1    3    3  502    0 -0.13523876875E+04 -0.48484511701E+03 -0.59499303625E+03  0.15550060958E+04  0.25500000920E-02 0.  1.
       -2    1    3    3    0  502  0.13523876875E+04  0.48484511701E+03  0.21531550562E+04  0.25884558990E+04  0.25500000920E-02 0. -1.
</event>
<event>
 5   0  0.4762788E-08  0.3884554E+04  0.7818609E-02  0.8028249E-01
       -1   -1    0    0    0  501  0.00000000000E+00  0.00000000000E+00  0.17111139191E+04  0.17111139191E+04  0.50400001928E-02 0.  1.
        1   -1    0    0  501    0  0.00000000000E+00  0.00000000000E+00 -0.22046695301E+04  0.22046695301E+04  0.50400001928E-02 0. -1.
    10030    2    1    2    0    0  0.00000000000E+00  0.00000000000E+00 -0.49355561095E+03  0.39157834492E+04  0.38845543992E+04 0.  0.
        2    1    3    3  502    0  0.17729793387E+03  0.32301905982E+03  0.16755573051E+04  0.17155955680E+04  0.25500000920E-02 0.  1.
       -2    1    3    3    0  502 -0.17729793387E+03 -0.32301905982E+03 -0.21691129160E+04  0.22001878812E+04  0.25500000920E-02 0. -1.
</event>
<event>
 5   0  0.4750125E-08  0.3820619E+04  0.7818609E-02  0.8041745E-01
        1   -1    0    0  501    0  0.00000000000E+00  0.00000000000E+00  0.12379608835E+04  0.12379608835E+04  0.50400001928E-02 0.  1.
       -1   -1    0    0    0  501  0.00000000000E+00  0.00000000000E+00 -0.29478173773E+04  0.29478173773E+04  0.50400001928E-02 0. -1.
    10030    2    1    2    0    0  0.00000000000E+00  0.00000000000E+00 -0.17098564938E+04  0.41857782608E+04  0.38206191147E+04 0.  0.
        1    1    3    3  502    0 -0.26348952458E+03 -0.50329164987E+03 -0.28531317824E+04  0.29091390792E+04  0.50400001928E-02 0. -1.
       -1    1    3    3    0  502  0.26348952458E+03  0.50329164987E+03  0.11432752886E+04  0.12766391816E+04  0.50400001928E-02 0.  1.
</event>
<event>
 5   0  0.4750125E-08  0.3880263E+04  0.7818609E-02  0.8029147E-01
       -1   -1    0    0    0  501  0.00000000000E+00  0.00000000000E+00  0.13564649374E+04  0.13564649374E+04  0.50400001928E-02 0.  1.
        1   -1    0    0  501    0  0.00000000000E+00  0.00000000000E+00 -0.27749407269E+04  0.27749407269E+04  0.50400001928E-02 0. -1.
    10030    2    1    2    0    0  0.00000000000E+00  0.00000000000E+00 -0.14184757895E+04  0.41314056643E+04  0.38802627743E+04 0.  0.
        4    1    3    3  502    0 -0.11197628341E+04  0.35238176029E+03 -0.23539048736E+04  0.26303823821E+04  0.12699999809E+01 0. -1.
       -4    1    3    3    0  502  0.11197628341E+04 -0.35238176029E+03  0.93542908404E+03  0.15010232822E+04  0.12699999809E+01 0.  1.
</event>
<event>
 5   0  0.1520986E-07  0.3915455E+04  0.7818609E-02  0.8021822E-01
        2   -1    0    0  501    0  0.00000000000E+00  0.00000000000E+00  0.30152932466E+04  0.30152932466E+04  0.25500000920E-02 0. -1.
       -2   -1    0    0    0  501  0.00000000000E+00  0.00000000000E+00 -0.12710861291E+04  0.12710861291E+04  0.25500000920E-02 0.  1.
    10030    2    1    2    0    0  0.00000000000E+00  0.00000000000E+00  0.17442071175E+04  0.42863793757E+04  0.39154552333E+04 0.  0.
        4    1    3    3  502    0  0.13620599919E+04  0.10638454161E+04  0.18788543567E+04  0.25528552245E+04  0.12699999809E+01 0. -1.
       -4    1    3    3    0  502 -0.13620599919E+04 -0.10638454161E+04 -0.13464723925E+03  0.17335241512E+04  0.12699999809E+01 0.  1.
</event>
<event>
 5   0  0.1520986E-07  0.3944723E+04  0.7818609E-02  0.8015792E-01
       -2   -1    0    0    0  501  0.00000000000E+00  0.00000000000E+00  0.18728696968E+04  0.18728696968E+04  0.25500000920E-02 0. -1.
        2   -1    0    0  501    0  0.00000000000E+00  0.00000000000E+00 -0.20771380781E+04  0.20771380781E+04  0.25500000920E-02 0.  1.
    10030    2    1    2    0    0  0.00000000000E+00  0.00000000000E+00 -0.20426838127E+03  0.39500077749E+04  0.39447225315E+04 0.  0.
        4    1    3    3  502    0 -0.17880303007E+04  0.45049044923E+02 -0.93458766937E+03  0.20180528976E+04  0.12699999809E+01 0. -1.
       -4    1    3    3    0  502  0.17880303007E+04 -0.45049044923E+02  0.73031928810E+03  0.19319548774E+04  0.12699999809E+01 0.  1.
</event>
<event>
 5   0  0.4750125E-08  0.3864660E+04  0.7818609E-02  0.8032420E-01
        1   -1    0    0  501    0  0.00000000000E+00  0.00000000000E+00  0.18177125959E+04  0.18177125959E+04  0.50400001928E-02 0. -1.
       -1   -1    0    0    0  501  0.00000000000E+00  0.00000000000E+00 -0.20541750296E+04  0.20541750296E+04  0.50400001928E-02 0.  1.
    10030    2    1    2    0    0  0.00000000000E+00  0.00000000000E+00 -0.23646243373E+03  0.38718876255E+04  0.38646603088E+04 0.  0.
        5    1    3    3  502    0  0.15320695801E+04 -0.11374290175E+04  0.18712683840E+03  0.19172951029E+04  0.46999998093E+01 0.  1.
       -5    1    3    3    0  502 -0.15320695801E+04  0.11374290175E+04 -0.42358927213E+03  0.19545925226E+04  0.46999998093E+01 0. -1.
</event>
<event>
 5   0  0.1546846E-07  0.3762850E+04  0.7818609E-02  0.8054175E-01
        2   -1    0    0  501    0  0.00000000000E+00  0.00000000000E+00  0.25777175841E+04  0.25777175841E+04  0.25500000920E-02 0.  1.
       -2   -1    0    0    0  501  0.00000000000E+00  0.00000000000E+00 -0.13732145140E+04  0.13732145140E+04  0.25500000920E-02 0. -1.
    10030    2    1    2    0    0  0.00000000000E+00  0.00000000000E+00  0.12045030701E+04  0.39509320982E+04  0.37628495583E+04 0.  0.
        2    1    3    3  502    0 -0.44025012422E+03  0.13100764395E+04 -0.73812983240E+03  0.15668299520E+04  0.25500000920E-02 0. -1.
       -2    1    3    3    0  502  0.44025012422E+03 -0.13100764395E+04  0.19426329025E+04  0.23841021461E+04  0.25500000920E-02 0.  1.
</event>
<event>
 5   0  0.4750125E-08  0.3946595E+04  0.7818609E-02  0.8015408E-01
        3   -1    0    0  501    0  0.00000000000E+00  0.00000000000E+00  0.29161618038E+04  0.29161618055E+04  0.10100000352E+00 0. -1.
       -3   -1    0    0    0  501  0.00000000000E+00  0.00000000000E+00 -0.13352833742E+04  0.13352833780E+04  0.10100000352E+00 0.  1.
    10030    2    1    2    0    0  0.00000000000E+00  0.00000000000E+00  0.15808784296E+04  0.42514451836E+04  0.39465946764E+04 0.  0.
        3    1    3    3  502    0 -0.12336482172E+04  0.15293881044E+04  0.59478823546E+03  0.20529707628E+04  0.10100000352E+00 0. -1.
       -3    1    3    3    0  502  0.12336482172E+04 -0.15293881044E+04  0.98609019414E+03  0.21984744208E+04  0.10100000352E+00 0.  1.
</event>
<event>
 5   0  0.1538018E-07  0.3548020E+04  0.7818609E-02  0.8102503E-01
       -2   -1    0    0    0  501  0.00000000000E+00  0.00000000000E+00  0.17021673778E+04  0.17021673778E+04  0.25500000920E-02 0. -1.
        2   -1    0    0  501    0  0.00000000000E+00  0.00000000000E+00 -0.18488849880E+04  0.18488849880E+04  0.25500000920E-02 0.  1.
    10030    2    1    2    0    0  0.00000000000E+00  0.00000000000E+00 -0.14671761014E+03  0.35510523658E+04  0.35480201306E+04 0.  0.
        1    1    3    3  502    0  0.37171657026E+03  0.92522716768E+03  0.13951692358E+04  0.17148515145E+04  0.50400001928E-02 0. -1.
       -1    1    3    3    0  502 -0.37171657026E+03 -0.92522716768E+03 -0.15418868459E+04  0.18362008512E+04  0.50400001928E-02 0.  1.
</event>
<event>
 5   0  0.1520986E-07  0.3905803E+04  0.7818609E-02  0.8023823E-01
        2   -1    0    0  501    0  0.00000000000E+00  0.00000000000E+00  0.23090631418E+04  0.23090631418E+04  0.25500000920E-02 0.  1.
       -2   -1    0    0    0  501  0.00000000000E+00  0.00000000000E+00 -0.16516760536E+04  0.16516760536E+04  0.25500000920E-02 0. -1.
    10030    2    1    2    0    0  0.00000000000E+00  0.00000000000E+00  0.65738708815E+03  0.39607391954E+04  0.39058030147E+04 0.  0.
        4    1    3    3  502    0 -0.10189445747E+04 -0.10304414140E+04 -0.99882794816E+03  0.17600330784E+04  0.12699999809E+01 0. -1.
       -4    1    3    3    0  502  0.10189445747E+04  0.10304414140E+04  0.16562150363E+04  0.22007061170E+04  0.12699999809E+01 0.  1.
</event>
<event>
 5   0  0.4750125E-08  0.3907255E+04  0.7818609E-02  0.8023522E-01
        1   -1    0    0  501    0  0.00000000000E+00  0.00000000000E+00  0.24977678121E+04  0.24977678121E+04  0.50400001928E-02 0. -1.
       -1   -1    0    0    0  501  0.00000000000E+00  0.00000000000E+00 -0.15280284684E+04  0.15280284684E+04  0.50400001928E-02 0.  1.
    10030    2    1    2    0    0  0.00000000000E+00  0.00000000000E+00  0.96973934373E+03  0.40257962805E+04  0.39072549568E+04 0.  0.
        5    1    3    3  502    0  0.18077355698E+04 -0.53982220401E+03  0.10075290925E+04  0.21387970602E+04  0.46999998093E+01 0.  1.
       -5    1    3    3    0  502 -0.18077355698E+04  0.53982220401E+03 -0.37789748781E+02  0.18869992203E+04  0.46999998093E+01 0. -1.
</event>
<event>
 5   0  0.1520986E-07  0.3478585E+04  0.7818609E-02  0.8118884E-01
        2   -1    0    0  501    0  0.00000000000E+00  0.00000000000E+00  0.17488042379E+04  0.17488042379E+04  0.25500000920E-02 0. -1.
       -2   -1    0    0    0  501  0.00000000000E+00  0.00000000000E+00 -0.17298328198E+04  0.17298328198E+04  0.25500000920E-02 0.  1.
    10030    2    1    2    0    0  0.00000000000E+00  0.00000000000E+00  0.18971418070E+02  0.34786370577E+04  0.34785853252E+04 0.  0.
        4    1    3    3  502    0 -0.55577532244E+03  0.81896477056E+03 -0.14207620635E+04  0.17315183968E+04  0.12699999809E+01 0.  1.
       -4    1    3    3    0  502  0.55577532244E+03 -0.81896477056E+03  0.14397334816E+04  0.17471186609E+04  0.12699999809E+01 0. -1.
</event>
<event>
 5   0  0.1501585E-07  0.3905830E+04  0.7818609E-02  0.8023818E-01
       -2   -1    0    0    0  501  0.00000000000E+00  0.00000000000E+00  0.27193132297E+04  0.27193132297E+04  0.25500000920E-02 0. -1.
        2   -1    0    0  501    0  0.00000000000E+00  0.00000000000E+00 -0.14025145806E+04  0.14025145806E+04  0.25500000920E-02 0.  1.
    10030    2    1    2    0    0  0.00000000000E+00  0.00000000000E+00  0.13167986491E+04  0.41218278103E+04  0.39058297218E+04 0.  0.
        5    1    3    3  502    0 -0.19208494074E+04 -0.29317075132E+03  0.86477169000E+03  0.21268436005E+04  0.46999998093E+01 0.  1.
       -5    1    3    3    0  502  0.19208494074E+04  0.29317075132E+03  0.45202695913E+03  0.19949842097E+04  0.46999998093E+01 0. -1.
</event>
<event>
 5   0  0.1538018E-07  0.3895624E+04  0.7818609E-02  0.8025940E-01
        2   -1    0    0  501    0  0.00000000000E+00  0.00000000000E+00  0.17710219538E+04  0.17710219538E+04  0.25500000920E-02 0.  1.
       -2   -1    0    0    0  501  0.00000000000E+00  0.00000000000E+00 -0.21422495003E+04  0.21422495003E+04  0.25500000920E-02 0. -1.
    10030    2    1    2    0    0  0.00000000000E+00  0.00000000000E+00 -0.37122754656E+03  0.39132714541E+04  0.38956236449E+04 0.  0.
        1    1    3    3  502    0 -0.62234839390E+03  0.32915858775E+03  0.16387380101E+04  0.17835709028E+04  0.50400001928E-02 0.  1.
       -1    1    3    3    0  502  0.62234839390E+03 -0.32915858775E+03 -0.20099655567E+04  0.21297005514E+04  0.50400001928E-02 0. -1.
</event>
<event>
 5   0  0.4750125E-08  0.3955620E+04  0.7818609E-02  0.8013560E-01
        1   -1    0    0  501    0  0.00000000000E+00  0.00000000000E+00  0.29684422726E+04  0.29684422726E+04  0.50400001928E-02 0. -1.
       -1   -1    0    0    0  501  0.00000000000E+00  0.00000000000E+00 -0.13177726057E+04  0.13177726057E+04  0.50400001928E-02 0.  1.
    10030    2    1    2    0    0  0.00000000000E+00  0.00000000000E+00  0.16506696669E+04  0.42862148782E+04  0.39556197534E+04 0.  0.
        4    1    3    3  502    0 -0.91831196273E+03 -0.13361350693E+04  0.20527814216E+04  0.26158109569E+04  0.12699999809E+01 0. -1.
       -4    1    3    3    0  502  0.91831196273E+03  0.13361350693E+04 -0.40211175469E+03  0.16704039214E+04  0.12699999809E+01 0.  1.
</event>
<event>
 5   0  0.1538018E-07  0.3909643E+04  0.7818609E-02  0.8023027E-01
       -2   -1    0    0    0  501  0.00000000000E+00  0.00000000000E+00  0.24203748957E+04  0.24203748957E+04  0.25500000920E-02 0. -1.
        2   -1    0    0  501    0  0.00000000000E+00  0.00000000000E+00 -0.15788162848E+04  0.15788162848E+04  0.25500000920E-02 0.  1.
    10030    2    1    2    0    0  0.00000000000E+00  0.00000000000E+00  0.84155861086E+03  0.39991911805E+04  0.39096431042E+04 0.  0.
        1    1    3    3  502    0  0.14438709948E+04 -0.22811005551E+03 -0.90684251590E+03  0.17202212054E+04  0.50400001928E-02 0.  1.
       -1    1    3    3    0  502 -0.14438709948E+04  0.22811005551E+03  0.17484011268E+04  0.22789699750E+04  0.50400001928E-02 0. -1.
</event>
<event>
 5   0  0.4750125E-08  0.3914295E+04  0.7818609E-02  0.8022063E-01
       -1   -1    0    0    0  501  0.00000000000E+00  0.00000000000E+00  0.16075407006E+04  0.16075407006E+04  0.50400001928E-02 0. -1.
        1   -1    0    0  501    0  0.00000000000E+00  0.00000000000E+00 -0.23827870505E+04  0.23827870505E+04  0.50400001928E-02 0.  1.
    10030    2    1    2    0    0  0.00000000000E+00  0.00000000000E+00 -0.77524634984E+03  0.39903277511E+04  0.39142954230E+04 0.  0.
        4    1    3    3  502    0 -0.18367251794E+04 -0.64632177988E+03 -0.18595661648E+03  0.19559838199E+04  0.12699999809E+01 0. -1.
       -4    1    3    3    0  502  0.18367251794E+04  0.64632177988E+03 -0.58928973335E+03  0.20343439312E+04  0.12699999809E+01 0.  1.
</event>
<event>
 5   0  0.1503228E-07  0.3929305E+04  0.7818609E-02  0.8018962E-01
       -2   -1    0    0    0  501  0.00000000000E+00  0.00000000000E+00  0.28758861773E+04  0.28758861773E+04  0.25500000920E-02 0. -1.
        2   -1    0    0  501    0  0.00000000000E+00  0.00000000000E+00 -0.13421460725E+04  0.13421460725E+04  0.25500000920E-02 0.  1.
    10030    2    1    2    0    0  0.00000000000E+00  0.00000000000E+00  0.15337401048E+04  0.42180322498E+04  0.39293049451E+04 0.  0.
        3    1    3    3  502    0  0.31417889038E+03 -0.17799417073E+04 -0.59750692428E+02  0.18084443624E+04  0.10100000352E+00 0.  1.
       -3    1    3    3    0  502 -0.31417889038E+03  0.17799417073E+04  0.15934907972E+04  0.24095878875E+04  0.10100000352E+00 0. -1.
</event>
<event>
 5   0  0.4750125E-08  0.3939812E+04  0.7818609E-02  0.8016800E-01
       -1   -1    0    0    0  501  0.00000000000E+00  0.00000000000E+00  0.23931794628E+04  0.23931794628E+04  0.50400001928E-02 0.  1.
        1   -1    0    0  501    0  0.00000000000E+00  0.00000000000E+00 -0.16214950979E+04  0.16214950979E+04  0.50400001928E-02 0. -1.
    10030    2    1    2    0    0  0.00000000000E+00  0.00000000000E+00  0.77168436492E+03  0.40146745607E+04  0.39398115525E+04 0.  0.
        4    1    3    3  502    0 -0.10832580500E+04 -0.74840573446E+03 -0.11072536501E+04  0.17203404910E+04  0.12699999809E+01 0. -1.
       -4    1    3    3    0  502  0.10832580500E+04  0.74840573446E+03  0.18789380150E+04  0.22943340697E+04  0.12699999809E+01 0.  1.
</event>
<event>
 5   0  0.4750125E-08  0.3764861E+04  0.7818609E-02  0.8053738E-01
       -1   -1    0    0    0  501  0.00000000000E+00  0.00000000000E+00  0.18932642789E+04  0.18932642790E+04  0.50400001928E-02 0.  1.
        1   -1    0    0  501    0  0.00000000000E+00  0.00000000000E+00 -0.18716590088E+04  0.18716590088E+04  0.50400001928E-02 0. -1.
    10030    2    1    2    0    0  0.00000000000E+00  0.00000000000E+00  0.21605270162E+02  0.37649232877E+04  0.37648612956E+04 0.  0.
        1    1    3    3  502    0  0.56826193344E+03 -0.17806378200E+04  0.23430681320E+03  0.18837442379E+04  0.50400001928E-02 0. -1.
       -1    1    3    3    0  502 -0.56826193344E+03  0.17806378200E+04 -0.21270154304E+03  0.18811790498E+04  0.50400001928E-02 0.  1.
</event>
<event>
 5   0  0.1538018E-07  0.3921606E+04  0.7818609E-02  0.8020550E-01
        2   -1    0    0  501    0  0.00000000000E+00  0.00000000000E+00  0.19724583295E+04  0.19724583295E+04  0.25500000920E-02 0.  1.
       -2   -1    0    0    0  501  0.00000000000E+00  0.00000000000E+00 -0.19492169914E+04  0.19492169914E+04  0.25500000920E-02 0. -1.
    10030    2    1    2    0    0  0.00000000000E+00  0.00000000000E+00  0.23241338104E+02  0.39216753209E+04  0.39216064518E+04 0.  0.
        1    1    3    3  502    0 -0.15117063355E+04  0.12170999918E+04 -0.26795687148E+03  0.19591807777E+04  0.50400001928E-02 0.  1.
       -1    1    3    3    0  502  0.15117063355E+04 -0.12170999918E+04  0.29119820958E+03  0.19624945432E+04  0.50400001928E-02 0. -1.
</event>
<event>
 5   0  0.1520986E-07  0.3890735E+04  0.7818609E-02  0.8026959E-01
        2   -1    0    0  501    0  0.00000000000E+00  0.00000000000E+00  0.29876660233E+04  0.29876660233E+04  0.25500000920E-02 0. -1.
       -2   -1    0    0    0  501  0.00000000000E+00  0.00000000000E+00 -0.12666927309E+04  0.12666927309E+04  0.25500000920E-02 0.  1.
    10030    2    1    2    0    0  0.00000000000E+00  0.00000000000E+00  0.17209732924E+04  0.42543587542E+04  0.38907350638E+04 0.  0.
        4    1    3    3  502    0  0.66561928098E+03  0.17153299478E+04  0.15512267539E+04  0.24065975799E+04  0.12699999809E+01 0. -1.
       -4    1    3    3    0  502 -0.66561928098E+03 -0.17153299478E+04  0.16974653847E+03  0.18477611743E+04  0.12699999809E+01 0.  1.
</event>
<event>
 5   0  0.4750125E-08  0.3815709E+04  0.7818609E-02  0.8042792E-01
        3   -1    0    0  501    0  0.00000000000E+00  0.00000000000E+00  0.21065676144E+04  0.21065676168E+04  0.10100000352E+00 0. -1.
       -3   -1    0    0    0  501  0.00000000000E+00  0.00000000000E+00 -0.17278859386E+04  0.17278859416E+04  0.10100000352E+00 0.  1.
    10030    2    1    2    0    0  0.00000000000E+00  0.00000000000E+00  0.37868167574E+03  0.38344535584E+04  0.38157088830E+04 0.  0.
        5    1    3    3  502    0 -0.86010634051E+03 -0.12117122123E+04  0.13918214539E+04  0.20359809557E+04  0.46999998093E+01 0. -1.
       -5    1    3    3    0  502  0.86010634051E+03  0.12117122123E+04 -0.10131397782E+04  0.17984726027E+04  0.46999998093E+01 0.  1.
</event>
<event>
 5   0  0.1538018E-07  0.3842616E+04  0.7818609E-02  0.8037071E-01
        2   -1    0    0  501    0  0.00000000000E+00  0.00000000000E+00  0.20100248170E+04  0.20100248170E+04  0.25500000920E-02 0. -1.
       -2   -1    0    0    0  501  0.00000000000E+00  0.00000000000E+00 -0.18365064736E+04  0.18365064736E+04  0.25500000920E-02 0.  1.
    10030    2    1    2    0    0  0.00000000000E+00  0.00000000000E+00  0.17351834338E+03  0.38465312906E+04  0.38426155616E+04 0.  0.
        1    1    3    3  502    0 -0.12039559341E+04 -0.91823122759E+03 -0.10971400306E+04  0.18698595470E+04  0.50400001928E-02 0.  1.
       -1    1    3    3    0  502  0.12039559341E+04  0.91823122759E+03  0.12706583740E+04  0.19766717436E+04  0.50400001928E-02 0. -1.
</event>
<event>
 5   0  0.1503228E-07  0.3679506E+04  0.7818609E-02  0.8072519E-01
        2   -1    0    0  501    0  0.00000000000E+00  0.00000000000E+00  0.24718405131E+04  0.24718405132E+04  0.25500000920E-02 0.  1.
       -2   -1    0    0    0  501  0.00000000000E+00  0.00000000000E+00 -0.13693001690E+04  0.13693001690E+04  0.25500000920E-02 0. -1.
    10030    2    1    2    0    0  0.00000000000E+00  0.00000000000E+00  0.11025403442E+04  0.38411406821E+04  0.36795062888E+04 0.  0.
        3    1    3    3  502    0  0.12590848209E+04 -0.66454747758E+03  0.17676924290E+04  0.22697256376E+04  0.10100000352E+00 0.  1.
       -3    1    3    3    0  502 -0.12590848209E+04  0.66454747758E+03 -0.66515208480E+03  0.15714150446E+04  0.10100000352E+00 0. -1.
</event>
<event>
 5   0  0.4750125E-08  0.3899332E+04  0.7818609E-02  0.8025168E-01
       -1   -1    0    0    0  501  0.00000000000E+00  0.00000000000E+00  0.20983820452E+04  0.20983820452E+04  0.50400001928E-02 0.  1.
        1   -1    0    0  501    0  0.00000000000E+00  0.00000000000E+00 -0.18114900976E+04  0.18114900977E+04  0.50400001928E-02 0. -1.
    10030    2    1    2    0    0  0.00000000000E+00  0.00000000000E+00  0.28689194753E+03  0.39098721428E+04  0.38993324023E+04 0.  0.
        1    1    3    3  502    0  0.17931127115E+04  0.23974042150E+03  0.87237008229E+03  0.20084218248E+04  0.50400001928E-02 0.  1.
       -1    1    3    3    0  502 -0.17931127115E+04 -0.23974042150E+03 -0.58547813476E+03  0.19014503181E+04  0.50400001928E-02 0. -1.
</event>
<event>
 5   0  0.4750125E-08  0.3911428E+04  0.7818609E-02  0.8022657E-01
        1   -1    0    0  501    0  0.00000000000E+00  0.00000000000E+00  0.24109154643E+04  0.24109154643E+04  0.50400001928E-02 0.  1.
       -1   -1    0    0    0  501  0.00000000000E+00  0.00000000000E+00 -0.15864585565E+04  0.15864585565E+04  0.50400001928E-02 0. -1.
    10030    2    1    2    0    0  0.00000000000E+00  0.00000000000E+00  0.82445690787E+03  0.39973740208E+04  0.39114281112E+04 0.  0.
        1    1    3    3  502    0 -0.18779701487E+03 -0.83958203505E+03  0.22071377360E+04  0.23688863835E+04  0.50400001928E-02 0.  1.
       -1    1    3    3    0  502  0.18779701487E+03  0.83958203505E+03 -0.13826808281E+04  0.16284876373E+04  0.50400001928E-02 0. -1.
</event>
<event>
 5   0  0.4750125E-08  0.3930208E+04  0.7818609E-02  0.8018776E-01
        1   -1    0    0  501    0  0.00000000000E+00  0.00000000000E+00  0.16158426689E+04  0.16158426689E+04  0.50400001928E-02 0.  1.
       -1   -1    0    0    0  501  0.00000000000E+00  0.00000000000E+00 -0.23898578924E+04  0.23898578924E+04  0.50400001928E-02 0. -1.
    10030    2    1    2    0    0  0.00000000000E+00  0.00000000000E+00 -0.77401522354E+03  0.40057005613E+04  0.39302083177E+04 0.  0.
        3    1    3    3  502    0  0.16709546619E+04 -0.78122614683E+03 -0.10776898794E+04  0.21363097296E+04  0.10100000352E+00 0. -1.
       -3    1    3    3    0  502 -0.16709546619E+04  0.78122614683E+03  0.30367465587E+03  0.18693908316E+04  0.10100000352E+00 0.  1.
</event>
<event>
 5   0  0.4750125E-08  0.3585167E+04  0.7818609E-02  0.8093898E-01
        1   -1    0    0  501    0  0.00000000000E+00  0.00000000000E+00  0.16938104442E+04  0.16938104442E+04  0.50400001928E-02 0. -1.
       -1   -1    0    0    0  501  0.00000000000E+00  0.00000000000E+00 -0.18971165326E+04  0.18971165326E+04  0.50400001928E-02 0.  1.
    10030    2    1    2    0    0  0.00000000000E+00  0.00000000000E+00 -0.20330608836E+03  0.35909269768E+04  0.35851671073E+04 0.  0.
        5    1    3    3  502    0 -0.94645841415E+03  0.10162677220E+04 -0.12369422261E+04  0.18597397057E+04  0.46999998093E+01 0.  1.
       -5    1    3    3    0  502  0.94645841415E+03 -0.10162677220E+04  0.10336361377E+04  0.17311872711E+04  0.46999998093E+01 0. -1.
</event>
<event>
 5   0  0.4750125E-08  0.3913177E+04  0.7818609E-02  0.8022294E-01
       -1   -1    0    0    0  501  0.00000000000E+00  0.00000000000E+00  0.18464611538E+04  0.18464611538E+04  0.50400001928E-02 0. -1.
        1   -1    0    0  501    0  0.00000000000E+00  0.00000000000E+00 -0.20732838709E+04  0.20732838709E+04  0.50400001928E-02 0.  1.
    10030    2    1    2    0    0  0.00000000000E+00  0.00000000000E+00 -0.22682271710E+03  0.39197450247E+04  0.39131767802E+04 0.  0.
        5    1    3    3  502    0 -0.18960732325E+03  0.16756171874E+04  0.88051022476E+03  0.19023575483E+04  0.46999998093E+01 0. -1.
       -5    1    3    3    0  502  0.18960732325E+03 -0.16756171874E+04 -0.11073329419E+04  0.20173874764E+04  0.46999998093E+01 0.  1.
</event>
<event>
 5   0  0.1520986E-07  0.3874547E+04  0.7818609E-02  0.8030344E-01
        2   -1    0    0  501    0  0.00000000000E+00  0.00000000000E+00  0.16819834798E+04  0.16819834798E+04  0.25500000920E-02 0. -1.
       -2   -1    0    0    0  501  0.00000000000E+00  0.00000000000E+00 -0.22313116346E+04  0.22313116346E+04  0.25500000920E-02 0.  1.
    10030    2    1    2    0    0  0.00000000000E+00  0.00000000000E+00 -0.54932815482E+03  0.39132951144E+04  0.38745473581E+04 0.  0.
        4    1    3    3  502    0 -0.95481001304E+03  0.86751925873E+03 -0.17343773199E+04  0.21615545623E+04  0.12699999809E+01 0.  1.
       -4    1    3    3    0  502  0.95481001304E+03 -0.86751925873E+03  0.11850491650E+04  0.17517405521E+04  0.12699999809E+01 0. -1.
</event>
<event>
 5   0  0.1538018E-07  0.3896623E+04  0.7818609E-02  0.8025732E-01
        2   -1    0    0  501    0  0.00000000000E+00  0.00000000000E+00  0.10618717316E+04  0.10618717316E+04  0.25500000920E-02 0.  1.
       -2   -1    0    0    0  501  0.00000000000E+00  0.00000000000E+00 -0.35747425867E+04  0.35747425867E+04  0.25500000920E-02 0. -1.
    10030    2    1    2    0    0  0.00000000000E+00  0.00000000000E+00 -0.25128708550E+04  0.46366143183E+04  0.38966232051E+04 0.  0.
        1    1    3    3  502    0 -0.48649261052E+02  0.96584977945E+03 -0.32689897932E+04  0.34090360537E+04  0.50400001928E-02 0. -1.
       -1    1    3    3    0  502  0.48649261052E+02 -0.96584977945E+03  0.75611893819E+03  0.12275782646E+04  0.50400001928E-02 0.  1.
</event>
<event>
 5   0  0.4750125E-08  0.3992962E+04  0.7818609E-02  0.8005968E-01
       -1   -1    0    0    0  501  0.00000000000E+00  0.00000000000E+00  0.18163761636E+04  0.18163761637E+04  0.50400001928E-02 0.  1.
        1   -1    0    0  501    0  0.00000000000E+00  0.00000000000E+00 -0.21944440569E+04  0.21944440569E+04  0.50400001928E-02 0. -1.
    10030    2    1    2    0    0  0.00000000000E+00  0.00000000000E+00 -0.37806789327E+03  0.40108202206E+04  0.39929617466E+04 0.  0.
        4    1    3    3  502    0  0.13360368312E+04  0.18756019462E+02  0.13010386317E+04  0.18649529047E+04  0.12699999809E+01 0.  1.
       -4    1    3    3    0  502 -0.13360368312E+04 -0.18756019462E+02 -0.16791065249E+04  0.21458673159E+04  0.12699999809E+01 0. -1.
</event>
<event>
 5   0  0.1501585E-07  0.3889178E+04  0.7818609E-02  0.8027284E-01
        2   -1    0    0  501    0  0.00000000000E+00  0.00000000000E+00  0.17730565301E+04  0.17730565301E+04  0.25500000920E-02 0. -1.
       -2   -1    0    0    0  501  0.00000000000E+00  0.00000000000E+00 -0.21327158542E+04  0.21327158542E+04  0.25500000920E-02 0.  1.
    10030    2    1    2    0    0  0.00000000000E+00  0.00000000000E+00 -0.35965932414E+03  0.39057723842E+04  0.38891776879E+04 0.  0.
        5    1    3    3  502    0 -0.11273360250E+04 -0.11279388749E+04 -0.12973540433E+04  0.20557923587E+04  0.46999998093E+01 0.  1.
       -5    1    3    3    0  502  0.11273360250E+04  0.11279388749E+04  0.93769471912E+03  0.18499800255E+04  0.46999998093E+01 0. -1.
</event>
<event>
 5   0  0.4762788E-08  0.3852629E+04  0.7818609E-02  0.8034954E-01
       -1   -1    0    0    0  501  0.00000000000E+00  0.00000000000E+00  0.18043465989E+04  0.18043465989E+04  0.50400001928E-02 0.  1.
        1   -1    0    0  501    0  0.00000000000E+00  0.00000000000E+00 -0.20565273049E+04  0.20565273049E+04  0.50400001928E-02 0. -1.
    10030    2    1    2    0    0  0.00000000000E+00  0.00000000000E+00 -0.25218070594E+03  0.38608739038E+04  0.38526292571E+04 0.  0.
        2    1    3    3  502    0 -0.60361447249E+03 -0.18139327390E+04  0.11102883805E+03  0.19149490374E+04  0.25500000920E-02 0. -1.
       -2    1    3    3    0  502  0.60361447249E+03  0.18139327390E+04 -0.36320954399E+03  0.19459248664E+04  0.25500000920E-02 0.  1.
</event>
<event>
 5   0  0.1546846E-07  0.3887366E+04  0.7818609E-02  0.8027662E-01
       -2   -1    0    0    0  501  0.00000000000E+00  0.00000000000E+00  0.17777668606E+04  0.17777668606E+04  0.25500000920E-02 0.  1.
        2   -1    0    0  501    0  0.00000000000E+00  0.00000000000E+00 -0.21250837550E+04  0.21250837550E+04  0.25500000920E-02 0. -1.
    10030    2    1    2    0    0  0.00000000000E+00  0.00000000000E+00 -0.34731689441E+03  0.39028506156E+04  0.38873659337E+04 0.  0.
        2    1    3    3  502    0 -0.19312202982E+04  0.13384236739E+03  0.13282627451E+01  0.19358531410E+04  0.25500000920E-02 0.  1.
       -2    1    3    3    0  502  0.19312202982E+04 -0.13384236739E+03 -0.34864515715E+03  0.19669974746E+04  0.25500000920E-02 0. -1.
</event>
<event>
 5   0  0.1503228E-07  0.3828047E+04  0.7818609E-02  0.8040163E-01
        2   -1    0    0  501    0  0.00000000000E+00  0.00000000000E+00  0.20712791471E+04  0.20712791471E+04  0.25500000920E-02 0.  1.
       -2   -1    0    0    0  501  0.00000000000E+00  0.00000000000E+00 -0.17687070164E+04  0.17687070164E+04  0.25500000920E-02 0. -1.
    10030    2    1    2    0    0  0.00000000000E+00  0.00000000000E+00  0.30257213069E+03  0.38399861635E+04  0.38280470009E+04 0.  0.
        3    1    3    3  502    0  0.17938006272E+04 -0.64451434722E+03  0.32608946874E+03  0.19337667351E+04  0.10100000352E+00 0.  1.
       -3    1    3    3    0  502 -0.17938006272E+04  0.64451434722E+03 -0.23517338049E+02  0.19062194284E+04  0.10100000352E+00 0. -1.
</event>
<event>
 5   0  0.1538018E-07  0.3903339E+04  0.7818609E-02  0.8024335E-01
        2   -1    0    0  501    0  0.00000000000E+00  0.00000000000E+00  0.20279008821E+04  0.20279008821E+04  0.25500000920E-02 0.  1.
       -2   -1    0    0    0  501  0.00000000000E+00  0.00000000000E+00 -0.18783042256E+04  0.18783042257E+04  0.25500000920E-02 0. -1.
    10030    2    1    2    0    0  0.00000000000E+00  0.00000000000E+00  0.14959665641E+03  0.39062051077E+04  0.39033394912E+04 0.  0.
        1    1    3    3  502    0 -0.17191313666E+04  0.78060274998E+03  0.56938933646E+03  0.19720439968E+04  0.50400001928E-02 0. -1.
       -1    1    3    3    0  502  0.17191313666E+04 -0.78060274998E+03 -0.41979268006E+03  0.19341611109E+04  0.50400001928E-02 0.  1.
</event>
<event>
 5   0  0.1520986E-07  0.3664821E+04  0.7818609E-02  0.8075803E-01
        2   -1    0    0  501    0  0.00000000000E+00  0.00000000000E+00  0.21690872305E+04  0.21690872305E+04  0.25500000920E-02 0. -1.
       -2   -1    0    0    0  501  0.00000000000E+00  0.00000000000E+00 -0.15479916527E+04  0.15479916527E+04  0.25500000920E-02 0.  1.
    10030    2    1    2    0    0  0.00000000000E+00  0.00000000000E+00  0.62109557775E+03  0.37170788832E+04  0.36648213746E+04 0.  0.
        4    1    3    3  502    0  0.86099511787E+02 -0.17368955475E+04  0.89628406704E+03  0.19564115136E+04  0.12699999809E+01 0. -1.
       -4    1    3    3    0  502 -0.86099511787E+02  0.17368955475E+04 -0.27518848929E+03  0.17606673696E+04  0.12699999809E+01 0.  1.
</event>
<event>
 5   0  0.4750125E-08  0.3781029E+04  0.7818609E-02  0.8050238E-01
        1   -1    0    0  501    0  0.00000000000E+00  0.00000000000E+00  0.20838481309E+04  0.20838481309E+04  0.50400001928E-02 0.  1.
       -1   -1    0    0    0  501  0.00000000000E+00  0.00000000000E+00 -0.17151178942E+04  0.17151178942E+04  0.50400001928E-02 0. -1.
    10030    2    1    2    0    0  0.00000000000E+00  0.00000000000E+00  0.36873023672E+03  0.37989660251E+04  0.37810290758E+04 0.  0.
        5    1    3    3  502    0 -0.12539837228E+04  0.13864627054E+04 -0.98518242806E+02  0.18720261603E+04  0.46999998093E+01 0. -1.
       -5    1    3    3    0  502  0.12539837228E+04 -0.13864627054E+04  0.46724847952E+03  0.19269398647E+04  0.46999998093E+01 0.  1.
</event>
<event>
 5   0  0.4750125E-08  0.3850328E+04  0.7818609E-02  0.8035440E-01
       -1   -1    0    0    0  501  0.00000000000E+00  0.00000000000E+00  0.14595504893E+04  0.14595504893E+04  0.50400001928E-02 0.  1.
        1   -1    0    0  501    0  0.00000000000E+00  0.00000000000E+00 -0.25393132102E+04  0.25393132102E+04  0.50400001928E-02 0. -1.
    10030    2    1    2    0    0  0.00000000000E+00  0.00000000000E+00 -0.10797627209E+04  0.39988636995E+04  0.38503276944E+04 0.  0.
        4    1    3    3  502    0 -0.93016021487E+03 -0.13779596480E+04  0.46827914642E+03  0.17272109856E+04  0.12699999809E+01 0.  1.
       -4    1    3    3    0  502  0.93016021487E+03  0.13779596480E+04 -0.15480418673E+04  0.22716527139E+04  0.12699999809E+01 0. -1.
</event>
<event>
 5   0  0.1503228E-07  0.3901408E+04  0.7818609E-02  0.8024736E-01
       -2   -1    0    0    0  501  0.00000000000E+00  0.00000000000E+00  0.13650231922E+04  0.13650231922E+04  0.25500000920E-02 0.  1.
        2   -1    0    0  501    0  0.00000000000E+00  0.00000000000E+00 -0.27876792867E+04  0.27876792867E+04  0.25500000920E-02 0. -1.
    10030    2    1    2    0    0  0.00000000000E+00  0.00000000000E+00 -0.14226560945E+04  0.41527024789E+04  0.39014084015E+04 0.  0.
        3    1    3    3  502    0  0.26451930978E+02  0.71709664731E+03 -0.26420887104E+04  0.27378020509E+04  0.10100000352E+00 0. -1.
       -3    1    3    3    0  502 -0.26451930978E+02 -0.71709664731E+03  0.12194326159E+04  0.14149004280E+04  0.10100000352E+00 0.  1.
</event>
<event>
 5   0  0.1546846E-07  0.3881263E+04  0.7818609E-02  0.8028938E-01
        2   -1    0    0  501    0  0.00000000000E+00  0.00000000000E+00  0.29516735319E+04  0.29516735319E+04  0.25500000920E-02 0. -1.
       -2   -1    0    0    0  501  0.00000000000E+00  0.00000000000E+00 -0.12759032181E+04  0.12759032181E+04  0.25500000920E-02 0.  1.
    10030    2    1    2    0    0  0.00000000000E+00  0.00000000000E+00  0.16757703138E+04  0.42275767500E+04  0.38812625565E+04 0.  0.
        2    1    3    3  502    0 -0.55105004664E+02 -0.18900471284E+04  0.13135857918E+04  0.23023514809E+04  0.25500000920E-02 0. -1.
       -2    1    3    3    0  502  0.55105004664E+02  0.18900471284E+04  0.36218452203E+03  0.19252252691E+04  0.25500000920E-02 0.  1.
</event>
<event>
 5   0  0.1501585E-07  0.3937748E+04  0.7818609E-02  0.8017224E-01
        2   -1    0    0  501    0  0.00000000000E+00  0.00000000000E+00  0.13951944649E+04  0.13951944649E+04  0.25500000920E-02 0. -1.
       -2   -1    0    0    0  501  0.00000000000E+00  0.00000000000E+00 -0.27784402966E+04  0.27784402966E+04  0.25500000920E-02 0.  1.
    10030    2    1    2    0    0  0.00000000000E+00  0.00000000000E+00 -0.13832458317E+04  0.41736347615E+04  0.39377478451E+04 0.  0.
        5    1    3    3  502    0 -0.15162781037E+03 -0.17500597278E+04 -0.16341287532E+04  0.23991871365E+04  0.46999998093E+01 0.  1.
       -5    1    3    3    0  502  0.15162781037E+03  0.17500597278E+04  0.25088292155E+03  0.17744476250E+04  0.46999998093E+01 0. -1.
</event>
<event>
 5   0  0.4750125E-08  0.3914956E+04  0.7818609E-02  0.8021926E-01
        1   -1    0    0  501    0  0.00000000000E+00  0.00000000000E+00  0.19392783199E+04  0.19392783199E+04  0.50400001928E-02 0.  1.
       -1   -1    0    0    0  501  0.00000000000E+00  0.00000000000E+00 -0.19758483272E+04  0.19758483272E+04  0.50400001928E-02 0. -1.
    10030    2    1    2    0    0  0.00000000000E+00  0.00000000000E+00 -0.36570007283E+02  0.39151266470E+04  0.39149558487E+04 0.  0.
        4    1    3    3  502    0  0.20908770469E+03 -0.58541105329E+03 -0.18745164184E+04  0.19749018166E+04  0.12699999809E+01 0. -1.
       -4    1    3    3    0  502 -0.20908770469E+03  0.58541105329E+03  0.18379464111E+04  0.19402248304E+04  0.12699999809E+01 0.  1.
</event>
<event>
 5   0  0.4750125E-08  0.3889515E+04  0.7818609E-02  0.8027213E-01
        1   -1    0    0  501    0  0.00000000000E+00  0.00000000000E+00  0.13706613736E+04  0.13706613736E+04  0.50400001928E-02 0.  1.
       -1   -1    0    0    0  501  0.00000000000E+00  0.00000000000E+00 -0.27593122078E+04  0.27593122078E+04  0.50400001928E-02 0. -1.
    10030    2    1    2    0    0  0.00000000000E+00  0.00000000000E+00 -0.13886508342E+04  0.41299735815E+04  0.38895154768E+04 0.  0.
        3    1    3    3  502    0 -0.10092051692E+04  0.15440163346E+04 -0.13485329208E+04  0.22849557029E+04  0.10100000352E+00 0.  1.
       -3    1    3    3    0  502  0.10092051692E+04 -0.15440163346E+04 -0.40117913351E+02  0.18450178786E+04  0.10100000352E+00 0. -1.
</event>
<event>
 5   0  0.1546846E-07  0.3881667E+04  0.7818609E-02  0.8028853E-01
       -2   -1    0    0    0  501  0.00000000000E+00  0.00000000000E+00  0.14938707716E+04  0.14938707716E+04  0.25500000920E-02 0.  1.
        2   -1    0    0  501    0  0.00000000000E+00  0.00000000000E+00 -0.25215260640E+04  0.25215260640E+04  0.25500000920E-02 0. -1.
    10030    2    1    2    0    0  0.00000000000E+00  0.00000000000E+00 -0.10276552925E+04  0.40153968356E+04  0.38816666971E+04 0.  0.
        2    1    3    3  502    0  0.79613687405E+03 -0.25378597422E+03 -0.23259180680E+04  0.24714643639E+04  0.25500000920E-02 0. -1.
       -2    1    3    3    0  502 -0.79613687405E+03  0.25378597422E+03  0.12982627755E+04  0.15439324717E+04  0.25500000920E-02 0.  1.
</event>
<event>
 5   0  0.4750125E-08  0.3903107E+04  0.7818609E-02  0.8024383E-01
        1   -1    0    0  501    0  0.00000000000E+00  0.00000000000E+00  0.27438202174E+04  0.27438202174E+04  0.50400001928E-02 0.  1.
       -1   -1    0    0    0  501  0.00000000000E+00  0.00000000000E+00 -0.13880505529E+04  0.13880505529E+04  0.50400001928E-02 0. -1.
    10030    2    1    2    0    0  0.00000000000E+00  0.00000000000E+00  0.13557696646E+04  0.41318707703E+04  0.39031070545E+04 0.  0.
        1    1    3    3  502    0  0.66101209923E+03 -0.15878083252E+04 -0.29838662165E+03  0.17455964164E+04  0.50400001928E-02 0. -1.
       -1    1    3    3    0  502 -0.66101209923E+03  0.15878083252E+04  0.16541562862E+04  0.23862743539E+04  0.50400001928E-02 0.  1.
</event>
<event>
 5   0  0.1520986E-07  0.3893535E+04  0.7818609E-02  0.8026375E-01
        2   -1    0    0  501    0  0.00000000000E+00  0.00000000000E+00  0.18532604757E+04  0.18532604757E+04  0.25500000920E-02 0. -1.
       -2   -1    0    0    0  501  0.00000000000E+00  0.00000000000E+00 -0.20449929845E+04  0.20449929845E+04  0.25500000920E-02 0.  1.
    10030    2    1    2    0    0  0.00000000000E+00  0.00000000000E+00 -0.19173250875E+03  0.38982534602E+04  0.38935354994E+04 0.  0.
        4    1    3    3  502    0  0.93819416083E+03 -0.63298684183E+03  0.14900425366E+04  0.18711250624E+04  0.12699999809E+01 0. -1.
       -4    1    3    3    0  502 -0.93819416083E+03  0.63298684183E+03 -0.16817750453E+04  0.20271283978E+04  0.12699999809E+01 0.  1.
</event>
<event>
 5   0  0.4750125E-08  0.3889037E+04  0.7818609E-02  0.8027313E-01
       -1   -1    0    0    0  501  0.00000000000E+00  0.00000000000E+00  0.17434810911E+04  0.17434810911E+04  0.50400001928E-02 0.  1.
        1   -1    0    0  501    0  0.00000000000E+00  0.00000000000E+00 -0.21687373010E+04  0.21687373010E+04  0.50400001928E-02 0. -1.
    10030    2    1    2    0    0  0.00000000000E+00  0.00000000000E+00 -0.42525620991E+03  0.39122183921E+04  0.38890371435E+04 0.  0.
        5    1    3    3  502    0  0.99919346679E+03  0.16635134262E+04 -0.33773128648E+03  0.19697078502E+04  0.46999998093E+01 0.  1.
       -5    1    3    3    0  502 -0.99919346679E+03 -0.16635134262E+04 -0.87524923432E+02  0.19425105419E+04  0.46999998093E+01 0. -1.
</event>
<event>
 5   0  0.1501585E-07  0.3894764E+04  0.7818609E-02  0.8026119E-01
        2   -1    0    0  501    0  0.00000000000E+00  0.00000000000E+00  0.14026708114E+04  0.14026708114E+04  0.25500000920E-02 0.  1.
       -2   -1    0    0    0  501  0.00000000000E+00  0.00000000000E+00 -0.27036262258E+04  0.27036262258E+04  0.25500000920E-02 0. -1.
    10030    2    1    2    0    0  0.00000000000E+00  0.00000000000E+00 -0.13009554144E+04  0.41062970372E+04  0.38947644816E+04 0.  0.
        5    1    3    3  502    0  0.17764884724E+04 -0.75238194719E+02 -0.14877789870E+04  0.23184219812E+04  0.46999998093E+01 0. -1.
       -5    1    3    3    0  502 -0.17764884724E+04  0.75238194719E+02  0.18682357257E+03  0.17878750560E+04  0.46999998093E+01 0.  1.
</event>
<event>
 5   0  0.1538018E-07  0.3912953E+04  0.7818609E-02  0.8022341E-01
       -2   -1    0    0    0  501  0.00000000000E+00  0.00000000000E+00  0.15296588764E+04  0.15296588764E+04  0.25500000920E-02 0.  1.
        2   -1    0    0  501    0  0.00000000000E+00  0.00000000000E+00 -0.25023884487E+04  0.25023884487E+04  0.25500000920E-02 0. -1.
    10030    2    1    2    0    0  0.00000000000E+00  0.00000000000E+00 -0.97272957222E+03  0.40320473251E+04  0.39129532084E+04 0.  0.
        1    1    3    3  502    0 -0.43498133473E+03  0.12595798942E+04 -0.19624620703E+04  0.23721314569E+04  0.50400001928E-02 0. -1.
       -1    1    3    3    0  502  0.43498133473E+03 -0.12595798942E+04  0.98973249810E+03  0.16599158682E+04  0.50400001928E-02 0.  1.
</event>
<event>
 5   0  0.4750125E-08  0.3866990E+04  0.7818609E-02  0.8031930E-01
        1   -1    0    0  501    0  0.00000000000E+00  0.00000000000E+00  0.19054477415E+04  0.19054477415E+04  0.50400001928E-02 0. -1.
       -1   -1    0    0    0  501  0.00000000000E+00  0.00000000000E+00 -0.19619548688E+04  0.19619548688E+04  0.50400001928E-02 0.  1.
    10030    2    1    2    0    0  0.00000000000E+00  0.00000000000E+00 -0.56507127339E+02  0.38674026103E+04  0.38669897717E+04 0.  0.
        3    1    3    3  502    0 -0.16706140122E+04  0.88541013339E+03 -0.43264828855E+03  0.19396099695E+04  0.10100000352E+00 0.  1.
       -3    1    3    3    0  502  0.16706140122E+04 -0.88541013339E+03  0.37614116122E+03  0.19277926407E+04  0.10100000352E+00 0. -1.
</event>
<event>
 5   0  0.4750125E-08  0.3877821E+04  0.7818609E-02  0.8029658E-01
        1   -1    0    0  501    0  0.00000000000E+00  0.00000000000E+00  0.18307340207E+04  0.18307340207E+04  0.50400001928E-02 0.  1.
       -1   -1    0    0    0  501  0.00000000000E+00  0.00000000000E+00 -0.20534787471E+04  0.20534787471E+04  0.50400001928E-02 0. -1.
    10030    2    1    2    0    0  0.00000000000E+00  0.00000000000E+00 -0.22274472639E+03  0.38842127678E+04  0.38778207297E+04 0.  0.
        4    1    3    3  502    0 -0.19034386280E+04 -0.33831668006E+03  0.36637928988E+02  0.19336185605E+04  0.12699999809E+01 0.  1.
       -4    1    3    3    0  502  0.19034386280E+04  0.33831668006E+03 -0.25938265538E+03  0.19505942073E+04  0.12699999809E+01 0. -1.
</event>
<event>
 5   0  0.4750125E-08  0.3905176E+04  0.7818609E-02  0.8023954E-01
        1   -1    0    0  501    0  0.00000000000E+00  0.00000000000E+00  0.16209995800E+04  0.16209995800E+04  0.50400001928E-02 0.  1.
       -1   -1    0    0    0  501  0.00000000000E+00  0.00000000000E+00 -0.23520054022E+04  0.23520054022E+04  0.50400001928E-02 0. -1.
    10030    2    1    2    0    0  0.00000000000E+00  0.00000000000E+00 -0.73100582215E+03  0.39730049822E+04  0.39051759341E+04 0.  0.
        4    1    3    3  502    0 -0.68982478203E+02 -0.17798431964E+04 -0.11793967028E+04  0.21362533983E+04  0.12699999809E+01 0. -1.
       -4    1    3    3    0  502  0.68982478203E+02  0.17798431964E+04  0.44839088067E+03  0.18367515839E+04  0.12699999809E+01 0.  1.
</event>
<event>
 5   0  0.4750125E-08  0.3886988E+04  0.7818609E-02  0.8027741E-01
        1   -1    0    0  501    0  0.00000000000E+00  0.00000000000E+00  0.12712561379E+04  0.12712561379E+04  0.50400001928E-02 0. -1.
       -1   -1    0    0    0  501  0.00000000000E+00  0.00000000000E+00 -0.29712093222E+04  0.29712093222E+04  0.50400001928E-02 0.  1.
    10030    2    1    2    0    0  0.00000000000E+00  0.00000000000E+00 -0.16999531843E+04  0.42424654601E+04  0.38869875677E+04 0.  0.
        4    1    3    3  502    0  0.12382222967E+04 -0.10846862591E+04  0.27767361942E+03  0.16693840147E+04  0.12699999809E+01 0. -1.
       -4    1    3    3    0  502 -0.12382222967E+04  0.10846862591E+04 -0.19776268037E+04  0.25730814453E+04  0.12699999809E+01 0.  1.
</event>
<event>
 5   0  0.4750125E-08  0.3836187E+04  0.7818609E-02  0.8038434E-01
       -1   -1    0    0    0  501  0.00000000000E+00  0.00000000000E+00  0.18920040240E+04  0.18920040241E+04  0.50400001928E-02 0. -1.
        1   -1    0    0  501    0  0.00000000000E+00  0.00000000000E+00 -0.19445423944E+04  0.19445423944E+04  0.50400001928E-02 0.  1.
    10030    2    1    2    0    0  0.00000000000E+00  0.00000000000E+00 -0.52538370349E+02  0.38365464185E+04  0.38361866665E+04 0.  0.
        3    1    3    3  502    0 -0.14488324612E+04  0.11874889108E+04 -0.43842020942E+03  0.19239172810E+04  0.10100000352E+00 0. -1.
       -3    1    3    3    0  502  0.14488324612E+04 -0.11874889108E+04  0.38588183907E+03  0.19126291375E+04  0.10100000352E+00 0.  1.
</event>
<event>
 5   0  0.1501585E-07  0.3880064E+04  0.7818609E-02  0.8029188E-01
       -2   -1    0    0    0  501  0.00000000000E+00  0.00000000000E+00  0.16104636602E+04  0.16104636602E+04  0.25500000920E-02 0.  1.
        2   -1    0    0  501    0  0.00000000000E+00  0.00000000000E+00 -0.23370440757E+04  0.23370440757E+04  0.25500000920E-02 0. -1.
    10030    2    1    2    0    0  0.00000000000E+00  0.00000000000E+00 -0.72658041555E+03  0.39475077359E+04  0.38800642037E+04 0.  0.
        5    1    3    3  502    0 -0.83785309426E+03  0.13105394123E+04  0.81625498992E+03  0.17566461389E+04  0.46999998093E+01 0.  1.
       -5    1    3    3    0  502  0.83785309426E+03 -0.13105394123E+04 -0.15428354055E+04  0.21908615970E+04  0.46999998093E+01 0. -1.
</event>
<event>
 5   0  0.1546846E-07  0.3878883E+04  0.7818609E-02  0.8029435E-01
        2   -1    0    0  501    0  0.00000000000E+00  0.00000000000E+00  0.19205660823E+04  0.19205660823E+04  0.25500000920E-02 0. -1.
       -2   -1    0    0    0  501  0.00000000000E+00  0.00000000000E+00 -0.19585027876E+04  0.19585027876E+04  0.25500000920E-02 0.  1.
    10030    2    1    2    0    0  0.00000000000E+00  0.00000000000E+00 -0.37936705350E+02  0.38790688699E+04  0.38788833578E+04 0.  0.
        2    1    3    3  502    0 -0.47983710241E+03 -0.16959801683E+04 -0.82822992246E+03  0.19474488904E+04  0.25500000920E-02 0.  1.
       -2    1    3    3    0  502  0.47983710241E+03  0.16959801683E+04  0.79029321711E+03  0.19316199795E+04  0.25500000920E-02 0. -1.
</event>
<event>
 5   0  0.4762788E-08  0.3874313E+04  0.7818609E-02  0.8030393E-01
        1   -1    0    0  501    0  0.00000000000E+00  0.00000000000E+00  0.20848872841E+04  0.20848872841E+04  0.50400001928E-02 0.  1.
       -1   -1    0    0    0  501  0.00000000000E+00  0.00000000000E+00 -0.17998939241E+04  0.17998939241E+04  0.50400001928E-02 0. -1.
    10030    2    1    2    0    0  0.00000000000E+00  0.00000000000E+00  0.28499336006E+03  0.38847812082E+04  0.38743133353E+04 0.  0.
        2    1    3    3  502    0  0.17108813385E+04  0.90650248614E+03  0.81387424442E+02  0.19379075377E+04  0.25500000920E-02 0. -1.
       -2    1    3    3    0  502 -0.17108813385E+04 -0.90650248614E+03  0.20360593562E+03  0.19468736705E+04  0.25500000920E-02 0.  1.
</event>
<event>
 5   0  0.4750125E-08  0.3909047E+04  0.7818609E-02  0.8023150E-01
        1   -1    0    0  501    0  0.00000000000E+00  0.00000000000E+00  0.23802409329E+04  0.23802409329E+04  0.50400001928E-02 0.  1.
       -1   -1    0    0    0  501  0.00000000000E+00  0.00000000000E+00 -0.16049476851E+04  0.16049476851E+04  0.50400001928E-02 0. -1.
    10030    2    1    2    0    0  0.00000000000E+00  0.00000000000E+00  0.77529324786E+03  0.39851886180E+04  0.39090470323E+04 0.  0.
        1    1    3    3  502    0  0.58339072438E+03  0.13961044531E+04 -0.87367086057E+03  0.17472129675E+04  0.50400001928E-02 0. -1.
       -1    1    3    3    0  502 -0.58339072438E+03 -0.13961044531E+04  0.16489641084E+04  0.22379756505E+04  0.50400001928E-02 0.  1.
</event>
<event>
 5   0  0.4750125E-08  0.3858624E+04  0.7818609E-02  0.8033690E-01
        1   -1    0    0  501    0  0.00000000000E+00  0.00000000000E+00  0.18718509303E+04  0.18718509303E+04  0.50400001928E-02 0.  1.
       -1   -1    0    0    0  501  0.00000000000E+00  0.00000000000E+00 -0.19885372902E+04  0.19885372902E+04  0.50400001928E-02 0. -1.
    10030    2    1    2    0    0  0.00000000000E+00  0.00000000000E+00 -0.11668635993E+03  0.38603882206E+04  0.38586243024E+04 0.  0.
        3    1    3    3  502    0 -0.39606848327E+03  0.16335920267E+04 -0.10057460917E+04  0.19588308667E+04  0.10100000352E+00 0. -1.
       -3    1    3    3    0  502  0.39606848327E+03 -0.16335920267E+04  0.88905973178E+03  0.19015573539E+04  0.10100000352E+00 0.  1.
</event>
<event>
 5   0  0.4750125E-08  0.3790774E+04  0.7818609E-02  0.8048138E-01
       -1   -1    0    0    0  501  0.00000000000E+00  0.00000000000E+00  0.22336160326E+04  0.22336160326E+04  0.50400001928E-02 0.  1.
        1   -1    0    0  501    0  0.00000000000E+00  0.00000000000E+00 -0.16083748775E+04  0.16083748775E+04  0.50400001928E-02 0. -1.
    10030    2    1    2    0    0  0.00000000000E+00  0.00000000000E+00  0.62524115509E+03  0.38419909101E+04  0.37907740174E+04 0.  0.
        1    1    3    3  502    0 -0.44958911408E+03 -0.71640776170E+03 -0.14065047390E+04  0.16412269902E+04  0.50400001928E-02 0. -1.
       -1    1    3    3    0  502  0.44958911408E+03  0.71640776170E+03  0.20317458941E+04  0.22007639198E+04  0.50400001928E-02 0.  1.
</event>
<event>
 5   0  0.4750125E-08  0.3943353E+04  0.7818609E-02  0.8016073E-01
       -1   -1    0    0    0  501  0.00000000000E+00  0.00000000000E+00  0.21147915448E+04  0.21147915448E+04  0.50400001928E-02 0.  1.
        1   -1    0    0  501    0  0.00000000000E+00  0.00000000000E+00 -0.18382460884E+04  0.18382460884E+04  0.50400001928E-02 0. -1.
    10030    2    1    2    0    0  0.00000000000E+00  0.00000000000E+00  0.27654545643E+03  0.39530376332E+04  0.39433525255E+04 0.  0.
        4    1    3    3  502    0 -0.48294832100E+03  0.19065652403E+04 -0.90477033280E+00  0.19667822777E+04  0.12699999809E+01 0. -1.
       -4    1    3    3    0  502  0.48294832100E+03 -0.19065652403E+04  0.27745022676E+03  0.19862553556E+04  0.12699999809E+01 0.  1.
</event>
<event>
 5   0  0.4750125E-08  0.3913206E+04  0.7818609E-02  0.8022288E-01
       -1   -1    0    0    0  501  0.00000000000E+00  0.00000000000E+00  0.16613928679E+04  0.16613928679E+04  0.50400001928E-02 0. -1.
        1   -1    0    0  501    0  0.00000000000E+00  0.00000000000E+00 -0.23042685769E+04  0.23042685769E+04  0.50400001928E-02 0.  1.
    10030    2    1    2    0    0  0.00000000000E+00  0.00000000000E+00 -0.64287570904E+03  0.39656614448E+04  0.39132060408E+04 0.  0.
        4    1    3    3  502    0  0.15269540825E+04 -0.12233576954E+04 -0.33161970080E+03  0.19844813075E+04  0.12699999809E+01 0.  1.
       -4    1    3    3    0  502 -0.15269540825E+04  0.12233576954E+04 -0.31125600823E+03  0.19811801373E+04  0.12699999809E+01 0. -1.
</event>
<event>
 5   0  0.4750125E-08  0.3897777E+04  0.7818609E-02  0.8025492E-01
       -1   -1    0    0    0  501  0.00000000000E+00  0.00000000000E+00  0.26491876630E+04  0.26491876630E+04  0.50400001928E-02 0.  1.
        1   -1    0    0  501    0  0.00000000000E+00  0.00000000000E+00 -0.14337099447E+04  0.14337099447E+04  0.50400001928E-02 0. -1.
    10030    2    1    2    0    0  0.00000000000E+00  0.00000000000E+00  0.12154777183E+04  0.40828976078E+04  0.38977771603E+04 0.  0.
        3    1    3    3  502    0 -0.18786467045E+03  0.12793181546E+04 -0.91967047397E+03  0.15867393819E+04  0.10100000352E+00 0. -1.
       -3    1    3    3    0  502  0.18786467045E+03 -0.12793181546E+04  0.21351481923E+04  0.24961582259E+04  0.10100000352E+00 0.  1.
</event>
<event>
 5   0  0.1546846E-07  0.3952940E+04  0.7818609E-02  0.8014108E-01
       -2   -1    0    0    0  501  0.00000000000E+00  0.00000000000E+00  0.16020907084E+04  0.16020907084E+04  0.25500000920E-02 0.  1.
        2   -1    0    0  501    0  0.00000000000E+00  0.00000000000E+00 -0.24383345935E+04  0.24383345935E+04  0.25500000920E-02 0. -1.
    10030    2    1    2    0    0  0.00000000000E+00  0.00000000000E+00 -0.83624388515E+03  0.40404253019E+04  0.39529397649E+04 0.  0.
        2    1    3    3  502    0 -0.38353539326E+03 -0.15294380653E+04 -0.16361981316E+04  0.22723169936E+04  0.25500000920E-02 0. -1.
       -2    1    3    3    0  502  0.38353539326E+03  0.15294380653E+04  0.79995424647E+03  0.17681083083E+04  0.25500000920E-02 0.  1.
</event>
<event>
 5   0  0.1538018E-07  0.3854059E+04  0.7818609E-02  0.8034652E-01
       -2   -1    0    0    0  501  0.00000000000E+00  0.00000000000E+00  0.17940864615E+04  0.17940864615E+04  0.25500000920E-02 0.  1.
        2   -1    0    0  501    0  0.00000000000E+00  0.00000000000E+00 -0.20698239519E+04  0.20698239519E+04  0.25500000920E-02 0. -1.
    10030    2    1    2    0    0  0.00000000000E+00  0.00000000000E+00 -0.27573749038E+03  0.38639104134E+04  0.38540592262E+04 0.  0.
        1    1    3    3  502    0 -0.48136308615E+03  0.29259766375E+03  0.17096979897E+04  0.18001086160E+04  0.50400001928E-02 0.  1.
       -1    1    3    3    0  502  0.48136308615E+03 -0.29259766375E+03 -0.19854354800E+04  0.20638017974E+04  0.50400001928E-02 0. -1.
</event>
<event>
 5   0  0.4750125E-08  0.3895464E+04  0.7818609E-02  0.8025973E-01
       -1   -1    0    0    0  501  0.00000000000E+00  0.00000000000E+00  0.16765898507E+04  0.16765898507E+04  0.50400001928E-02 0. -1.
        1   -1    0    0  501    0  0.00000000000E+00  0.00000000000E+00 -0.22627240529E+04  0.22627240529E+04  0.50400001928E-02 0.  1.
    10030    2    1    2    0    0  0.00000000000E+00  0.00000000000E+00 -0.58613420218E+03  0.39393139036E+04  0.38954641223E+04 0.  0.
        3    1    3    3  502    0 -0.11869194463E+04 -0.47679644250E+03  0.11923265668E+04  0.17486438379E+04  0.10100000352E+00 0. -1.
       -3    1    3    3    0  502  0.11869194463E+04  0.47679644250E+03 -0.17784607690E+04  0.21906700657E+04  0.10100000352E+00 0.  1.
</event>
<event>
 5   0  0.1538018E-07  0.3909258E+04  0.7818609E-02  0.8023107E-01
        2   -1    0    0  501    0  0.00000000000E+00  0.00000000000E+00  0.11470687500E+04  0.11470687500E+04  0.25500000920E-02 0. -1.
       -2   -1    0    0    0  501  0.00000000000E+00  0.00000000000E+00 -0.33307279753E+04  0.33307279753E+04  0.25500000920E-02 0.  1.
    10030    2    1    2    0    0  0.00000000000E+00  0.00000000000E+00 -0.21836592254E+04  0.44777967253E+04  0.39092577173E+04 0.  0.
        1    1    3    3  502    0  0.40228251165E+03 -0.63026356904E+03 -0.31604436560E+04  0.32476864824E+04  0.50400001928E-02 0.  1.
       -1    1    3    3    0  502 -0.40228251165E+03  0.63026356904E+03  0.97678443061E+03  0.12301102428E+04  0.50400001928E-02 0. -1.
</event>
<event>
 5   0  0.4750125E-08  0.3921392E+04  0.7818609E-02  0.8020595E-01
        1   -1    0    0  501    0  0.00000000000E+00  0.00000000000E+00  0.20507089344E+04  0.20507089345E+04  0.50400001928E-02 0.  1.
       -1   -1    0    0    0  501  0.00000000000E+00  0.00000000000E+00 -0.18746342971E+04  0.18746342971E+04  0.50400001928E-02 0. -1.
    10030    2    1    2    0    0  0.00000000000E+00  0.00000000000E+00  0.17607463738E+03  0.39253432315E+04  0.39213922537E+04 0.  0.
        1    1    3    3  502    0  0.25742036199E+03  0.17034281653E+04  0.10251410759E+04  0.20047062085E+04  0.50400001928E-02 0. -1.
       -1    1    3    3    0  502 -0.25742036199E+03 -0.17034281653E+04 -0.84906643856E+03  0.19206370230E+04  0.50400001928E-02 0.  1.
</event>
<event>
 5   0  0.1501585E-07  0.3905373E+04  0.7818609E-02  0.8023913E-01
        2   -1    0    0  501    0  0.00000000000E+00  0.00000000000E+00  0.25532099131E+04  0.25532099131E+04  0.25500000920E-02 0. -1.
       -2   -1    0    0    0  501  0.00000000000E+00  0.00000000000E+00 -0.14934083518E+04  0.14934083518E+04  0.25500000920E-02 0.  1.
    10030    2    1    2    0    0  0.00000000000E+00  0.00000000000E+00  0.10598015613E+04  0.40466182649E+04  0.39053732257E+04 0.  0.
        5    1    3    3  502    0  0.46949425469E+03 -0.18629928701E+04  0.16828652428E+03  0.19286030523E+04  0.46999998093E+01 0. -1.
       -5    1    3    3    0  502 -0.46949425469E+03  0.18629928701E+04  0.89151503707E+03  0.21180152125E+04  0.46999998093E+01 0.  1.
</event>
<event>
 5   0  0.4762788E-08  0.3935267E+04  0.7818609E-02  0.8017734E-01
        1   -1    0    0  501    0  0.00000000000E+00  0.00000000000E+00  0.17784270832E+04  0.17784270833E+04  0.50400001928E-02 0. -1.
       -1   -1    0    0    0  501  0.00000000000E+00  0.00000000000E+00 -0.21769697773E+04  0.21769697773E+04  0.50400001928E-02 0.  1.
    10030    2    1    2    0    0  0.00000000000E+00  0.00000000000E+00 -0.39854269406E+03  0.39553968606E+04  0.39352672140E+04 0.  0.
        2    1    3    3  502    0  0.55129000027E+03  0.14090159130E+04 -0.14636149732E+04  0.21050927052E+04  0.25500000920E-02 0.  1.
       -2    1    3    3    0  502 -0.55129000027E+03 -0.14090159130E+04  0.10650722792E+04  0.18503041554E+04  0.25500000920E-02 0. -1.
</event>
<event>
 5   0  0.1503228E-07  0.3898580E+04  0.7818609E-02  0.8025325E-01
       -2   -1    0    0    0  501  0.00000000000E+00  0.00000000000E+00  0.18011682795E+04  0.18011682795E+04  0.25500000920E-02 0. -1.
        2   -1    0    0  501    0  0.00000000000E+00  0.00000000000E+00 -0.21095928707E+04  0.21095928707E+04  0.25500000920E-02 0.  1.
    10030    2    1    2    0    0  0.00000000000E+00  0.00000000000E+00 -0.30842459119E+03  0.39107611502E+04  0.38985801319E+04 0.  0.
        3    1    3    3  502    0  0.15283304830E+04  0.44449421407E+03  0.97463152876E+03  0.18663536103E+04  0.10100000352E+00 0. -1.
       -3    1    3    3    0  502 -0.15283304830E+04 -0.44449421407E+03 -0.12830561199E+04  0.20444075398E+04  0.10100000352E+00 0.  1.
</event>
<event>
 5   0  0.1546846E-07  0.3884969E+04  0.7818609E-02  0.8028163E-01
       -2   -1    0    0    0  501  0.00000000000E+00  0.00000000000E+00  0.15290831519E+04  0.15290831519E+04  0.25500000920E-02 0.  1.
        2   -1    0    0  501    0  0.00000000000E+00  0.00000000000E+00 -0.24676525435E+04  0.24676525435E+04  0.25500000920E-02 0. -1.
    10030    2    1    2    0    0  0.00000000000E+00  0.00000000000E+00 -0.93856939161E+03  0.39967356954E+04  0.38849689466E+04 0.  0.
        2    1    3    3  502    0 -0.15780062407E+03  0.18273887901E+04  0.18864112498E+03  0.18438645019E+04  0.25500000920E-02 0.  1.
       -2    1    3    3    0  502  0.15780062407E+03 -0.18273887901E+04 -0.11272105166E+04  0.21528711935E+04  0.25500000920E-02 0. -1.
</event>
<event>
 5   0  0.4762788E-08  0.3899273E+04  0.7818609E-02  0.8025180E-01
        1   -1    0    0  501    0  0.00000000000E+00  0.00000000000E+00  0.19512904629E+04  0.19512904629E+04  0.50400001928E-02 0.  1.
       -1   -1    0    0    0  501  0.00000000000E+00  0.00000000000E+00 -0.19479841928E+04  0.19479841928E+04  0.50400001928E-02 0. -1.
    10030    2    1    2    0    0  0.00000000000E+00  0.00000000000E+00  0.33062700401E+01  0.38992746557E+04  0.38992732539E+04 0.  0.
        2    1    3    3  502    0  0.14859153331E+04  0.27410921716E+03 -0.12304198452E+04  0.19485926294E+04  0.25500000920E-02 0. -1.
       -2    1    3    3    0  502 -0.14859153331E+04 -0.27410921716E+03  0.12337261153E+04  0.19506820262E+04  0.25500000920E-02 0.  1.
</event>
<event>
 5   0  0.1501585E-07  0.3858103E+04  0.7818609E-02  0.8033800E-01
        2   -1    0    0  501    0  0.00000000000E+00  0.00000000000E+00  0.25425165575E+04  0.25425165575E+04  0.25500000920E-02 0.  1.
       -2   -1    0    0    0  501  0.00000000000E+00  0.00000000000E+00 -0.14636052472E+04  0.14636052472E+04  0.25500000920E-02 0. -1.
    10030    2    1    2    0    0  0.00000000000E+00  0.00000000000E+00  0.10789113103E+04  0.40061218047E+04  0.38581034588E+04 0.  0.
        5    1    3    3  502    0 -0.12023630514E+04 -0.14295295491E+04  0.39326744503E+02  0.18683683582E+04  0.46999998093E+01 0. -1.
       -5    1    3    3    0  502  0.12023630514E+04  0.14295295491E+04  0.10395845658E+04  0.21377534466E+04  0.46999998093E+01 0.  1.
</event>
<event>
 5   0  0.1501585E-07  0.3889994E+04  0.7818609E-02  0.8027113E-01
       -2   -1    0    0    0  501  0.00000000000E+00  0.00000000000E+00  0.26113705863E+04  0.26113705863E+04  0.25500000920E-02 0. -1.
        2   -1    0    0  501    0  0.00000000000E+00  0.00000000000E+00 -0.14486697632E+04  0.14486697632E+04  0.25500000920E-02 0.  1.
    10030    2    1    2    0    0  0.00000000000E+00  0.00000000000E+00  0.11627008231E+04  0.40600403495E+04  0.38899941433E+04 0.  0.
        5    1    3    3  502    0  0.12899531142E+04 -0.34652265910E+03  0.20569913225E+04  0.24526093005E+04  0.46999998093E+01 0. -1.
       -5    1    3    3    0  502 -0.12899531142E+04  0.34652265910E+03 -0.89429049933E+03  0.16074310490E+04  0.46999998093E+01 0.  1.
</event>
<event>
 5   0  0.1503228E-07  0.3956685E+04  0.7818609E-02  0.8013342E-01
        2   -1    0    0  501    0  0.00000000000E+00  0.00000000000E+00  0.26529142150E+04  0.26529142150E+04  0.25500000920E-02 0. -1.
       -2   -1    0    0    0  501  0.00000000000E+00  0.00000000000E+00 -0.14752979806E+04  0.14752979806E+04  0.25500000920E-02 0.  1.
    10030    2    1    2    0    0  0.00000000000E+00  0.00000000000E+00  0.11776162343E+04  0.41282121956E+04  0.39566849680E+04 0.  0.
        3    1    3    3  502    0  0.15312154288E+03  0.13346502306E+04 -0.92642440325E+03  0.16318699795E+04  0.10100000352E+00 0.  1.
       -3    1    3    3    0  502 -0.15312154288E+03 -0.13346502306E+04  0.21040406376E+04  0.24963422161E+04  0.10100000352E+00 0. -1.
</event>
<event>
 5   0  0.1538018E-07  0.3934445E+04  0.7818609E-02  0.8017903E-01
       -2   -1    0    0    0  501  0.00000000000E+00  0.00000000000E+00  0.21647779466E+04  0.21647779466E+04  0.25500000920E-02 0.  1.
        2   -1    0    0  501    0  0.00000000000E+00  0.00000000000E+00 -0.17876960133E+04  0.17876960133E+04  0.25500000920E-02 0. -1.
    10030    2    1    2    0    0  0.00000000000E+00  0.00000000000E+00  0.37708193324E+03  0.39524739599E+04  0.39344452747E+04 0.  0.
        1    1    3    3  502    0 -0.11102782202E+04 -0.10989419884E+04 -0.10125856225E+04  0.18616446662E+04  0.50400001928E-02 0. -1.
       -1    1    3    3    0  502  0.11102782202E+04  0.10989419884E+04  0.13896675558E+04  0.20908292938E+04  0.50400001928E-02 0.  1.
</event>
<event>
 5   0  0.4750125E-08  0.3880939E+04  0.7818609E-02  0.8029005E-01
       -1   -1    0    0    0  501  0.00000000000E+00  0.00000000000E+00  0.15595489798E+04  0.15595489798E+04  0.50400001928E-02 0.  1.
        1   -1    0    0  501    0  0.00000000000E+00  0.00000000000E+00 -0.24144298096E+04  0.24144298096E+04  0.50400001928E-02 0. -1.
    10030    2    1    2    0    0  0.00000000000E+00  0.00000000000E+00 -0.85488082978E+03  0.39739787894E+04  0.38809388279E+04 0.  0.
        5    1    3    3  502    0 -0.14307378567E+04  0.11003489269E+04  0.30211533825E+03  0.18300476342E+04  0.46999998093E+01 0. -1.
       -5    1    3    3    0  502  0.14307378567E+04 -0.11003489269E+04 -0.11569961680E+04  0.21439311553E+04  0.46999998093E+01 0.  1.
</event>
<event>
 5   0  0.4750125E-08  0.3753313E+04  0.7818609E-02  0.8056249E-01
       -1   -1    0    0    0  501  0.00000000000E+00  0.00000000000E+00  0.11315819078E+04  0.11315819078E+04  0.50400001928E-02 0. -1.
        1   -1    0    0  501    0  0.00000000000E+00  0.00000000000E+00 -0.31123158352E+04  0.31123158352E+04  0.50400001928E-02 0.  1.
    10030    2    1    2    0    0  0.00000000000E+00  0.00000000000E+00 -0.19807339274E+04  0.42438977430E+04  0.37533133578E+04 0.  0.
        3    1    3    3  502    0 -0.76578620364E+03 -0.82723808682E+03  0.70610392496E+03  0.13301631949E+04  0.10100000352E+00 0. -1.
       -3    1    3    3    0  502  0.76578620364E+03  0.82723808682E+03 -0.26868378523E+04  0.29137345481E+04  0.10100000352E+00 0.  1.
</event>
<event>
 5   0  0.1546846E-07  0.3879294E+04  0.7818609E-02  0.8029350E-01
       -2   -1    0    0    0  501  0.00000000000E+00  0.00000000000E+00  0.16596631288E+04  0.16596631288E+04  0.25500000920E-02 0. -1.
        2   -1    0    0  501    0  0.00000000000E+00  0.00000000000E+00 -0.22668634664E+04  0.22668634664E+04  0.25500000920E-02 0.  1.
    10030    2    1    2    0    0  0.00000000000E+00  0.00000000000E+00 -0.60720033761E+03  0.39265265952E+04  0.38792936023E+04 0.  0.
        2    1    3    3  502    0  0.92676081992E+03  0.48422881054E+03  0.13499574126E+04  0.17075561994E+04  0.25500000920E-02 0. -1.
       -2    1    3    3    0  502 -0.92676081992E+03 -0.48422881054E+03 -0.19571577502E+04  0.22189703958E+04  0.25500000920E-02 0.  1.
</event>
<event>
 5   0  0.4762788E-08  0.3922315E+04  0.7818609E-02  0.8020404E-01
        1   -1    0    0  501    0  0.00000000000E+00  0.00000000000E+00  0.17865611143E+04  0.17865611143E+04  0.50400001928E-02 0.  1.
       -1   -1    0    0    0  501  0.00000000000E+00  0.00000000000E+00 -0.21528164677E+04  0.21528164677E+04  0.50400001928E-02 0. -1.
    10030    2    1    2    0    0  0.00000000000E+00  0.00000000000E+00 -0.36625535332E+03  0.39393775820E+04  0.39223147184E+04 0.  0.
        2    1    3    3  502    0 -0.11180573137E+04  0.23242252154E+03 -0.17844492906E+04  0.21185683034E+04  0.25500000920E-02 0. -1.
       -2    1    3    3    0  502  0.11180573137E+04 -0.23242252154E+03  0.14181939373E+04  0.18208092786E+04  0.25500000920E-02 0.  1.
</event>
<event>
 5   0  0.1503228E-07  0.3908292E+04  0.7818609E-02  0.8023307E-01
       -2   -1    0    0    0  501  0.00000000000E+00  0.00000000000E+00  0.26357050570E+04  0.26357050570E+04  0.25500000920E-02 0.  1.
        2   -1    0    0  501    0  0.00000000000E+00  0.00000000000E+00 -0.14488293319E+04  0.14488293319E+04  0.25500000920E-02 0. -1.
    10030    2    1    2    0    0  0.00000000000E+00  0.00000000000E+00  0.11868757251E+04  0.40845343888E+04  0.39082921061E+04 0.  0.
        3    1    3    3  502    0  0.48297802817E+03  0.55361702822E+03  0.24858748530E+04  0.25921676999E+04  0.10100000352E+00 0.  1.
       -3    1    3    3    0  502 -0.48297802817E+03 -0.55361702822E+03 -0.12989991279E+04  0.14923666889E+04  0.10100000352E+00 0. -1.
</event>
<event>
 5   0  0.1501585E-07  0.3899065E+04  0.7818609E-02  0.8025224E-01
        2   -1    0    0  501    0  0.00000000000E+00  0.00000000000E+00  0.25393568249E+04  0.25393568249E+04  0.25500000920E-02 0.  1.
       -2   -1    0    0    0  501  0.00000000000E+00  0.00000000000E+00 -0.14967086549E+04  0.14967086549E+04  0.25500000920E-02 0. -1.
    10030    2    1    2    0    0  0.00000000000E+00  0.00000000000E+00  0.10426481700E+04  0.40360654798E+04  0.38990651893E+04 0.  0.
        5    1    3    3  502    0 -0.78264313710E+03  0.16528647222E+04 -0.17780572442E+03  0.18374245659E+04  0.46999998093E+01 0. -1.
       -5    1    3    3    0  502  0.78264313710E+03 -0.16528647222E+04  0.12204538944E+04  0.21986409139E+04  0.46999998093E+01 0.  1.
</event>
<event>
 5   0  0.4750125E-08  0.3910501E+04  0.7818609E-02  0.8022849E-01
       -1   -1    0    0    0  501  0.00000000000E+00  0.00000000000E+00  0.18838732438E+04  0.18838732438E+04  0.50400001928E-02 0. -1.
        1   -1    0    0  501    0  0.00000000000E+00  0.00000000000E+00 -0.20293322008E+04  0.20293322008E+04  0.50400001928E-02 0.  1.
    10030    2    1    2    0    0  0.00000000000E+00  0.00000000000E+00 -0.14545895697E+03  0.39132054446E+04  0.39105010604E+04 0.  0.
        5    1    3    3  502    0 -0.97788147660E+03  0.16771589768E+04  0.15952612021E+03  0.19479694784E+04  0.46999998093E+01 0. -1.
       -5    1    3    3    0  502  0.97788147660E+03 -0.16771589768E+04 -0.30498507718E+03  0.19652359662E+04  0.46999998093E+01 0.  1.
</event>
<event>
 5   0  0.4750125E-08  0.3888586E+04  0.7818609E-02  0.8027407E-01
       -1   -1    0    0    0  501  0.00000000000E+00  0.00000000000E+00  0.12703517912E+04  0.12703517913E+04  0.50400001928E-02 0.  1.
        1   -1    0    0  501    0  0.00000000000E+00  0.00000000000E+00 -0.29757708771E+04  0.29757708771E+04  0.50400001928E-02 0. -1.
    10030    2    1    2    0    0  0.00000000000E+00  0.00000000000E+00 -0.17054190859E+04  0.42461226684E+04  0.38885863056E+04 0.  0.
        5    1    3    3  502    0 -0.69430643424E+03 -0.71915607808E+03  0.96825641180E+03  0.13916858332E+04  0.46999998093E+01 0.  1.
       -5    1    3    3    0  502  0.69430643424E+03  0.71915607808E+03 -0.26736754977E+04  0.28544368352E+04  0.46999998093E+01 0. -1.
</event>
<event>
 5   0  0.1538018E-07  0.3754542E+04  0.7818609E-02  0.8055981E-01
       -2   -1    0    0    0  501  0.00000000000E+00  0.00000000000E+00  0.14935071866E+04  0.14935071866E+04  0.25500000920E-02 0. -1.
        2   -1    0    0  501    0  0.00000000000E+00  0.00000000000E+00 -0.23596445525E+04  0.23596445525E+04  0.25500000920E-02 0.  1.
    10030    2    1    2    0    0  0.00000000000E+00  0.00000000000E+00 -0.86613736583E+03  0.38531517391E+04  0.37545418346E+04 0.  0.
        1    1    3    3  502    0  0.29715847475E+03 -0.99939999332E+02  0.14664503473E+04  0.14995892050E+04  0.50400001928E-02 0. -1.
       -1    1    3    3    0  502 -0.29715847475E+03  0.99939999332E+02 -0.23325877131E+04  0.23535625341E+04  0.50400001928E-02 0.  1.
</event>
<event>
 5   0  0.1520986E-07  0.3900559E+04  0.7818609E-02  0.8024913E-01
       -2   -1    0    0    0  501  0.00000000000E+00  0.00000000000E+00  0.16098208669E+04  0.16098208669E+04  0.25500000920E-02 0. -1.
        2   -1    0    0  501    0  0.00000000000E+00  0.00000000000E+00 -0.23627414382E+04  0.23627414382E+04  0.25500000920E-02 0.  1.
    10030    2    1    2    0    0  0.00000000000E+00  0.00000000000E+00 -0.75292057126E+03  0.39725623050E+04  0.39005591754E+04 0.  0.
        4    1    3    3  502    0 -0.95596376061E+03 -0.61116264712E+03  0.12390756746E+04  0.16800882814E+04  0.12699999809E+01 0. -1.
       -4    1    3    3    0  502  0.95596376061E+03  0.61116264712E+03 -0.19919962459E+04  0.22924740237E+04  0.12699999809E+01 0.  1.
</event>
<event>
 5   0  0.4762788E-08  0.3897184E+04  0.7818609E-02  0.8025615E-01
        1   -1    0    0  501    0  0.00000000000E+00  0.00000000000E+00  0.20108251511E+04  0.20108251511E+04  0.50400001928E-02 0.  1.
       -1   -1    0    0    0  501  0.00000000000E+00  0.00000000000E+00 -0.18882845194E+04  0.18882845194E+04  0.50400001928E-02 0. -1.
    10030    2    1    2    0    0  0.00000000000E+00  0.00000000000E+00  0.12254063170E+03  0.38991096706E+04  0.38971836006E+04 0.  0.
        2    1    3    3  502    0 -0.16587969055E+04  0.21273263766E+03  0.10618383983E+04  0.19810005383E+04  0.25500000920E-02 0.  1.
       -2    1    3    3    0  502  0.16587969055E+04 -0.21273263766E+03 -0.93929776660E+03  0.19181091322E+04  0.25500000920E-02 0. -1.
</event>
<event>
 5   0  0.4750125E-08  0.3878745E+04  0.7818609E-02  0.8029464E-01
       -1   -1    0    0    0  501  0.00000000000E+00  0.00000000000E+00  0.13657184247E+04  0.13657184247E+04  0.50400001928E-02 0.  1.
        1   -1    0    0  501    0  0.00000000000E+00  0.00000000000E+00 -0.27539828538E+04  0.27539828538E+04  0.50400001928E-02 0. -1.
    10030    2    1    2    0    0  0.00000000000E+00  0.00000000000E+00 -0.13882644291E+04  0.41197012785E+04  0.38787447066E+04 0.  0.
        4    1    3    3  502    0  0.25305583430E+03  0.12215693030E+04 -0.22712657142E+04  0.25913159542E+04  0.12699999809E+01 0. -1.
       -4    1    3    3    0  502 -0.25305583430E+03 -0.12215693030E+04  0.88300128507E+03  0.15283853243E+04  0.12699999809E+01 0.  1.
</event>
<event>
 5   0  0.1503228E-07  0.3901771E+04  0.7818609E-02  0.8024661E-01
        2   -1    0    0  501    0  0.00000000000E+00  0.00000000000E+00  0.10322638623E+04  0.10322638623E+04  0.25500000920E-02 0.  1.
       -2   -1    0    0    0  501  0.00000000000E+00  0.00000000000E+00 -0.36869976798E+04  0.36869976798E+04  0.25500000920E-02 0. -1.
    10030    2    1    2    0    0  0.00000000000E+00  0.00000000000E+00 -0.26547338175E+04  0.47192615421E+04  0.39017711185E+04 0.  0.
        3    1    3    3  502    0 -0.93358878032E+03 -0.16236522820E+04 -0.66696608963E+03  0.19881344317E+04  0.10100000352E+00 0.  1.
       -3    1    3    3    0  502  0.93358878032E+03  0.16236522820E+04 -0.19877677278E+04  0.27311271105E+04  0.10100000352E+00 0. -1.
</event>
<event>
 5   0  0.4750125E-08  0.3899635E+04  0.7818609E-02  0.8025105E-01
       -1   -1    0    0    0  501  0.00000000000E+00  0.00000000000E+00  0.15991845193E+04  0.15991845193E+04  0.50400001928E-02 0. -1.
        1   -1    0    0  501    0  0.00000000000E+00  0.00000000000E+00 -0.23773289668E+04  0.23773289668E+04  0.50400001928E-02 0.  1.
    10030    2    1    2    0    0  0.00000000000E+00  0.00000000000E+00 -0.77814444752E+03  0.39765134862E+04  0.38996346911E+04 0.  0.
        1    1    3    3  502    0  0.18893887872E+04  0.13221853767E+03  0.83217318322E+02  0.18958367158E+04  0.50400001928E-02 0. -1.
       -1    1    3    3    0  502 -0.18893887872E+04 -0.13221853767E+03 -0.86136176584E+03  0.20806767703E+04  0.50400001928E-02 0.  1.
</event>
<event>
 5   0  0.1501585E-07  0.3895488E+04  0.7818609E-02  0.8025968E-01
       -2   -1    0    0    0  501  0.00000000000E+00  0.00000000000E+00  0.15979857829E+04  0.15979857829E+04  0.25500000920E-02 0.  1.
        2   -1    0    0  501    0  0.00000000000E+00  0.00000000000E+00 -0.23740554787E+04  0.23740554787E+04  0.25500000920E-02 0. -1.
    10030    2    1    2    0    0  0.00000000000E+00  0.00000000000E+00 -0.77606969583E+03  0.39720412616E+04  0.38954881095E+04 0.  0.
        5    1    3    3  502    0 -0.58085570722E+03  0.67493626852E+03  0.13782752675E+04  0.16409135023E+04  0.46999998093E+01 0.  1.
       -5    1    3    3    0  502  0.58085570722E+03 -0.67493626852E+03 -0.21543449633E+04  0.23311277593E+04  0.46999998093E+01 0. -1.
</event>
<event>
 5   0  0.4762788E-08  0.3898374E+04  0.7818609E-02  0.8025368E-01
        1   -1    0    0  501    0  0.00000000000E+00  0.00000000000E+00  0.27249003756E+04  0.27249003757E+04  0.50400001928E-02 0.  1.
       -1   -1    0    0    0  501  0.00000000000E+00  0.00000000000E+00 -0.13943002903E+04  0.13943002903E+04  0.50400001928E-02 0. -1.
    10030    2    1    2    0    0  0.00000000000E+00  0.00000000000E+00  0.13306000853E+04  0.41192006660E+04  0.38983737045E+04 0.  0.
        2    1    3    3  502    0 -0.18628954285E+04 -0.56191101146E+03  0.54387297718E+03  0.20203764940E+04  0.25500000920E-02 0.  1.
       -2    1    3    3    0  502  0.18628954285E+04  0.56191101146E+03  0.78672710813E+03  0.20988241720E+04  0.25500000920E-02 0. -1.
</event>
<event>
 5   0  0.1538018E-07  0.3896502E+04  0.7818609E-02  0.8025757E-01
        2   -1    0    0  501    0  0.00000000000E+00  0.00000000000E+00  0.12415085967E+04  0.12415085967E+04  0.25500000920E-02 0.  1.
       -2   -1    0    0    0  501  0.00000000000E+00  0.00000000000E+00 -0.30573138660E+04  0.30573138660E+04  0.25500000920E-02 0. -1.
    10030    2    1    2    0    0  0.00000000000E+00  0.00000000000E+00 -0.18158052693E+04  0.42988224627E+04  0.38965017374E+04 0.  0.
        1    1    3    3  502    0  0.66662379564E+03  0.71346311666E+03  0.95207141085E+03  0.13637656966E+04  0.50400001928E-02 0.  1.
       -1    1    3    3    0  502 -0.66662379564E+03 -0.71346311666E+03 -0.27678766802E+04  0.29350567661E+04  0.50400001928E-02 0. -1.
</event>
<event>
 5   0  0.1546846E-07  0.3858391E+04  0.7818609E-02  0.8033739E-01
       -2   -1    0    0    0  501  0.00000000000E+00  0.00000000000E+00  0.27212955292E+04  0.27212955292E+04  0.25500000920E-02 0.  1.
        2   -1    0    0  501    0  0.00000000000E+00  0.00000000000E+00 -0.13676558577E+04  0.13676558577E+04  0.25500000920E-02 0. -1.
    10030    2    1    2    0    0  0.00000000000E+00  0.00000000000E+00  0.13536396715E+04  0.40889513868E+04  0.38583912559E+04 0.  0.
        2    1    3    3  502    0  0.85622701275E+03  0.15975035700E+04 -0.23464020140E+02  0.18126480391E+04  0.25500000920E-02 0. -1.
       -2    1    3    3    0  502 -0.85622701275E+03 -0.15975035700E+04  0.13771036916E+04  0.22763033477E+04  0.25500000920E-02 0.  1.
</event>
<event>
 5   0  0.4750125E-08  0.3859346E+04  0.7818609E-02  0.8033538E-01
       -1   -1    0    0    0  501  0.00000000000E+00  0.00000000000E+00  0.17982424567E+04  0.17982424568E+04  0.50400001928E-02 0. -1.
        1   -1    0    0  501    0  0.00000000000E+00  0.00000000000E+00 -0.20707098523E+04  0.20707098523E+04  0.50400001928E-02 0.  1.
    10030    2    1    2    0    0  0.00000000000E+00  0.00000000000E+00 -0.27246739558E+03  0.38689523091E+04  0.38593462514E+04 0.  0.
        4    1    3    3  502    0  0.15585930233E+04 -0.10401286154E+04  0.32595290095E+03  0.19019270899E+04  0.12699999809E+01 0. -1.
       -4    1    3    3    0  502 -0.15585930233E+04  0.10401286154E+04 -0.59842029653E+03  0.19670252192E+04  0.12699999809E+01 0.  1.
</event>
<event>
 5   0  0.1520986E-07  0.3911092E+04  0.7818609E-02  0.8022726E-01
        2   -1    0    0  501    0  0.00000000000E+00  0.00000000000E+00  0.27889893922E+04  0.27889893922E+04  0.25500000920E-02 0. -1.
       -2   -1    0    0    0  501  0.00000000000E+00  0.00000000000E+00 -0.13711634509E+04  0.13711634509E+04  0.25500000920E-02 0.  1.
    10030    2    1    2    0    0  0.00000000000E+00  0.00000000000E+00  0.14178259413E+04  0.41601528431E+04  0.39110920826E+04 0.  0.
        4    1    3    3  502    0 -0.15683249530E+04 -0.11278744309E+04  0.38555613353E+03  0.19698728475E+04  0.12699999809E+01 0.  1.
       -4    1    3    3    0  502  0.15683249530E+04  0.11278744309E+04  0.10322698078E+04  0.21902799956E+04  0.12699999809E+01 0. -1.
</event>
<event>
 5   0  0.1501585E-07  0.3906427E+04  0.7818609E-02  0.8023694E-01
       -2   -1    0    0    0  501  0.00000000000E+00  0.00000000000E+00  0.25917796043E+04  0.25917796043E+04  0.25500000920E-02 0.  1.
        2   -1    0    0  501    0  0.00000000000E+00  0.00000000000E+00 -0.14719782094E+04  0.14719782094E+04  0.25500000920E-02 0. -1.
    10030    2    1    2    0    0  0.00000000000E+00  0.00000000000E+00  0.11198013949E+04  0.40637578136E+04  0.39064270637E+04 0.  0.
        5    1    3    3  502    0 -0.14732220862E+04  0.59187045838E+03 -0.62360434410E+03  0.17057545025E+04  0.46999998093E+01 0. -1.
       -5    1    3    3    0  502  0.14732220862E+04 -0.59187045838E+03  0.17434057390E+04  0.23580033112E+04  0.46999998093E+01 0.  1.
</event>
<event>
 5   0  0.4750125E-08  0.3920300E+04  0.7818609E-02  0.8020820E-01
        1   -1    0    0  501    0  0.00000000000E+00  0.00000000000E+00  0.21959540237E+04  0.21959540237E+04  0.50400001928E-02 0.  1.
       -1   -1    0    0    0  501  0.00000000000E+00  0.00000000000E+00 -0.17496667861E+04  0.17496667861E+04  0.50400001928E-02 0. -1.
    10030    2    1    2    0    0  0.00000000000E+00  0.00000000000E+00  0.44628723766E+03  0.39456208098E+04  0.39202998962E+04 0.  0.
        1    1    3    3  502    0  0.40012075642E+03  0.12117549185E+04 -0.12743310338E+04  0.18034317802E+04  0.50400001928E-02 0. -1.
       -1    1    3    3    0  502 -0.40012075642E+03 -0.12117549185E+04  0.17206182715E+04  0.21421890296E+04  0.50400001928E-02 0.  1.
</event>
<event>
 5   0  0.1520986E-07  0.3924349E+04  0.7818609E-02  0.8019984E-01
       -2   -1    0    0    0  501  0.00000000000E+00  0.00000000000E+00  0.18855471748E+04  0.18855471748E+04  0.25500000920E-02 0.  1.
        2   -1    0    0  501    0  0.00000000000E+00  0.00000000000E+00 -0.20419154251E+04  0.20419154251E+04  0.25500000920E-02 0. -1.
    10030    2    1    2    0    0  0.00000000000E+00  0.00000000000E+00 -0.15636825025E+03  0.39274625999E+04  0.39243485376E+04 0.  0.
        4    1    3    3  502    0  0.17905243993E+04 -0.89411680584E+02  0.72004152096E+03  0.19319506924E+04  0.12699999809E+01 0. -1.
       -4    1    3    3    0  502 -0.17905243993E+04  0.89411680584E+02 -0.87640977121E+03  0.19955119075E+04  0.12699999809E+01 0.  1.
</event>
<event>
 5   0  0.4750125E-08  0.3910551E+04  0.7818609E-02  0.8022838E-01
       -1   -1    0    0    0  501  0.00000000000E+00  0.00000000000E+00  0.13520634071E+04  0.13520634071E+04  0.50400001928E-02 0.  1.
        1   -1    0    0  501    0  0.00000000000E+00  0.00000000000E+00 -0.28276055440E+04  0.28276055440E+04  0.50400001928E-02 0. -1.
    10030    2    1    2    0    0  0.00000000000E+00  0.00000000000E+00 -0.14755421368E+04  0.41796689511E+04  0.39105508491E+04 0.  0.
        5    1    3    3  502    0 -0.13372563256E+03 -0.10823573278E+04  0.99678002343E+03  0.14774885567E+04  0.46999998093E+01 0.  1.
       -5    1    3    3    0  502  0.13372563256E+03  0.10823573278E+04 -0.24723221603E+04  0.27021803944E+04  0.46999998093E+01 0. -1.
</event>
<event>
 5   0  0.4762788E-08  0.4156557E+04  0.7818609E-02  0.7973688E-01
        1   -1    0    0  501    0  0.00000000000E+00  0.00000000000E+00  0.23112910564E+04  0.23112910564E+04  0.50400001928E-02 0. -1.
       -1   -1    0    0    0  501  0.00000000000E+00  0.00000000000E+00 -0.18687574006E+04  0.18687574006E+04  0.50400001928E-02 0.  1.
    10030    2    1    2    0    0  0.00000000000E+00  0.00000000000E+00  0.44253365582E+03  0.41800484570E+04  0.41565573575E+04 0.  0.
        2    1    3    3  502    0  0.23450327794E+03  0.42039697517E+03  0.22544537949E+04  0.23052738053E+04  0.25500000920E-02 0. -1.
       -2    1    3    3    0  502 -0.23450327794E+03 -0.42039697517E+03 -0.18119201391E+04  0.18747746517E+04  0.25500000920E-02 0.  1.
</event>
<event>
 5   0  0.4762788E-08  0.3905579E+04  0.7818609E-02  0.8023870E-01
       -1   -1    0    0    0  501  0.00000000000E+00  0.00000000000E+00  0.15339593420E+04  0.15339593420E+04  0.50400001928E-02 0. -1.
        1   -1    0    0  501    0  0.00000000000E+00  0.00000000000E+00 -0.24859760659E+04  0.24859760659E+04  0.50400001928E-02 0.  1.
    10030    2    1    2    0    0  0.00000000000E+00  0.00000000000E+00 -0.95201672387E+03  0.40199354079E+04  0.39055786820E+04 0.  0.
        2    1    3    3  502    0 -0.62377118504E+03 -0.18502730523E+04 -0.50485303149E+03  0.20167988107E+04  0.25500000920E-02 0. -1.
       -2    1    3    3    0  502  0.62377118504E+03  0.18502730523E+04 -0.44716369238E+03  0.20031365972E+04  0.25500000920E-02 0.  1.
</event>
<event>
 5   0  0.4750125E-08  0.3900944E+04  0.7818609E-02  0.8024833E-01
       -1   -1    0    0    0  501  0.00000000000E+00  0.00000000000E+00  0.13525651291E+04  0.13525651291E+04  0.50400001928E-02 0.  1.
        1   -1    0    0  501    0  0.00000000000E+00  0.00000000000E+00 -0.28126862405E+04  0.28126862405E+04  0.50400001928E-02 0. -1.
    10030    2    1    2    0    0  0.00000000000E+00  0.00000000000E+00 -0.14601211114E+04  0.41652513696E+04  0.39009441565E+04 0.  0.
        3    1    3    3  502    0 -0.18567374192E+04  0.11908575413E+03 -0.13551176662E+04  0.23017382909E+04  0.10100000352E+00 0. -1.
       -3    1    3    3    0  502  0.18567374192E+04 -0.11908575413E+03 -0.10500344525E+03  0.18635130787E+04  0.10100000352E+00 0.  1.
</event>
<event>
 5   0  0.4750125E-08  0.3893311E+04  0.7818609E-02  0.8026422E-01
        3   -1    0    0  501    0  0.00000000000E+00  0.00000000000E+00  0.17324247674E+04  0.17324247703E+04  0.10100000352E+00 0. -1.
       -3   -1    0    0    0  501  0.00000000000E+00  0.00000000000E+00 -0.21873779347E+04  0.21873779370E+04  0.10100000352E+00 0.  1.
    10030    2    1    2    0    0  0.00000000000E+00  0.00000000000E+00 -0.45495316730E+03  0.39198027074E+04  0.38933110434E+04 0.  0.
        2    1    3    3  502    0  0.80982870011E+03 -0.16169995376E+04 -0.95276557169E+03  0.20440822544E+04  0.25500000920E-02 0.  1.
       -2    1    3    3    0  502 -0.80982870011E+03  0.16169995376E+04  0.49781240438E+03  0.18757204530E+04  0.25500000920E-02 0. -1.
</event>
<event>
 5   0  0.4762788E-08  0.3898778E+04  0.7818609E-02  0.8025283E-01
        1   -1    0    0  501    0  0.00000000000E+00  0.00000000000E+00  0.22191628878E+04  0.22191628878E+04  0.50400001928E-02 0.  1.
       -1   -1    0    0    0  501  0.00000000000E+00  0.00000000000E+00 -0.17124099506E+04  0.17124099506E+04  0.50400001928E-02 0. -1.
    10030    2    1    2    0    0  0.00000000000E+00  0.00000000000E+00  0.50675293726E+03  0.39315728384E+04  0.38987775577E+04 0.  0.
        2    1    3    3  502    0 -0.14345839114E+04 -0.94964097048E+03  0.11777482680E+04  0.20849316427E+04  0.25500000920E-02 0.  1.
       -2    1    3    3    0  502  0.14345839114E+04  0.94964097048E+03 -0.67099533079E+03  0.18466411957E+04  0.25500000920E-02 0. -1.
</event>
<event>
 5   0  0.1520986E-07  0.3898387E+04  0.7818609E-02  0.8025365E-01
        2   -1    0    0  501    0  0.00000000000E+00  0.00000000000E+00  0.27534326700E+04  0.27534326700E+04  0.25500000920E-02 0. -1.
       -2   -1    0    0    0  501  0.00000000000E+00  0.00000000000E+00 -0.13798613268E+04  0.13798613268E+04  0.25500000920E-02 0.  1.
    10030    2    1    2    0    0  0.00000000000E+00  0.00000000000E+00  0.13735713432E+04  0.41332939968E+04  0.38983869778E+04 0.  0.
        4    1    3    3  502    0 -0.18264939749E+03 -0.57571213527E+03 -0.12781401902E+04  0.14136651739E+04  0.12699999809E+01 0.  1.
       -4    1    3    3    0  502  0.18264939749E+03  0.57571213527E+03  0.26517115334E+04  0.27196288229E+04  0.12699999809E+01 0. -1.
</event>
<event>
 5   0  0.1520986E-07  0.3895325E+04  0.7818609E-02  0.8026002E-01
       -2   -1    0    0    0  501  0.00000000000E+00  0.00000000000E+00  0.16757777361E+04  0.16757777361E+04  0.25500000920E-02 0. -1.
        2   -1    0    0  501    0  0.00000000000E+00  0.00000000000E+00 -0.22636594349E+04  0.22636594349E+04  0.25500000920E-02 0.  1.
    10030    2    1    2    0    0  0.00000000000E+00  0.00000000000E+00 -0.58788169884E+03  0.39394371710E+04  0.38953254462E+04 0.  0.
        4    1    3    3  502    0 -0.32343398955E+03 -0.83913239692E+03 -0.20411146089E+04  0.22304490993E+04  0.12699999809E+01 0.  1.
       -4    1    3    3    0  502  0.32343398955E+03  0.83913239692E+03  0.14532329101E+04  0.17089880716E+04  0.12699999809E+01 0. -1.
</event>
<event>
 5   0  0.1538018E-07  0.3893531E+04  0.7818609E-02  0.8026376E-01
        2   -1    0    0  501    0  0.00000000000E+00  0.00000000000E+00  0.24733962196E+04  0.24733962196E+04  0.25500000920E-02 0.  1.
       -2   -1    0    0    0  501  0.00000000000E+00  0.00000000000E+00 -0.15322636913E+04  0.15322636913E+04  0.25500000920E-02 0. -1.
    10030    2    1    2    0    0  0.00000000000E+00  0.00000000000E+00  0.94113252832E+03  0.40056599109E+04  0.38935306453E+04 0.  0.
        1    1    3    3  502    0  0.17354179532E+04 -0.20601475703E+03  0.13530440422E+04  0.22101687113E+04  0.50400001928E-02 0.  1.
       -1    1    3    3    0  502 -0.17354179532E+04  0.20601475703E+03 -0.41191151390E+03  0.17954911996E+04  0.50400001928E-02 0. -1.
</event>
<event>
 5   0  0.4750125E-08  0.3952766E+04  0.7818609E-02  0.8014144E-01
        1   -1    0    0  501    0  0.00000000000E+00  0.00000000000E+00  0.15887608655E+04  0.15887608655E+04  0.50400001928E-02 0.  1.
       -1   -1    0    0    0  501  0.00000000000E+00  0.00000000000E+00 -0.24585757956E+04  0.24585757956E+04  0.50400001928E-02 0. -1.
    10030    2    1    2    0    0  0.00000000000E+00  0.00000000000E+00 -0.86981493012E+03  0.40473366612E+04  0.39527656187E+04 0.  0.
        4    1    3    3  502    0 -0.22599032554E+02 -0.18421077750E+04 -0.11677230193E+04  0.21811580487E+04  0.12699999809E+01 0. -1.
       -4    1    3    3    0  502  0.22599032554E+02  0.18421077750E+04  0.29790808920E+03  0.18661786124E+04  0.12699999809E+01 0.  1.
</event>
<event>
 5   0  0.4750125E-08  0.3896023E+04  0.7818609E-02  0.8025857E-01
        1   -1    0    0  501    0  0.00000000000E+00  0.00000000000E+00  0.25935773362E+04  0.25935773362E+04  0.50400001928E-02 0. -1.
       -1   -1    0    0    0  501  0.00000000000E+00  0.00000000000E+00 -0.14631334330E+04  0.14631334330E+04  0.50400001928E-02 0.  1.
    10030    2    1    2    0    0  0.00000000000E+00  0.00000000000E+00  0.11304439032E+04  0.40567107692E+04  0.38960234659E+04 0.  0.
        4    1    3    3  502    0  0.13935230595E+04 -0.95276451122E+03 -0.44702640772E+03  0.17462820371E+04  0.12699999809E+01 0.  1.
       -4    1    3    3    0  502 -0.13935230595E+04  0.95276451122E+03  0.15774703109E+04  0.23104287320E+04  0.12699999809E+01 0. -1.
</event>
<event>
 5   0  0.1501585E-07  0.3904826E+04  0.7818609E-02  0.8024026E-01
       -2   -1    0    0    0  501  0.00000000000E+00  0.00000000000E+00  0.13125504565E+04  0.13125504565E+04  0.25500000920E-02 0. -1.
        2   -1    0    0  501    0  0.00000000000E+00  0.00000000000E+00 -0.29042054434E+04  0.29042054434E+04  0.25500000920E-02 0.  1.
    10030    2    1    2    0    0  0.00000000000E+00  0.00000000000E+00 -0.15916549868E+04  0.42167558999E+04  0.39048258248E+04 0.  0.
        5    1    3    3  502    0 -0.11037263711E+04 -0.16089032856E+04 -0.87304032121E+03  0.21375226729E+04  0.46999998093E+01 0.  1.
       -5    1    3    3    0  502  0.11037263711E+04  0.16089032856E+04 -0.71861466562E+03  0.20792332270E+04  0.46999998093E+01 0. -1.
</event>
<event>
 5   0  0.4750125E-08  0.3888892E+04  0.7818609E-02  0.8027343E-01
        1   -1    0    0  501    0  0.00000000000E+00  0.00000000000E+00  0.26160160547E+04  0.26160160547E+04  0.50400001928E-02 0.  1.
       -1   -1    0    0    0  501  0.00000000000E+00  0.00000000000E+00 -0.14452777711E+04  0.14452777711E+04  0.50400001928E-02 0. -1.
    10030    2    1    2    0    0  0.00000000000E+00  0.00000000000E+00  0.11707382836E+04  0.40612938258E+04  0.38888917972E+04 0.  0.
        5    1    3    3  502    0 -0.14683922568E+03 -0.66118646916E+02 -0.14382956116E+04  0.14472904995E+04  0.46999998093E+01 0. -1.
       -5    1    3    3    0  502  0.14683922568E+03  0.66118646916E+02  0.26090338951E+04  0.26140033263E+04  0.46999998093E+01 0.  1.
</event>
<event>
 5   0  0.1546846E-07  0.3919275E+04  0.7818609E-02  0.8021032E-01
        2   -1    0    0  501    0  0.00000000000E+00  0.00000000000E+00  0.31985652892E+04  0.31985652892E+04  0.25500000920E-02 0. -1.
       -2   -1    0    0    0  501  0.00000000000E+00  0.00000000000E+00 -0.12005942042E+04  0.12005942042E+04  0.25500000920E-02 0.  1.
    10030    2    1    2    0    0  0.00000000000E+00  0.00000000000E+00  0.19979710850E+04  0.43991594935E+04  0.39192749065E+04 0.  0.
        2    1    3    3  502    0 -0.13298934980E+04 -0.10821274130E+04 -0.66189320173E+02  0.17158081128E+04  0.25500000920E-02 0.  1.
       -2    1    3    3    0  502  0.13298934980E+04  0.10821274130E+04  0.20641604052E+04  0.26833513807E+04  0.25500000920E-02 0. -1.
</event>
<event>
 5   0  0.4750125E-08  0.3909661E+04  0.7818609E-02  0.8023023E-01
       -1   -1    0    0    0  501  0.00000000000E+00  0.00000000000E+00  0.14875514134E+04  0.14875514134E+04  0.50400001928E-02 0. -1.
        1   -1    0    0  501    0  0.00000000000E+00  0.00000000000E+00 -0.25688937705E+04  0.25688937705E+04  0.50400001928E-02 0.  1.
    10030    2    1    2    0    0  0.00000000000E+00  0.00000000000E+00 -0.10813423571E+04  0.40564451840E+04  0.39096606294E+04 0.  0.
        3    1    3    3  502    0 -0.37177551513E+03  0.11101840172E+04 -0.21648952851E+04  0.24611983242E+04  0.10100000352E+00 0.  1.
       -3    1    3    3    0  502  0.37177551513E+03 -0.11101840172E+04  0.10835529280E+04  0.15952468597E+04  0.10100000352E+00 0. -1.
</event>
<event>
 5   0  0.1503228E-07  0.3923929E+04  0.7818609E-02  0.8020071E-01
        2   -1    0    0  501    0  0.00000000000E+00  0.00000000000E+00  0.16252516461E+04  0.16252516461E+04  0.25500000920E-02 0.  1.
       -2   -1    0    0    0  501  0.00000000000E+00  0.00000000000E+00 -0.23684364438E+04  0.23684364438E+04  0.25500000920E-02 0. -1.
    10030    2    1    2    0    0  0.00000000000E+00  0.00000000000E+00 -0.74318479770E+03  0.39936880898E+04  0.39239292699E+04 0.  0.
        3    1    3    3  502    0 -0.18336619018E+04 -0.42746893723E+03  0.18981106286E+03  0.18923725617E+04  0.10100000352E+00 0.  1.
       -3    1    3    3    0  502  0.18336619018E+04  0.42746893723E+03 -0.93299586056E+03  0.21013155281E+04  0.10100000352E+00 0. -1.
</event>
<event>
 5   0  0.1520986E-07  0.3902854E+04  0.7818609E-02  0.8024436E-01
        2   -1    0    0  501    0  0.00000000000E+00  0.00000000000E+00  0.17792963255E+04  0.17792963255E+04  0.25500000920E-02 0.  1.
       -2   -1    0    0    0  501  0.00000000000E+00  0.00000000000E+00 -0.21402097936E+04  0.21402097936E+04  0.25500000920E-02 0. -1.
    10030    2    1    2    0    0  0.00000000000E+00  0.00000000000E+00 -0.36091346818E+03  0.39195061191E+04  0.39028540437E+04 0.  0.
        4    1    3    3  502    0 -0.38339524018E+03  0.25555330661E+03  0.17238845037E+04  0.17843987216E+04  0.12699999809E+01 0.  1.
       -4    1    3    3    0  502  0.38339524018E+03 -0.25555330661E+03 -0.20847979718E+04  0.21351073975E+04  0.12699999809E+01 0. -1.
</event>
<event>
 5   0  0.1520986E-07  0.3892575E+04  0.7818609E-02  0.8026575E-01
        2   -1    0    0  501    0  0.00000000000E+00  0.00000000000E+00  0.18503584032E+04  0.18503584032E+04  0.25500000920E-02 0.  1.
       -2   -1    0    0    0  501  0.00000000000E+00  0.00000000000E+00 -0.20471902998E+04  0.20471902998E+04  0.25500000920E-02 0. -1.
    10030    2    1    2    0    0  0.00000000000E+00  0.00000000000E+00 -0.19683189665E+03  0.38975487030E+04  0.38925753810E+04 0.  0.
        4    1    3    3  502    0  0.17706209846E+04  0.71683499673E+03  0.27499897074E+03  0.19299163532E+04  0.12699999809E+01 0.  1.
       -4    1    3    3    0  502 -0.17706209846E+04 -0.71683499673E+03 -0.47183086739E+03  0.19676323498E+04  0.12699999809E+01 0. -1.
</event>
<event>
 5   0  0.4750125E-08  0.3835680E+04  0.7818609E-02  0.8038541E-01
       -1   -1    0    0    0  501  0.00000000000E+00  0.00000000000E+00  0.12504262369E+04  0.12504262369E+04  0.50400001928E-02 0.  1.
        1   -1    0    0  501    0  0.00000000000E+00  0.00000000000E+00 -0.29414856743E+04  0.29414856743E+04  0.50400001928E-02 0. -1.
    10030    2    1    2    0    0  0.00000000000E+00  0.00000000000E+00 -0.16910594374E+04  0.41919119112E+04  0.38356803113E+04 0.  0.
        4    1    3    3  502    0  0.10742900566E+04 -0.53787721530E+03  0.78819615288E+03  0.14368945030E+04  0.12699999809E+01 0.  1.
       -4    1    3    3    0  502 -0.10742900566E+04  0.53787721530E+03 -0.24792555903E+04  0.27550174082E+04  0.12699999809E+01 0. -1.
</event>
<event>
 5   0  0.1538018E-07  0.3911094E+04  0.7818609E-02  0.8022726E-01
        2   -1    0    0  501    0  0.00000000000E+00  0.00000000000E+00  0.15665140099E+04  0.15665140099E+04  0.25500000920E-02 0. -1.
       -2   -1    0    0    0  501  0.00000000000E+00  0.00000000000E+00 -0.24411942606E+04  0.24411942606E+04  0.25500000920E-02 0.  1.
    10030    2    1    2    0    0  0.00000000000E+00  0.00000000000E+00 -0.87468025074E+03  0.40077082705E+04  0.39110944811E+04 0.  0.
        1    1    3    3  502    0 -0.18816920444E+04 -0.13734430773E+01  0.10816183672E+03  0.18847986150E+04  0.50400001928E-02 0. -1.
       -1    1    3    3    0  502  0.18816920444E+04  0.13734430773E+01 -0.98284208746E+03  0.21229096555E+04  0.50400001928E-02 0.  1.
</event>
<event>
 5   0  0.4750125E-08  0.3922418E+04  0.7818609E-02  0.8020383E-01
        1   -1    0    0  501    0  0.00000000000E+00  0.00000000000E+00  0.21400398776E+04  0.21400398776E+04  0.50400001928E-02 0. -1.
       -1   -1    0    0    0  501  0.00000000000E+00  0.00000000000E+00 -0.17973221511E+04  0.17973221511E+04  0.50400001928E-02 0.  1.
    10030    2    1    2    0    0  0.00000000000E+00  0.00000000000E+00  0.34271772653E+03  0.39373620287E+04  0.39224181706E+04 0.  0.
        3    1    3    3  502    0  0.87217274023E+02 -0.19437304903E+04  0.41856116888E+03  0.19901981142E+04  0.10100000352E+00 0. -1.
       -3    1    3    3    0  502 -0.87217274023E+02  0.19437304903E+04 -0.75843442343E+02  0.19471639144E+04  0.10100000352E+00 0.  1.
</event>
<event>
 5   0  0.4750125E-08  0.3903633E+04  0.7818609E-02  0.8024274E-01
        3   -1    0    0  501    0  0.00000000000E+00  0.00000000000E+00  0.20980296953E+04  0.20980296977E+04  0.10100000352E+00 0. -1.
       -3   -1    0    0    0  501  0.00000000000E+00  0.00000000000E+00 -0.18157925584E+04  0.18157925613E+04  0.10100000352E+00 0.  1.
    10030    2    1    2    0    0  0.00000000000E+00  0.00000000000E+00  0.28223713685E+03  0.39138222590E+04  0.39036325229E+04 0.  0.
        1    1    3    3  502    0 -0.51745735114E+03 -0.12502064711E+04 -0.12692546174E+04  0.18552050060E+04  0.50400001928E-02 0.  1.
       -1    1    3    3    0  502  0.51745735114E+03  0.12502064711E+04  0.15514917542E+04  0.20586172529E+04  0.50400001928E-02 0. -1.
</event>
<event>
 5   0  0.1538018E-07  0.3860217E+04  0.7818609E-02  0.8033355E-01
        2   -1    0    0  501    0  0.00000000000E+00  0.00000000000E+00  0.18773774054E+04  0.18773774054E+04  0.25500000920E-02 0. -1.
       -2   -1    0    0    0  501  0.00000000000E+00  0.00000000000E+00 -0.19843209113E+04  0.19843209113E+04  0.25500000920E-02 0.  1.
    10030    2    1    2    0    0  0.00000000000E+00  0.00000000000E+00 -0.10694350585E+03  0.38616983167E+04  0.38602172187E+04 0.  0.
        1    1    3    3  502    0 -0.92393162407E+03 -0.16477296135E+04  0.34247894438E+03  0.19198839425E+04  0.50400001928E-02 0. -1.
       -1    1    3    3    0  502  0.92393162407E+03  0.16477296135E+04 -0.44942245023E+03  0.19418143742E+04  0.50400001928E-02 0.  1.
</event>
<event>
 5   0  0.4750125E-08  0.3442384E+04  0.7818609E-02  0.8127582E-01
        1   -1    0    0  501    0  0.00000000000E+00  0.00000000000E+00  0.14738149112E+04  0.14738149112E+04  0.50400001928E-02 0. -1.
       -1   -1    0    0    0  501  0.00000000000E+00  0.00000000000E+00 -0.20100905893E+04  0.20100905893E+04  0.50400001928E-02 0.  1.
    10030    2    1    2    0    0  0.00000000000E+00  0.00000000000E+00 -0.53627567805E+03  0.34839055005E+04  0.34423837575E+04 0.  0.
        5    1    3    3  502    0 -0.81136680427E+02 -0.60036502507E+03 -0.18986126396E+04  0.19929308491E+04  0.46999998093E+01 0.  1.
       -5    1    3    3    0  502  0.81136680427E+02  0.60036502507E+03  0.13623369615E+04  0.14909746514E+04  0.46999998093E+01 0. -1.
</event>
<event>
 5   0  0.4750125E-08  0.3896262E+04  0.7818609E-02  0.8025807E-01
       -1   -1    0    0    0  501  0.00000000000E+00  0.00000000000E+00  0.19920250670E+04  0.19920250670E+04  0.50400001928E-02 0.  1.
        1   -1    0    0  501    0  0.00000000000E+00  0.00000000000E+00 -0.19052044704E+04  0.19052044704E+04  0.50400001928E-02 0. -1.
    10030    2    1    2    0    0  0.00000000000E+00  0.00000000000E+00  0.86820596598E+02  0.38972295375E+04  0.38962623438E+04 0.  0.
        5    1    3    3  502    0 -0.48272678131E+03  0.79718952385E+03  0.17545823749E+04  0.19867354335E+04  0.46999998093E+01 0.  1.
       -5    1    3    3    0  502  0.48272678131E+03 -0.79718952385E+03 -0.16677617783E+04  0.19104941040E+04  0.46999998093E+01 0. -1.
</event>
<event>
 5   0  0.4750125E-08  0.3905527E+04  0.7818609E-02  0.8023881E-01
       -1   -1    0    0    0  501  0.00000000000E+00  0.00000000000E+00  0.14318496099E+04  0.14318496099E+04  0.50400001928E-02 0.  1.
        1   -1    0    0  501    0  0.00000000000E+00  0.00000000000E+00 -0.26631879220E+04  0.26631879220E+04  0.50400001928E-02 0. -1.
    10030    2    1    2    0    0  0.00000000000E+00  0.00000000000E+00 -0.12313383121E+04  0.40950375319E+04  0.39055266417E+04 0.  0.
        1    1    3    3  502    0 -0.16699105913E+04 -0.75001938182E+03 -0.13284757386E+04  0.22618528343E+04  0.50400001928E-02 0. -1.
       -1    1    3    3    0  502  0.16699105913E+04  0.75001938182E+03  0.97137426417E+02  0.18331846976E+04  0.50400001928E-02 0.  1.
</event>
<event>
 5   0  0.1501585E-07  0.3906483E+04  0.7818609E-02  0.8023682E-01
       -2   -1    0    0    0  501  0.00000000000E+00  0.00000000000E+00  0.17253150455E+04  0.17253150455E+04  0.25500000920E-02 0.  1.
        2   -1    0    0  501    0  0.00000000000E+00  0.00000000000E+00 -0.22112785283E+04  0.22112785283E+04  0.25500000920E-02 0. -1.
    10030    2    1    2    0    0  0.00000000000E+00  0.00000000000E+00 -0.48596348284E+03  0.39365935738E+04  0.39064828758E+04 0.  0.
        5    1    3    3  502    0 -0.43240914423E+03 -0.13916156844E+04 -0.15536057504E+04  0.21300903265E+04  0.46999998093E+01 0. -1.
       -5    1    3    3    0  502  0.43240914423E+03  0.13916156844E+04  0.10676422676E+04  0.18065032473E+04  0.46999998093E+01 0.  1.
</event>
<event>
 5   0  0.1538018E-07  0.3984541E+04  0.7818609E-02  0.8007672E-01
        2   -1    0    0  501    0  0.00000000000E+00  0.00000000000E+00  0.22677664143E+04  0.22677664143E+04  0.25500000920E-02 0. -1.
       -2   -1    0    0    0  501  0.00000000000E+00  0.00000000000E+00 -0.17502427297E+04  0.17502427297E+04  0.25500000920E-02 0.  1.
    10030    2    1    2    0    0  0.00000000000E+00  0.00000000000E+00  0.51752368459E+03  0.40180091440E+04  0.39845409669E+04 0.  0.
        1    1    3    3  502    0  0.98560093917E+03  0.87577766283E+01  0.20046784830E+04  0.22338804198E+04  0.50400001928E-02 0. -1.
       -1    1    3    3    0  502 -0.98560093917E+03 -0.87577766283E+01 -0.14871547984E+04  0.17841287242E+04  0.50400001928E-02 0.  1.
</event>
<event>
 5   0  0.4762788E-08  0.3886723E+04  0.7818609E-02  0.8027796E-01
        1   -1    0    0  501    0  0.00000000000E+00  0.00000000000E+00  0.21712042444E+04  0.21712042444E+04  0.50400001928E-02 0.  1.
       -1   -1    0    0    0  501  0.00000000000E+00  0.00000000000E+00 -0.17394282625E+04  0.17394282625E+04  0.50400001928E-02 0. -1.
    10030    2    1    2    0    0  0.00000000000E+00  0.00000000000E+00  0.43177598188E+03  0.39106325069E+04  0.38867230549E+04 0.  0.
        2    1    3    3  502    0  0.17894853597E+04 -0.27494031126E+03 -0.49471719539E+03  0.18768577812E+04  0.25500000920E-02 0.  1.
       -2    1    3    3    0  502 -0.17894853597E+04  0.27494031126E+03  0.92649317727E+03  0.20337747257E+04  0.25500000920E-02 0. -1.
</event>
<event>
 5   0  0.4750125E-08  0.3936280E+04  0.7818609E-02  0.8017526E-01
       -1   -1    0    0    0  501  0.00000000000E+00  0.00000000000E+00  0.16490200350E+04  0.16490200350E+04  0.50400001928E-02 0.  1.
        1   -1    0    0  501    0  0.00000000000E+00  0.00000000000E+00 -0.23490160267E+04  0.23490160267E+04  0.50400001928E-02 0. -1.
    10030    2    1    2    0    0  0.00000000000E+00  0.00000000000E+00 -0.69999599171E+03  0.39980360616E+04  0.39362797108E+04 0.  0.
        5    1    3    3  502    0 -0.10660322245E+04  0.17415744528E+03  0.13210487117E+04  0.17064428816E+04  0.46999998093E+01 0.  1.
       -5    1    3    3    0  502  0.10660322245E+04 -0.17415744528E+03 -0.20210447035E+04  0.22915931800E+04  0.46999998093E+01 0. -1.
</event>
<event>
 5   0  0.1503228E-07  0.3880376E+04  0.7818609E-02  0.8029123E-01
       -2   -1    0    0    0  501  0.00000000000E+00  0.00000000000E+00  0.24892120009E+04  0.24892120009E+04  0.25500000920E-02 0.  1.
        2   -1    0    0  501    0  0.00000000000E+00  0.00000000000E+00 -0.15122571013E+04  0.15122571013E+04  0.25500000920E-02 0. -1.
    10030    2    1    2    0    0  0.00000000000E+00  0.00000000000E+00  0.97695489963E+03  0.40014691022E+04  0.38803755102E+04 0.  0.
        3    1    3    3  502    0  0.97192248220E+03 -0.14804839673E+04 -0.32862772263E+03  0.18012390955E+04  0.10100000352E+00 0. -1.
       -3    1    3    3    0  502 -0.97192248220E+03  0.14804839673E+04  0.13055826223E+04  0.22002300067E+04  0.10100000352E+00 0.  1.
</event>
<event>
 5   0  0.1538018E-07  0.3901279E+04  0.7818609E-02  0.8024763E-01
       -2   -1    0    0    0  501  0.00000000000E+00  0.00000000000E+00  0.15889105115E+04  0.15889105115E+04  0.25500000920E-02 0.  1.
        2   -1    0    0  501    0  0.00000000000E+00  0.00000000000E+00 -0.23947197398E+04  0.23947197398E+04  0.25500000920E-02 0. -1.
    10030    2    1    2    0    0  0.00000000000E+00  0.00000000000E+00 -0.80580922831E+03  0.39836302513E+04  0.39012794653E+04 0.  0.
        1    1    3    3  502    0 -0.15700790923E+04  0.54834755833E+03  0.63800634566E+03  0.17812595257E+04  0.50400001928E-02 0.  1.
       -1    1    3    3    0  502  0.15700790923E+04 -0.54834755833E+03 -0.14438155740E+04  0.22023707255E+04  0.50400001928E-02 0. -1.
</event>
<event>
 5   0  0.4762788E-08  0.3911231E+04  0.7818609E-02  0.8022697E-01
       -1   -1    0    0    0  501  0.00000000000E+00  0.00000000000E+00  0.22163474562E+04  0.22163474562E+04  0.50400001928E-02 0.  1.
        1   -1    0    0  501    0  0.00000000000E+00  0.00000000000E+00 -0.17255564111E+04  0.17255564111E+04  0.50400001928E-02 0. -1.
    10030    2    1    2    0    0  0.00000000000E+00  0.00000000000E+00  0.49079104517E+03  0.39419038673E+04  0.39112312958E+04 0.  0.
        2    1    3    3  502    0  0.18329722362E+04  0.65228386996E+03  0.45926530238E+02  0.19461168290E+04  0.25500000920E-02 0. -1.
       -2    1    3    3    0  502 -0.18329722362E+04 -0.65228386996E+03  0.44486451493E+03  0.19957870383E+04  0.25500000920E-02 0.  1.
</event>
<event>
 5   0  0.4750125E-08  0.3889031E+04  0.7818609E-02  0.8027314E-01
        1   -1    0    0  501    0  0.00000000000E+00  0.00000000000E+00  0.18079583790E+04  0.18079583790E+04  0.50400001928E-02 0. -1.
       -1   -1    0    0    0  501  0.00000000000E+00  0.00000000000E+00 -0.20913871069E+04  0.20913871069E+04  0.50400001928E-02 0.  1.
    10030    2    1    2    0    0  0.00000000000E+00  0.00000000000E+00 -0.28342872788E+03  0.38993454859E+04  0.38890311614E+04 0.  0.
        5    1    3    3  502    0 -0.13720137709E+04 -0.22253087480E+03 -0.15051653536E+04  0.20487768569E+04  0.46999998093E+01 0.  1.
       -5    1    3    3    0  502  0.13720137709E+04  0.22253087480E+03  0.12217366257E+04  0.18505686289E+04  0.46999998093E+01 0. -1.
</event>
<event>
 5   0  0.4762788E-08  0.3923756E+04  0.7818609E-02  0.8020107E-01
       -1   -1    0    0    0  501  0.00000000000E+00  0.00000000000E+00  0.17484662803E+04  0.17484662803E+04  0.50400001928E-02 0. -1.
        1   -1    0    0  501    0  0.00000000000E+00  0.00000000000E+00 -0.22013378251E+04  0.22013378251E+04  0.50400001928E-02 0.  1.
    10030    2    1    2    0    0  0.00000000000E+00  0.00000000000E+00 -0.45287154474E+03  0.39498041054E+04  0.39237558327E+04 0.  0.
        2    1    3    3  502    0  0.71319646863E+03 -0.16236698120E+04 -0.10710602115E+04  0.20717439123E+04  0.25500000920E-02 0.  1.
       -2    1    3    3    0  502 -0.71319646863E+03  0.16236698120E+04  0.61818866673E+03  0.18780601931E+04  0.25500000920E-02 0. -1.
</event>
<event>
 5   0  0.4750125E-08  0.3916264E+04  0.7818609E-02  0.8021655E-01
        3   -1    0    0  501    0  0.00000000000E+00  0.00000000000E+00  0.16645986524E+04  0.16645986554E+04  0.10100000352E+00 0. -1.
       -3   -1    0    0    0  501  0.00000000000E+00  0.00000000000E+00 -0.23034269570E+04  0.23034269592E+04  0.10100000352E+00 0.  1.
    10030    2    1    2    0    0  0.00000000000E+00  0.00000000000E+00 -0.63882830465E+03  0.39680256146E+04  0.39162642500E+04 0.  0.
        4    1    3    3  502    0 -0.17026703056E+04 -0.93873433168E+03 -0.55480235168E+03  0.20219088944E+04  0.12699999809E+01 0. -1.
       -4    1    3    3    0  502  0.17026703056E+04  0.93873433168E+03 -0.84025952969E+02  0.19461167202E+04  0.12699999809E+01 0.  1.
</event>
<event>
 5   0  0.4762788E-08  0.3868333E+04  0.7818609E-02  0.8031648E-01
       -1   -1    0    0    0  501  0.00000000000E+00  0.00000000000E+00  0.26041331077E+04  0.26041331077E+04  0.50400001928E-02 0.  1.
        1   -1    0    0  501    0  0.00000000000E+00  0.00000000000E+00 -0.14365627028E+04  0.14365627028E+04  0.50400001928E-02 0. -1.
    10030    2    1    2    0    0  0.00000000000E+00  0.00000000000E+00  0.11675704049E+04  0.40406958105E+04  0.38683332306E+04 0.  0.
        2    1    3    3  502    0  0.17514814282E+04 -0.79771480083E+03  0.78461312830E+03  0.20783776986E+04  0.25500000920E-02 0.  1.
       -2    1    3    3    0  502 -0.17514814282E+04  0.79771480083E+03  0.38295727660E+03  0.19623181119E+04  0.25500000920E-02 0. -1.
</event>
<event>
 5   0  0.1503228E-07  0.3881210E+04  0.7818609E-02  0.8028949E-01
       -2   -1    0    0    0  501  0.00000000000E+00  0.00000000000E+00  0.14419581888E+04  0.14419581888E+04  0.25500000920E-02 0.  1.
        2   -1    0    0  501    0  0.00000000000E+00  0.00000000000E+00 -0.26116895351E+04  0.26116895351E+04  0.25500000920E-02 0. -1.
    10030    2    1    2    0    0  0.00000000000E+00  0.00000000000E+00 -0.11697313463E+04  0.40536477240E+04  0.38812096629E+04 0.  0.
        3    1    3    3  502    0  0.21054751960E+03 -0.14281911753E+04  0.76962894173E+03  0.16359673008E+04  0.10100000352E+00 0.  1.
       -3    1    3    3    0  502 -0.21054751960E+03  0.14281911753E+04 -0.19393602880E+04  0.24176804231E+04  0.10100000352E+00 0. -1.
</event>
<event>
 5   0  0.1546846E-07  0.3895282E+04  0.7818609E-02  0.8026011E-01
       -2   -1    0    0    0  501  0.00000000000E+00  0.00000000000E+00  0.15296287600E+04  0.15296287600E+04  0.25500000920E-02 0.  1.
        2   -1    0    0  501    0  0.00000000000E+00  0.00000000000E+00 -0.24798869020E+04  0.24798869020E+04  0.25500000920E-02 0. -1.
    10030    2    1    2    0    0  0.00000000000E+00  0.00000000000E+00 -0.95025814191E+03  0.40095156620E+04  0.38952824426E+04 0.  0.
        2    1    3    3  502    0 -0.17987048060E+04  0.46529892957E+02  0.29225563131E+03  0.18228870958E+04  0.25500000920E-02 0.  1.
       -2    1    3    3    0  502  0.17987048060E+04 -0.46529892957E+02 -0.12425137732E+04  0.21866285662E+04  0.25500000920E-02 0. -1.
</event>
<event>
 5   0  0.1538018E-07  0.3914014E+04  0.7818609E-02  0.8022121E-01
        2   -1    0    0  501    0  0.00000000000E+00  0.00000000000E+00  0.22816361098E+04  0.22816361098E+04  0.25500000920E-02 0. -1.
       -2   -1    0    0    0  501  0.00000000000E+00  0.00000000000E+00 -0.16785659030E+04  0.16785659030E+04  0.25500000920E-02 0.  1.
    10030    2    1    2    0    0  0.00000000000E+00  0.00000000000E+00  0.60307020677E+03  0.39602020128E+04  0.39140140914E+04 0.  0.
        1    1    3    3  502    0 -0.10491792858E+04 -0.26173343311E+03  0.19519165840E+04  0.22314255342E+04  0.50400001928E-02 0. -1.
       -1    1    3    3    0  502  0.10491792858E+04  0.26173343311E+03 -0.13488463772E+04  0.17287764786E+04  0.50400001928E-02 0.  1.
</event>
<event>
 5   0  0.4762788E-08  0.3908804E+04  0.7818609E-02  0.8023201E-01
       -1   -1    0    0    0  501  0.00000000000E+00  0.00000000000E+00  0.26705165479E+04  0.26705165479E+04  0.50400001928E-02 0.  1.
        1   -1    0    0  501    0  0.00000000000E+00  0.00000000000E+00 -0.14303176823E+04  0.14303176823E+04  0.50400001928E-02 0. -1.
    10030    2    1    2    0    0  0.00000000000E+00  0.00000000000E+00  0.12401988656E+04  0.41008342302E+04  0.39088039292E+04 0.  0.
        2    1    3    3  502    0  0.16788344041E+04  0.56951340704E+03  0.14832303030E+04  0.23114503259E+04  0.25500000920E-02 0. -1.
       -2    1    3    3    0  502 -0.16788344041E+04 -0.56951340704E+03 -0.24303143742E+03  0.17893839043E+04  0.25500000920E-02 0.  1.
</event>
<event>
 5   0  0.1520986E-07  0.3913068E+04  0.7818609E-02  0.8022317E-01
        2   -1    0    0  501    0  0.00000000000E+00  0.00000000000E+00  0.30611729176E+04  0.30611729176E+04  0.25500000920E-02 0.  1.
       -2   -1    0    0    0  501  0.00000000000E+00  0.00000000000E+00 -0.12505090591E+04  0.12505090591E+04  0.25500000920E-02 0. -1.
    10030    2    1    2    0    0  0.00000000000E+00  0.00000000000E+00  0.18106638585E+04  0.43116819766E+04  0.39130675766E+04 0.  0.
        4    1    3    3  502    0 -0.14875922124E+04 -0.30621331922E+01 -0.49498642069E+03  0.15677860621E+04  0.12699999809E+01 0. -1.
       -4    1    3    3    0  502  0.14875922124E+04  0.30621331922E+01  0.23056502792E+04  0.27438959145E+04  0.12699999809E+01 0.  1.
</event>
<event>
 5   0  0.4750125E-08  0.3918223E+04  0.7818609E-02  0.8021250E-01
        1   -1    0    0  501    0  0.00000000000E+00  0.00000000000E+00  0.16584968518E+04  0.16584968518E+04  0.50400001928E-02 0.  1.
       -1   -1    0    0    0  501  0.00000000000E+00  0.00000000000E+00 -0.23142147897E+04  0.23142147897E+04  0.50400001928E-02 0. -1.
    10030    2    1    2    0    0  0.00000000000E+00  0.00000000000E+00 -0.65571793794E+03  0.39727116415E+04  0.39182230376E+04 0.  0.
        1    1    3    3  502    0  0.72116819322E+03 -0.16041022941E+04  0.54721350393E+03  0.18419202892E+04  0.50400001928E-02 0. -1.
       -1    1    3    3    0  502 -0.72116819322E+03  0.16041022941E+04 -0.12029314419E+04  0.21307913522E+04  0.50400001928E-02 0.  1.
</event>
<event>
 5   0  0.4750125E-08  0.3913321E+04  0.7818609E-02  0.8022264E-01
        1   -1    0    0  501    0  0.00000000000E+00  0.00000000000E+00  0.30569268946E+04  0.30569268946E+04  0.50400001928E-02 0. -1.
       -1   -1    0    0    0  501  0.00000000000E+00  0.00000000000E+00 -0.12524083216E+04  0.12524083216E+04  0.50400001928E-02 0.  1.
    10030    2    1    2    0    0  0.00000000000E+00  0.00000000000E+00  0.18045185730E+04  0.43093352163E+04  0.39133211887E+04 0.  0.
        4    1    3    3  502    0 -0.14793104660E+04  0.29505792308E+02 -0.50765447442E+03  0.15642713079E+04  0.12699999809E+01 0.  1.
       -4    1    3    3    0  502  0.14793104660E+04 -0.29505792308E+02  0.23121730474E+04  0.27450639083E+04  0.12699999809E+01 0. -1.
</event>
<event>
 5   0  0.1503228E-07  0.3922868E+04  0.7818609E-02  0.8020290E-01
        2   -1    0    0  501    0  0.00000000000E+00  0.00000000000E+00  0.24145278747E+04  0.24145278747E+04  0.25500000920E-02 0.  1.
       -2   -1    0    0    0  501  0.00000000000E+00  0.00000000000E+00 -0.15933643142E+04  0.15933643142E+04  0.25500000920E-02 0. -1.
    10030    2    1    2    0    0  0.00000000000E+00  0.00000000000E+00  0.82116356050E+03  0.40078921890E+04  0.39228675998E+04 0.  0.
        3    1    3    3  502    0 -0.17185699156E+04  0.21414575422E+03 -0.53018068360E+03  0.18111964351E+04  0.10100000352E+00 0. -1.
       -3    1    3    3    0  502  0.17185699156E+04 -0.21414575422E+03  0.13513442441E+04  0.21966957539E+04  0.10100000352E+00 0.  1.
</event>
<event>
 5   0  0.4750125E-08  0.3967670E+04  0.7818609E-02  0.8011100E-01
       -1   -1    0    0    0  501  0.00000000000E+00  0.00000000000E+00  0.20009096818E+04  0.20009096818E+04  0.50400001928E-02 0.  1.
        1   -1    0    0  501    0  0.00000000000E+00  0.00000000000E+00 -0.19669064960E+04  0.19669064960E+04  0.50400001928E-02 0. -1.
    10030    2    1    2    0    0  0.00000000000E+00  0.00000000000E+00  0.34003185734E+02  0.39678161778E+04  0.39676704758E+04 0.  0.
        5    1    3    3  502    0  0.71355162640E+02 -0.75719617492E+03  0.18493195574E+04  0.19996105926E+04  0.46999998093E+01 0.  1.
       -5    1    3    3    0  502 -0.71355162640E+02  0.75719617492E+03 -0.18153163717E+04  0.19682055852E+04  0.46999998093E+01 0. -1.
</event>
<event>
 5   0  0.1503228E-07  0.3892575E+04  0.7818609E-02  0.8026575E-01
       -2   -1    0    0    0  501  0.00000000000E+00  0.00000000000E+00  0.18544678391E+04  0.18544678391E+04  0.25500000920E-02 0. -1.
        2   -1    0    0  501    0  0.00000000000E+00  0.00000000000E+00 -0.20426536236E+04  0.20426536236E+04  0.25500000920E-02 0.  1.
    10030    2    1    2    0    0  0.00000000000E+00  0.00000000000E+00 -0.18818578453E+03  0.38971214627E+04  0.38925752152E+04 0.  0.
        3    1    3    3  502    0 -0.90477167494E+03 -0.15473311211E+04  0.66520573461E+03  0.19118954108E+04  0.10100000352E+00 0. -1.
       -3    1    3    3    0  502  0.90477167494E+03  0.15473311211E+04 -0.85339151914E+03  0.19852260519E+04  0.10100000352E+00 0.  1.
</event>
<event>
 5   0  0.4750125E-08  0.3885310E+04  0.7818609E-02  0.8028091E-01
        1   -1    0    0  501    0  0.00000000000E+00  0.00000000000E+00  0.17273519322E+04  0.17273519322E+04  0.50400001928E-02 0. -1.
       -1   -1    0    0    0  501  0.00000000000E+00  0.00000000000E+00 -0.21847938274E+04  0.21847938275E+04  0.50400001928E-02 0.  1.
    10030    2    1    2    0    0  0.00000000000E+00  0.00000000000E+00 -0.45744189525E+03  0.39121457597E+04  0.38853096861E+04 0.  0.
        1    1    3    3  502    0 -0.18852669304E+04  0.15984497826E+03  0.21491963369E+03  0.19041985886E+04  0.50400001928E-02 0. -1.
       -1    1    3    3    0  502  0.18852669304E+04 -0.15984497826E+03 -0.67236152894E+03  0.20079471710E+04  0.50400001928E-02 0.  1.
</event>
<event>
 5   0  0.4750125E-08  0.3933209E+04  0.7818609E-02  0.8018158E-01
        3   -1    0    0  501    0  0.00000000000E+00  0.00000000000E+00  0.24305289806E+04  0.24305289827E+04  0.10100000352E+00 0. -1.
       -3   -1    0    0    0  501  0.00000000000E+00  0.00000000000E+00 -0.15912312547E+04  0.15912312579E+04  0.10100000352E+00 0.  1.
    10030    2    1    2    0    0  0.00000000000E+00  0.00000000000E+00  0.83929772593E+03  0.40217602407E+04  0.39332092190E+04 0.  0.
        1    1    3    3  502    0  0.14913661508E+04  0.62638316046E+03  0.15633133121E+04  0.22495504820E+04  0.50400001928E-02 0. -1.
       -1    1    3    3    0  502 -0.14913661508E+04 -0.62638316046E+03 -0.72401558612E+03  0.17722097586E+04  0.50400001928E-02 0.  1.
</event>
<event>
 5   0  0.1501585E-07  0.3940480E+04  0.7818609E-02  0.8016662E-01
        2   -1    0    0  501    0  0.00000000000E+00  0.00000000000E+00  0.27920079873E+04  0.27920079873E+04  0.25500000920E-02 0. -1.
       -2   -1    0    0    0  501  0.00000000000E+00  0.00000000000E+00 -0.13903419559E+04  0.13903419559E+04  0.25500000920E-02 0.  1.
    10030    2    1    2    0    0  0.00000000000E+00  0.00000000000E+00  0.14016660313E+04  0.41823499432E+04  0.39404800956E+04 0.  0.
        5    1    3    3  502    0  0.12409227480E+04  0.86156147673E+02 -0.92086224974E+03  0.15476826294E+04  0.46999998093E+01 0.  1.
       -5    1    3    3    0  502 -0.12409227480E+04 -0.86156147673E+02  0.23225282811E+04  0.26346673138E+04  0.46999998093E+01 0. -1.
</event>
<event>
 5   0  0.4750125E-08  0.3882033E+04  0.7818609E-02  0.8028776E-01
        1   -1    0    0  501    0  0.00000000000E+00  0.00000000000E+00  0.33459777426E+04  0.33459777426E+04  0.50400001928E-02 0.  1.
       -1   -1    0    0    0  501  0.00000000000E+00  0.00000000000E+00 -0.11259923694E+04  0.11259923694E+04  0.50400001928E-02 0. -1.
    10030    2    1    2    0    0  0.00000000000E+00  0.00000000000E+00  0.22199853732E+04  0.44719701120E+04  0.38820331820E+04 0.  0.
        1    1    3    3  502    0 -0.81877784796E+02  0.66251804522E+03 -0.98959329006E+03  0.11937039045E+04  0.50400001928E-02 0. -1.
       -1    1    3    3    0  502  0.81877784796E+02 -0.66251804522E+03  0.32095786632E+04  0.32782662075E+04  0.50400001928E-02 0.  1.
</event>
<event>
 5   0  0.1501585E-07  0.3878654E+04  0.7818609E-02  0.8029483E-01
       -2   -1    0    0    0  501  0.00000000000E+00  0.00000000000E+00  0.22287133670E+04  0.22287133671E+04  0.25500000920E-02 0. -1.
        2   -1    0    0  501    0  0.00000000000E+00  0.00000000000E+00 -0.16875159691E+04  0.16875159691E+04  0.25500000920E-02 0.  1.
    10030    2    1    2    0    0  0.00000000000E+00  0.00000000000E+00  0.54119739796E+03  0.39162293361E+04  0.38786540951E+04 0.  0.
        5    1    3    3  502    0 -0.44895931374E+03 -0.49787769503E+03 -0.15667889786E+04  0.17041996532E+04  0.46999998093E+01 0.  1.
       -5    1    3    3    0  502  0.44895931374E+03  0.49787769503E+03  0.21079863765E+04  0.22120296829E+04  0.46999998093E+01 0. -1.
</event>
<event>
 5   0  0.4762788E-08  0.3905876E+04  0.7818609E-02  0.8023808E-01
        1   -1    0    0  501    0  0.00000000000E+00  0.00000000000E+00  0.18379848678E+04  0.18379848678E+04  0.50400001928E-02 0.  1.
       -1   -1    0    0    0  501  0.00000000000E+00  0.00000000000E+00 -0.20750806680E+04  0.20750806680E+04  0.50400001928E-02 0. -1.
    10030    2    1    2    0    0  0.00000000000E+00  0.00000000000E+00 -0.23709580019E+03  0.39130655358E+04  0.39058760182E+04 0.  0.
        2    1    3    3  502    0 -0.23170805298E+03  0.13114329193E+04 -0.15496105950E+04  0.20432420120E+04  0.25500000920E-02 0. -1.
       -2    1    3    3    0  502  0.23170805298E+03 -0.13114329193E+04  0.13125147948E+04  0.18698235238E+04  0.25500000920E-02 0.  1.
</event>
<event>
 5   0  0.4750125E-08  0.3958026E+04  0.7818609E-02  0.8013068E-01
        1   -1    0    0  501    0  0.00000000000E+00  0.00000000000E+00  0.20768913523E+04  0.20768913523E+04  0.50400001928E-02 0. -1.
       -1   -1    0    0    0  501  0.00000000000E+00  0.00000000000E+00 -0.18857473863E+04  0.18857473863E+04  0.50400001928E-02 0.  1.
    10030    2    1    2    0    0  0.00000000000E+00  0.00000000000E+00  0.19114396601E+03  0.39626387385E+04  0.39580259924E+04 0.  0.
        3    1    3    3  502    0 -0.43213257078E+03  0.62271957724E+03 -0.17346652466E+04  0.18930350653E+04  0.10100000352E+00 0.  1.
       -3    1    3    3    0  502  0.43213257078E+03 -0.62271957724E+03  0.19258092126E+04  0.20696036732E+04  0.10100000352E+00 0. -1.
</event>
<event>
 5   0  0.4750125E-08  0.3907345E+04  0.7818609E-02  0.8023503E-01
       -1   -1    0    0    0  501  0.00000000000E+00  0.00000000000E+00  0.21724430750E+04  0.21724430750E+04  0.50400001928E-02 0. -1.
        1   -1    0    0  501    0  0.00000000000E+00  0.00000000000E+00 -0.17569328258E+04  0.17569328258E+04  0.50400001928E-02 0.  1.
    10030    2    1    2    0    0  0.00000000000E+00  0.00000000000E+00  0.41551024917E+03  0.39293759008E+04  0.39073451604E+04 0.  0.
        5    1    3    3  502    0  0.12179583006E+04  0.12049124854E+04  0.11519728689E+04  0.20645338700E+04  0.46999998093E+01 0. -1.
       -5    1    3    3    0  502 -0.12179583006E+04 -0.12049124854E+04 -0.73646261973E+03  0.18648420308E+04  0.46999998093E+01 0.  1.
</event>
<event>
 5   0  0.1546846E-07  0.3724263E+04  0.7818609E-02  0.8062606E-01
        2   -1    0    0  501    0  0.00000000000E+00  0.00000000000E+00  0.17769572089E+04  0.17769572089E+04  0.25500000920E-02 0.  1.
       -2   -1    0    0    0  501  0.00000000000E+00  0.00000000000E+00 -0.19513885668E+04  0.19513885668E+04  0.25500000920E-02 0. -1.
    10030    2    1    2    0    0  0.00000000000E+00  0.00000000000E+00 -0.17443135788E+03  0.37283457758E+04  0.37242631385E+04 0.  0.
        2    1    3    3  502    0  0.95920023718E+03  0.18115481479E+03 -0.16747194109E+04  0.19384445484E+04  0.25500000920E-02 0. -1.
       -2    1    3    3    0  502 -0.95920023718E+03 -0.18115481479E+03  0.15002880530E+04  0.17899012274E+04  0.25500000920E-02 0.  1.
</event>
<event>
 5   0  0.1538018E-07  0.3884066E+04  0.7818609E-02  0.8028351E-01
        2   -1    0    0  501    0  0.00000000000E+00  0.00000000000E+00  0.20255969559E+04  0.20255969559E+04  0.25500000920E-02 0. -1.
       -2   -1    0    0    0  501  0.00000000000E+00  0.00000000000E+00 -0.18619165098E+04  0.18619165098E+04  0.25500000920E-02 0.  1.
    10030    2    1    2    0    0  0.00000000000E+00  0.00000000000E+00  0.16368044610E+03  0.38875134658E+04  0.38840661243E+04 0.  0.
        1    1    3    3  502    0 -0.13914293801E+04 -0.13111123460E+04 -0.25963866148E+03  0.19293790551E+04  0.50400001928E-02 0.  1.
       -1    1    3    3    0  502  0.13914293801E+04  0.13111123460E+04  0.42331910758E+03  0.19581344107E+04  0.50400001928E-02 0. -1.
</event>
<event>
 5   0  0.4750125E-08  0.3904602E+04  0.7818609E-02  0.8024073E-01
       -1   -1    0    0    0  501  0.00000000000E+00  0.00000000000E+00  0.16056652781E+04  0.16056652781E+04  0.50400001928E-02 0.  1.
        1   -1    0    0  501    0  0.00000000000E+00  0.00000000000E+00 -0.23737692368E+04  0.23737692368E+04  0.50400001928E-02 0. -1.
    10030    2    1    2    0    0  0.00000000000E+00  0.00000000000E+00 -0.76810395871E+03  0.39794345149E+04  0.39046018192E+04 0.  0.
        1    1    3    3  502    0  0.67761155732E+03 -0.12333152289E+04  0.99512188231E+03  0.17235113684E+04  0.50400001928E-02 0.  1.
       -1    1    3    3    0  502 -0.67761155732E+03  0.12333152289E+04 -0.17632258410E+04  0.22559231465E+04  0.50400001928E-02 0. -1.
</event>
<event>
 5   0  0.4750125E-08  0.3509178E+04  0.7818609E-02  0.8111618E-01
       -1   -1    0    0    0  501  0.00000000000E+00  0.00000000000E+00  0.12548757598E+04  0.12548757598E+04  0.50400001928E-02 0.  1.
        1   -1    0    0  501    0  0.00000000000E+00  0.00000000000E+00 -0.24532966840E+04  0.24532966840E+04  0.50400001928E-02 0. -1.
    10030    2    1    2    0    0  0.00000000000E+00  0.00000000000E+00 -0.11984209242E+04  0.37081724438E+04  0.35091779895E+04 0.  0.
        3    1    3    3  502    0  0.54785824439E+03  0.93338390639E+03  0.86012747734E+03  0.13824519739E+04  0.10100000352E+00 0.  1.
       -3    1    3    3    0  502 -0.54785824439E+03 -0.93338390639E+03 -0.20585484015E+04  0.23257204699E+04  0.10100000352E+00 0. -1.
</event>
<event>
 5   0  0.4750125E-08  0.3809382E+04  0.7818609E-02  0.8044144E-01
       -1   -1    0    0    0  501  0.00000000000E+00  0.00000000000E+00  0.14768426580E+04  0.14768426580E+04  0.50400001928E-02 0. -1.
        1   -1    0    0  501    0  0.00000000000E+00  0.00000000000E+00 -0.24564896226E+04  0.24564896226E+04  0.50400001928E-02 0.  1.
    10030    2    1    2    0    0  0.00000000000E+00  0.00000000000E+00 -0.97964696454E+03  0.39333322806E+04  0.38093824505E+04 0.  0.
        3    1    3    3  502    0 -0.71732849348E+03 -0.21311634683E+03  0.13187015714E+04  0.15162297284E+04  0.10100000352E+00 0. -1.
       -3    1    3    3    0  502  0.71732849348E+03  0.21311634683E+03 -0.22983485359E+04  0.24171025522E+04  0.10100000352E+00 0.  1.
</event>
<event>
 5   0  0.4750125E-08  0.3853058E+04  0.7818609E-02  0.8034864E-01
        1   -1    0    0  501    0  0.00000000000E+00  0.00000000000E+00  0.19068527273E+04  0.19068527273E+04  0.50400001928E-02 0.  1.
       -1   -1    0    0    0  501  0.00000000000E+00  0.00000000000E+00 -0.19464078558E+04  0.19464078558E+04  0.50400001928E-02 0. -1.
    10030    2    1    2    0    0  0.00000000000E+00  0.00000000000E+00 -0.39555128542E+02  0.38532605831E+04  0.38530575539E+04 0.  0.
        4    1    3    3  502    0 -0.31716101744E+03 -0.28054852925E+03  0.18597397097E+04  0.19073363596E+04  0.12699999809E+01 0.  1.
       -4    1    3    3    0  502  0.31716101744E+03  0.28054852925E+03 -0.18992948382E+04  0.19459242235E+04  0.12699999809E+01 0. -1.
</event>
<event>
 5   0  0.1538018E-07  0.3900571E+04  0.7818609E-02  0.8024910E-01
       -2   -1    0    0    0  501  0.00000000000E+00  0.00000000000E+00  0.26703651669E+04  0.26703651669E+04  0.25500000920E-02 0. -1.
        2   -1    0    0  501    0  0.00000000000E+00  0.00000000000E+00 -0.14243794451E+04  0.14243794451E+04  0.25500000920E-02 0.  1.
    10030    2    1    2    0    0  0.00000000000E+00  0.00000000000E+00  0.12459857218E+04  0.40947446120E+04  0.39005708581E+04 0.  0.
        1    1    3    3  502    0  0.32154849378E+03  0.26603665130E+03  0.26229409240E+04  0.26559344917E+04  0.50400001928E-02 0. -1.
       -1    1    3    3    0  502 -0.32154849378E+03 -0.26603665130E+03 -0.13769552021E+04  0.14388101203E+04  0.50400001928E-02 0.  1.
</event>
<event>
 5   0  0.1503228E-07  0.3895516E+04  0.7818609E-02  0.8025963E-01
       -2   -1    0    0    0  501  0.00000000000E+00  0.00000000000E+00  0.16135495050E+04  0.16135495050E+04  0.25500000920E-02 0. -1.
        2   -1    0    0  501    0  0.00000000000E+00  0.00000000000E+00 -0.23511894211E+04  0.23511894211E+04  0.25500000920E-02 0.  1.
    10030    2    1    2    0    0  0.00000000000E+00  0.00000000000E+00 -0.73763991604E+03  0.39647389261E+04  0.38955156406E+04 0.  0.
        3    1    3    3  502    0 -0.18003356536E+04 -0.72364050006E+03 -0.54183031212E+03  0.20145580499E+04  0.10100000352E+00 0. -1.
       -3    1    3    3    0  502  0.18003356536E+04  0.72364050006E+03 -0.19580960393E+03  0.19501808763E+04  0.10100000352E+00 0.  1.
</event>
<event>
 5   0  0.4750125E-08  0.3884014E+04  0.7818609E-02  0.8028362E-01
        1   -1    0    0  501    0  0.00000000000E+00  0.00000000000E+00  0.22710375188E+04  0.22710375188E+04  0.50400001928E-02 0.  1.
       -1   -1    0    0    0  501  0.00000000000E+00  0.00000000000E+00 -0.16606464631E+04  0.16606464631E+04  0.50400001928E-02 0. -1.
    10030    2    1    2    0    0  0.00000000000E+00  0.00000000000E+00  0.61039105573E+03  0.39316839819E+04  0.38840136061E+04 0.  0.
        3    1    3    3  502    0 -0.18641971425E+04 -0.54123497117E+03  0.36267388005E+03  0.19747654630E+04  0.10100000352E+00 0.  1.
       -3    1    3    3    0  502  0.18641971425E+04  0.54123497117E+03  0.24771717568E+03  0.19569185189E+04  0.10100000352E+00 0. -1.
</event>
<event>
 5   0  0.1520986E-07  0.3908245E+04  0.7818609E-02  0.8023317E-01
       -2   -1    0    0    0  501  0.00000000000E+00  0.00000000000E+00  0.27607510479E+04  0.27607510479E+04  0.25500000920E-02 0. -1.
        2   -1    0    0  501    0  0.00000000000E+00  0.00000000000E+00 -0.13831726553E+04  0.13831726553E+04  0.25500000920E-02 0.  1.
    10030    2    1    2    0    0  0.00000000000E+00  0.00000000000E+00  0.13775783926E+04  0.41439237032E+04  0.39082453134E+04 0.  0.
        4    1    3    3  502    0  0.48833256378E+03  0.11386284102E+04 -0.91351416630E+03  0.15393027949E+04  0.12699999809E+01 0.  1.
       -4    1    3    3    0  502 -0.48833256378E+03 -0.11386284102E+04  0.22910925589E+04  0.26046209083E+04  0.12699999809E+01 0. -1.
</event>
<event>
 5   0  0.4750125E-08  0.3898159E+04  0.7818609E-02  0.8025412E-01
       -1   -1    0    0    0  501  0.00000000000E+00  0.00000000000E+00  0.25779737059E+04  0.25779737059E+04  0.50400001928E-02 0. -1.
        1   -1    0    0  501    0  0.00000000000E+00  0.00000000000E+00 -0.14736035499E+04  0.14736035499E+04  0.50400001928E-02 0.  1.
    10030    2    1    2    0    0  0.00000000000E+00  0.00000000000E+00  0.11043701559E+04  0.40515772558E+04  0.38981591577E+04 0.  0.
        5    1    3    3  502    0 -0.66556076485E+03 -0.10873445904E+04  0.20845222703E+04  0.24434697820E+04  0.46999998093E+01 0. -1.
       -5    1    3    3    0  502  0.66556076485E+03  0.10873445904E+04 -0.98015211437E+03  0.16081074738E+04  0.46999998093E+01 0.  1.
</event>
<event>
 5   0  0.4750125E-08  0.3913021E+04  0.7818609E-02  0.8022327E-01
       -1   -1    0    0    0  501  0.00000000000E+00  0.00000000000E+00  0.14645015078E+04  0.14645015078E+04  0.50400001928E-02 0.  1.
        1   -1    0    0  501    0  0.00000000000E+00  0.00000000000E+00 -0.26138131953E+04  0.26138131953E+04  0.50400001928E-02 0. -1.
    10030    2    1    2    0    0  0.00000000000E+00  0.00000000000E+00 -0.11493116875E+04  0.40783147031E+04  0.39130210149E+04 0.  0.
        5    1    3    3  502    0 -0.18838366397E+04  0.35572174371E+03 -0.16760353599E+03  0.19244457590E+04  0.46999998093E+01 0. -1.
       -5    1    3    3    0  502  0.18838366397E+04 -0.35572174371E+03 -0.98170815147E+03  0.21538689442E+04  0.46999998093E+01 0.  1.
</event>
<event>
 5   0  0.1501585E-07  0.3846084E+04  0.7818609E-02  0.8036337E-01
        2   -1    0    0  501    0  0.00000000000E+00  0.00000000000E+00  0.21550349999E+04  0.21550350000E+04  0.25500000920E-02 0. -1.
       -2   -1    0    0    0  501  0.00000000000E+00  0.00000000000E+00 -0.17160236038E+04  0.17160236038E+04  0.25500000920E-02 0.  1.
    10030    2    1    2    0    0  0.00000000000E+00  0.00000000000E+00  0.43901139612E+03  0.38710586038E+04  0.38460842045E+04 0.  0.
        5    1    3    3  502    0  0.21361617493E+03 -0.18861068711E+04 -0.90778194274E+02  0.19003404353E+04  0.46999998093E+01 0.  1.
       -5    1    3    3    0  502 -0.21361617493E+03  0.18861068711E+04  0.52978959039E+03  0.19707181685E+04  0.46999998093E+01 0. -1.
</event>
<event>
 5   0  0.4750125E-08  0.3441890E+04  0.7818609E-02  0.8127701E-01
       -1   -1    0    0    0  501  0.00000000000E+00  0.00000000000E+00  0.16587232714E+04  0.16587232714E+04  0.50400001928E-02 0. -1.
        1   -1    0    0  501    0  0.00000000000E+00  0.00000000000E+00 -0.17855005237E+04  0.17855005237E+04  0.50400001928E-02 0.  1.
    10030    2    1    2    0    0  0.00000000000E+00  0.00000000000E+00 -0.12677725229E+03  0.34442237951E+04  0.34418897541E+04 0.  0.
        4    1    3    3  502    0 -0.10893232656E+04  0.13068370836E+04 -0.32279658645E+03  0.17316603562E+04  0.12699999809E+01 0.  1.
       -4    1    3    3    0  502  0.10893232656E+04 -0.13068370836E+04  0.19601933416E+03  0.17125634389E+04  0.12699999809E+01 0. -1.
</event>
<event>
 5   0  0.4750125E-08  0.4181492E+04  0.7818609E-02  0.7968902E-01
        1   -1    0    0  501    0  0.00000000000E+00  0.00000000000E+00  0.18567182238E+04  0.18567182238E+04  0.50400001928E-02 0.  1.
       -1   -1    0    0    0  501  0.00000000000E+00  0.00000000000E+00 -0.23542720736E+04  0.23542720736E+04  0.50400001928E-02 0. -1.
    10030    2    1    2    0    0  0.00000000000E+00  0.00000000000E+00 -0.49755384981E+03  0.42109902974E+04  0.41814924909E+04 0.  0.
        3    1    3    3  502    0  0.91369837744E+03  0.17265272881E+04 -0.99933898160E+03  0.21941785734E+04  0.10100000352E+00 0. -1.
       -3    1    3    3    0  502 -0.91369837744E+03 -0.17265272881E+04  0.50178513179E+03  0.20168117240E+04  0.10100000352E+00 0.  1.
</event>
<event>
 5   0  0.1546846E-07  0.3893933E+04  0.7818609E-02  0.8026292E-01
        2   -1    0    0  501    0  0.00000000000E+00  0.00000000000E+00  0.19799016527E+04  0.19799016527E+04  0.25500000920E-02 0. -1.
       -2   -1    0    0    0  501  0.00000000000E+00  0.00000000000E+00 -0.19145793333E+04  0.19145793333E+04  0.25500000920E-02 0.  1.
    10030    2    1    2    0    0  0.00000000000E+00  0.00000000000E+00  0.65322319419E+02  0.38944809860E+04  0.38939331203E+04 0.  0.
        2    1    3    3  502    0 -0.15375230110E+04  0.10753406842E+04 -0.48735832888E+03  0.19385181808E+04  0.25500000920E-02 0. -1.
       -2    1    3    3    0  502  0.15375230110E+04 -0.10753406842E+04  0.55268064830E+03  0.19559628052E+04  0.25500000920E-02 0.  1.
</event>
<event>
 5   0  0.4750125E-08  0.3920406E+04  0.7818609E-02  0.8020798E-01
       -1   -1    0    0    0  501  0.00000000000E+00  0.00000000000E+00  0.21433644698E+04  0.21433644698E+04  0.50400001928E-02 0. -1.
        1   -1    0    0  501    0  0.00000000000E+00  0.00000000000E+00 -0.17926939220E+04  0.17926939220E+04  0.50400001928E-02 0.  1.
    10030    2    1    2    0    0  0.00000000000E+00  0.00000000000E+00  0.35067054776E+03  0.39360583918E+04  0.39204063349E+04 0.  0.
        1    1    3    3  502    0 -0.17827898849E+04  0.13200350762E+03 -0.63200936443E+03  0.18961014046E+04  0.50400001928E-02 0.  1.
       -1    1    3    3    0  502  0.17827898849E+04 -0.13200350762E+03  0.98267991219E+03  0.20399569872E+04  0.50400001928E-02 0. -1.
</event>
<event>
 5   0  0.1538018E-07  0.3983472E+04  0.7818609E-02  0.8007889E-01
        2   -1    0    0  501    0  0.00000000000E+00  0.00000000000E+00  0.18546896996E+04  0.18546896996E+04  0.25500000920E-02 0. -1.
       -2   -1    0    0    0  501  0.00000000000E+00  0.00000000000E+00 -0.21389092990E+04  0.21389092990E+04  0.25500000920E-02 0.  1.
    10030    2    1    2    0    0  0.00000000000E+00  0.00000000000E+00 -0.28421959934E+03  0.39935989986E+04  0.39834723773E+04 0.  0.
        1    1    3    3  502    0  0.11592003897E+04 -0.96094659296E+03 -0.14492068531E+04  0.20898240120E+04  0.50400001928E-02 0.  1.
       -1    1    3    3    0  502 -0.11592003897E+04  0.96094659296E+03  0.11649872538E+04  0.19037749866E+04  0.50400001928E-02 0. -1.
</event>
<event>
 5   0  0.4762788E-08  0.3895175E+04  0.7818609E-02  0.8026034E-01
       -1   -1    0    0    0  501  0.00000000000E+00  0.00000000000E+00  0.16070040920E+04  0.16070040920E+04  0.50400001928E-02 0.  1.
        1   -1    0    0  501    0  0.00000000000E+00  0.00000000000E+00 -0.23603527946E+04  0.23603527946E+04  0.50400001928E-02 0. -1.
    10030    2    1    2    0    0  0.00000000000E+00  0.00000000000E+00 -0.75334870262E+03  0.39673568865E+04  0.38951747583E+04 0.  0.
        2    1    3    3  502    0  0.14972056840E+04 -0.11692862329E+04 -0.81386210425E+03  0.20666946266E+04  0.25500000920E-02 0.  1.
       -2    1    3    3    0  502 -0.14972056840E+04  0.11692862329E+04  0.60513401634E+02  0.19006622600E+04  0.25500000920E-02 0. -1.
</event>
<event>
 5   0  0.4750125E-08  0.3895345E+04  0.7818609E-02  0.8025998E-01
       -1   -1    0    0    0  501  0.00000000000E+00  0.00000000000E+00  0.18033400181E+04  0.18033400181E+04  0.50400001928E-02 0. -1.
        1   -1    0    0  501    0  0.00000000000E+00  0.00000000000E+00 -0.21035562707E+04  0.21035562707E+04  0.50400001928E-02 0.  1.
    10030    2    1    2    0    0  0.00000000000E+00  0.00000000000E+00 -0.30021625263E+03  0.39068962889E+04  0.38953445051E+04 0.  0.
        4    1    3    3  502    0  0.70958313449E+03 -0.10157901738E+04  0.13570416429E+04  0.18376347666E+04  0.12699999809E+01 0. -1.
       -4    1    3    3    0  502 -0.70958313449E+03  0.10157901738E+04 -0.16572578956E+04  0.20692615222E+04  0.12699999809E+01 0.  1.
</event>
<event>
 5   0  0.1503228E-07  0.3923615E+04  0.7818609E-02  0.8020136E-01
        2   -1    0    0  501    0  0.00000000000E+00  0.00000000000E+00  0.32592220350E+04  0.32592220350E+04  0.25500000920E-02 0. -1.
       -2   -1    0    0    0  501  0.00000000000E+00  0.00000000000E+00 -0.11808612333E+04  0.11808612333E+04  0.25500000920E-02 0.  1.
    10030    2    1    2    0    0  0.00000000000E+00  0.00000000000E+00  0.20783608017E+04  0.44400832684E+04  0.39236151453E+04 0.  0.
        3    1    3    3  502    0 -0.14549244342E+04  0.36495944686E+03  0.24700057616E+04  0.28897973942E+04  0.10100000352E+00 0. -1.
       -3    1    3    3    0  502  0.14549244342E+04 -0.36495944686E+03 -0.39164495988E+03  0.15502858742E+04  0.10100000352E+00 0.  1.
</event>
<event>
 5   0  0.4750125E-08  0.3622052E+04  0.7818609E-02  0.8085459E-01
       -1   -1    0    0    0  501  0.00000000000E+00  0.00000000000E+00  0.13847856252E+04  0.13847856253E+04  0.50400001928E-02 0. -1.
        1   -1    0    0  501    0  0.00000000000E+00  0.00000000000E+00 -0.23684642384E+04  0.23684642384E+04  0.50400001928E-02 0.  1.
    10030    2    1    2    0    0  0.00000000000E+00  0.00000000000E+00 -0.98367861313E+03  0.37532498636E+04  0.36220520323E+04 0.  0.
        3    1    3    3  502    0  0.10234758359E+04 -0.87525238977E+03 -0.17465863086E+04  0.22054780153E+04  0.10100000352E+00 0.  1.
       -3    1    3    3    0  502 -0.10234758359E+04  0.87525238977E+03  0.76290769544E+03  0.15477718483E+04  0.10100000352E+00 0. -1.
</event>
<event>
 5   0  0.1546846E-07  0.3913588E+04  0.7818609E-02  0.8022209E-01
       -2   -1    0    0    0  501  0.00000000000E+00  0.00000000000E+00  0.16762387823E+04  0.16762387824E+04  0.25500000920E-02 0.  1.
        2   -1    0    0  501    0  0.00000000000E+00  0.00000000000E+00 -0.22843064538E+04  0.22843064539E+04  0.25500000920E-02 0. -1.
    10030    2    1    2    0    0  0.00000000000E+00  0.00000000000E+00 -0.60806767150E+03  0.39605452362E+04  0.39135881586E+04 0.  0.
        2    1    3    3  502    0  0.43392952543E+03 -0.14471948036E+04  0.95442011331E+03  0.17870605433E+04  0.25500000920E-02 0.  1.
       -2    1    3    3    0  502 -0.43392952543E+03  0.14471948036E+04 -0.15624877848E+04  0.21734846929E+04  0.25500000920E-02 0. -1.
</event>
<event>
 5   0  0.1503228E-07  0.3894597E+04  0.7818609E-02  0.8026154E-01
        2   -1    0    0  501    0  0.00000000000E+00  0.00000000000E+00  0.20559418469E+04  0.20559418469E+04  0.25500000920E-02 0.  1.
       -2   -1    0    0    0  501  0.00000000000E+00  0.00000000000E+00 -0.18443959079E+04  0.18443959079E+04  0.25500000920E-02 0. -1.
    10030    2    1    2    0    0  0.00000000000E+00  0.00000000000E+00  0.21154593899E+03  0.39003377548E+04  0.38945966309E+04 0.  0.
        3    1    3    3  502    0 -0.43487710652E+03 -0.89533334169E+03  0.17819279883E+04  0.20410799240E+04  0.10100000352E+00 0.  1.
       -3    1    3    3    0  502  0.43487710652E+03  0.89533334169E+03 -0.15703820493E+04  0.18592578308E+04  0.10100000352E+00 0. -1.
</event>
<event>
 5   0  0.1546846E-07  0.3898430E+04  0.7818609E-02  0.8025356E-01
       -2   -1    0    0    0  501  0.00000000000E+00  0.00000000000E+00  0.15578989134E+04  0.15578989134E+04  0.25500000920E-02 0.  1.
        2   -1    0    0  501    0  0.00000000000E+00  0.00000000000E+00 -0.24388230983E+04  0.24388230983E+04  0.25500000920E-02 0. -1.
    10030    2    1    2    0    0  0.00000000000E+00  0.00000000000E+00 -0.88092418493E+03  0.39967220117E+04  0.38984303789E+04 0.  0.
        2    1    3    3  502    0  0.11382685061E+04  0.41834171480E+03 -0.20049705416E+04  0.23431969305E+04  0.25500000920E-02 0. -1.
       -2    1    3    3    0  502 -0.11382685061E+04 -0.41834171480E+03  0.11240463567E+04  0.16535250812E+04  0.25500000920E-02 0.  1.
</event>
<event>
 5   0  0.1546846E-07  0.3916963E+04  0.7818609E-02  0.8021510E-01
        2   -1    0    0  501    0  0.00000000000E+00  0.00000000000E+00  0.15356722225E+04  0.15356722225E+04  0.25500000920E-02 0.  1.
       -2   -1    0    0    0  501  0.00000000000E+00  0.00000000000E+00 -0.24977013111E+04  0.24977013111E+04  0.25500000920E-02 0. -1.
    10030    2    1    2    0    0  0.00000000000E+00  0.00000000000E+00 -0.96202908867E+03  0.40333735336E+04  0.39169633767E+04 0.  0.
        2    1    3    3  502    0  0.83503259073E+02 -0.19552108575E+04 -0.40240281642E+03  0.19979365151E+04  0.25500000920E-02 0. -1.
       -2    1    3    3    0  502 -0.83503259073E+02  0.19552108575E+04 -0.55962627225E+03  0.20354370185E+04  0.25500000920E-02 0.  1.
</event>
<event>
 5   0  0.4750125E-08  0.3910024E+04  0.7818609E-02  0.8022948E-01
       -3   -1    0    0    0  501  0.00000000000E+00  0.00000000000E+00  0.20215094032E+04  0.20215094057E+04  0.10100000352E+00 0.  1.
        3   -1    0    0  501    0  0.00000000000E+00  0.00000000000E+00 -0.18907023397E+04  0.18907023424E+04  0.10100000352E+00 0. -1.
    10030    2    1    2    0    0  0.00000000000E+00  0.00000000000E+00  0.13080706347E+03  0.39122117482E+04  0.39100243317E+04 0.  0.
        2    1    3    3  502    0  0.45734297695E+02 -0.16946266880E+04  0.10397148629E+04  0.19886825372E+04  0.25500000920E-02 0.  1.
       -2    1    3    3    0  502 -0.45734297695E+02  0.16946266880E+04 -0.90890779942E+03  0.19235292110E+04  0.25500000920E-02 0. -1.
</event>
<event>
 5   0  0.4750125E-08  0.3886885E+04  0.7818609E-02  0.8027762E-01
       -1   -1    0    0    0  501  0.00000000000E+00  0.00000000000E+00  0.20972007879E+04  0.20972007879E+04  0.50400001928E-02 0. -1.
        1   -1    0    0  501    0  0.00000000000E+00  0.00000000000E+00 -0.18009567688E+04  0.18009567688E+04  0.50400001928E-02 0.  1.
    10030    2    1    2    0    0  0.00000000000E+00  0.00000000000E+00  0.29624401911E+03  0.38981575567E+04  0.38868845903E+04 0.  0.
        1    1    3    3  502    0 -0.31734008639E+03  0.51527276174E+03  0.20003018182E+04  0.20898368628E+04  0.50400001928E-02 0. -1.
       -1    1    3    3    0  502  0.31734008639E+03 -0.51527276174E+03 -0.17040577991E+04  0.18083206939E+04  0.50400001928E-02 0.  1.
</event>
<event>
 5   0  0.1546846E-07  0.3871838E+04  0.7818609E-02  0.8030912E-01
        2   -1    0    0  501    0  0.00000000000E+00  0.00000000000E+00  0.21040708247E+04  0.21040708247E+04  0.25500000920E-02 0.  1.
       -2   -1    0    0    0  501  0.00000000000E+00  0.00000000000E+00 -0.17812055001E+04  0.17812055001E+04  0.25500000920E-02 0. -1.
    10030    2    1    2    0    0  0.00000000000E+00  0.00000000000E+00  0.32286532464E+03  0.38852763248E+04  0.38718380780E+04 0.  0.
        2    1    3    3  502    0 -0.13592645243E+04  0.47488019377E+03  0.14600150587E+04  0.20505499792E+04  0.25500000920E-02 0.  1.
       -2    1    3    3    0  502  0.13592645243E+04 -0.47488019377E+03 -0.11371497341E+04  0.18347263456E+04  0.25500000920E-02 0. -1.
</event>
<event>
 5   0  0.1546846E-07  0.3925267E+04  0.7818609E-02  0.8019795E-01
       -2   -1    0    0    0  501  0.00000000000E+00  0.00000000000E+00  0.13789078988E+04  0.13789078988E+04  0.25500000920E-02 0. -1.
        2   -1    0    0  501    0  0.00000000000E+00  0.00000000000E+00 -0.27934644392E+04  0.27934644392E+04  0.25500000920E-02 0.  1.
    10030    2    1    2    0    0  0.00000000000E+00  0.00000000000E+00 -0.14145565404E+04  0.41723723379E+04  0.39252669617E+04 0.  0.
        2    1    3    3  502    0 -0.45689750060E+03 -0.16809898429E+04 -0.16683237201E+04  0.24120087506E+04  0.25500000920E-02 0. -1.
       -2    1    3    3    0  502  0.45689750060E+03  0.16809898429E+04  0.25376717967E+03  0.17603635873E+04  0.25500000920E-02 0.  1.
</event>
<event>
 5   0  0.1503228E-07  0.3901513E+04  0.7818609E-02  0.8024715E-01
       -2   -1    0    0    0  501  0.00000000000E+00  0.00000000000E+00  0.22624509412E+04  0.22624509412E+04  0.25500000920E-02 0. -1.
        2   -1    0    0  501    0  0.00000000000E+00  0.00000000000E+00 -0.16820033390E+04  0.16820033390E+04  0.25500000920E-02 0.  1.
    10030    2    1    2    0    0  0.00000000000E+00  0.00000000000E+00  0.58044760213E+03  0.39444542802E+04  0.39015125464E+04 0.  0.
        3    1    3    3  502    0  0.14169643105E+04 -0.52941462310E+03 -0.95515488699E+03  0.17889629870E+04  0.10100000352E+00 0.  1.
       -3    1    3    3    0  502 -0.14169643105E+04  0.52941462310E+03  0.15356024891E+04  0.21554912932E+04  0.10100000352E+00 0. -1.
</event>
<event>
 5   0  0.4762788E-08  0.3902125E+04  0.7818609E-02  0.8024587E-01
       -1   -1    0    0    0  501  0.00000000000E+00  0.00000000000E+00  0.19895079905E+04  0.19895079905E+04  0.50400001928E-02 0.  1.
        1   -1    0    0  501    0  0.00000000000E+00  0.00000000000E+00 -0.19133598776E+04  0.19133598776E+04  0.50400001928E-02 0. -1.
    10030    2    1    2    0    0  0.00000000000E+00  0.00000000000E+00  0.76148112897E+02  0.39028678680E+04  0.39021249417E+04 0.  0.
        2    1    3    3  502    0 -0.48334866669E+03  0.15920760705E+03 -0.18458109671E+04  0.19146778115E+04  0.25500000920E-02 0. -1.
       -2    1    3    3    0  502  0.48334866669E+03 -0.15920760705E+03  0.19219590800E+04  0.19881900565E+04  0.25500000920E-02 0.  1.
</event>
<event>
 5   0  0.4750125E-08  0.3883324E+04  0.7818609E-02  0.8028506E-01
        1   -1    0    0  501    0  0.00000000000E+00  0.00000000000E+00  0.19048108075E+04  0.19048108075E+04  0.50400001928E-02 0.  1.
       -1   -1    0    0    0  501  0.00000000000E+00  0.00000000000E+00 -0.19792261709E+04  0.19792261709E+04  0.50400001928E-02 0. -1.
    10030    2    1    2    0    0  0.00000000000E+00  0.00000000000E+00 -0.74415363413E+02  0.38840369785E+04  0.38833240405E+04 0.  0.
        1    1    3    3  502    0  0.61794771383E+02  0.10168013643E+04 -0.16904926378E+04  0.19736942435E+04  0.50400001928E-02 0. -1.
       -1    1    3    3    0  502 -0.61794771383E+02 -0.10168013643E+04  0.16160772744E+04  0.19103427350E+04  0.50400001928E-02 0.  1.
</event>
<event>
 5   0  0.1546846E-07  0.3905699E+04  0.7818609E-02  0.8023845E-01
       -2   -1    0    0    0  501  0.00000000000E+00  0.00000000000E+00  0.16542663876E+04  0.16542663876E+04  0.25500000920E-02 0.  1.
        2   -1    0    0  501    0  0.00000000000E+00  0.00000000000E+00 -0.23053250830E+04  0.23053250830E+04  0.25500000920E-02 0. -1.
    10030    2    1    2    0    0  0.00000000000E+00  0.00000000000E+00 -0.65105869535E+03  0.39595914706E+04  0.39056993214E+04 0.  0.
        2    1    3    3  502    0 -0.13094145850E+04  0.61568333050E+03  0.10040505604E+04  0.17611785959E+04  0.25500000920E-02 0.  1.
       -2    1    3    3    0  502  0.13094145850E+04 -0.61568333050E+03 -0.16551092558E+04  0.21984128746E+04  0.25500000920E-02 0. -1.
</event>
<event>
 5   0  0.1501585E-07  0.3933236E+04  0.7818609E-02  0.8018152E-01
       -2   -1    0    0    0  501  0.00000000000E+00  0.00000000000E+00  0.28858218739E+04  0.28858218739E+04  0.25500000920E-02 0.  1.
        2   -1    0    0  501    0  0.00000000000E+00  0.00000000000E+00 -0.13402029013E+04  0.13402029013E+04  0.25500000920E-02 0. -1.
    10030    2    1    2    0    0  0.00000000000E+00  0.00000000000E+00  0.15456189726E+04  0.42260247752E+04  0.39332362492E+04 0.  0.
        5    1    3    3  502    0  0.17945555461E+04  0.37639411544E+00 -0.91520246863E+02  0.17968939299E+04  0.46999998093E+01 0. -1.
       -5    1    3    3    0  502 -0.17945555461E+04 -0.37639411544E+00  0.16371392195E+04  0.24291308453E+04  0.46999998093E+01 0.  1.
</event>
<event>
 5   0  0.4762788E-08  0.3900049E+04  0.7818609E-02  0.8025019E-01
       -1   -1    0    0    0  501  0.00000000000E+00  0.00000000000E+00  0.15431335982E+04  0.15431335982E+04  0.50400001928E-02 0.  1.
        1   -1    0    0  501    0  0.00000000000E+00  0.00000000000E+00 -0.24642035980E+04  0.24642035980E+04  0.50400001928E-02 0. -1.
    10030    2    1    2    0    0  0.00000000000E+00  0.00000000000E+00 -0.92106999976E+03  0.40073371962E+04  0.39000489048E+04 0.  0.
        2    1    3    3  502    0  0.35195167223E+03  0.12653263184E+04 -0.19416016732E+04  0.23440856915E+04  0.25500000920E-02 0. -1.
       -2    1    3    3    0  502 -0.35195167223E+03 -0.12653263184E+04  0.10205316734E+04  0.16632515048E+04  0.25500000920E-02 0.  1.
</event>
<event>
 5   0  0.4750125E-08  0.3957946E+04  0.7818609E-02  0.8013084E-01
       -1   -1    0    0    0  501  0.00000000000E+00  0.00000000000E+00  0.16781785771E+04  0.16781785771E+04  0.50400001928E-02 0. -1.
        1   -1    0    0  501    0  0.00000000000E+00  0.00000000000E+00 -0.23336816991E+04  0.23336816991E+04  0.50400001928E-02 0.  1.
    10030    2    1    2    0    0  0.00000000000E+00  0.00000000000E+00 -0.65550312198E+03  0.40118602762E+04  0.39579462519E+04 0.  0.
        5    1    3    3  502    0 -0.12820636311E+04  0.11701645050E+04  0.63563731764E+03  0.18485207634E+04  0.46999998093E+01 0. -1.
       -5    1    3    3    0  502  0.12820636311E+04 -0.11701645050E+04 -0.12911404396E+04  0.21633395129E+04  0.46999998093E+01 0.  1.
</event>
<event>
 5   0  0.1520986E-07  0.3919058E+04  0.7818609E-02  0.8021077E-01
       -2   -1    0    0    0  501  0.00000000000E+00  0.00000000000E+00  0.20157783363E+04  0.20157783363E+04  0.25500000920E-02 0. -1.
        2   -1    0    0  501    0  0.00000000000E+00  0.00000000000E+00 -0.19048490826E+04  0.19048490826E+04  0.25500000920E-02 0.  1.
    10030    2    1    2    0    0  0.00000000000E+00  0.00000000000E+00  0.11092925371E+03  0.39206274190E+04  0.39190578025E+04 0.  0.
        4    1    3    3  502    0  0.47081920543E+03 -0.70680417346E+03 -0.17111727207E+04  0.19103289133E+04  0.12699999809E+01 0.  1.
       -4    1    3    3    0  502 -0.47081920543E+03  0.70680417346E+03  0.18221019744E+04  0.20102985057E+04  0.12699999809E+01 0. -1.
</event>
<event>
 5   0  0.4750125E-08  0.3944901E+04  0.7818609E-02  0.8015755E-01
        1   -1    0    0  501    0  0.00000000000E+00  0.00000000000E+00  0.19750273130E+04  0.19750273131E+04  0.50400001928E-02 0. -1.
       -1   -1    0    0    0  501  0.00000000000E+00  0.00000000000E+00 -0.19698768936E+04  0.19698768937E+04  0.50400001928E-02 0.  1.
    10030    2    1    2    0    0  0.00000000000E+00  0.00000000000E+00  0.51504194020E+01  0.39449042067E+04  0.39449008445E+04 0.  0.
        3    1    3    3  502    0  0.91686663065E+03 -0.40463023233E+02 -0.17433584029E+04  0.19701726335E+04  0.10100000352E+00 0.  1.
       -3    1    3    3    0  502 -0.91686663065E+03  0.40463023233E+02  0.17485088223E+04  0.19747315732E+04  0.10100000352E+00 0. -1.
</event>
<event>
 5   0  0.4762788E-08  0.3809225E+04  0.7818609E-02  0.8044178E-01
        1   -1    0    0  501    0  0.00000000000E+00  0.00000000000E+00  0.18077552826E+04  0.18077552826E+04  0.50400001928E-02 0.  1.
       -1   -1    0    0    0  501  0.00000000000E+00  0.00000000000E+00 -0.20066592797E+04  0.20066592797E+04  0.50400001928E-02 0. -1.
    10030    2    1    2    0    0  0.00000000000E+00  0.00000000000E+00 -0.19890399703E+03  0.38144145623E+04  0.38092250725E+04 0.  0.
        2    1    3    3  502    0 -0.56024123341E+03  0.54948910750E+03  0.16383489281E+04  0.18165890369E+04  0.25500000920E-02 0.  1.
       -2    1    3    3    0  502  0.56024123341E+03 -0.54948910750E+03 -0.18372529251E+04  0.19978255254E+04  0.25500000920E-02 0. -1.
</event>
<event>
 5   0  0.1546846E-07  0.3892880E+04  0.7818609E-02  0.8026512E-01
        2   -1    0    0  501    0  0.00000000000E+00  0.00000000000E+00  0.20411519025E+04  0.20411519025E+04  0.25500000920E-02 0. -1.
       -2   -1    0    0    0  501  0.00000000000E+00  0.00000000000E+00 -0.18561230728E+04  0.18561230728E+04  0.25500000920E-02 0.  1.
    10030    2    1    2    0    0  0.00000000000E+00  0.00000000000E+00  0.18502882976E+03  0.38972749753E+04  0.38928802403E+04 0.  0.
        2    1    3    3  502    0 -0.10755427683E+04  0.14453462412E+04 -0.64507449915E+03  0.19136193751E+04  0.25500000920E-02 0.  1.
       -2    1    3    3    0  502  0.10755427683E+04 -0.14453462412E+04  0.83010332892E+03  0.19836556002E+04  0.25500000920E-02 0. -1.
</event>
<event>
 5   0  0.1501585E-07  0.3933726E+04  0.7818609E-02  0.8018051E-01
        2   -1    0    0  501    0  0.00000000000E+00  0.00000000000E+00  0.24666448840E+04  0.24666448840E+04  0.25500000920E-02 0. -1.
       -2   -1    0    0    0  501  0.00000000000E+00  0.00000000000E+00 -0.15683445938E+04  0.15683445938E+04  0.25500000920E-02 0.  1.
    10030    2    1    2    0    0  0.00000000000E+00  0.00000000000E+00  0.89830029025E+03  0.40349894778E+04  0.39337255464E+04 0.  0.
        5    1    3    3  502    0  0.15262116928E+04 -0.10483009047E+04 -0.23145930718E+03  0.18659722450E+04  0.46999998093E+01 0.  1.
       -5    1    3    3    0  502 -0.15262116928E+04  0.10483009047E+04  0.11297595974E+04  0.21690172328E+04  0.46999998093E+01 0. -1.
</event>
<event>
 5   0  0.4750125E-08  0.3873416E+04  0.7818609E-02  0.8030581E-01
        1   -1    0    0  501    0  0.00000000000E+00  0.00000000000E+00  0.24148077857E+04  0.24148077857E+04  0.50400001928E-02 0. -1.
       -1   -1    0    0    0  501  0.00000000000E+00  0.00000000000E+00 -0.15532653902E+04  0.15532653902E+04  0.50400001928E-02 0.  1.
    10030    2    1    2    0    0  0.00000000000E+00  0.00000000000E+00  0.86154239545E+03  0.39680731759E+04  0.38734157316E+04 0.  0.
        4    1    3    3  502    0 -0.92223755588E+03  0.26809409561E+03  0.21536668834E+04  0.23581092450E+04  0.12699999809E+01 0. -1.
       -4    1    3    3    0  502  0.92223755588E+03 -0.26809409561E+03 -0.12921244880E+04  0.16099639309E+04  0.12699999809E+01 0.  1.
</event>
<event>
 5   0  0.1501585E-07  0.3885839E+04  0.7818609E-02  0.8027981E-01
        2   -1    0    0  501    0  0.00000000000E+00  0.00000000000E+00  0.23103889840E+04  0.23103889840E+04  0.25500000920E-02 0.  1.
       -2   -1    0    0    0  501  0.00000000000E+00  0.00000000000E+00 -0.16338963922E+04  0.16338963922E+04  0.25500000920E-02 0. -1.
    10030    2    1    2    0    0  0.00000000000E+00  0.00000000000E+00  0.67649259175E+03  0.39442853762E+04  0.38858390216E+04 0.  0.
        5    1    3    3  502    0 -0.11363149736E+04  0.25513078678E+03 -0.12403333873E+04  0.17013972021E+04  0.46999998093E+01 0. -1.
       -5    1    3    3    0  502  0.11363149736E+04 -0.25513078678E+03  0.19168259790E+04  0.22428881741E+04  0.46999998093E+01 0.  1.
</event>
<event>
 5   0  0.4750125E-08  0.3906664E+04  0.7818609E-02  0.8023645E-01
       -1   -1    0    0    0  501  0.00000000000E+00  0.00000000000E+00  0.16604086194E+04  0.16604086194E+04  0.50400001928E-02 0. -1.
        1   -1    0    0  501    0  0.00000000000E+00  0.00000000000E+00 -0.22979320201E+04  0.22979320201E+04  0.50400001928E-02 0.  1.
    10030    2    1    2    0    0  0.00000000000E+00  0.00000000000E+00 -0.63752340071E+03  0.39583406395E+04  0.39066641181E+04 0.  0.
        3    1    3    3  502    0  0.99633742162E+03 -0.14427639006E+04  0.55358575988E+03  0.18386715678E+04  0.10100000352E+00 0. -1.
       -3    1    3    3    0  502 -0.99633742162E+03  0.14427639006E+04 -0.11911091606E+04  0.21196690716E+04  0.10100000352E+00 0.  1.
</event>
<event>
 5   0  0.1546846E-07  0.3914394E+04  0.7818609E-02  0.8022042E-01
        2   -1    0    0  501    0  0.00000000000E+00  0.00000000000E+00  0.34209737338E+04  0.34209737338E+04  0.25500000920E-02 0. -1.
       -2   -1    0    0    0  501  0.00000000000E+00  0.00000000000E+00 -0.11197454440E+04  0.11197454440E+04  0.25500000920E-02 0.  1.
    10030    2    1    2    0    0  0.00000000000E+00  0.00000000000E+00  0.23012282898E+04  0.45407191778E+04  0.39143938240E+04 0.  0.
        2    1    3    3  502    0  0.16992093261E+04  0.59944308938E+03  0.20370705920E+04  0.27196141175E+04  0.25500000920E-02 0. -1.
       -2    1    3    3    0  502 -0.16992093261E+04 -0.59944308938E+03  0.26415769778E+03  0.18211050603E+04  0.25500000920E-02 0.  1.
</event>
<event>
 5   0  0.1503228E-07  0.3889527E+04  0.7818609E-02  0.8027211E-01
        2   -1    0    0  501    0  0.00000000000E+00  0.00000000000E+00  0.19702128409E+04  0.19702128409E+04  0.25500000920E-02 0. -1.
       -2   -1    0    0    0  501  0.00000000000E+00  0.00000000000E+00 -0.19196428286E+04  0.19196428286E+04  0.25500000920E-02 0.  1.
    10030    2    1    2    0    0  0.00000000000E+00  0.00000000000E+00  0.50570012282E+02  0.38898556694E+04  0.38895269382E+04 0.  0.
        3    1    3    3  502    0  0.17638476852E+04 -0.18619957199E+03 -0.77245151701E+03  0.19345568726E+04  0.10100000352E+00 0.  1.
       -3    1    3    3    0  502 -0.17638476852E+04  0.18619957199E+03  0.82302152929E+03  0.19552987968E+04  0.10100000352E+00 0. -1.
</event>
<event>
 5   0  0.1538018E-07  0.4002805E+04  0.7818609E-02  0.8003981E-01
       -2   -1    0    0    0  501  0.00000000000E+00  0.00000000000E+00  0.22569968503E+04  0.22569968503E+04  0.25500000920E-02 0. -1.
        2   -1    0    0  501    0  0.00000000000E+00  0.00000000000E+00 -0.17747527573E+04  0.17747527573E+04  0.25500000920E-02 0.  1.
    10030    2    1    2    0    0  0.00000000000E+00  0.00000000000E+00  0.48224409300E+03  0.40317496075E+04  0.40028047083E+04 0.  0.
        1    1    3    3  502    0  0.78049482996E+02  0.13563818958E+04 -0.12391129641E+04  0.18388214995E+04  0.50400001928E-02 0.  1.
       -1    1    3    3    0  502 -0.78049482996E+02 -0.13563818958E+04  0.17213570571E+04  0.21929281081E+04  0.50400001928E-02 0. -1.
</event>
<event>
 5   0  0.4750125E-08  0.3902010E+04  0.7818609E-02  0.8024611E-01
        1   -1    0    0  501    0  0.00000000000E+00  0.00000000000E+00  0.23310316371E+04  0.23310316371E+04  0.50400001928E-02 0.  1.
       -1   -1    0    0    0  501  0.00000000000E+00  0.00000000000E+00 -0.16329337684E+04  0.16329337684E+04  0.50400001928E-02 0. -1.
    10030    2    1    2    0    0  0.00000000000E+00  0.00000000000E+00  0.69809786873E+03  0.39639654056E+04  0.39020098798E+04 0.  0.
        1    1    3    3  502    0 -0.74613761768E+03 -0.11453703940E+04  0.17632098642E+04  0.22310319830E+04  0.50400001928E-02 0.  1.
       -1    1    3    3    0  502  0.74613761768E+03  0.11453703940E+04 -0.10651119955E+04  0.17329334225E+04  0.50400001928E-02 0. -1.
</event>
<event>
 5   0  0.1503228E-07  0.3859084E+04  0.7818609E-02  0.8033593E-01
        2   -1    0    0  501    0  0.00000000000E+00  0.00000000000E+00  0.24154933075E+04  0.24154933075E+04  0.25500000920E-02 0. -1.
       -2   -1    0    0    0  501  0.00000000000E+00  0.00000000000E+00 -0.15413552285E+04  0.15413552285E+04  0.25500000920E-02 0.  1.
    10030    2    1    2    0    0  0.00000000000E+00  0.00000000000E+00  0.87413807900E+03  0.39568485360E+04  0.38590844712E+04 0.  0.
        3    1    3    3  502    0 -0.18317218371E+04 -0.34376127843E+03  0.94948607735E+03  0.20916262875E+04  0.10100000352E+00 0.  1.
       -3    1    3    3    0  502  0.18317218371E+04  0.34376127843E+03 -0.75347998345E+02  0.18652222485E+04  0.10100000352E+00 0. -1.
</event>
<event>
 5   0  0.4750125E-08  0.3883988E+04  0.7818609E-02  0.8028368E-01
       -1   -1    0    0    0  501  0.00000000000E+00  0.00000000000E+00  0.21019733094E+04  0.21019733094E+04  0.50400001928E-02 0.  1.
        1   -1    0    0  501    0  0.00000000000E+00  0.00000000000E+00 -0.17941908156E+04  0.17941908156E+04  0.50400001928E-02 0. -1.
    10030    2    1    2    0    0  0.00000000000E+00  0.00000000000E+00  0.30778249377E+03  0.38961641250E+04  0.38839882628E+04 0.  0.
        4    1    3    3  502    0  0.16858848174E+04 -0.37208069721E+03  0.10458851566E+04  0.20185462681E+04  0.12699999809E+01 0.  1.
       -4    1    3    3    0  502 -0.16858848174E+04  0.37208069721E+03 -0.73810266286E+03  0.18776178569E+04  0.12699999809E+01 0. -1.
</event>
<event>
 5   0  0.1501585E-07  0.3860754E+04  0.7818609E-02  0.8033241E-01
       -2   -1    0    0    0  501  0.00000000000E+00  0.00000000000E+00  0.20032672221E+04  0.20032672221E+04  0.25500000920E-02 0. -1.
        2   -1    0    0  501    0  0.00000000000E+00  0.00000000000E+00 -0.18601389556E+04  0.18601389556E+04  0.25500000920E-02 0.  1.
    10030    2    1    2    0    0  0.00000000000E+00  0.00000000000E+00  0.14312826643E+03  0.38634061777E+04  0.38607540188E+04 0.  0.
        5    1    3    3  502    0 -0.19205460974E+04 -0.69068770289E+02 -0.11039999949E+03  0.19249618327E+04  0.46999998093E+01 0. -1.
       -5    1    3    3    0  502  0.19205460974E+04  0.69068770289E+02  0.25352826592E+03  0.19384443451E+04  0.46999998093E+01 0.  1.
</event>
<event>
 5   0  0.4750125E-08  0.3892635E+04  0.7818609E-02  0.8026563E-01
        1   -1    0    0  501    0  0.00000000000E+00  0.00000000000E+00  0.22774240812E+04  0.22774240812E+04  0.50400001928E-02 0.  1.
       -1   -1    0    0    0  501  0.00000000000E+00  0.00000000000E+00 -0.16633491181E+04  0.16633491181E+04  0.50400001928E-02 0. -1.
    10030    2    1    2    0    0  0.00000000000E+00  0.00000000000E+00  0.61407496313E+03  0.39407731993E+04  0.38926347566E+04 0.  0.
        4    1    3    3  502    0  0.84847842450E+03 -0.17515735561E+04  0.32219476943E+03  0.19727484993E+04  0.12699999809E+01 0.  1.
       -4    1    3    3    0  502 -0.84847842450E+03  0.17515735561E+04  0.29188019371E+03  0.19680247000E+04  0.12699999809E+01 0. -1.
</event>
<event>
 5   0  0.4750125E-08  0.3866615E+04  0.7818609E-02  0.8032009E-01
        1   -1    0    0  501    0  0.00000000000E+00  0.00000000000E+00  0.20332272845E+04  0.20332272845E+04  0.50400001928E-02 0.  1.
       -1   -1    0    0    0  501  0.00000000000E+00  0.00000000000E+00 -0.18382977078E+04  0.18382977078E+04  0.50400001928E-02 0. -1.
    10030    2    1    2    0    0  0.00000000000E+00  0.00000000000E+00  0.19492957666E+03  0.38715249924E+04  0.38666145692E+04 0.  0.
        5    1    3    3  502    0 -0.65338630981E+02 -0.14028602050E+04 -0.12328944856E+04  0.18687794932E+04  0.46999998093E+01 0. -1.
       -5    1    3    3    0  502  0.65338630981E+02  0.14028602050E+04  0.14278240623E+04  0.20027454992E+04  0.46999998093E+01 0.  1.
</event>
<event>
 5   0  0.1538018E-07  0.3891038E+04  0.7818609E-02  0.8026896E-01
       -2   -1    0    0    0  501  0.00000000000E+00  0.00000000000E+00  0.17883806106E+04  0.17883806107E+04  0.25500000920E-02 0.  1.
        2   -1    0    0  501    0  0.00000000000E+00  0.00000000000E+00 -0.21164648286E+04  0.21164648286E+04  0.25500000920E-02 0. -1.
    10030    2    1    2    0    0  0.00000000000E+00  0.00000000000E+00 -0.32808421799E+03  0.39048454393E+04  0.38910382484E+04 0.  0.
        1    1    3    3  502    0 -0.54049883126E+03  0.18397990522E+04  0.16582645780E+03  0.19247072383E+04  0.50400001928E-02 0.  1.
       -1    1    3    3    0  502  0.54049883126E+03 -0.18397990522E+04 -0.49391067579E+03  0.19801382010E+04  0.50400001928E-02 0. -1.
</event>
<event>
 5   0  0.1520986E-07  0.3910591E+04  0.7818609E-02  0.8022830E-01
       -2   -1    0    0    0  501  0.00000000000E+00  0.00000000000E+00  0.20393821689E+04  0.20393821689E+04  0.25500000920E-02 0. -1.
        2   -1    0    0  501    0  0.00000000000E+00  0.00000000000E+00 -0.18746759494E+04  0.18746759494E+04  0.25500000920E-02 0.  1.
    10030    2    1    2    0    0  0.00000000000E+00  0.00000000000E+00  0.16470621953E+03  0.39140581183E+04  0.39105911081E+04 0.  0.
        4    1    3    3  502    0  0.11571609560E+04 -0.35895869109E+03  0.16184144389E+04  0.20216675614E+04  0.12699999809E+01 0. -1.
       -4    1    3    3    0  502 -0.11571609560E+04  0.35895869109E+03 -0.14537082194E+04  0.18923905569E+04  0.12699999809E+01 0.  1.
</event>
<event>
 5   0  0.1503228E-07  0.3916129E+04  0.7818609E-02  0.8021683E-01
       -2   -1    0    0    0  501  0.00000000000E+00  0.00000000000E+00  0.15258762115E+04  0.15258762115E+04  0.25500000920E-02 0. -1.
        2   -1    0    0  501    0  0.00000000000E+00  0.00000000000E+00 -0.25126653217E+04  0.25126653217E+04  0.25500000920E-02 0.  1.
    10030    2    1    2    0    0  0.00000000000E+00  0.00000000000E+00 -0.98678911017E+03  0.40385415332E+04  0.39161288242E+04 0.  0.
        3    1    3    3  502    0 -0.82301290002E+03  0.95615877470E+03  0.10508877039E+04  0.16419362998E+04  0.10100000352E+00 0. -1.
       -3    1    3    3    0  502  0.82301290002E+03 -0.95615877470E+03 -0.20376768141E+04  0.23966052335E+04  0.10100000352E+00 0.  1.
</event>
<event>
 5   0  0.4750125E-08  0.3916431E+04  0.7818609E-02  0.8021621E-01
        1   -1    0    0  501    0  0.00000000000E+00  0.00000000000E+00  0.19952392585E+04  0.19952392585E+04  0.50400001928E-02 0.  1.
       -1   -1    0    0    0  501  0.00000000000E+00  0.00000000000E+00 -0.19218785690E+04  0.19218785690E+04  0.50400001928E-02 0. -1.
    10030    2    1    2    0    0  0.00000000000E+00  0.00000000000E+00  0.73360689577E+02  0.39171178275E+04  0.39164308093E+04 0.  0.
        4    1    3    3  502    0 -0.12987004086E+04  0.47137149376E+03  0.14246529035E+04  0.19845531852E+04  0.12699999809E+01 0.  1.
       -4    1    3    3    0  502  0.12987004086E+04 -0.47137149376E+03 -0.13512922139E+04  0.19325646423E+04  0.12699999809E+01 0. -1.
</event>
<event>
 5   0  0.4762788E-08  0.3905116E+04  0.7818609E-02  0.8023966E-01
        1   -1    0    0  501    0  0.00000000000E+00  0.00000000000E+00  0.13203432685E+04  0.13203432685E+04  0.50400001928E-02 0. -1.
       -1   -1    0    0    0  501  0.00000000000E+00  0.00000000000E+00 -0.28874937002E+04  0.28874937002E+04  0.50400001928E-02 0.  1.
    10030    2    1    2    0    0  0.00000000000E+00  0.00000000000E+00 -0.15671504317E+04  0.42078369687E+04  0.39051160648E+04 0.  0.
        2    1    3    3  502    0  0.21003276112E+03  0.11437260910E+04  0.90653660170E+03  0.14744598137E+04  0.25500000920E-02 0. -1.
       -2    1    3    3    0  502 -0.21003276112E+03 -0.11437260910E+04 -0.24736870334E+04  0.27333771549E+04  0.25500000920E-02 0.  1.
</event>
<event>
 5   0  0.1501585E-07  0.3637400E+04  0.7818609E-02  0.8081978E-01
       -2   -1    0    0    0  501  0.00000000000E+00  0.00000000000E+00  0.15518688175E+04  0.15518688175E+04  0.25500000920E-02 0. -1.
        2   -1    0    0  501    0  0.00000000000E+00  0.00000000000E+00 -0.21314108019E+04  0.21314108019E+04  0.25500000920E-02 0.  1.
    10030    2    1    2    0    0  0.00000000000E+00  0.00000000000E+00 -0.57954198438E+03  0.36832796194E+04  0.36374001489E+04 0.  0.
        5    1    3    3  502    0  0.77905281664E+02  0.16045983016E+04 -0.11530752730E+04  0.19774755669E+04  0.46999998093E+01 0.  1.
       -5    1    3    3    0  502 -0.77905281664E+02 -0.16045983016E+04  0.57353328863E+03  0.17058040525E+04  0.46999998093E+01 0. -1.
</event>
<event>
 5   0  0.4750125E-08  0.3922194E+04  0.7818609E-02  0.8020429E-01
        1   -1    0    0  501    0  0.00000000000E+00  0.00000000000E+00  0.22992966730E+04  0.22992966730E+04  0.50400001928E-02 0.  1.
       -1   -1    0    0    0  501  0.00000000000E+00  0.00000000000E+00 -0.16726428246E+04  0.16726428246E+04  0.50400001928E-02 0. -1.
    10030    2    1    2    0    0  0.00000000000E+00  0.00000000000E+00  0.62665384833E+03  0.39719394976E+04  0.39221943255E+04 0.  0.
        1    1    3    3  502    0 -0.89808587017E+03 -0.16717172376E+04  0.81427790466E+03  0.20650049053E+04  0.50400001928E-02 0.  1.
       -1    1    3    3    0  502  0.89808587017E+03  0.16717172376E+04 -0.18762405634E+03  0.19069345923E+04  0.50400001928E-02 0. -1.
</event>
<event>
 5   0  0.1503228E-07  0.3901692E+04  0.7818609E-02  0.8024677E-01
       -2   -1    0    0    0  501  0.00000000000E+00  0.00000000000E+00  0.15366434379E+04  0.15366434379E+04  0.25500000920E-02 0.  1.
        2   -1    0    0  501    0  0.00000000000E+00  0.00000000000E+00 -0.24766965342E+04  0.24766965342E+04  0.25500000920E-02 0. -1.
    10030    2    1    2    0    0  0.00000000000E+00  0.00000000000E+00 -0.94005309628E+03  0.40133399721E+04  0.39016916725E+04 0.  0.
        3    1    3    3  502    0  0.12683995533E+04  0.13657506697E+04  0.12237655653E+03  0.18679101559E+04  0.10100000352E+00 0.  1.
       -3    1    3    3    0  502 -0.12683995533E+04 -0.13657506697E+04 -0.10624296528E+04  0.21454298162E+04  0.10100000352E+00 0. -1.
</event>
<event>
 5   0  0.4762788E-08  0.3902073E+04  0.7818609E-02  0.8024598E-01
        1   -1    0    0  501    0  0.00000000000E+00  0.00000000000E+00  0.22439443443E+04  0.22439443443E+04  0.50400001928E-02 0. -1.
       -1   -1    0    0    0  501  0.00000000000E+00  0.00000000000E+00 -0.16963629199E+04  0.16963629199E+04  0.50400001928E-02 0.  1.
    10030    2    1    2    0    0  0.00000000000E+00  0.00000000000E+00  0.54758142436E+03  0.39403072643E+04  0.39020732849E+04 0.  0.
        2    1    3    3  502    0 -0.18739581338E+04 -0.31193648940E+03 -0.17499681359E+03  0.19077859800E+04  0.25500000920E-02 0. -1.
       -2    1    3    3    0  502  0.18739581338E+04  0.31193648940E+03  0.72257823795E+03  0.20325212842E+04  0.25500000920E-02 0.  1.
</event>
<event>
 5   0  0.4750125E-08  0.3905173E+04  0.7818609E-02  0.8023954E-01
       -1   -1    0    0    0  501  0.00000000000E+00  0.00000000000E+00  0.16706986858E+04  0.16706986858E+04  0.50400001928E-02 0. -1.
        1   -1    0    0  501    0  0.00000000000E+00  0.00000000000E+00 -0.22820354025E+04  0.22820354025E+04  0.50400001928E-02 0.  1.
    10030    2    1    2    0    0  0.00000000000E+00  0.00000000000E+00 -0.61133671670E+03  0.39527340884E+04  0.39051727481E+04 0.  0.
        4    1    3    3  502    0  0.18865679937E+04 -0.31857740467E+03  0.88901808651E+02  0.19153421371E+04  0.12699999809E+01 0. -1.
       -4    1    3    3    0  502 -0.18865679937E+04  0.31857740467E+03 -0.70023852535E+03  0.20373919513E+04  0.12699999809E+01 0.  1.
</event>
<event>
 5   0  0.1520986E-07  0.3836490E+04  0.7818609E-02  0.8038369E-01
       -2   -1    0    0    0  501  0.00000000000E+00  0.00000000000E+00  0.18989615825E+04  0.18989615825E+04  0.25500000920E-02 0. -1.
        2   -1    0    0  501    0  0.00000000000E+00  0.00000000000E+00 -0.19377246644E+04  0.19377246644E+04  0.25500000920E-02 0.  1.
    10030    2    1    2    0    0  0.00000000000E+00  0.00000000000E+00 -0.38763081868E+02  0.38366862469E+04  0.38364904249E+04 0.  0.
        4    1    3    3  502    0 -0.78287531548E+03  0.10771842519E+04  0.13614291022E+04  0.19043924190E+04  0.12699999809E+01 0. -1.
       -4    1    3    3    0  502  0.78287531548E+03 -0.10771842519E+04 -0.14001921841E+04  0.19322938279E+04  0.12699999809E+01 0.  1.
</event>
<event>
 5   0  0.4750125E-08  0.3894040E+04  0.7818609E-02  0.8026270E-01
        1   -1    0    0  501    0  0.00000000000E+00  0.00000000000E+00  0.22926985120E+04  0.22926985120E+04  0.50400001928E-02 0.  1.
       -1   -1    0    0    0  501  0.00000000000E+00  0.00000000000E+00 -0.16534607630E+04  0.16534607630E+04  0.50400001928E-02 0. -1.
    10030    2    1    2    0    0  0.00000000000E+00  0.00000000000E+00  0.63923774897E+03  0.39461592750E+04  0.38940400773E+04 0.  0.
        5    1    3    3  502    0 -0.41217425213E+03  0.73975540587E+03  0.20962927068E+04  0.22608827651E+04  0.46999998093E+01 0.  1.
       -5    1    3    3    0  502  0.41217425213E+03 -0.73975540587E+03 -0.14570549579E+04  0.16852765099E+04  0.46999998093E+01 0. -1.
</event>
<event>
 5   0  0.1546846E-07  0.3918745E+04  0.7818609E-02  0.8021142E-01
       -2   -1    0    0    0  501  0.00000000000E+00  0.00000000000E+00  0.20528093746E+04  0.20528093746E+04  0.25500000920E-02 0. -1.
        2   -1    0    0  501    0  0.00000000000E+00  0.00000000000E+00 -0.18701883997E+04  0.18701883998E+04  0.25500000920E-02 0.  1.
    10030    2    1    2    0    0  0.00000000000E+00  0.00000000000E+00  0.18262097481E+03  0.39229977743E+04  0.39187448395E+04 0.  0.
        2    1    3    3  502    0 -0.10657640291E+04 -0.47753137568E+02 -0.15539471914E+04  0.18849098656E+04  0.25500000920E-02 0.  1.
       -2    1    3    3    0  502  0.10657640291E+04  0.47753137568E+02  0.17365681662E+04  0.20380879087E+04  0.25500000920E-02 0. -1.
</event>
<event>
 5   0  0.4750125E-08  0.3887346E+04  0.7818609E-02  0.8027666E-01
       -1   -1    0    0    0  501  0.00000000000E+00  0.00000000000E+00  0.16225335886E+04  0.16225335886E+04  0.50400001928E-02 0. -1.
        1   -1    0    0  501    0  0.00000000000E+00  0.00000000000E+00 -0.23283738252E+04  0.23283738252E+04  0.50400001928E-02 0.  1.
    10030    2    1    2    0    0  0.00000000000E+00  0.00000000000E+00 -0.70584023654E+03  0.39509074138E+04  0.38873460038E+04 0.  0.
        4    1    3    3  502    0 -0.12442124501E+04  0.14620852198E+04 -0.44469248031E+02  0.19203481293E+04  0.12699999809E+01 0. -1.
       -4    1    3    3    0  502  0.12442124501E+04 -0.14620852198E+04 -0.66137098851E+03  0.20305592846E+04  0.12699999809E+01 0.  1.
</event>
<event>
 5   0  0.4750125E-08  0.3906859E+04  0.7818609E-02  0.8023604E-01
       -1   -1    0    0    0  501  0.00000000000E+00  0.00000000000E+00  0.15362597654E+04  0.15362597654E+04  0.50400001928E-02 0. -1.
        1   -1    0    0  501    0  0.00000000000E+00  0.00000000000E+00 -0.24838816480E+04  0.24838816480E+04  0.50400001928E-02 0.  1.
    10030    2    1    2    0    0  0.00000000000E+00  0.00000000000E+00 -0.94762188260E+03  0.40201414134E+04  0.39068593207E+04 0.  0.
        1    1    3    3  502    0  0.13106942598E+04  0.85109787663E+03  0.73217920999E+03  0.17257964636E+04  0.50400001928E-02 0. -1.
       -1    1    3    3    0  502 -0.13106942598E+04 -0.85109787663E+03 -0.16798010926E+04  0.22943449498E+04  0.50400001928E-02 0.  1.
</event>
<event>
 5   0  0.1546846E-07  0.3899315E+04  0.7818609E-02  0.8025172E-01
       -2   -1    0    0    0  501  0.00000000000E+00  0.00000000000E+00  0.15919098506E+04  0.15919098506E+04  0.25500000920E-02 0.  1.
        2   -1    0    0  501    0  0.00000000000E+00  0.00000000000E+00 -0.23878013901E+04  0.23878013901E+04  0.25500000920E-02 0. -1.
    10030    2    1    2    0    0  0.00000000000E+00  0.00000000000E+00 -0.79589153952E+03  0.39797112407E+04  0.38993150958E+04 0.  0.
        2    1    3    3  502    0  0.45205171977E+03 -0.12328493155E+04  0.10729118798E+04  0.16957028318E+04  0.25500000920E-02 0.  1.
       -2    1    3    3    0  502 -0.45205171977E+03  0.12328493155E+04 -0.18688034193E+04  0.22840084089E+04  0.25500000920E-02 0. -1.
</event>
<event>
 5   0  0.1538018E-07  0.3936733E+04  0.7818609E-02  0.8017433E-01
        2   -1    0    0  501    0  0.00000000000E+00  0.00000000000E+00  0.16353009701E+04  0.16353009701E+04  0.25500000920E-02 0. -1.
       -2   -1    0    0    0  501  0.00000000000E+00  0.00000000000E+00 -0.23692676747E+04  0.23692676747E+04  0.25500000920E-02 0.  1.
    10030    2    1    2    0    0  0.00000000000E+00  0.00000000000E+00 -0.73396670464E+03  0.40045686448E+04  0.39367325166E+04 0.  0.
        1    1    3    3  502    0  0.15889094270E+04  0.86175174451E+03 -0.11596518776E+04  0.21475664631E+04  0.50400001928E-02 0.  1.
       -1    1    3    3    0  502 -0.15889094270E+04 -0.86175174451E+03  0.42568517295E+03  0.18570021817E+04  0.50400001928E-02 0. -1.
</event>
<event>
 5   0  0.4762788E-08  0.3926974E+04  0.7818609E-02  0.8019442E-01
        1   -1    0    0  501    0  0.00000000000E+00  0.00000000000E+00  0.18912602616E+04  0.18912602616E+04  0.50400001928E-02 0. -1.
       -1   -1    0    0    0  501  0.00000000000E+00  0.00000000000E+00 -0.20384722344E+04  0.20384722344E+04  0.50400001928E-02 0.  1.
    10030    2    1    2    0    0  0.00000000000E+00  0.00000000000E+00 -0.14721197281E+03  0.39297324959E+04  0.39269741691E+04 0.  0.
        2    1    3    3  502    0 -0.15948332540E+04  0.56342688687E+03 -0.10714716657E+04  0.20022473612E+04  0.25500000920E-02 0.  1.
       -2    1    3    3    0  502  0.15948332540E+04 -0.56342688687E+03  0.92425969289E+03  0.19274851348E+04  0.25500000920E-02 0. -1.
</event>
<event>
 5   0  0.4750125E-08  0.3750881E+04  0.7818609E-02  0.8056779E-01
        1   -1    0    0  501    0  0.00000000000E+00  0.00000000000E+00  0.23311168241E+04  0.23311168242E+04  0.50400001928E-02 0.  1.
       -1   -1    0    0    0  501  0.00000000000E+00  0.00000000000E+00 -0.15088380153E+04  0.15088380153E+04  0.50400001928E-02 0. -1.
    10030    2    1    2    0    0  0.00000000000E+00  0.00000000000E+00  0.82227880887E+03  0.38399548394E+04  0.37508813270E+04 0.  0.
        3    1    3    3  502    0 -0.20252760128E+03 -0.65138257223E+03 -0.13773331579E+04  0.15369981531E+04  0.10100000352E+00 0. -1.
       -3    1    3    3    0  502  0.20252760128E+03  0.65138257223E+03  0.21996119667E+04  0.23029566863E+04  0.10100000352E+00 0.  1.
</event>
<event>
 5   0  0.4750125E-08  0.3884230E+04  0.7818609E-02  0.8028317E-01
       -1   -1    0    0    0  501  0.00000000000E+00  0.00000000000E+00  0.19810701270E+04  0.19810701270E+04  0.50400001928E-02 0. -1.
        1   -1    0    0  501    0  0.00000000000E+00  0.00000000000E+00 -0.19039263504E+04  0.19039263504E+04  0.50400001928E-02 0.  1.
    10030    2    1    2    0    0  0.00000000000E+00  0.00000000000E+00  0.77143776621E+02  0.38849964773E+04  0.38842304858E+04 0.  0.
        1    1    3    3  502    0 -0.20249552155E+03  0.33738729374E+02 -0.18930440274E+04  0.19041424390E+04  0.50400001928E-02 0.  1.
       -1    1    3    3    0  502  0.20249552155E+03 -0.33738729374E+02  0.19701878040E+04  0.19808540384E+04  0.50400001928E-02 0. -1.
</event>
<event>
 5   0  0.1520986E-07  0.3878533E+04  0.7818609E-02  0.8029509E-01
        2   -1    0    0  501    0  0.00000000000E+00  0.00000000000E+00  0.22704558817E+04  0.22704558817E+04  0.25500000920E-02 0.  1.
       -2   -1    0    0    0  501  0.00000000000E+00  0.00000000000E+00 -0.16563873633E+04  0.16563873633E+04  0.25500000920E-02 0. -1.
    10030    2    1    2    0    0  0.00000000000E+00  0.00000000000E+00  0.61406851843E+03  0.39268432449E+04  0.38785329346E+04 0.  0.
        4    1    3    3  502    0 -0.90242588285E+03  0.12048814973E+04  0.15448172652E+04  0.21569825897E+04  0.12699999809E+01 0.  1.
       -4    1    3    3    0  502  0.90242588285E+03 -0.12048814973E+04 -0.93074874677E+03  0.17698606552E+04  0.12699999809E+01 0. -1.
</event>
<event>
 5   0  0.4750125E-08  0.4030498E+04  0.7818609E-02  0.7998422E-01
       -1   -1    0    0    0  501  0.00000000000E+00  0.00000000000E+00  0.15342972754E+04  0.15342972755E+04  0.50400001928E-02 0.  1.
        1   -1    0    0  501    0  0.00000000000E+00  0.00000000000E+00 -0.26469636578E+04  0.26469636578E+04  0.50400001928E-02 0. -1.
    10030    2    1    2    0    0  0.00000000000E+00  0.00000000000E+00 -0.11126663824E+04  0.41812609333E+04  0.40304982960E+04 0.  0.
        3    1    3    3  502    0 -0.19687357832E+04 -0.33241482586E+03 -0.84007622972E+03  0.21661367183E+04  0.10100000352E+00 0. -1.
       -3    1    3    3    0  502  0.19687357832E+04  0.33241482586E+03 -0.27259015265E+03  0.20151242150E+04  0.10100000352E+00 0.  1.
</event>
<event>
 5   0  0.4750125E-08  0.3907468E+04  0.7818609E-02  0.8023478E-01
       -1   -1    0    0    0  501  0.00000000000E+00  0.00000000000E+00  0.21379888896E+04  0.21379888896E+04  0.50400001928E-02 0. -1.
        1   -1    0    0  501    0  0.00000000000E+00  0.00000000000E+00 -0.17853580053E+04  0.17853580053E+04  0.50400001928E-02 0.  1.
    10030    2    1    2    0    0  0.00000000000E+00  0.00000000000E+00  0.35263088433E+03  0.39233468949E+04  0.39074675069E+04 0.  0.
        1    1    3    3  502    0 -0.13027140093E+04  0.13484062231E+04 -0.37529173348E+03  0.19120949291E+04  0.50400001928E-02 0. -1.
       -1    1    3    3    0  502  0.13027140093E+04 -0.13484062231E+04  0.72792261781E+03  0.20112519658E+04  0.50400001928E-02 0.  1.
</event>
<event>
 5   0  0.4750125E-08  0.3898575E+04  0.7818609E-02  0.8025326E-01
        1   -1    0    0  501    0  0.00000000000E+00  0.00000000000E+00  0.14521540114E+04  0.14521540114E+04  0.50400001928E-02 0. -1.
       -1   -1    0    0    0  501  0.00000000000E+00  0.00000000000E+00 -0.26166107306E+04  0.26166107306E+04  0.50400001928E-02 0.  1.
    10030    2    1    2    0    0  0.00000000000E+00  0.00000000000E+00 -0.11644567192E+04  0.40687647420E+04  0.38985750056E+04 0.  0.
        1    1    3    3  502    0 -0.94389620713E+03  0.23265232657E+03  0.11811011292E+04  0.15297277641E+04  0.50400001928E-02 0. -1.
       -1    1    3    3    0  502  0.94389620713E+03 -0.23265232657E+03 -0.23455578484E+04  0.25390369779E+04  0.50400001928E-02 0.  1.
</event>
<event>
 5   0  0.1520986E-07  0.3940295E+04  0.7818609E-02  0.8016700E-01
        2   -1    0    0  501    0  0.00000000000E+00  0.00000000000E+00  0.20057490535E+04  0.20057490535E+04  0.25500000920E-02 0. -1.
       -2   -1    0    0    0  501  0.00000000000E+00  0.00000000000E+00 -0.19351778098E+04  0.19351778098E+04  0.25500000920E-02 0.  1.
    10030    2    1    2    0    0  0.00000000000E+00  0.00000000000E+00  0.70571243692E+02  0.39409268634E+04  0.39402949435E+04 0.  0.
        4    1    3    3  502    0 -0.12191811195E+04  0.79384736510E+03  0.13639877455E+04  0.19942568601E+04  0.12699999809E+01 0. -1.
       -4    1    3    3    0  502  0.12191811195E+04 -0.79384736510E+03 -0.12934165018E+04  0.19466700032E+04  0.12699999809E+01 0.  1.
</event>
<event>
 5   0  0.1503228E-07  0.3911374E+04  0.7818609E-02  0.8022668E-01
        2   -1    0    0  501    0  0.00000000000E+00  0.00000000000E+00  0.13985794398E+04  0.13985794398E+04  0.25500000920E-02 0. -1.
       -2   -1    0    0    0  501  0.00000000000E+00  0.00000000000E+00 -0.27347113797E+04  0.27347113797E+04  0.25500000920E-02 0.  1.
    10030    2    1    2    0    0  0.00000000000E+00  0.00000000000E+00 -0.13361319400E+04  0.41332908195E+04  0.39113737277E+04 0.  0.
        3    1    3    3  502    0  0.10696903927E+04  0.16154613190E+03  0.10535960685E+04  0.15100991274E+04  0.10100000352E+00 0.  1.
       -3    1    3    3    0  502 -0.10696903927E+04 -0.16154613190E+03 -0.23897280084E+04  0.26231916921E+04  0.10100000352E+00 0. -1.
</event>
<event>
 5   0  0.1501585E-07  0.4000805E+04  0.7818609E-02  0.8004384E-01
        2   -1    0    0  501    0  0.00000000000E+00  0.00000000000E+00  0.17850804462E+04  0.17850804462E+04  0.25500000920E-02 0. -1.
       -2   -1    0    0    0  501  0.00000000000E+00  0.00000000000E+00 -0.22416974678E+04  0.22416974678E+04  0.25500000920E-02 0.  1.
    10030    2    1    2    0    0  0.00000000000E+00  0.00000000000E+00 -0.45661702160E+03  0.40267779141E+04  0.40008050771E+04 0.  0.
        5    1    3    3  502    0 -0.18689522368E+04 -0.58100977516E+03 -0.64455516441E+03  0.20605893021E+04  0.46999998093E+01 0.  1.
       -5    1    3    3    0  502  0.18689522368E+04  0.58100977516E+03  0.18793814281E+03  0.19661886119E+04  0.46999998093E+01 0. -1.
</event>
<event>
 5   0  0.1503228E-07  0.3891967E+04  0.7818609E-02  0.8026702E-01
        2   -1    0    0  501    0  0.00000000000E+00  0.00000000000E+00  0.25682740442E+04  0.25682740442E+04  0.25500000920E-02 0.  1.
       -2   -1    0    0    0  501  0.00000000000E+00  0.00000000000E+00 -0.14744730559E+04  0.14744730559E+04  0.25500000920E-02 0. -1.
    10030    2    1    2    0    0  0.00000000000E+00  0.00000000000E+00  0.10938009883E+04  0.40427471001E+04  0.38919665355E+04 0.  0.
        3    1    3    3  502    0  0.18281338345E+03  0.26139358727E+03 -0.14471324239E+04  0.14818703058E+04  0.10100000352E+00 0. -1.
       -3    1    3    3    0  502 -0.18281338345E+03 -0.26139358727E+03  0.25409334122E+04  0.25608767944E+04  0.10100000352E+00 0.  1.
</event>
<event>
 5   0  0.4750125E-08  0.3893429E+04  0.7818609E-02  0.8026397E-01
        1   -1    0    0  501    0  0.00000000000E+00  0.00000000000E+00  0.17753958984E+04  0.17753958984E+04  0.50400001928E-02 0.  1.
       -1   -1    0    0    0  501  0.00000000000E+00  0.00000000000E+00 -0.21345645350E+04  0.21345645350E+04  0.50400001928E-02 0. -1.
    10030    2    1    2    0    0  0.00000000000E+00  0.00000000000E+00 -0.35916863656E+03  0.39099604334E+04  0.38934288848E+04 0.  0.
        5    1    3    3  502    0  0.80742564406E+03  0.17099836455E+04  0.28464983157E+03  0.19123357067E+04  0.46999998093E+01 0.  1.
       -5    1    3    3    0  502 -0.80742564406E+03 -0.17099836455E+04 -0.64381846812E+03  0.19976247266E+04  0.46999998093E+01 0. -1.
</event>
<event>
 5   0  0.1501585E-07  0.3886175E+04  0.7818609E-02  0.8027911E-01
       -2   -1    0    0    0  501  0.00000000000E+00  0.00000000000E+00  0.13438324634E+04  0.13438324634E+04  0.25500000920E-02 0.  1.
        2   -1    0    0  501    0  0.00000000000E+00  0.00000000000E+00 -0.28095682474E+04  0.28095682474E+04  0.25500000920E-02 0. -1.
    10030    2    1    2    0    0  0.00000000000E+00  0.00000000000E+00 -0.14657357840E+04  0.41534007108E+04  0.38861749929E+04 0.  0.
        5    1    3    3  502    0 -0.75384294928E+03 -0.19070659806E+03  0.11702865622E+04  0.14050768400E+04  0.46999998093E+01 0.  1.
       -5    1    3    3    0  502  0.75384294928E+03  0.19070659806E+03 -0.26360223462E+04  0.27483238707E+04  0.46999998093E+01 0. -1.
</event>
<event>
 5   0  0.1546846E-07  0.3913943E+04  0.7818609E-02  0.8022136E-01
        2   -1    0    0  501    0  0.00000000000E+00  0.00000000000E+00  0.22013117348E+04  0.22013117348E+04  0.25500000920E-02 0.  1.
       -2   -1    0    0    0  501  0.00000000000E+00  0.00000000000E+00 -0.17397524838E+04  0.17397524838E+04  0.25500000920E-02 0. -1.
    10030    2    1    2    0    0  0.00000000000E+00  0.00000000000E+00  0.46155925106E+03  0.39410642186E+04  0.39139430544E+04 0.  0.
        2    1    3    3  502    0  0.78007950750E+03 -0.14523396644E+04 -0.83100484616E+03  0.18461808127E+04  0.25500000920E-02 0. -1.
       -2    1    3    3    0  502 -0.78007950750E+03  0.14523396644E+04  0.12925640972E+04  0.20948834059E+04  0.25500000920E-02 0.  1.
</event>
<event>
 5   0  0.1501585E-07  0.3904331E+04  0.7818609E-02  0.8024129E-01
       -2   -1    0    0    0  501  0.00000000000E+00  0.00000000000E+00  0.19346604233E+04  0.19346604233E+04  0.25500000920E-02 0. -1.
        2   -1    0    0  501    0  0.00000000000E+00  0.00000000000E+00 -0.19698294649E+04  0.19698294649E+04  0.25500000920E-02 0.  1.
    10030    2    1    2    0    0  0.00000000000E+00  0.00000000000E+00 -0.35169041531E+02  0.39044898882E+04  0.39043314954E+04 0.  0.
        5    1    3    3  502    0 -0.13599655970E+04  0.73586655824E+03 -0.12092380822E+04  0.19629785648E+04  0.46999998093E+01 0. -1.
       -5    1    3    3    0  502  0.13599655970E+04 -0.73586655824E+03  0.11740690407E+04  0.19415113234E+04  0.46999998093E+01 0.  1.
</event>
<event>
 5   0  0.4750125E-08  0.3811108E+04  0.7818609E-02  0.8043775E-01
       -1   -1    0    0    0  501  0.00000000000E+00  0.00000000000E+00  0.16643187555E+04  0.16643187555E+04  0.50400001928E-02 0. -1.
        1   -1    0    0  501    0  0.00000000000E+00  0.00000000000E+00 -0.21817555417E+04  0.21817555417E+04  0.50400001928E-02 0.  1.
    10030    2    1    2    0    0  0.00000000000E+00  0.00000000000E+00 -0.51743678620E+03  0.38460742973E+04  0.38111083260E+04 0.  0.
        1    1    3    3  502    0  0.60914861090E+01  0.16215538430E+04  0.75129498533E+03  0.17871536383E+04  0.50400001928E-02 0. -1.
       -1    1    3    3    0  502 -0.60914861090E+01 -0.16215538430E+04 -0.12687317715E+04  0.20589206590E+04  0.50400001928E-02 0.  1.
</event>
<event>
 5   0  0.1546846E-07  0.3899846E+04  0.7818609E-02  0.8025061E-01
        2   -1    0    0  501    0  0.00000000000E+00  0.00000000000E+00  0.19774895903E+04  0.19774895903E+04  0.25500000920E-02 0.  1.
       -2   -1    0    0    0  501  0.00000000000E+00  0.00000000000E+00 -0.19227406991E+04  0.19227406991E+04  0.25500000920E-02 0. -1.
    10030    2    1    2    0    0  0.00000000000E+00  0.00000000000E+00  0.54748891179E+02  0.39002302894E+04  0.38998460058E+04 0.  0.
        2    1    3    3  502    0  0.73156599957E+03 -0.99136608000E+03  0.15388817680E+04  0.19713326995E+04  0.25500000920E-02 0.  1.
       -2    1    3    3    0  502 -0.73156599957E+03  0.99136608000E+03 -0.14841328768E+04  0.19288975899E+04  0.25500000920E-02 0. -1.
</event>
<event>
 5   0  0.4750125E-08  0.3889070E+04  0.7818609E-02  0.8027306E-01
        1   -1    0    0  501    0  0.00000000000E+00  0.00000000000E+00  0.12180066685E+04  0.12180066686E+04  0.50400001928E-02 0.  1.
       -1   -1    0    0    0  501  0.00000000000E+00  0.00000000000E+00 -0.31044297914E+04  0.31044297914E+04  0.50400001928E-02 0. -1.
    10030    2    1    2    0    0  0.00000000000E+00  0.00000000000E+00 -0.18864231229E+04  0.43224364600E+04  0.38890699083E+04 0.  0.
        5    1    3    3  502    0  0.45787947917E+03 -0.78557355884E+03  0.96716329312E+03  0.13274812087E+04  0.46999998093E+01 0.  1.
       -5    1    3    3    0  502 -0.45787947917E+03  0.78557355884E+03 -0.28535864160E+04  0.29949552513E+04  0.46999998093E+01 0. -1.
</event>
<event>
 5   0  0.4750125E-08  0.3909420E+04  0.7818609E-02  0.8023073E-01
        1   -1    0    0  501    0  0.00000000000E+00  0.00000000000E+00  0.26533147930E+04  0.26533147930E+04  0.50400001928E-02 0. -1.
       -1   -1    0    0    0  501  0.00000000000E+00  0.00000000000E+00 -0.14400440898E+04  0.14400440898E+04  0.50400001928E-02 0.  1.
    10030    2    1    2    0    0  0.00000000000E+00  0.00000000000E+00  0.12132707032E+04  0.40933588828E+04  0.39094195406E+04 0.  0.
        5    1    3    3  502    0  0.15782735782E+04  0.63686737905E+03 -0.40001551380E+03  0.17483083388E+04  0.46999998093E+01 0.  1.
       -5    1    3    3    0  502 -0.15782735782E+04 -0.63686737905E+03  0.16132862170E+04  0.23450505440E+04  0.46999998093E+01 0. -1.
</event>
<event>
 5   0  0.1520986E-07  0.3908670E+04  0.7818609E-02  0.8023228E-01
        2   -1    0    0  501    0  0.00000000000E+00  0.00000000000E+00  0.22051469400E+04  0.22051469400E+04  0.25500000920E-02 0.  1.
       -2   -1    0    0    0  501  0.00000000000E+00  0.00000000000E+00 -0.17320504671E+04  0.17320504671E+04  0.25500000920E-02 0. -1.
    10030    2    1    2    0    0  0.00000000000E+00  0.00000000000E+00  0.47309647290E+03  0.39371974071E+04  0.39086702534E+04 0.  0.
        4    1    3    3  502    0 -0.17026350705E+04  0.30640002665E+03  0.11523465068E+04  0.20786416825E+04  0.12699999809E+01 0.  1.
       -4    1    3    3    0  502  0.17026350705E+04 -0.30640002665E+03 -0.67925003391E+03  0.18585557245E+04  0.12699999809E+01 0. -1.
</event>
<event>
 5   0  0.4750125E-08  0.3900807E+04  0.7818609E-02  0.8024861E-01
       -1   -1    0    0    0  501  0.00000000000E+00  0.00000000000E+00  0.30550868852E+04  0.30550868852E+04  0.50400001928E-02 0.  1.
        1   -1    0    0  501    0  0.00000000000E+00  0.00000000000E+00 -0.12451605672E+04  0.12451605672E+04  0.50400001928E-02 0. -1.
    10030    2    1    2    0    0  0.00000000000E+00  0.00000000000E+00  0.18099263181E+04  0.43002474524E+04  0.39008069518E+04 0.  0.
        5    1    3    3  502    0 -0.42228749312E+03 -0.90451211033E+03  0.27521263752E+04  0.29275741766E+04  0.46999998093E+01 0.  1.
       -5    1    3    3    0  502  0.42228749312E+03  0.90451211033E+03 -0.94220005709E+03  0.13726732758E+04  0.46999998093E+01 0. -1.
</event>
<event>
 5   0  0.4750125E-08  0.3818959E+04  0.7818609E-02  0.8042099E-01
        1   -1    0    0  501    0  0.00000000000E+00  0.00000000000E+00  0.22010878766E+04  0.22010878766E+04  0.50400001928E-02 0.  1.
       -1   -1    0    0    0  501  0.00000000000E+00  0.00000000000E+00 -0.16565041178E+04  0.16565041178E+04  0.50400001928E-02 0. -1.
    10030    2    1    2    0    0  0.00000000000E+00  0.00000000000E+00  0.54458375883E+03  0.38575919944E+04  0.38189585655E+04 0.  0.
        1    1    3    3  502    0  0.24610012266E+03  0.14532702335E+04  0.14984712442E+04  0.21018981211E+04  0.50400001928E-02 0.  1.
       -1    1    3    3    0  502 -0.24610012266E+03 -0.14532702335E+04 -0.95388748533E+03  0.17556938733E+04  0.50400001928E-02 0. -1.
</event>
<event>
 5   0  0.4750125E-08  0.3905966E+04  0.7818609E-02  0.8023790E-01
       -1   -1    0    0    0  501  0.00000000000E+00  0.00000000000E+00  0.18849618371E+04  0.18849618371E+04  0.50400001928E-02 0. -1.
        1   -1    0    0  501    0  0.00000000000E+00  0.00000000000E+00 -0.20234585466E+04  0.20234585466E+04  0.50400001928E-02 0.  1.
    10030    2    1    2    0    0  0.00000000000E+00  0.00000000000E+00 -0.13849670944E+03  0.39084203837E+04  0.39059657650E+04 0.  0.
        5    1    3    3  502    0 -0.20764722885E+03  0.10768850477E+04 -0.16862221821E+04  0.20115084178E+04  0.46999998093E+01 0.  1.
       -5    1    3    3    0  502  0.20764722885E+03 -0.10768850477E+04  0.15477254726E+04  0.18969119659E+04  0.46999998093E+01 0. -1.
</event>
<event>
 5   0  0.1501585E-07  0.3898179E+04  0.7818609E-02  0.8025408E-01
       -2   -1    0    0    0  501  0.00000000000E+00  0.00000000000E+00  0.24395140390E+04  0.24395140390E+04  0.25500000920E-02 0. -1.
        2   -1    0    0  501    0  0.00000000000E+00  0.00000000000E+00 -0.15572564620E+04  0.15572564620E+04  0.25500000920E-02 0.  1.
    10030    2    1    2    0    0  0.00000000000E+00  0.00000000000E+00  0.88225757703E+03  0.39967705010E+04  0.38981785497E+04 0.  0.
        5    1    3    3  502    0  0.43663445177E+03 -0.18030853804E+04 -0.17161528698E+03  0.18631265202E+04  0.46999998093E+01 0.  1.
       -5    1    3    3    0  502 -0.43663445177E+03  0.18030853804E+04  0.10538728640E+04  0.21336439808E+04  0.46999998093E+01 0. -1.
</event>
<event>
 5   0  0.4750125E-08  0.3884455E+04  0.7818609E-02  0.8028270E-01
       -1   -1    0    0    0  501  0.00000000000E+00  0.00000000000E+00  0.19250072048E+04  0.19250072048E+04  0.50400001928E-02 0.  1.
        1   -1    0    0  501    0  0.00000000000E+00  0.00000000000E+00 -0.19596016722E+04  0.19596016722E+04  0.50400001928E-02 0. -1.
    10030    2    1    2    0    0  0.00000000000E+00  0.00000000000E+00 -0.34594467440E+02  0.38846088770E+04  0.38844548331E+04 0.  0.
        1    1    3    3  502    0 -0.57759832540E+03 -0.13449609879E+04 -0.12939478174E+04  0.19536736776E+04  0.50400001928E-02 0. -1.
       -1    1    3    3    0  502  0.57759832540E+03  0.13449609879E+04  0.12593533499E+04  0.19309351994E+04  0.50400001928E-02 0.  1.
</event>
<event>
 5   0  0.1501585E-07  0.3848506E+04  0.7818609E-02  0.8035825E-01
        2   -1    0    0  501    0  0.00000000000E+00  0.00000000000E+00  0.15063081966E+04  0.15063081966E+04  0.25500000920E-02 0.  1.
       -2   -1    0    0    0  501  0.00000000000E+00  0.00000000000E+00 -0.24581624953E+04  0.24581624953E+04  0.25500000920E-02 0. -1.
    10030    2    1    2    0    0  0.00000000000E+00  0.00000000000E+00 -0.95185429877E+03  0.39644706919E+04  0.38485063675E+04 0.  0.
        5    1    3    3  502    0  0.14430153401E+04 -0.11286913264E+04  0.13044449340E+03  0.18366478263E+04  0.46999998093E+01 0. -1.
       -5    1    3    3    0  502 -0.14430153401E+04  0.11286913264E+04 -0.10822987922E+04  0.21278228656E+04  0.46999998093E+01 0.  1.
</event>
<event>
 5   0  0.4750125E-08  0.3889326E+04  0.7818609E-02  0.8027253E-01
        1   -1    0    0  501    0  0.00000000000E+00  0.00000000000E+00  0.19113939333E+04  0.19113939333E+04  0.50400001928E-02 0. -1.
       -1   -1    0    0    0  501  0.00000000000E+00  0.00000000000E+00 -0.19785111965E+04  0.19785111965E+04  0.50400001928E-02 0.  1.
    10030    2    1    2    0    0  0.00000000000E+00  0.00000000000E+00 -0.67117263205E+02  0.38899051298E+04  0.38893260589E+04 0.  0.
        5    1    3    3  502    0 -0.14530136077E+03 -0.48533430537E+03 -0.19113445823E+04  0.19773522893E+04  0.46999998093E+01 0.  1.
       -5    1    3    3    0  502  0.14530136077E+03  0.48533430537E+03  0.18442273191E+04  0.19125528406E+04  0.46999998093E+01 0. -1.
</event>
<event>
 5   0  0.1520986E-07  0.3899306E+04  0.7818609E-02  0.8025174E-01
        2   -1    0    0  501    0  0.00000000000E+00  0.00000000000E+00  0.24879255795E+04  0.24879255795E+04  0.25500000920E-02 0.  1.
       -2   -1    0    0    0  501  0.00000000000E+00  0.00000000000E+00 -0.15278377815E+04  0.15278377815E+04  0.25500000920E-02 0. -1.
    10030    2    1    2    0    0  0.00000000000E+00  0.00000000000E+00  0.96008779803E+03  0.40157633610E+04  0.38993059372E+04 0.  0.
        4    1    3    3  502    0  0.16130718640E+04  0.95921118613E+03  0.10240805458E+04  0.21379498393E+04  0.12699999809E+01 0. -1.
       -4    1    3    3    0  502 -0.16130718640E+04 -0.95921118613E+03 -0.63992747791E+02  0.18778135218E+04  0.12699999809E+01 0.  1.
</event>
<event>
 5   0  0.4750125E-08  0.3928958E+04  0.7818609E-02  0.8019033E-01
        1   -1    0    0  501    0  0.00000000000E+00  0.00000000000E+00  0.16050278826E+04  0.16050278826E+04  0.50400001928E-02 0.  1.
       -1   -1    0    0    0  501  0.00000000000E+00  0.00000000000E+00 -0.24044306688E+04  0.24044306688E+04  0.50400001928E-02 0. -1.
    10030    2    1    2    0    0  0.00000000000E+00  0.00000000000E+00 -0.79940278624E+03  0.40094585514E+04  0.39289582666E+04 0.  0.
        4    1    3    3  502    0 -0.73466303020E+03  0.10953324300E+04 -0.18854484284E+04  0.23009563858E+04  0.12699999809E+01 0. -1.
       -4    1    3    3    0  502  0.73466303020E+03 -0.10953324300E+04  0.10860456422E+04  0.17085021656E+04  0.12699999809E+01 0.  1.
</event>
<event>
 5   0  0.4762788E-08  0.3922913E+04  0.7818609E-02  0.8020280E-01
        1   -1    0    0  501    0  0.00000000000E+00  0.00000000000E+00  0.21547191801E+04  0.21547191802E+04  0.50400001928E-02 0.  1.
       -1   -1    0    0    0  501  0.00000000000E+00  0.00000000000E+00 -0.17855284090E+04  0.17855284090E+04  0.50400001928E-02 0. -1.
    10030    2    1    2    0    0  0.00000000000E+00  0.00000000000E+00  0.36919077113E+03  0.39402475892E+04  0.39229133611E+04 0.  0.
        2    1    3    3  502    0 -0.18141032912E+04  0.48078365221E+03 -0.38817753460E+03  0.19164564878E+04  0.25500000920E-02 0. -1.
       -2    1    3    3    0  502  0.18141032912E+04 -0.48078365221E+03  0.75736830574E+03  0.20237911013E+04  0.25500000920E-02 0.  1.
</event>
<event>
 5   0  0.4750125E-08  0.3922364E+04  0.7818609E-02  0.8020394E-01
       -1   -1    0    0    0  501  0.00000000000E+00  0.00000000000E+00  0.15980836276E+04  0.15980836276E+04  0.50400001928E-02 0.  1.
        1   -1    0    0  501    0  0.00000000000E+00  0.00000000000E+00 -0.24067790461E+04  0.24067790461E+04  0.50400001928E-02 0. -1.
    10030    2    1    2    0    0  0.00000000000E+00  0.00000000000E+00 -0.80869541843E+03  0.40048626737E+04  0.39223636694E+04 0.  0.
        3    1    3    3  502    0  0.15206900174E+04  0.78878745353E+03  0.57048504910E+03  0.18055849404E+04  0.10100000352E+00 0.  1.
       -3    1    3    3    0  502 -0.15206900174E+04 -0.78878745353E+03 -0.13791804675E+04  0.21992777332E+04  0.10100000352E+00 0. -1.
</event>
<event>
 5   0  0.1503228E-07  0.3863880E+04  0.7818609E-02  0.8032584E-01
        2   -1    0    0  501    0  0.00000000000E+00  0.00000000000E+00  0.25863657541E+04  0.25863657541E+04  0.25500000920E-02 0. -1.
       -2   -1    0    0    0  501  0.00000000000E+00  0.00000000000E+00 -0.14431031894E+04  0.14431031895E+04  0.25500000920E-02 0.  1.
    10030    2    1    2    0    0  0.00000000000E+00  0.00000000000E+00  0.11432625647E+04  0.40294689436E+04  0.38638802615E+04 0.  0.
        3    1    3    3  502    0  0.37202313194E+03 -0.11429293737E+04  0.21489667145E+04  0.24622645500E+04  0.10100000352E+00 0. -1.
       -3    1    3    3    0  502 -0.37202313194E+03  0.11429293737E+04 -0.10057041499E+04  0.15672043936E+04  0.10100000352E+00 0.  1.
</event>
<event>
 5   0  0.4762788E-08  0.3884804E+04  0.7818609E-02  0.8028197E-01
       -1   -1    0    0    0  501  0.00000000000E+00  0.00000000000E+00  0.16473698852E+04  0.16473698852E+04  0.50400001928E-02 0.  1.
        1   -1    0    0  501    0  0.00000000000E+00  0.00000000000E+00 -0.22902719568E+04  0.22902719568E+04  0.50400001928E-02 0. -1.
    10030    2    1    2    0    0  0.00000000000E+00  0.00000000000E+00 -0.64290207157E+03  0.39376418420E+04  0.38848037534E+04 0.  0.
        2    1    3    3  502    0  0.18544100845E+04  0.24388454465E+02  0.26389247557E+03  0.18732513971E+04  0.25500000920E-02 0.  1.
       -2    1    3    3    0  502 -0.18544100845E+04 -0.24388454465E+02 -0.90679454714E+03  0.20643904449E+04  0.25500000920E-02 0. -1.
</event>
<event>
 5   0  0.4750125E-08  0.3928422E+04  0.7818609E-02  0.8019144E-01
        1   -1    0    0  501    0  0.00000000000E+00  0.00000000000E+00  0.24632816094E+04  0.24632816094E+04  0.50400001928E-02 0. -1.
       -1   -1    0    0    0  501  0.00000000000E+00  0.00000000000E+00 -0.15662536787E+04  0.15662536787E+04  0.50400001928E-02 0.  1.
    10030    2    1    2    0    0  0.00000000000E+00  0.00000000000E+00  0.89702793067E+03  0.40295352881E+04  0.39284215061E+04 0.  0.
        4    1    3    3  502    0  0.11353202384E+03 -0.11793255923E+04 -0.11584704641E+04  0.16570316238E+04  0.12699999809E+01 0.  1.
       -4    1    3    3    0  502 -0.11353202384E+03  0.11793255923E+04  0.20554983948E+04  0.23725036643E+04  0.12699999809E+01 0. -1.
</event>
<event>
 5   0  0.1501585E-07  0.3913550E+04  0.7818609E-02  0.8022217E-01
       -2   -1    0    0    0  501  0.00000000000E+00  0.00000000000E+00  0.15641477804E+04  0.15641477804E+04  0.25500000920E-02 0. -1.
        2   -1    0    0  501    0  0.00000000000E+00  0.00000000000E+00 -0.24479577505E+04  0.24479577505E+04  0.25500000920E-02 0.  1.
    10030    2    1    2    0    0  0.00000000000E+00  0.00000000000E+00 -0.88380997002E+03  0.40121055309E+04  0.39135496327E+04 0.  0.
        5    1    3    3  502    0  0.23168473376E+03  0.19113448417E+03  0.15403698423E+04  0.15693857231E+04  0.46999998093E+01 0. -1.
       -5    1    3    3    0  502 -0.23168473376E+03 -0.19113448417E+03 -0.24241798123E+04  0.24427198078E+04  0.46999998093E+01 0.  1.
</event>
<event>
 5   0  0.1520986E-07  0.3904316E+04  0.7818609E-02  0.8024132E-01
       -2   -1    0    0    0  501  0.00000000000E+00  0.00000000000E+00  0.21665979270E+04  0.21665979270E+04  0.25500000920E-02 0.  1.
        2   -1    0    0  501    0  0.00000000000E+00  0.00000000000E+00 -0.17589424770E+04  0.17589424770E+04  0.25500000920E-02 0. -1.
    10030    2    1    2    0    0  0.00000000000E+00  0.00000000000E+00  0.40765544999E+03  0.39255404040E+04  0.39043161369E+04 0.  0.
        4    1    3    3  502    0  0.16579179431E+04  0.95645663929E+03 -0.18221038335E+03  0.19226813167E+04  0.12699999809E+01 0. -1.
       -4    1    3    3    0  502 -0.16579179431E+04 -0.95645663929E+03  0.58986583334E+03  0.20028590872E+04  0.12699999809E+01 0.  1.
</event>
<event>
 5   0  0.4762788E-08  0.3917396E+04  0.7818609E-02  0.8021421E-01
       -1   -1    0    0    0  501  0.00000000000E+00  0.00000000000E+00  0.16206181697E+04  0.16206181697E+04  0.50400001928E-02 0. -1.
        1   -1    0    0  501    0  0.00000000000E+00  0.00000000000E+00 -0.23673047012E+04  0.23673047012E+04  0.50400001928E-02 0.  1.
    10030    2    1    2    0    0  0.00000000000E+00  0.00000000000E+00 -0.74668653149E+03  0.39879228709E+04  0.39173955695E+04 0.  0.
        2    1    3    3  502    0 -0.18380267290E+04  0.63926125212E+03 -0.59983433181E+03  0.20363689328E+04  0.25500000920E-02 0. -1.
       -2    1    3    3    0  502  0.18380267290E+04 -0.63926125212E+03 -0.14685219968E+03  0.19515539381E+04  0.25500000920E-02 0.  1.
</event>
<event>
 5   0  0.4750125E-08  0.3904611E+04  0.7818609E-02  0.8024071E-01
       -1   -1    0    0    0  501  0.00000000000E+00  0.00000000000E+00  0.19954108740E+04  0.19954108740E+04  0.50400001928E-02 0. -1.
        1   -1    0    0  501    0  0.00000000000E+00  0.00000000000E+00 -0.19101310858E+04  0.19101310859E+04  0.50400001928E-02 0.  1.
    10030    2    1    2    0    0  0.00000000000E+00  0.00000000000E+00  0.85279788188E+02  0.39055419599E+04  0.39046107819E+04 0.  0.
        3    1    3    3  502    0 -0.44886383740E+03 -0.18303203291E+04  0.55260957629E+03  0.19639064656E+04  0.10100000352E+00 0. -1.
       -3    1    3    3    0  502  0.44886383740E+03  0.18303203291E+04 -0.46732978810E+03  0.19416354943E+04  0.10100000352E+00 0.  1.
</event>
<event>
 5   0  0.4750125E-08  0.3930655E+04  0.7818609E-02  0.8018684E-01
       -1   -1    0    0    0  501  0.00000000000E+00  0.00000000000E+00  0.19940320091E+04  0.19940320091E+04  0.50400001928E-02 0.  1.
        1   -1    0    0  501    0  0.00000000000E+00  0.00000000000E+00 -0.19370358876E+04  0.19370358876E+04  0.50400001928E-02 0. -1.
    10030    2    1    2    0    0  0.00000000000E+00  0.00000000000E+00  0.56996121461E+02  0.39310678967E+04  0.39306546847E+04 0.  0.
        5    1    3    3  502    0 -0.17486069701E+04 -0.91635785626E+02 -0.86404520767E+03  0.19525930616E+04  0.46999998093E+01 0.  1.
       -5    1    3    3    0  502  0.17486069701E+04  0.91635785626E+02  0.92104132913E+03  0.19784748351E+04  0.46999998093E+01 0. -1.
</event>
<event>
 5   0  0.1546846E-07  0.3903762E+04  0.7818609E-02  0.8024247E-01
        2   -1    0    0  501    0  0.00000000000E+00  0.00000000000E+00  0.17212145413E+04  0.17212145413E+04  0.25500000920E-02 0. -1.
       -2   -1    0    0    0  501  0.00000000000E+00  0.00000000000E+00 -0.22134605059E+04  0.22134605059E+04  0.25500000920E-02 0.  1.
    10030    2    1    2    0    0  0.00000000000E+00  0.00000000000E+00 -0.49224596454E+03  0.39346750472E+04  0.39037624976E+04 0.  0.
        2    1    3    3  502    0  0.26711013461E+03  0.89098745403E+03 -0.19757049168E+04  0.21837161870E+04  0.25500000920E-02 0.  1.
       -2    1    3    3    0  502 -0.26711013461E+03 -0.89098745403E+03  0.14834589522E+04  0.17509588602E+04  0.25500000920E-02 0. -1.
</event>
<event>
 5   0  0.4750125E-08  0.3899780E+04  0.7818609E-02  0.8025075E-01
        1   -1    0    0  501    0  0.00000000000E+00  0.00000000000E+00  0.12705140676E+04  0.12705140676E+04  0.50400001928E-02 0.  1.
       -1   -1    0    0    0  501  0.00000000000E+00  0.00000000000E+00 -0.29925452313E+04  0.29925452313E+04  0.50400001928E-02 0. -1.
    10030    2    1    2    0    0  0.00000000000E+00  0.00000000000E+00 -0.17220311637E+04  0.42630592989E+04  0.38997798986E+04 0.  0.
        1    1    3    3  502    0 -0.18752781057E+04 -0.50934580664E+03 -0.68485259720E+03  0.20603699193E+04  0.50400001928E-02 0. -1.
       -1    1    3    3    0  502  0.18752781057E+04  0.50934580664E+03 -0.10371785665E+04  0.22026893796E+04  0.50400001928E-02 0.  1.
</event>
<event>
 5   0  0.1501585E-07  0.3936239E+04  0.7818609E-02  0.8017534E-01
        2   -1    0    0  501    0  0.00000000000E+00  0.00000000000E+00  0.13640794109E+04  0.13640794109E+04  0.25500000920E-02 0. -1.
       -2   -1    0    0    0  501  0.00000000000E+00  0.00000000000E+00 -0.28396399874E+04  0.28396399874E+04  0.25500000920E-02 0.  1.
    10030    2    1    2    0    0  0.00000000000E+00  0.00000000000E+00 -0.14755605764E+04  0.42037193983E+04  0.39362390380E+04 0.  0.
        5    1    3    3  502    0  0.67939981710E+03  0.12261874674E+04  0.73752383988E+03  0.15840086241E+04  0.46999998093E+01 0. -1.
       -5    1    3    3    0  502 -0.67939981710E+03 -0.12261874674E+04 -0.22130844163E+04  0.26197107742E+04  0.46999998093E+01 0.  1.
</event>
<event>
 5   0  0.4750125E-08  0.3896882E+04  0.7818609E-02  0.8025678E-01
        1   -1    0    0  501    0  0.00000000000E+00  0.00000000000E+00  0.22611551619E+04  0.22611551619E+04  0.50400001928E-02 0.  1.
       -1   -1    0    0    0  501  0.00000000000E+00  0.00000000000E+00 -0.16789744754E+04  0.16789744754E+04  0.50400001928E-02 0. -1.
    10030    2    1    2    0    0  0.00000000000E+00  0.00000000000E+00  0.58218068654E+03  0.39401296374E+04  0.38968817287E+04 0.  0.
        3    1    3    3  502    0  0.13692608131E+04  0.13784157632E+04  0.43940365136E+03  0.19919791087E+04  0.10100000352E+00 0.  1.
       -3    1    3    3    0  502 -0.13692608131E+04 -0.13784157632E+04  0.14277703518E+03  0.19481505287E+04  0.10100000352E+00 0. -1.
</event>
<event>
 5   0  0.1546846E-07  0.3891349E+04  0.7818609E-02  0.8026831E-01
        2   -1    0    0  501    0  0.00000000000E+00  0.00000000000E+00  0.20862796130E+04  0.20862796130E+04  0.25500000920E-02 0.  1.
       -2   -1    0    0    0  501  0.00000000000E+00  0.00000000000E+00 -0.18145452711E+04  0.18145452711E+04  0.25500000920E-02 0. -1.
    10030    2    1    2    0    0  0.00000000000E+00  0.00000000000E+00  0.27173434196E+03  0.39008248841E+04  0.38913487667E+04 0.  0.
        2    1    3    3  502    0 -0.13069454673E+04  0.13797561073E+04  0.55379420862E+03  0.19795255481E+04  0.25500000920E-02 0.  1.
       -2    1    3    3    0  502  0.13069454673E+04 -0.13797561073E+04 -0.28205986667E+03  0.19212993360E+04  0.25500000920E-02 0. -1.
</event>
<event>
 5   0  0.1501585E-07  0.3882518E+04  0.7818609E-02  0.8028675E-01
       -2   -1    0    0    0  501  0.00000000000E+00  0.00000000000E+00  0.28637562461E+04  0.28637562461E+04  0.25500000920E-02 0. -1.
        2   -1    0    0  501    0  0.00000000000E+00  0.00000000000E+00 -0.13159243050E+04  0.13159243050E+04  0.25500000920E-02 0.  1.
    10030    2    1    2    0    0  0.00000000000E+00  0.00000000000E+00  0.15478319412E+04  0.41796805511E+04  0.38825179705E+04 0.  0.
        5    1    3    3  502    0  0.79823165289E+03  0.68313399843E+02  0.26774797609E+04  0.27947737748E+04  0.46999998093E+01 0. -1.
       -5    1    3    3    0  502 -0.79823165289E+03 -0.68313399843E+02 -0.11296478198E+04  0.13849067763E+04  0.46999998093E+01 0.  1.
</event>
<event>
 5   0  0.4750125E-08  0.3875523E+04  0.7818609E-02  0.8030139E-01
        1   -1    0    0  501    0  0.00000000000E+00  0.00000000000E+00  0.18294524373E+04  0.18294524373E+04  0.50400001928E-02 0. -1.
       -1   -1    0    0    0  501  0.00000000000E+00  0.00000000000E+00 -0.20524831276E+04  0.20524831276E+04  0.50400001928E-02 0.  1.
    10030    2    1    2    0    0  0.00000000000E+00  0.00000000000E+00 -0.22303069034E+03  0.38819355649E+04  0.38755233248E+04 0.  0.
        3    1    3    3  502    0  0.60440428556E+03  0.42686185576E+03 -0.19054013664E+04  0.20440327692E+04  0.10100000352E+00 0.  1.
       -3    1    3    3    0  502 -0.60440428556E+03 -0.42686185576E+03  0.16823706761E+04  0.18379027957E+04  0.10100000352E+00 0. -1.
</event>
<event>
 5   0  0.4750125E-08  0.3912594E+04  0.7818609E-02  0.8022415E-01
        1   -1    0    0  501    0  0.00000000000E+00  0.00000000000E+00  0.26871857286E+04  0.26871857286E+04  0.50400001928E-02 0. -1.
       -1   -1    0    0    0  501  0.00000000000E+00  0.00000000000E+00 -0.14242029436E+04  0.14242029436E+04  0.50400001928E-02 0.  1.
    10030    2    1    2    0    0  0.00000000000E+00  0.00000000000E+00  0.12629827850E+04  0.41113886722E+04  0.39125939348E+04 0.  0.
        4    1    3    3  502    0 -0.87795391431E+03  0.30725942178E+03  0.24399469392E+04  0.26112361262E+04  0.12699999809E+01 0. -1.
       -4    1    3    3    0  502  0.87795391431E+03 -0.30725942178E+03 -0.11769641542E+04  0.15001525459E+04  0.12699999809E+01 0.  1.
</event>
<event>
 5   0  0.1503228E-07  0.3565999E+04  0.7818609E-02  0.8098325E-01
       -2   -1    0    0    0  501  0.00000000000E+00  0.00000000000E+00  0.13759005956E+04  0.13759005956E+04  0.25500000920E-02 0.  1.
        2   -1    0    0  501    0  0.00000000000E+00  0.00000000000E+00 -0.23105500070E+04  0.23105500070E+04  0.25500000920E-02 0. -1.
    10030    2    1    2    0    0  0.00000000000E+00  0.00000000000E+00 -0.93464941137E+03  0.36864506026E+04  0.35659989516E+04 0.  0.
        3    1    3    3  502    0 -0.71967520581E+03 -0.73427046544E+03 -0.19732383264E+04  0.22250292181E+04  0.10100000352E+00 0. -1.
       -3    1    3    3    0  502  0.71967520581E+03  0.73427046544E+03  0.10385889151E+04  0.14614213845E+04  0.10100000352E+00 0.  1.
</event>
<event>
 5   0  0.4750125E-08  0.3906090E+04  0.7818609E-02  0.8023764E-01
        1   -1    0    0  501    0  0.00000000000E+00  0.00000000000E+00  0.19433989096E+04  0.19433989096E+04  0.50400001928E-02 0.  1.
       -1   -1    0    0    0  501  0.00000000000E+00  0.00000000000E+00 -0.19627390959E+04  0.19627390959E+04  0.50400001928E-02 0. -1.
    10030    2    1    2    0    0  0.00000000000E+00  0.00000000000E+00 -0.19340186238E+02  0.39061380055E+04  0.39060901264E+04 0.  0.
        5    1    3    3  502    0  0.18740453202E+04 -0.45715525567E+03 -0.31516710919E+03  0.19545815886E+04  0.46999998093E+01 0. -1.
       -5    1    3    3    0  502 -0.18740453202E+04  0.45715525567E+03  0.29582692295E+03  0.19515564169E+04  0.46999998093E+01 0.  1.
</event>
<event>
 5   0  0.1538018E-07  0.3896122E+04  0.7818609E-02  0.8025836E-01
        2   -1    0    0  501    0  0.00000000000E+00  0.00000000000E+00  0.23876895334E+04  0.23876895334E+04  0.25500000920E-02 0. -1.
       -2   -1    0    0    0  501  0.00000000000E+00  0.00000000000E+00 -0.15893785860E+04  0.15893785860E+04  0.25500000920E-02 0.  1.
    10030    2    1    2    0    0  0.00000000000E+00  0.00000000000E+00  0.79831094741E+03  0.39770681193E+04  0.38961224900E+04 0.  0.
        1    1    3    3  502    0  0.17106912003E+04  0.76442763140E+03  0.94326699812E+03  0.20977527538E+04  0.50400001928E-02 0.  1.
       -1    1    3    3    0  502 -0.17106912003E+04 -0.76442763140E+03 -0.14495605071E+03  0.18793153655E+04  0.50400001928E-02 0. -1.
</event>
<event>
 5   0  0.4750125E-08  0.3895599E+04  0.7818609E-02  0.8025945E-01
        1   -1    0    0  501    0  0.00000000000E+00  0.00000000000E+00  0.12516490570E+04  0.12516490570E+04  0.50400001928E-02 0.  1.
       -1   -1    0    0    0  501  0.00000000000E+00  0.00000000000E+00 -0.30311397913E+04  0.30311397913E+04  0.50400001928E-02 0. -1.
    10030    2    1    2    0    0  0.00000000000E+00  0.00000000000E+00 -0.17794907343E+04  0.42827888484E+04  0.38955991896E+04 0.  0.
        1    1    3    3  502    0  0.91321948167E+03 -0.29155142693E+03 -0.27538386238E+04  0.29159216763E+04  0.50400001928E-02 0. -1.
       -1    1    3    3    0  502 -0.91321948167E+03  0.29155142693E+03  0.97434788951E+03  0.13668671721E+04  0.50400001928E-02 0.  1.
</event>
<event>
 5   0  0.1546846E-07  0.3907744E+04  0.7818609E-02  0.8023420E-01
       -2   -1    0    0    0  501  0.00000000000E+00  0.00000000000E+00  0.29872302945E+04  0.29872302945E+04  0.25500000920E-02 0.  1.
        2   -1    0    0  501    0  0.00000000000E+00  0.00000000000E+00 -0.12779786236E+04  0.12779786236E+04  0.25500000920E-02 0. -1.
    10030    2    1    2    0    0  0.00000000000E+00  0.00000000000E+00  0.17092516709E+04  0.42652089180E+04  0.39077443417E+04 0.  0.
        2    1    3    3  502    0 -0.70989850375E+03 -0.28711798481E+03  0.28166198931E+04  0.29188594083E+04  0.25500000920E-02 0.  1.
       -2    1    3    3    0  502  0.70989850375E+03  0.28711798481E+03 -0.11073682222E+04  0.13463495098E+04  0.25500000920E-02 0. -1.
</event>
<event>
 5   0  0.4750125E-08  0.3841762E+04  0.7818609E-02  0.8037252E-01
       -1   -1    0    0    0  501  0.00000000000E+00  0.00000000000E+00  0.25227306123E+04  0.25227306123E+04  0.50400001928E-02 0. -1.
        1   -1    0    0  501    0  0.00000000000E+00  0.00000000000E+00 -0.14626148414E+04  0.14626148415E+04  0.50400001928E-02 0.  1.
    10030    2    1    2    0    0  0.00000000000E+00  0.00000000000E+00  0.10601157709E+04  0.39853454538E+04  0.38417616972E+04 0.  0.
        3    1    3    3  502    0  0.64368393299E+03 -0.80856388522E+03  0.22097329689E+04  0.24394721491E+04  0.10100000352E+00 0. -1.
       -3    1    3    3    0  502 -0.64368393299E+03  0.80856388522E+03 -0.11496171980E+04  0.15458733047E+04  0.10100000352E+00 0.  1.
</event>
<event>
 5   0  0.1520986E-07  0.3882901E+04  0.7818609E-02  0.8028595E-01
       -2   -1    0    0    0  501  0.00000000000E+00  0.00000000000E+00  0.16439514159E+04  0.16439514159E+04  0.25500000920E-02 0.  1.
        2   -1    0    0  501    0  0.00000000000E+00  0.00000000000E+00 -0.22927871614E+04  0.22927871614E+04  0.25500000920E-02 0. -1.
    10030    2    1    2    0    0  0.00000000000E+00  0.00000000000E+00 -0.64883574552E+03  0.39367385772E+04  0.38829013380E+04 0.  0.
        4    1    3    3  502    0 -0.14140151868E+04 -0.11500304875E+04 -0.10024352693E+04  0.20801171008E+04  0.12699999809E+01 0. -1.
       -4    1    3    3    0  502  0.14140151868E+04  0.11500304875E+04  0.35359952380E+03  0.18566214765E+04  0.12699999809E+01 0.  1.
</event>
<event>
 5   0  0.1538018E-07  0.3877309E+04  0.7818609E-02  0.8029765E-01
        2   -1    0    0  501    0  0.00000000000E+00  0.00000000000E+00  0.16451376761E+04  0.16451376761E+04  0.25500000920E-02 0. -1.
       -2   -1    0    0    0  501  0.00000000000E+00  0.00000000000E+00 -0.22845394565E+04  0.22845394565E+04  0.25500000920E-02 0.  1.
    10030    2    1    2    0    0  0.00000000000E+00  0.00000000000E+00 -0.63940178035E+03  0.39296771326E+04  0.38773093415E+04 0.  0.
        1    1    3    3  502    0  0.24860566989E+03 -0.15400398697E+04  0.84686825808E+03  0.17750249085E+04  0.50400001928E-02 0. -1.
       -1    1    3    3    0  502 -0.24860566989E+03  0.15400398697E+04 -0.14862700384E+04  0.21546522240E+04  0.50400001928E-02 0.  1.
</event>
<event>
 5   0  0.4750125E-08  0.3996389E+04  0.7818609E-02  0.8005275E-01
        1   -1    0    0  501    0  0.00000000000E+00  0.00000000000E+00  0.25212690416E+04  0.25212690416E+04  0.50400001928E-02 0. -1.
       -1   -1    0    0    0  501  0.00000000000E+00  0.00000000000E+00 -0.15836397684E+04  0.15836397684E+04  0.50400001928E-02 0.  1.
    10030    2    1    2    0    0  0.00000000000E+00  0.00000000000E+00  0.93762927320E+03  0.41049088099E+04  0.39963893309E+04 0.  0.
        3    1    3    3  502    0 -0.10350061172E+04  0.41493773676E+03 -0.12343333698E+04  0.16634271448E+04  0.10100000352E+00 0.  1.
       -3    1    3    3    0  502  0.10350061172E+04 -0.41493773676E+03  0.21719626430E+04  0.24414816651E+04  0.10100000352E+00 0. -1.
</event>
<event>
 5   0  0.4750125E-08  0.3882148E+04  0.7818609E-02  0.8028752E-01
        1   -1    0    0  501    0  0.00000000000E+00  0.00000000000E+00  0.20079351634E+04  0.20079351634E+04  0.50400001928E-02 0.  1.
       -1   -1    0    0    0  501  0.00000000000E+00  0.00000000000E+00 -0.18764388544E+04  0.18764388544E+04  0.50400001928E-02 0. -1.
    10030    2    1    2    0    0  0.00000000000E+00  0.00000000000E+00  0.13149630896E+03  0.38843740179E+04  0.38821476313E+04 0.  0.
        5    1    3    3  502    0 -0.52315397678E+02  0.89368041017E+02 -0.18736673274E+04  0.18765326780E+04  0.46999998093E+01 0. -1.
       -5    1    3    3    0  502  0.52315397678E+02 -0.89368041017E+02  0.20051636364E+04  0.20078413399E+04  0.46999998093E+01 0.  1.
</event>
<event>
 5   0  0.4750125E-08  0.3901842E+04  0.7818609E-02  0.8024646E-01
        1   -1    0    0  501    0  0.00000000000E+00  0.00000000000E+00  0.29339867691E+04  0.29339867691E+04  0.50400001928E-02 0.  1.
       -1   -1    0    0    0  501  0.00000000000E+00  0.00000000000E+00 -0.12972424030E+04  0.12972424030E+04  0.50400001928E-02 0. -1.
    10030    2    1    2    0    0  0.00000000000E+00  0.00000000000E+00  0.16367443660E+04  0.42312291721E+04  0.39018416404E+04 0.  0.
        3    1    3    3  502    0  0.38481682756E+03  0.66387802867E+02 -0.12544280570E+04  0.13138040537E+04  0.10100000352E+00 0. -1.
       -3    1    3    3    0  502 -0.38481682756E+03 -0.66387802867E+02  0.28911724231E+04  0.29174251184E+04  0.10100000352E+00 0.  1.
</event>
<event>
 5   0  0.1546846E-07  0.3900702E+04  0.7818609E-02  0.8024883E-01
        2   -1    0    0  501    0  0.00000000000E+00  0.00000000000E+00  0.24942832858E+04  0.24942832858E+04  0.25500000920E-02 0. -1.
       -2   -1    0    0    0  501  0.00000000000E+00  0.00000000000E+00 -0.15250349477E+04  0.15250349477E+04  0.25500000920E-02 0.  1.
    10030    2    1    2    0    0  0.00000000000E+00  0.00000000000E+00  0.96924833808E+03  0.40193182335E+04  0.39007020806E+04 0.  0.
        2    1    3    3  502    0 -0.13079299040E+04  0.10851434604E+04 -0.50137122658E+03  0.17718888426E+04  0.25500000920E-02 0.  1.
       -2    1    3    3    0  502  0.13079299040E+04 -0.10851434604E+04  0.14706195647E+04  0.22474293910E+04  0.25500000920E-02 0. -1.
</event>
<event>
 5   0  0.4750125E-08  0.3867535E+04  0.7818609E-02  0.8031815E-01
        1   -1    0    0  501    0  0.00000000000E+00  0.00000000000E+00  0.29928209285E+04  0.29928209286E+04  0.50400001928E-02 0.  1.
       -1   -1    0    0    0  501  0.00000000000E+00  0.00000000000E+00 -0.12494753904E+04  0.12494753904E+04  0.50400001928E-02 0. -1.
    10030    2    1    2    0    0  0.00000000000E+00  0.00000000000E+00  0.17433455381E+04  0.42422963190E+04  0.38675346660E+04 0.  0.
        3    1    3    3  502    0  0.10943779722E+04 -0.10606871741E+04  0.21772759450E+04  0.26576777416E+04  0.10100000352E+00 0.  1.
       -3    1    3    3    0  502 -0.10943779722E+04  0.10606871741E+04 -0.43393040688E+03  0.15846185774E+04  0.10100000352E+00 0. -1.
</event>
<event>
 5   0  0.1538018E-07  0.3922355E+04  0.7818609E-02  0.8020396E-01
       -2   -1    0    0    0  501  0.00000000000E+00  0.00000000000E+00  0.32079842333E+04  0.32079842333E+04  0.25500000920E-02 0. -1.
        2   -1    0    0  501    0  0.00000000000E+00  0.00000000000E+00 -0.11989516093E+04  0.11989516093E+04  0.25500000920E-02 0.  1.
    10030    2    1    2    0    0  0.00000000000E+00  0.00000000000E+00  0.20090326239E+04  0.44069358426E+04  0.39223553430E+04 0.  0.
        1    1    3    3  502    0  0.99959743541E+03 -0.12913322401E+04  0.22247297280E+04  0.27597384568E+04  0.50400001928E-02 0. -1.
       -1    1    3    3    0  502 -0.99959743541E+03  0.12913322401E+04 -0.21569710403E+03  0.16471973858E+04  0.50400001928E-02 0.  1.
</event>
<event>
 5   0  0.1520986E-07  0.3878930E+04  0.7818609E-02  0.8029426E-01
        2   -1    0    0  501    0  0.00000000000E+00  0.00000000000E+00  0.18607834340E+04  0.18607834340E+04  0.25500000920E-02 0.  1.
       -2   -1    0    0    0  501  0.00000000000E+00  0.00000000000E+00 -0.20214735903E+04  0.20214735903E+04  0.25500000920E-02 0. -1.
    10030    2    1    2    0    0  0.00000000000E+00  0.00000000000E+00 -0.16069015635E+03  0.38822570243E+04  0.38789300428E+04 0.  0.
        4    1    3    3  502    0  0.11935270157E+04 -0.12649211714E+04 -0.93956299807E+03  0.19766923249E+04  0.12699999809E+01 0. -1.
       -4    1    3    3    0  502 -0.11935270157E+04  0.12649211714E+04  0.77887284172E+03  0.19055646994E+04  0.12699999809E+01 0.  1.
</event>
<event>
 5   0  0.4750125E-08  0.3628255E+04  0.7818609E-02  0.8084050E-01
        1   -1    0    0  501    0  0.00000000000E+00  0.00000000000E+00  0.14616991156E+04  0.14616991156E+04  0.50400001928E-02 0.  1.
       -1   -1    0    0    0  501  0.00000000000E+00  0.00000000000E+00 -0.22515293993E+04  0.22515293993E+04  0.50400001928E-02 0. -1.
    10030    2    1    2    0    0  0.00000000000E+00  0.00000000000E+00 -0.78983028363E+03  0.37132285149E+04  0.36282549699E+04 0.  0.
        5    1    3    3  502    0  0.14825785051E+04  0.10274507508E+04 -0.19714768300E+03  0.18145477034E+04  0.46999998093E+01 0. -1.
       -5    1    3    3    0  502 -0.14825785051E+04 -0.10274507508E+04 -0.59268260062E+03  0.18986808115E+04  0.46999998093E+01 0.  1.
</event>
<event>
 5   0  0.1503228E-07  0.3931957E+04  0.7818609E-02  0.8018415E-01
        2   -1    0    0  501    0  0.00000000000E+00  0.00000000000E+00  0.25065915603E+04  0.25065915603E+04  0.25500000920E-02 0. -1.
       -2   -1    0    0    0  501  0.00000000000E+00  0.00000000000E+00 -0.15419627278E+04  0.15419627278E+04  0.25500000920E-02 0.  1.
    10030    2    1    2    0    0  0.00000000000E+00  0.00000000000E+00  0.96462883248E+03  0.40485542881E+04  0.39319566426E+04 0.  0.
        3    1    3    3  502    0 -0.18636866804E+04  0.62149730333E+03  0.40606572461E+03  0.20061097487E+04  0.10100000352E+00 0.  1.
       -3    1    3    3    0  502  0.18636866804E+04 -0.62149730333E+03  0.55856310787E+03  0.20424445394E+04  0.10100000352E+00 0. -1.
</event>
<event>
 5   0  0.1503228E-07  0.3908813E+04  0.7818609E-02  0.8023199E-01
        2   -1    0    0  501    0  0.00000000000E+00  0.00000000000E+00  0.10345444930E+04  0.10345444930E+04  0.25500000920E-02 0. -1.
       -2   -1    0    0    0  501  0.00000000000E+00  0.00000000000E+00 -0.36921605790E+04  0.36921605790E+04  0.25500000920E-02 0.  1.
    10030    2    1    2    0    0  0.00000000000E+00  0.00000000000E+00 -0.26576160861E+04  0.47267050720E+04  0.39088128092E+04 0.  0.
        3    1    3    3  502    0 -0.60272509011E+03 -0.86241771252E+03  0.66283506159E+03  0.12435401780E+04  0.10100000352E+00 0. -1.
       -3    1    3    3    0  502  0.60272509011E+03  0.86241771252E+03 -0.33204511477E+04  0.34831648941E+04  0.10100000352E+00 0.  1.
</event>
<event>
 5   0  0.4762788E-08  0.3902822E+04  0.7818609E-02  0.8024443E-01
       -1   -1    0    0    0  501  0.00000000000E+00  0.00000000000E+00  0.24487333233E+04  0.24487333233E+04  0.50400001928E-02 0. -1.
        1   -1    0    0  501    0  0.00000000000E+00  0.00000000000E+00 -0.15550916979E+04  0.15550916979E+04  0.50400001928E-02 0.  1.
    10030    2    1    2    0    0  0.00000000000E+00  0.00000000000E+00  0.89364162546E+03  0.40038250212E+04  0.39028219849E+04 0.  0.
        2    1    3    3  502    0  0.93754511269E+03 -0.76946505054E+03  0.20150874403E+04  0.23519448748E+04  0.25500000920E-02 0. -1.
       -2    1    3    3    0  502 -0.93754511269E+03  0.76946505054E+03 -0.11214458148E+04  0.16518801463E+04  0.25500000920E-02 0.  1.
</event>
<event>
 5   0  0.4750125E-08  0.3921160E+04  0.7818609E-02  0.8020643E-01
       -1   -1    0    0    0  501  0.00000000000E+00  0.00000000000E+00  0.20185169697E+04  0.20185169697E+04  0.50400001928E-02 0.  1.
        1   -1    0    0  501    0  0.00000000000E+00  0.00000000000E+00 -0.19043063695E+04  0.19043063695E+04  0.50400001928E-02 0. -1.
    10030    2    1    2    0    0  0.00000000000E+00  0.00000000000E+00  0.11421060026E+03  0.39228233392E+04  0.39211604009E+04 0.  0.
        5    1    3    3  502    0  0.10157482450E+04  0.16300829005E+04  0.45089371627E+03  0.19728765783E+04  0.46999998093E+01 0.  1.
       -5    1    3    3    0  502 -0.10157482450E+04 -0.16300829005E+04 -0.33668311601E+03  0.19499467609E+04  0.46999998093E+01 0. -1.
</event>
<event>
 5   0  0.4750125E-08  0.3901888E+04  0.7818609E-02  0.8024637E-01
       -1   -1    0    0    0  501  0.00000000000E+00  0.00000000000E+00  0.19276335525E+04  0.19276335526E+04  0.50400001928E-02 0.  1.
        1   -1    0    0  501    0  0.00000000000E+00  0.00000000000E+00 -0.19745362815E+04  0.19745362815E+04  0.50400001928E-02 0. -1.
    10030    2    1    2    0    0  0.00000000000E+00  0.00000000000E+00 -0.46902728942E+02  0.39021698340E+04  0.39018879466E+04 0.  0.
        1    1    3    3  502    0 -0.25162501970E+03  0.13902040304E+04  0.13220825635E+04  0.19349120656E+04  0.50400001928E-02 0.  1.
       -1    1    3    3    0  502  0.25162501970E+03 -0.13902040304E+04 -0.13689852924E+04  0.19672577685E+04  0.50400001928E-02 0. -1.
</event>
<event>
 5   0  0.1501585E-07  0.3883158E+04  0.7818609E-02  0.8028541E-01
       -2   -1    0    0    0  501  0.00000000000E+00  0.00000000000E+00  0.20206863698E+04  0.20206863698E+04  0.25500000920E-02 0. -1.
        2   -1    0    0  501    0  0.00000000000E+00  0.00000000000E+00 -0.18655689386E+04  0.18655689386E+04  0.25500000920E-02 0.  1.
    10030    2    1    2    0    0  0.00000000000E+00  0.00000000000E+00  0.15511743119E+03  0.38862553083E+04  0.38831583671E+04 0.  0.
        5    1    3    3  502    0 -0.87127780112E+03 -0.13062198114E+04 -0.10654433927E+04  0.18975054454E+04  0.46999998093E+01 0.  1.
       -5    1    3    3    0  502  0.87127780112E+03  0.13062198114E+04  0.12205608239E+04  0.19887498629E+04  0.46999998093E+01 0. -1.
</event>
<event>
 5   0  0.1503228E-07  0.3884856E+04  0.7818609E-02  0.8028186E-01
       -2   -1    0    0    0  501  0.00000000000E+00  0.00000000000E+00  0.23995005463E+04  0.23995005463E+04  0.25500000920E-02 0. -1.
        2   -1    0    0  501    0  0.00000000000E+00  0.00000000000E+00 -0.15724214984E+04  0.15724214984E+04  0.25500000920E-02 0.  1.
    10030    2    1    2    0    0  0.00000000000E+00  0.00000000000E+00  0.82707904792E+03  0.39719220447E+04  0.38848558503E+04 0.  0.
        3    1    3    3  502    0 -0.12492668695E+04 -0.14682117920E+04  0.65702093178E+03  0.20366615066E+04  0.10100000352E+00 0. -1.
       -3    1    3    3    0  502  0.12492668695E+04  0.14682117920E+04  0.17005811613E+03  0.19352605381E+04  0.10100000352E+00 0.  1.
</event>
<event>
 5   0  0.1520986E-07  0.3911455E+04  0.7818609E-02  0.8022651E-01
       -2   -1    0    0    0  501  0.00000000000E+00  0.00000000000E+00  0.22035989465E+04  0.22035989465E+04  0.25500000920E-02 0. -1.
        2   -1    0    0  501    0  0.00000000000E+00  0.00000000000E+00 -0.17357375621E+04  0.17357375621E+04  0.25500000920E-02 0.  1.
    10030    2    1    2    0    0  0.00000000000E+00  0.00000000000E+00  0.46786138437E+03  0.39393365086E+04  0.39114546978E+04 0.  0.
        4    1    3    3  502    0  0.39288117753E+03 -0.14242083777E+04  0.15245264314E+04  0.21229478505E+04  0.12699999809E+01 0. -1.
       -4    1    3    3    0  502 -0.39288117753E+03  0.14242083777E+04 -0.10566650470E+04  0.18163886581E+04  0.12699999809E+01 0.  1.
</event>
<event>
 5   0  0.1503228E-07  0.3926905E+04  0.7818609E-02  0.8019457E-01
       -2   -1    0    0    0  501  0.00000000000E+00  0.00000000000E+00  0.16538865518E+04  0.16538865518E+04  0.25500000920E-02 0.  1.
        2   -1    0    0  501    0  0.00000000000E+00  0.00000000000E+00 -0.23309609658E+04  0.23309609658E+04  0.25500000920E-02 0. -1.
    10030    2    1    2    0    0  0.00000000000E+00  0.00000000000E+00 -0.67707441403E+03  0.39848475176E+04  0.39269046305E+04 0.  0.
        3    1    3    3  502    0 -0.18074288834E+04  0.74555412073E+03 -0.15561402544E+03  0.19613428692E+04  0.10100000352E+00 0.  1.
       -3    1    3    3    0  502  0.18074288834E+04 -0.74555412073E+03 -0.52146038859E+03  0.20235046485E+04  0.10100000352E+00 0. -1.
</event>
<event>
 5   0  0.4750125E-08  0.3913827E+04  0.7818609E-02  0.8022160E-01
       -1   -1    0    0    0  501  0.00000000000E+00  0.00000000000E+00  0.27847929876E+04  0.27847929876E+04  0.50400001928E-02 0. -1.
        1   -1    0    0  501    0  0.00000000000E+00  0.00000000000E+00 -0.13751510000E+04  0.13751510000E+04  0.50400001928E-02 0.  1.
    10030    2    1    2    0    0  0.00000000000E+00  0.00000000000E+00  0.14096419876E+04  0.41599439876E+04  0.39138272122E+04 0.  0.
        5    1    3    3  502    0  0.22854167028E+03 -0.44071687747E+02  0.27700225360E+04  0.27797878604E+04  0.46999998093E+01 0. -1.
       -5    1    3    3    0  502 -0.22854167028E+03  0.44071687747E+02 -0.13603805485E+04  0.13801561272E+04  0.46999998093E+01 0.  1.
</event>
<event>
 5   0  0.4750125E-08  0.3885804E+04  0.7818609E-02  0.8027988E-01
       -1   -1    0    0    0  501  0.00000000000E+00  0.00000000000E+00  0.30183523749E+04  0.30183523749E+04  0.50400001928E-02 0. -1.
        1   -1    0    0  501    0  0.00000000000E+00  0.00000000000E+00 -0.12506383808E+04  0.12506383809E+04  0.50400001928E-02 0.  1.
    10030    2    1    2    0    0  0.00000000000E+00  0.00000000000E+00  0.17677139941E+04  0.42689907558E+04  0.38858035602E+04 0.  0.
        4    1    3    3  502    0 -0.11390691415E+04  0.14292549783E+04  0.16081227219E+04  0.24344010770E+04  0.12699999809E+01 0. -1.
       -4    1    3    3    0  502  0.11390691415E+04 -0.14292549783E+04  0.15959127222E+03  0.18345896788E+04  0.12699999809E+01 0.  1.
</event>
<event>
 5   0  0.4750125E-08  0.3885240E+04  0.7818609E-02  0.8028106E-01
       -1   -1    0    0    0  501  0.00000000000E+00  0.00000000000E+00  0.15640694326E+04  0.15640694326E+04  0.50400001928E-02 0.  1.
        1   -1    0    0  501    0  0.00000000000E+00  0.00000000000E+00 -0.24127903307E+04  0.24127903307E+04  0.50400001928E-02 0. -1.
    10030    2    1    2    0    0  0.00000000000E+00  0.00000000000E+00 -0.84872089819E+03  0.39768597633E+04  0.38852395568E+04 0.  0.
        5    1    3    3  502    0  0.86298455066E+01  0.18901281183E+04 -0.88336660124E+03  0.20863886071E+04  0.46999998093E+01 0. -1.
       -5    1    3    3    0  502 -0.86298455066E+01 -0.18901281183E+04  0.34645703054E+02  0.18904711562E+04  0.46999998093E+01 0.  1.
</event>
<event>
 5   0  0.4750125E-08  0.3820993E+04  0.7818609E-02  0.8041665E-01
       -1   -1    0    0    0  501  0.00000000000E+00  0.00000000000E+00  0.24587917210E+04  0.24587917210E+04  0.50400001928E-02 0.  1.
        1   -1    0    0  501    0  0.00000000000E+00  0.00000000000E+00 -0.14844680223E+04  0.14844680223E+04  0.50400001928E-02 0. -1.
    10030    2    1    2    0    0  0.00000000000E+00  0.00000000000E+00  0.97432369872E+03  0.39432597433E+04  0.38209934223E+04 0.  0.
        4    1    3    3  502    0  0.16907531279E+03  0.16777309162E+03  0.24434081119E+04  0.24549906488E+04  0.12699999809E+01 0.  1.
       -4    1    3    3    0  502 -0.16907531279E+03 -0.16777309162E+03 -0.14690844132E+04  0.14882690945E+04  0.12699999809E+01 0. -1.
</event>
<event>
 5   0  0.1503228E-07  0.3894666E+04  0.7818609E-02  0.8026139E-01
       -2   -1    0    0    0  501  0.00000000000E+00  0.00000000000E+00  0.15625198855E+04  0.15625198856E+04  0.25500000920E-02 0.  1.
        2   -1    0    0  501    0  0.00000000000E+00  0.00000000000E+00 -0.24269174140E+04  0.24269174140E+04  0.25500000920E-02 0. -1.
    10030    2    1    2    0    0  0.00000000000E+00  0.00000000000E+00 -0.86439752846E+03  0.39894372996E+04  0.38946664658E+04 0.  0.
        3    1    3    3  502    0 -0.12834302917E+04  0.10518008876E+04  0.61173139903E+03  0.17685286923E+04  0.10100000352E+00 0.  1.
       -3    1    3    3    0  502  0.12834302917E+04 -0.10518008876E+04 -0.14761289275E+04  0.22209086072E+04  0.10100000352E+00 0. -1.
</event>
<event>
 5   0  0.4750125E-08  0.3896875E+04  0.7818609E-02  0.8025680E-01
        1   -1    0    0  501    0  0.00000000000E+00  0.00000000000E+00  0.24540046003E+04  0.24540046004E+04  0.50400001928E-02 0.  1.
       -1   -1    0    0    0  501  0.00000000000E+00  0.00000000000E+00 -0.15470256314E+04  0.15470256314E+04  0.50400001928E-02 0. -1.
    10030    2    1    2    0    0  0.00000000000E+00  0.00000000000E+00  0.90697896891E+03  0.40010302318E+04  0.38968746536E+04 0.  0.
        3    1    3    3  502    0  0.91535568557E+03  0.16522501653E+04 -0.37412522246E+02  0.18892343282E+04  0.10100000352E+00 0. -1.
       -3    1    3    3    0  502 -0.91535568557E+03 -0.16522501653E+04  0.94439149116E+03  0.21117959036E+04  0.10100000352E+00 0.  1.
</event>
<event>
 5   0  0.1501585E-07  0.3867751E+04  0.7818609E-02  0.8031770E-01
        2   -1    0    0  501    0  0.00000000000E+00  0.00000000000E+00  0.20825681208E+04  0.20825681208E+04  0.25500000920E-02 0.  1.
       -2   -1    0    0    0  501  0.00000000000E+00  0.00000000000E+00 -0.17957993181E+04  0.17957993181E+04  0.25500000920E-02 0. -1.
    10030    2    1    2    0    0  0.00000000000E+00  0.00000000000E+00  0.28676880271E+03  0.38783674389E+04  0.38677509802E+04 0.  0.
        5    1    3    3  502    0 -0.16051895725E+04  0.17171113293E+03  0.12110765305E+04  0.20181295126E+04  0.46999998093E+01 0.  1.
       -5    1    3    3    0  502  0.16051895725E+04 -0.17171113293E+03 -0.92430772781E+03  0.18602379263E+04  0.46999998093E+01 0. -1.
</event>
<event>
 5   0  0.1503228E-07  0.3901768E+04  0.7818609E-02  0.8024662E-01
        2   -1    0    0  501    0  0.00000000000E+00  0.00000000000E+00  0.19011995879E+04  0.19011995879E+04  0.25500000920E-02 0.  1.
       -2   -1    0    0    0  501  0.00000000000E+00  0.00000000000E+00 -0.20018671277E+04  0.20018671277E+04  0.25500000920E-02 0. -1.
    10030    2    1    2    0    0  0.00000000000E+00  0.00000000000E+00 -0.10066753980E+03  0.39030667156E+04  0.39017682956E+04 0.  0.
        3    1    3    3  502    0 -0.17411316926E+04 -0.77028595628E+03  0.37532977548E+03  0.19405546826E+04  0.10100000352E+00 0. -1.
       -3    1    3    3    0  502  0.17411316926E+04  0.77028595628E+03 -0.47599731528E+03  0.19625120330E+04  0.10100000352E+00 0.  1.
</event>
<event>
 5   0  0.4750125E-08  0.3863044E+04  0.7818609E-02  0.8032759E-01
       -1   -1    0    0    0  501  0.00000000000E+00  0.00000000000E+00  0.15116899833E+04  0.15116899833E+04  0.50400001928E-02 0. -1.
        1   -1    0    0  501    0  0.00000000000E+00  0.00000000000E+00 -0.24679516512E+04  0.24679516512E+04  0.50400001928E-02 0.  1.
    10030    2    1    2    0    0  0.00000000000E+00  0.00000000000E+00 -0.95626166790E+03  0.39796416346E+04  0.38630442868E+04 0.  0.
        3    1    3    3  502    0  0.25541032156E+02  0.15708935532E+03 -0.24611853884E+04  0.24663257969E+04  0.10100000352E+00 0.  1.
       -3    1    3    3    0  502 -0.25541032156E+02 -0.15708935532E+03  0.15049237205E+04  0.15133158377E+04  0.10100000352E+00 0. -1.
</event>
<event>
 5   0  0.1520986E-07  0.3908770E+04  0.7818609E-02  0.8023208E-01
        2   -1    0    0  501    0  0.00000000000E+00  0.00000000000E+00  0.18826907028E+04  0.18826907028E+04  0.25500000920E-02 0. -1.
       -2   -1    0    0    0  501  0.00000000000E+00  0.00000000000E+00 -0.20288094771E+04  0.20288094771E+04  0.25500000920E-02 0.  1.
    10030    2    1    2    0    0  0.00000000000E+00  0.00000000000E+00 -0.14611877436E+03  0.39115001799E+04  0.39087700062E+04 0.  0.
        4    1    3    3  502    0  0.26809169616E+03  0.12877761242E+04 -0.15195373151E+04  0.20097850055E+04  0.12699999809E+01 0.  1.
       -4    1    3    3    0  502 -0.26809169616E+03 -0.12877761242E+04  0.13734185407E+04  0.19017151744E+04  0.12699999809E+01 0. -1.
</event>
<event>
 5   0  0.4762788E-08  0.3849004E+04  0.7818609E-02  0.8035720E-01
        1   -1    0    0  501    0  0.00000000000E+00  0.00000000000E+00  0.21989864751E+04  0.21989864751E+04  0.50400001928E-02 0. -1.
       -1   -1    0    0    0  501  0.00000000000E+00  0.00000000000E+00 -0.16842793186E+04  0.16842793186E+04  0.50400001928E-02 0.  1.
    10030    2    1    2    0    0  0.00000000000E+00  0.00000000000E+00  0.51470715644E+03  0.38832657937E+04  0.38490037370E+04 0.  0.
        2    1    3    3  502    0 -0.14376284692E+04 -0.12724172344E+04  0.12242376389E+03  0.19237486353E+04  0.25500000920E-02 0.  1.
       -2    1    3    3    0  502  0.14376284692E+04  0.12724172344E+04  0.39228339255E+03  0.19595171584E+04  0.25500000920E-02 0. -1.
</event>
<event>
 5   0  0.4762788E-08  0.3756470E+04  0.7818609E-02  0.8055561E-01
        1   -1    0    0  501    0  0.00000000000E+00  0.00000000000E+00  0.15833624440E+04  0.15833624440E+04  0.50400001928E-02 0.  1.
       -1   -1    0    0    0  501  0.00000000000E+00  0.00000000000E+00 -0.22280219097E+04  0.22280219097E+04  0.50400001928E-02 0. -1.
    10030    2    1    2    0    0  0.00000000000E+00  0.00000000000E+00 -0.64465946572E+03  0.38113843537E+04  0.37564697344E+04 0.  0.
        2    1    3    3  502    0 -0.18730823771E+04  0.19498622011E+02 -0.46199533359E+03  0.19293152868E+04  0.25500000920E-02 0.  1.
       -2    1    3    3    0  502  0.18730823771E+04 -0.19498622011E+02 -0.18266413214E+03  0.18820690669E+04  0.25500000920E-02 0. -1.
</event>
<event>
 5   0  0.4750125E-08  0.3910559E+04  0.7818609E-02  0.8022837E-01
        1   -1    0    0  501    0  0.00000000000E+00  0.00000000000E+00  0.16841266382E+04  0.16841266382E+04  0.50400001928E-02 0.  1.
       -1   -1    0    0    0  501  0.00000000000E+00  0.00000000000E+00 -0.22700887563E+04  0.22700887563E+04  0.50400001928E-02 0. -1.
    10030    2    1    2    0    0  0.00000000000E+00  0.00000000000E+00 -0.58596211818E+03  0.39542153945E+04  0.39105585001E+04 0.  0.
        4    1    3    3  502    0 -0.13732997974E+04 -0.40098765062E+03  0.10547042156E+04  0.17773986679E+04  0.12699999809E+01 0.  1.
       -4    1    3    3    0  502  0.13732997974E+04  0.40098765062E+03 -0.16406663337E+04  0.21768167266E+04  0.12699999809E+01 0. -1.
</event>
<event>
 5   0  0.4750125E-08  0.3934140E+04  0.7818609E-02  0.8017966E-01
       -1   -1    0    0    0  501  0.00000000000E+00  0.00000000000E+00  0.17342241997E+04  0.17342241998E+04  0.50400001928E-02 0.  1.
        1   -1    0    0  501    0  0.00000000000E+00  0.00000000000E+00 -0.22311791125E+04  0.22311791125E+04  0.50400001928E-02 0. -1.
    10030    2    1    2    0    0  0.00000000000E+00  0.00000000000E+00 -0.49695491278E+03  0.39654033123E+04  0.39341402166E+04 0.  0.
        3    1    3    3  502    0  0.15265931933E+04 -0.11354605587E+04 -0.75205483042E+03  0.20458113149E+04  0.10100000352E+00 0.  1.
       -3    1    3    3    0  502 -0.15265931933E+04  0.11354605587E+04  0.25509991764E+03  0.19195919974E+04  0.10100000352E+00 0. -1.
</event>
<event>
 5   0  0.4750125E-08  0.3896877E+04  0.7818609E-02  0.8025679E-01
       -1   -1    0    0    0  501  0.00000000000E+00  0.00000000000E+00  0.27612134022E+04  0.27612134022E+04  0.50400001928E-02 0. -1.
        1   -1    0    0  501    0  0.00000000000E+00  0.00000000000E+00 -0.13749076573E+04  0.13749076574E+04  0.50400001928E-02 0.  1.
    10030    2    1    2    0    0  0.00000000000E+00  0.00000000000E+00  0.13863057448E+04  0.41361210596E+04  0.38968774424E+04 0.  0.
        5    1    3    3  502    0  0.22467889412E+03  0.18070673317E+04  0.14288284123E+04  0.23146372650E+04  0.46999998093E+01 0. -1.
       -5    1    3    3    0  502 -0.22467889412E+03 -0.18070673317E+04 -0.42522667448E+02  0.18214837946E+04  0.46999998093E+01 0.  1.
</event>
<event>
 5   0  0.1503228E-07  0.3953138E+04  0.7818609E-02  0.8014067E-01
       -2   -1    0    0    0  501  0.00000000000E+00  0.00000000000E+00  0.15842094873E+04  0.15842094873E+04  0.25500000920E-02 0.  1.
        2   -1    0    0  501    0  0.00000000000E+00  0.00000000000E+00 -0.24661044040E+04  0.24661044040E+04  0.25500000920E-02 0. -1.
    10030    2    1    2    0    0  0.00000000000E+00  0.00000000000E+00 -0.88189491671E+03  0.40503138913E+04  0.39531384967E+04 0.  0.
        3    1    3    3  502    0 -0.54809695851E+03 -0.16245711723E+04 -0.14485778342E+04  0.22445533012E+04  0.10100000352E+00 0. -1.
       -3    1    3    3    0  502  0.54809695851E+03  0.16245711723E+04  0.56668291751E+03  0.18057605902E+04  0.10100000352E+00 0.  1.
</event>
<event>
 5   0  0.4750125E-08  0.3833469E+04  0.7818609E-02  0.8039010E-01
       -1   -1    0    0    0  501  0.00000000000E+00  0.00000000000E+00  0.15346123775E+04  0.15346123775E+04  0.50400001928E-02 0. -1.
        1   -1    0    0  501    0  0.00000000000E+00  0.00000000000E+00 -0.23940063123E+04  0.23940063123E+04  0.50400001928E-02 0.  1.
    10030    2    1    2    0    0  0.00000000000E+00  0.00000000000E+00 -0.85939393478E+03  0.39286186898E+04  0.38334693001E+04 0.  0.
        1    1    3    3  502    0  0.19576403025E+03 -0.11352054396E+04 -0.19996663455E+04  0.23077435817E+04  0.50400001928E-02 0.  1.
       -1    1    3    3    0  502 -0.19576403025E+03  0.11352054396E+04  0.11402724107E+04  0.16208751081E+04  0.50400001928E-02 0. -1.
</event>
<event>
 5   0  0.1538018E-07  0.3897547E+04  0.7818609E-02  0.8025540E-01
        2   -1    0    0  501    0  0.00000000000E+00  0.00000000000E+00  0.15435779711E+04  0.15435779711E+04  0.25500000920E-02 0. -1.
       -2   -1    0    0    0  501  0.00000000000E+00  0.00000000000E+00 -0.24603348423E+04  0.24603348423E+04  0.25500000920E-02 0.  1.
    10030    2    1    2    0    0  0.00000000000E+00  0.00000000000E+00 -0.91675687128E+03  0.40039128134E+04  0.38975472616E+04 0.  0.
        1    1    3    3  502    0 -0.29623050536E+02  0.12059518657E+04 -0.20306768999E+04  0.23619581070E+04  0.50400001928E-02 0.  1.
       -1    1    3    3    0  502  0.29623050536E+02 -0.12059518657E+04  0.11139200287E+04  0.16419547064E+04  0.50400001928E-02 0. -1.
</event>
<event>
 5   0  0.4750125E-08  0.3898472E+04  0.7818609E-02  0.8025347E-01
       -1   -1    0    0    0  501  0.00000000000E+00  0.00000000000E+00  0.14593070441E+04  0.14593070441E+04  0.50400001928E-02 0. -1.
        1   -1    0    0  501    0  0.00000000000E+00  0.00000000000E+00 -0.26036472304E+04  0.26036472304E+04  0.50400001928E-02 0.  1.
    10030    2    1    2    0    0  0.00000000000E+00  0.00000000000E+00 -0.11443401863E+04  0.40629542745E+04  0.38984718769E+04 0.  0.
        3    1    3    3  502    0  0.55513333234E+03 -0.61000519224E+03  0.12684833223E+04  0.15130529735E+04  0.10100000352E+00 0. -1.
       -3    1    3    3    0  502 -0.55513333234E+03  0.61000519224E+03 -0.24128235086E+04  0.25499013011E+04  0.10100000352E+00 0.  1.
</event>
<event>
 5   0  0.4762788E-08  0.3887934E+04  0.7818609E-02  0.8027543E-01
        1   -1    0    0  501    0  0.00000000000E+00  0.00000000000E+00  0.15602477392E+04  0.15602477392E+04  0.50400001928E-02 0.  1.
       -1   -1    0    0    0  501  0.00000000000E+00  0.00000000000E+00 -0.24220558169E+04  0.24220558169E+04  0.50400001928E-02 0. -1.
    10030    2    1    2    0    0  0.00000000000E+00  0.00000000000E+00 -0.86180807776E+03  0.39823035561E+04  0.38879336993E+04 0.  0.
        2    1    3    3  502    0  0.14259795279E+04 -0.10907042477E+04  0.33281715080E+03  0.18258753040E+04  0.25500000920E-02 0. -1.
       -2    1    3    3    0  502 -0.14259795279E+04  0.10907042477E+04 -0.11946252286E+04  0.21564282521E+04  0.25500000920E-02 0.  1.
</event>
<event>
 5   0  0.4750125E-08  0.3897234E+04  0.7818609E-02  0.8025605E-01
       -3   -1    0    0    0  501  0.00000000000E+00  0.00000000000E+00  0.18950299398E+04  0.18950299425E+04  0.10100000352E+00 0. -1.
        3   -1    0    0  501    0  0.00000000000E+00  0.00000000000E+00 -0.20037188962E+04  0.20037188988E+04  0.10100000352E+00 0.  1.
    10030    2    1    2    0    0  0.00000000000E+00  0.00000000000E+00 -0.10868895641E+03  0.38987488413E+04  0.38972335365E+04 0.  0.
        1    1    3    3  502    0  0.54465782945E+03 -0.12641802141E+04 -0.14341209538E+04  0.19878397005E+04  0.50400001928E-02 0.  1.
       -1    1    3    3    0  502 -0.54465782945E+03  0.12641802141E+04  0.13254319974E+04  0.19109091408E+04  0.50400001928E-02 0. -1.
</event>
<event>
 5   0  0.1501585E-07  0.3929719E+04  0.7818609E-02  0.8018876E-01
       -2   -1    0    0    0  501  0.00000000000E+00  0.00000000000E+00  0.24315716640E+04  0.24315716640E+04  0.25500000920E-02 0. -1.
        2   -1    0    0  501    0  0.00000000000E+00  0.00000000000E+00 -0.15877277314E+04  0.15877277314E+04  0.25500000920E-02 0.  1.
    10030    2    1    2    0    0  0.00000000000E+00  0.00000000000E+00  0.84384393261E+03  0.40192993954E+04  0.39297194617E+04 0.  0.
        5    1    3    3  502    0  0.22577625448E+03 -0.42929885251E+03 -0.15255245194E+04  0.16007871723E+04  0.46999998093E+01 0.  1.
       -5    1    3    3    0  502 -0.22577625448E+03  0.42929885251E+03  0.23693684520E+04  0.24185122231E+04  0.46999998093E+01 0. -1.
</event>
<event>
 5   0  0.1501585E-07  0.3790311E+04  0.7818609E-02  0.8048237E-01
       -2   -1    0    0    0  501  0.00000000000E+00  0.00000000000E+00  0.24092596378E+04  0.24092596378E+04  0.25500000920E-02 0.  1.
        2   -1    0    0  501    0  0.00000000000E+00  0.00000000000E+00 -0.14907545863E+04  0.14907545863E+04  0.25500000920E-02 0. -1.
    10030    2    1    2    0    0  0.00000000000E+00  0.00000000000E+00  0.91850505142E+03  0.39000142241E+04  0.37903112562E+04 0.  0.
        5    1    3    3  502    0 -0.15780891173E+04 -0.87609877209E+03  0.10536204876E+04  0.20899886465E+04  0.46999998093E+01 0.  1.
       -5    1    3    3    0  502  0.15780891173E+04  0.87609877209E+03 -0.13511543620E+03  0.18100255776E+04  0.46999998093E+01 0. -1.
</event>
<event>
 5   0  0.1501585E-07  0.3874488E+04  0.7818609E-02  0.8030356E-01
       -2   -1    0    0    0  501  0.00000000000E+00  0.00000000000E+00  0.16373473208E+04  0.16373473208E+04  0.25500000920E-02 0.  1.
        2   -1    0    0  501    0  0.00000000000E+00  0.00000000000E+00 -0.22920699006E+04  0.22920699006E+04  0.25500000920E-02 0. -1.
    10030    2    1    2    0    0  0.00000000000E+00  0.00000000000E+00 -0.65472257980E+03  0.39294172214E+04  0.38744881008E+04 0.  0.
        5    1    3    3  502    0 -0.17019427398E+04 -0.69831917762E+03 -0.94312105152E+03  0.20673069852E+04  0.46999998093E+01 0. -1.
       -5    1    3    3    0  502  0.17019427398E+04  0.69831917762E+03  0.28839847173E+03  0.18621102362E+04  0.46999998093E+01 0.  1.
</event>
<event>
 5   0  0.4750125E-08  0.3900491E+04  0.7818609E-02  0.8024927E-01
        1   -1    0    0  501    0  0.00000000000E+00  0.00000000000E+00  0.11180519924E+04  0.11180519924E+04  0.50400001928E-02 0. -1.
       -1   -1    0    0    0  501  0.00000000000E+00  0.00000000000E+00 -0.34018611163E+04  0.34018611163E+04  0.50400001928E-02 0.  1.
    10030    2    1    2    0    0  0.00000000000E+00  0.00000000000E+00 -0.22838091239E+04  0.45199131087E+04  0.39004910455E+04 0.  0.
        4    1    3    3  502    0 -0.72140486837E+03 -0.59324069942E+03  0.84202321176E+03  0.12575230469E+04  0.12699999809E+01 0. -1.
       -4    1    3    3    0  502  0.72140486837E+03  0.59324069942E+03 -0.31258323357E+04  0.32623900618E+04  0.12699999809E+01 0.  1.
</event>
<event>
 5   0  0.1546846E-07  0.3882445E+04  0.7818609E-02  0.8028690E-01
        2   -1    0    0  501    0  0.00000000000E+00  0.00000000000E+00  0.15525410786E+04  0.15525410786E+04  0.25500000920E-02 0. -1.
       -2   -1    0    0    0  501  0.00000000000E+00  0.00000000000E+00 -0.24272105575E+04  0.24272105575E+04  0.25500000920E-02 0.  1.
    10030    2    1    2    0    0  0.00000000000E+00  0.00000000000E+00 -0.87466947891E+03  0.39797516362E+04  0.38824446407E+04 0.  0.
        2    1    3    3  502    0 -0.13157086877E+04  0.57807262287E+03 -0.17750666536E+04  0.22838824253E+04  0.25500000920E-02 0.  1.
       -2    1    3    3    0  502  0.13157086877E+04 -0.57807262287E+03  0.90039717465E+03  0.16958692108E+04  0.25500000920E-02 0. -1.
</event>
<event>
 5   0  0.1503228E-07  0.3896565E+04  0.7818609E-02  0.8025744E-01
       -2   -1    0    0    0  501  0.00000000000E+00  0.00000000000E+00  0.22088292021E+04  0.22088292021E+04  0.25500000920E-02 0. -1.
        2   -1    0    0  501    0  0.00000000000E+00  0.00000000000E+00 -0.17184693927E+04  0.17184693927E+04  0.25500000920E-02 0.  1.
    10030    2    1    2    0    0  0.00000000000E+00  0.00000000000E+00  0.49035980941E+03  0.39272985949E+04  0.38965653479E+04 0.  0.
        3    1    3    3  502    0  0.71013911403E+03  0.18482481971E+03  0.20642272822E+04  0.21907743056E+04  0.10100000352E+00 0. -1.
       -3    1    3    3    0  502 -0.71013911403E+03 -0.18482481971E+03 -0.15738674728E+04  0.17365242893E+04  0.10100000352E+00 0.  1.
</event>
<event>
 5   0  0.4750125E-08  0.4039686E+04  0.7818609E-02  0.7996588E-01
        1   -1    0    0  501    0  0.00000000000E+00  0.00000000000E+00  0.30033595055E+04  0.30033595055E+04  0.50400001928E-02 0.  1.
       -1   -1    0    0    0  501  0.00000000000E+00  0.00000000000E+00 -0.13584005184E+04  0.13584005184E+04  0.50400001928E-02 0. -1.
    10030    2    1    2    0    0  0.00000000000E+00  0.00000000000E+00  0.16449589871E+04  0.43617600239E+04  0.40396856854E+04 0.  0.
        3    1    3    3  502    0  0.94090450655E+03  0.17455362561E+04  0.12372508890E+04  0.23373035498E+04  0.10100000352E+00 0.  1.
       -3    1    3    3    0  502 -0.94090450655E+03 -0.17455362561E+04  0.40770809818E+03  0.20244564740E+04  0.10100000352E+00 0. -1.
</event>
<event>
 5   0  0.1503228E-07  0.3899681E+04  0.7818609E-02  0.8025096E-01
       -2   -1    0    0    0  501  0.00000000000E+00  0.00000000000E+00  0.30147373141E+04  0.30147373141E+04  0.25500000920E-02 0.  1.
        2   -1    0    0  501    0  0.00000000000E+00  0.00000000000E+00 -0.12610975347E+04  0.12610975347E+04  0.25500000920E-02 0. -1.
    10030    2    1    2    0    0  0.00000000000E+00  0.00000000000E+00  0.17536397794E+04  0.42758348488E+04  0.38996809072E+04 0.  0.
        3    1    3    3  502    0 -0.12935610277E+04  0.51888044080E+03  0.23719236817E+04  0.27511014169E+04  0.10100000352E+00 0.  1.
       -3    1    3    3    0  502  0.12935610277E+04 -0.51888044080E+03 -0.61828390230E+03  0.15247334319E+04  0.10100000352E+00 0. -1.
</event>
<event>
 5   0  0.4750125E-08  0.3844306E+04  0.7818609E-02  0.8036713E-01
        1   -1    0    0  501    0  0.00000000000E+00  0.00000000000E+00  0.22067770689E+04  0.22067770689E+04  0.50400001928E-02 0.  1.
       -1   -1    0    0    0  501  0.00000000000E+00  0.00000000000E+00 -0.16742390172E+04  0.16742390172E+04  0.50400001928E-02 0. -1.
    10030    2    1    2    0    0  0.00000000000E+00  0.00000000000E+00  0.53253805175E+03  0.38810160861E+04  0.38443060601E+04 0.  0.
        1    1    3    3  502    0  0.99430314743E+03 -0.15063545786E+04  0.93358746230E+03  0.20320749039E+04  0.50400001928E-02 0.  1.
       -1    1    3    3    0  502 -0.99430314743E+03  0.15063545786E+04 -0.40104941056E+03  0.18489411822E+04  0.50400001928E-02 0. -1.
</event>
<event>
 5   0  0.1501585E-07  0.3898753E+04  0.7818609E-02  0.8025289E-01
        2   -1    0    0  501    0  0.00000000000E+00  0.00000000000E+00  0.20219090318E+04  0.20219090318E+04  0.25500000920E-02 0. -1.
       -2   -1    0    0    0  501  0.00000000000E+00  0.00000000000E+00 -0.18794456346E+04  0.18794456346E+04  0.25500000920E-02 0.  1.
    10030    2    1    2    0    0  0.00000000000E+00  0.00000000000E+00  0.14246339716E+03  0.39013546664E+04  0.38987526741E+04 0.  0.
        5    1    3    3  502    0  0.16419846700E+04  0.84076818344E+03  0.70176429784E+03  0.19737021089E+04  0.46999998093E+01 0. -1.
       -5    1    3    3    0  502 -0.16419846700E+04 -0.84076818344E+03 -0.55930090067E+03  0.19276525575E+04  0.46999998093E+01 0.  1.
</event>
<event>
 5   0  0.4750125E-08  0.3895675E+04  0.7818609E-02  0.8025929E-01
        1   -1    0    0  501    0  0.00000000000E+00  0.00000000000E+00  0.35070852304E+04  0.35070852304E+04  0.50400001928E-02 0.  1.
       -1   -1    0    0    0  501  0.00000000000E+00  0.00000000000E+00 -0.10818301518E+04  0.10818301518E+04  0.50400001928E-02 0. -1.
    10030    2    1    2    0    0  0.00000000000E+00  0.00000000000E+00  0.24252550785E+04  0.45889153822E+04  0.38956748053E+04 0.  0.
        3    1    3    3  502    0  0.11575375677E+04 -0.28252863454E+03 -0.60247083977E+03  0.13351729375E+04  0.10100000352E+00 0. -1.
       -3    1    3    3    0  502 -0.11575375677E+04  0.28252863454E+03  0.30277259183E+04  0.32537424447E+04  0.10100000352E+00 0.  1.
</event>
<event>
 5   0  0.1546846E-07  0.3904150E+04  0.7818609E-02  0.8024167E-01
        2   -1    0    0  501    0  0.00000000000E+00  0.00000000000E+00  0.19926310477E+04  0.19926310477E+04  0.25500000920E-02 0.  1.
       -2   -1    0    0    0  501  0.00000000000E+00  0.00000000000E+00 -0.19123448627E+04  0.19123448627E+04  0.25500000920E-02 0. -1.
    10030    2    1    2    0    0  0.00000000000E+00  0.00000000000E+00  0.80286185057E+02  0.39049759104E+04  0.39041504824E+04 0.  0.
        2    1    3    3  502    0  0.11900114171E+04 -0.74504431968E+03 -0.13163809188E+04  0.19245978631E+04  0.25500000920E-02 0. -1.
       -2    1    3    3    0  502 -0.11900114171E+04  0.74504431968E+03  0.13966671039E+04  0.19803780473E+04  0.25500000920E-02 0.  1.
</event>
<event>
 5   0  0.4750125E-08  0.3899819E+04  0.7818609E-02  0.8025067E-01
       -1   -1    0    0    0  501  0.00000000000E+00  0.00000000000E+00  0.19777634146E+04  0.19777634146E+04  0.50400001928E-02 0.  1.
        1   -1    0    0  501    0  0.00000000000E+00  0.00000000000E+00 -0.19224473809E+04  0.19224473809E+04  0.50400001928E-02 0. -1.
    10030    2    1    2    0    0  0.00000000000E+00  0.00000000000E+00  0.55316033657E+02  0.39002107955E+04  0.38998185068E+04 0.  0.
        5    1    3    3  502    0  0.29380867879E+03 -0.10294894141E+04  0.16575311322E+04  0.19732216140E+04  0.46999998093E+01 0.  1.
       -5    1    3    3    0  502 -0.29380867879E+03  0.10294894141E+04 -0.16022150986E+04  0.19269891815E+04  0.46999998093E+01 0. -1.
</event>
<event>
 5   0  0.4762788E-08  0.3940624E+04  0.7818609E-02  0.8016633E-01
       -1   -1    0    0    0  501  0.00000000000E+00  0.00000000000E+00  0.19557749633E+04  0.19557749633E+04  0.50400001928E-02 0. -1.
        1   -1    0    0  501    0  0.00000000000E+00  0.00000000000E+00 -0.19849568235E+04  0.19849568235E+04  0.50400001928E-02 0.  1.
    10030    2    1    2    0    0  0.00000000000E+00  0.00000000000E+00 -0.29181860222E+02  0.39407317869E+04  0.39406237368E+04 0.  0.
        2    1    3    3  502    0  0.18537523911E+03  0.35325444606E+03  0.19149635115E+04  0.19560771798E+04  0.25500000920E-02 0. -1.
       -2    1    3    3    0  502 -0.18537523911E+03 -0.35325444606E+03 -0.19441453717E+04  0.19846546071E+04  0.25500000920E-02 0.  1.
</event>
<event>
 5   0  0.4750125E-08  0.3873622E+04  0.7818609E-02  0.8030538E-01
       -3   -1    0    0    0  501  0.00000000000E+00  0.00000000000E+00  0.20538541285E+04  0.20538541310E+04  0.10100000352E+00 0.  1.
        3   -1    0    0  501    0  0.00000000000E+00  0.00000000000E+00 -0.18264381840E+04  0.18264381868E+04  0.10100000352E+00 0. -1.
    10030    2    1    2    0    0  0.00000000000E+00  0.00000000000E+00  0.22741594453E+03  0.38802923178E+04  0.38736223951E+04 0.  0.
        3    1    3    3  502    0 -0.76745128501E+03 -0.15913600819E+04 -0.68127634881E+03  0.18935537645E+04  0.10100000352E+00 0. -1.
       -3    1    3    3    0  502  0.76745128501E+03  0.15913600819E+04  0.90869229334E+03  0.19867385534E+04  0.10100000352E+00 0.  1.
</event>
<event>
 5   0  0.1501585E-07  0.3906633E+04  0.7818609E-02  0.8023651E-01
       -2   -1    0    0    0  501  0.00000000000E+00  0.00000000000E+00  0.19922269123E+04  0.19922269123E+04  0.25500000920E-02 0.  1.
        2   -1    0    0  501    0  0.00000000000E+00  0.00000000000E+00 -0.19151664918E+04  0.19151664918E+04  0.25500000920E-02 0. -1.
    10030    2    1    2    0    0  0.00000000000E+00  0.00000000000E+00  0.77060420502E+02  0.39073934040E+04  0.39066334491E+04 0.  0.
        5    1    3    3  502    0 -0.15318383139E+04  0.14379339627E+03 -0.11651235907E+04  0.19299586090E+04  0.46999998093E+01 0. -1.
       -5    1    3    3    0  502  0.15318383139E+04 -0.14379339627E+03  0.12421840112E+04  0.19774347950E+04  0.46999998093E+01 0.  1.
</event>
<event>
 5   0  0.4750125E-08  0.3894656E+04  0.7818609E-02  0.8026141E-01
       -3   -1    0    0    0  501  0.00000000000E+00  0.00000000000E+00  0.22310607754E+04  0.22310607777E+04  0.10100000352E+00 0.  1.
        3   -1    0    0  501    0  0.00000000000E+00  0.00000000000E+00 -0.16996789938E+04  0.16996789968E+04  0.10100000352E+00 0. -1.
    10030    2    1    2    0    0  0.00000000000E+00  0.00000000000E+00  0.53138178155E+03  0.39307397745E+04  0.38946564132E+04 0.  0.
        1    1    3    3  502    0  0.38225518774E+03  0.11770904190E+04 -0.12517099320E+04  0.17602382330E+04  0.50400001928E-02 0. -1.
       -1    1    3    3    0  502 -0.38225518774E+03 -0.11770904190E+04  0.17830917135E+04  0.21705015415E+04  0.50400001928E-02 0.  1.
</event>
<event>
 5   0  0.1538018E-07  0.3912779E+04  0.7818609E-02  0.8022377E-01
       -2   -1    0    0    0  501  0.00000000000E+00  0.00000000000E+00  0.17294810503E+04  0.17294810503E+04  0.25500000920E-02 0.  1.
        2   -1    0    0  501    0  0.00000000000E+00  0.00000000000E+00 -0.22130689138E+04  0.22130689138E+04  0.25500000920E-02 0. -1.
    10030    2    1    2    0    0  0.00000000000E+00  0.00000000000E+00 -0.48358786356E+03  0.39425499641E+04  0.39127794466E+04 0.  0.
        1    1    3    3  502    0  0.90954811284E+03 -0.15101030362E+04  0.61305475926E+03  0.18664203941E+04  0.50400001928E-02 0. -1.
       -1    1    3    3    0  502 -0.90954811284E+03  0.15101030362E+04 -0.10966426228E+04  0.20761295701E+04  0.50400001928E-02 0.  1.
</event>
<event>
 5   0  0.1501585E-07  0.3858020E+04  0.7818609E-02  0.8033817E-01
        2   -1    0    0  501    0  0.00000000000E+00  0.00000000000E+00  0.10265395565E+04  0.10265395565E+04  0.25500000920E-02 0. -1.
       -2   -1    0    0    0  501  0.00000000000E+00  0.00000000000E+00 -0.36248774034E+04  0.36248774034E+04  0.25500000920E-02 0.  1.
    10030    2    1    2    0    0  0.00000000000E+00  0.00000000000E+00 -0.25983378469E+04  0.46514169599E+04  0.38580202394E+04 0.  0.
        5    1    3    3  502    0 -0.84361832636E+01 -0.78946268841E+02  0.10245618833E+04  0.10276443087E+04  0.46999998093E+01 0. -1.
       -5    1    3    3    0  502  0.84361832636E+01  0.78946268841E+02 -0.36228997302E+04  0.36237726512E+04  0.46999998093E+01 0.  1.
</event>
<event>
 5   0  0.1501585E-07  0.3898688E+04  0.7818609E-02  0.8025302E-01
        2   -1    0    0  501    0  0.00000000000E+00  0.00000000000E+00  0.19108757654E+04  0.19108757654E+04  0.25500000920E-02 0.  1.
       -2   -1    0    0    0  501  0.00000000000E+00  0.00000000000E+00 -0.19885862719E+04  0.19885862719E+04  0.25500000920E-02 0. -1.
    10030    2    1    2    0    0  0.00000000000E+00  0.00000000000E+00 -0.77710506493E+02  0.38994620373E+04  0.38986876327E+04 0.  0.
        5    1    3    3  502    0  0.11191948592E+04 -0.15141529203E+04  0.46588646667E+03  0.19396722633E+04  0.46999998093E+01 0.  1.
       -5    1    3    3    0  502 -0.11191948592E+04  0.15141529203E+04 -0.54359697317E+03  0.19597897740E+04  0.46999998093E+01 0. -1.
</event>
<event>
 5   0  0.4750125E-08  0.3893354E+04  0.7818609E-02  0.8026413E-01
        1   -1    0    0  501    0  0.00000000000E+00  0.00000000000E+00  0.27076395119E+04  0.27076395119E+04  0.50400001928E-02 0.  1.
       -1   -1    0    0    0  501  0.00000000000E+00  0.00000000000E+00 -0.13995775649E+04  0.13995775649E+04  0.50400001928E-02 0. -1.
    10030    2    1    2    0    0  0.00000000000E+00  0.00000000000E+00  0.13080619470E+04  0.41072170768E+04  0.38933540886E+04 0.  0.
        5    1    3    3  502    0 -0.79311578280E+03  0.57670269462E+03 -0.11199812406E+04  0.14886230927E+04  0.46999998093E+01 0. -1.
       -5    1    3    3    0  502  0.79311578280E+03 -0.57670269462E+03  0.24280431876E+04  0.26185939841E+04  0.46999998093E+01 0.  1.
</event>
<event>
 5   0  0.4750125E-08  0.3843527E+04  0.7818609E-02  0.8036878E-01
       -3   -1    0    0    0  501  0.00000000000E+00  0.00000000000E+00  0.18187564924E+04  0.18187564952E+04  0.10100000352E+00 0.  1.
        3   -1    0    0  501    0  0.00000000000E+00  0.00000000000E+00 -0.20306040927E+04  0.20306040952E+04  0.10100000352E+00 0. -1.
    10030    2    1    2    0    0  0.00000000000E+00  0.00000000000E+00 -0.21184760029E+03  0.38493605904E+04  0.38435267073E+04 0.  0.
        3    1    3    3  502    0  0.15723098451E+04 -0.48140781649E+03  0.89020270741E+03  0.18698589800E+04  0.10100000352E+00 0.  1.
       -3    1    3    3    0  502 -0.15723098451E+04  0.48140781649E+03 -0.11020503077E+04  0.19795016104E+04  0.10100000352E+00 0. -1.
</event>
<event>
 5   0  0.1501585E-07  0.3892295E+04  0.7818609E-02  0.8026634E-01
        2   -1    0    0  501    0  0.00000000000E+00  0.00000000000E+00  0.18004154211E+04  0.18004154211E+04  0.25500000920E-02 0.  1.
       -2   -1    0    0    0  501  0.00000000000E+00  0.00000000000E+00 -0.21036752226E+04  0.21036752226E+04  0.25500000920E-02 0. -1.
    10030    2    1    2    0    0  0.00000000000E+00  0.00000000000E+00 -0.30325980156E+03  0.39040906437E+04  0.38922945992E+04 0.  0.
        5    1    3    3  502    0 -0.20559997403E+03 -0.19285797104E+04 -0.31266606210E+03  0.19645542001E+04  0.46999998093E+01 0. -1.
       -5    1    3    3    0  502  0.20559997403E+03  0.19285797104E+04  0.94062605358E+01  0.19395364437E+04  0.46999998093E+01 0.  1.
</event>
<event>
 5   0  0.4750125E-08  0.3885860E+04  0.7818609E-02  0.8027976E-01
       -1   -1    0    0    0  501  0.00000000000E+00  0.00000000000E+00  0.12567556444E+04  0.12567556445E+04  0.50400001928E-02 0.  1.
        1   -1    0    0  501    0  0.00000000000E+00  0.00000000000E+00 -0.30037481795E+04  0.30037481795E+04  0.50400001928E-02 0. -1.
    10030    2    1    2    0    0  0.00000000000E+00  0.00000000000E+00 -0.17469925350E+04  0.42605038239E+04  0.38858602543E+04 0.  0.
        4    1    3    3  502    0  0.15714345221E+04 -0.10622633344E+04 -0.41200446347E+03  0.19410201286E+04  0.12699999809E+01 0. -1.
       -4    1    3    3    0  502 -0.15714345221E+04  0.10622633344E+04 -0.13349880716E+04  0.23194836953E+04  0.12699999809E+01 0.  1.
</event>
<event>
 5   0  0.1538018E-07  0.3918869E+04  0.7818609E-02  0.8021116E-01
       -2   -1    0    0    0  501  0.00000000000E+00  0.00000000000E+00  0.15373483158E+04  0.15373483158E+04  0.25500000920E-02 0.  1.
        2   -1    0    0  501    0  0.00000000000E+00  0.00000000000E+00 -0.24974058783E+04  0.24974058783E+04  0.25500000920E-02 0. -1.
    10030    2    1    2    0    0  0.00000000000E+00  0.00000000000E+00 -0.96005756248E+03  0.40347541941E+04  0.39188685718E+04 0.  0.
        1    1    3    3  502    0 -0.23519782797E+03  0.12050173293E+04 -0.20522746568E+04  0.23914882499E+04  0.50400001928E-02 0. -1.
       -1    1    3    3    0  502  0.23519782797E+03 -0.12050173293E+04  0.10922170943E+04  0.16432659442E+04  0.50400001928E-02 0.  1.
</event>
<event>
 5   0  0.4750125E-08  0.3889584E+04  0.7818609E-02  0.8027199E-01
        1   -1    0    0  501    0  0.00000000000E+00  0.00000000000E+00  0.34166214909E+04  0.34166214909E+04  0.50400001928E-02 0.  1.
       -1   -1    0    0    0  501  0.00000000000E+00  0.00000000000E+00 -0.11070045612E+04  0.11070045612E+04  0.50400001928E-02 0. -1.
    10030    2    1    2    0    0  0.00000000000E+00  0.00000000000E+00  0.23096169298E+04  0.45236260521E+04  0.38895838206E+04 0.  0.
        5    1    3    3  502    0  0.32974497261E+03  0.50728474741E+03  0.33043724144E+04  0.33593107485E+04  0.46999998093E+01 0.  1.
       -5    1    3    3    0  502 -0.32974497261E+03 -0.50728474741E+03 -0.99475548466E+03  0.11643153036E+04  0.46999998093E+01 0. -1.
</event>
<event>
 5   0  0.4750125E-08  0.3905893E+04  0.7818609E-02  0.8023805E-01
       -1   -1    0    0    0  501  0.00000000000E+00  0.00000000000E+00  0.19029248477E+04  0.19029248477E+04  0.50400001928E-02 0.  1.
        1   -1    0    0  501    0  0.00000000000E+00  0.00000000000E+00 -0.20042831263E+04  0.20042831263E+04  0.50400001928E-02 0. -1.
    10030    2    1    2    0    0  0.00000000000E+00  0.00000000000E+00 -0.10135827860E+03  0.39072079739E+04  0.39058930670E+04 0.  0.
        1    1    3    3  502    0 -0.18867506370E+03 -0.10022124836E+04 -0.17167643813E+04  0.19968244997E+04  0.50400001928E-02 0. -1.
       -1    1    3    3    0  502  0.18867506370E+03  0.10022124836E+04  0.16154061026E+04  0.19103834742E+04  0.50400001928E-02 0.  1.
</event>
<event>
 5   0  0.4750125E-08  0.3901829E+04  0.7818609E-02  0.8024649E-01
       -1   -1    0    0    0  501  0.00000000000E+00  0.00000000000E+00  0.14980986297E+04  0.14980986297E+04  0.50400001928E-02 0. -1.
        1   -1    0    0  501    0  0.00000000000E+00  0.00000000000E+00 -0.25405988196E+04  0.25405988196E+04  0.50400001928E-02 0.  1.
    10030    2    1    2    0    0  0.00000000000E+00  0.00000000000E+00 -0.10425001899E+04  0.40386974493E+04  0.39018291148E+04 0.  0.
        3    1    3    3  502    0 -0.94170149640E+03 -0.16990531906E+04 -0.33469427183E+03  0.19711934757E+04  0.10100000352E+00 0. -1.
       -3    1    3    3    0  502  0.94170149640E+03  0.16990531906E+04 -0.70780591803E+03  0.20675039736E+04  0.10100000352E+00 0.  1.
</event>
<event>
 5   0  0.4750125E-08  0.4124580E+04  0.7818609E-02  0.7979876E-01
       -1   -1    0    0    0  501  0.00000000000E+00  0.00000000000E+00  0.16294379162E+04  0.16294379162E+04  0.50400001928E-02 0. -1.
        1   -1    0    0  501    0  0.00000000000E+00  0.00000000000E+00 -0.26101269997E+04  0.26101269997E+04  0.50400001928E-02 0.  1.
    10030    2    1    2    0    0  0.00000000000E+00  0.00000000000E+00 -0.98068908345E+03  0.42395649159E+04  0.41245799299E+04 0.  0.
        4    1    3    3  502    0  0.14793590361E+04  0.14025022814E+04 -0.81133633769E+03  0.21940337447E+04  0.12699999809E+01 0.  1.
       -4    1    3    3    0  502 -0.14793590361E+04 -0.14025022814E+04 -0.16935274576E+03  0.20455311712E+04  0.12699999809E+01 0. -1.
</event>
<event>
 5   0  0.1520986E-07  0.3700815E+04  0.7818609E-02  0.8067781E-01
        2   -1    0    0  501    0  0.00000000000E+00  0.00000000000E+00  0.16664452145E+04  0.16664452145E+04  0.25500000920E-02 0. -1.
       -2   -1    0    0    0  501  0.00000000000E+00  0.00000000000E+00 -0.20546777646E+04  0.20546777646E+04  0.25500000920E-02 0.  1.
    10030    2    1    2    0    0  0.00000000000E+00  0.00000000000E+00 -0.38823255005E+03  0.37211229791E+04  0.37008150065E+04 0.  0.
        4    1    3    3  502    0  0.12174452889E+04  0.13836473261E+04 -0.36041234736E+03  0.18779115069E+04  0.12699999809E+01 0.  1.
       -4    1    3    3    0  502 -0.12174452889E+04 -0.13836473261E+04 -0.27820202684E+02  0.18432114722E+04  0.12699999809E+01 0. -1.
</event>
<event>
 5   0  0.1503228E-07  0.3884723E+04  0.7818609E-02  0.8028214E-01
       -2   -1    0    0    0  501  0.00000000000E+00  0.00000000000E+00  0.17123694249E+04  0.17123694249E+04  0.25500000920E-02 0.  1.
        2   -1    0    0  501    0  0.00000000000E+00  0.00000000000E+00 -0.22032446061E+04  0.22032446061E+04  0.25500000920E-02 0. -1.
    10030    2    1    2    0    0  0.00000000000E+00  0.00000000000E+00 -0.49087518116E+03  0.39156140310E+04  0.38847232587E+04 0.  0.
        3    1    3    3  502    0  0.14970238296E+04  0.30388993981E+03  0.96382710561E+03  0.18062093294E+04  0.10100000352E+00 0.  1.
       -3    1    3    3    0  502 -0.14970238296E+04 -0.30388993981E+03 -0.14547022868E+04  0.21094047016E+04  0.10100000352E+00 0. -1.
</event>
<event>
 5   0  0.4750125E-08  0.3910282E+04  0.7818609E-02  0.8022894E-01
        1   -1    0    0  501    0  0.00000000000E+00  0.00000000000E+00  0.26606018891E+04  0.26606018891E+04  0.50400001928E-02 0.  1.
       -1   -1    0    0    0  501  0.00000000000E+00  0.00000000000E+00 -0.14367337687E+04  0.14367337687E+04  0.50400001928E-02 0. -1.
    10030    2    1    2    0    0  0.00000000000E+00  0.00000000000E+00  0.12238681204E+04  0.40973356578E+04  0.39102821275E+04 0.  0.
        1    1    3    3  502    0  0.10997940203E+04  0.15349785334E+04  0.11430026861E+04  0.22072972445E+04  0.50400001928E-02 0.  1.
       -1    1    3    3    0  502 -0.10997940203E+04 -0.15349785334E+04  0.80865434309E+02  0.18900384133E+04  0.50400001928E-02 0. -1.
</event>
<event>
 5   0  0.1501585E-07  0.3964247E+04  0.7818609E-02  0.8011798E-01
       -2   -1    0    0    0  501  0.00000000000E+00  0.00000000000E+00  0.17333192073E+04  0.17333192073E+04  0.25500000920E-02 0. -1.
        2   -1    0    0  501    0  0.00000000000E+00  0.00000000000E+00 -0.22666419209E+04  0.22666419209E+04  0.25500000920E-02 0.  1.
    10030    2    1    2    0    0  0.00000000000E+00  0.00000000000E+00 -0.53332271358E+03  0.39999611282E+04  0.39642472060E+04 0.  0.
        5    1    3    3  502    0 -0.57045501253E+03  0.97957320197E+03  0.13739665922E+04  0.17812324009E+04  0.46999998093E+01 0. -1.
       -5    1    3    3    0  502  0.57045501253E+03 -0.97957320197E+03 -0.19072893058E+04  0.22187287273E+04  0.46999998093E+01 0.  1.
</event>
<event>
 5   0  0.1503228E-07  0.3918050E+04  0.7818609E-02  0.8021286E-01
       -2   -1    0    0    0  501  0.00000000000E+00  0.00000000000E+00  0.17176366715E+04  0.17176366715E+04  0.25500000920E-02 0.  1.
        2   -1    0    0  501    0  0.00000000000E+00  0.00000000000E+00 -0.22343365406E+04  0.22343365406E+04  0.25500000920E-02 0. -1.
    10030    2    1    2    0    0  0.00000000000E+00  0.00000000000E+00 -0.51669986904E+03  0.39519732121E+04  0.39180497080E+04 0.  0.
        3    1    3    3  502    0  0.16251206062E+02 -0.16932168231E+04  0.73533514593E+03  0.18460674686E+04  0.10100000352E+00 0. -1.
       -3    1    3    3    0  502 -0.16251206062E+02  0.16932168231E+04 -0.12520350150E+04  0.21059057435E+04  0.10100000352E+00 0.  1.
</event>
<event>
 5   0  0.1520986E-07  0.3924325E+04  0.7818609E-02  0.8019989E-01
       -2   -1    0    0    0  501  0.00000000000E+00  0.00000000000E+00  0.18853976914E+04  0.18853976914E+04  0.25500000920E-02 0.  1.
        2   -1    0    0  501    0  0.00000000000E+00  0.00000000000E+00 -0.20420529335E+04  0.20420529335E+04  0.25500000920E-02 0. -1.
    10030    2    1    2    0    0  0.00000000000E+00  0.00000000000E+00 -0.15665524206E+03  0.39274506250E+04  0.39243251071E+04 0.  0.
        4    1    3    3  502    0 -0.29129861945E+02  0.11184123985E+04 -0.16915622703E+04  0.20280728215E+04  0.12699999809E+01 0. -1.
       -4    1    3    3    0  502  0.29129861945E+02 -0.11184123985E+04  0.15349070283E+04  0.18993778035E+04  0.12699999809E+01 0.  1.
</event>
<event>
 5   0  0.1546846E-07  0.3901049E+04  0.7818609E-02  0.8024811E-01
        2   -1    0    0  501    0  0.00000000000E+00  0.00000000000E+00  0.15532546122E+04  0.15532546122E+04  0.25500000920E-02 0. -1.
       -2   -1    0    0    0  501  0.00000000000E+00  0.00000000000E+00 -0.24494028189E+04  0.24494028189E+04  0.25500000920E-02 0.  1.
    10030    2    1    2    0    0  0.00000000000E+00  0.00000000000E+00 -0.89614820667E+03  0.40026574310E+04  0.39010492053E+04 0.  0.
        2    1    3    3  502    0  0.37472166228E+03  0.81747389152E+03 -0.22240137832E+04  0.23989408486E+04  0.25500000920E-02 0.  1.
       -2    1    3    3    0  502 -0.37472166228E+03 -0.81747389152E+03  0.13278655765E+04  0.16037165824E+04  0.25500000920E-02 0. -1.
</event>
<event>
 5   0  0.1546846E-07  0.3907299E+04  0.7818609E-02  0.8023513E-01
       -2   -1    0    0    0  501  0.00000000000E+00  0.00000000000E+00  0.26091795392E+04  0.26091795392E+04  0.25500000920E-02 0. -1.
        2   -1    0    0  501    0  0.00000000000E+00  0.00000000000E+00 -0.14628144178E+04  0.14628144178E+04  0.25500000920E-02 0.  1.
    10030    2    1    2    0    0  0.00000000000E+00  0.00000000000E+00  0.11463651215E+04  0.40719939570E+04  0.39072985289E+04 0.  0.
        2    1    3    3  502    0 -0.92759770096E+03  0.47180516604E+03  0.22962670777E+04  0.25210870873E+04  0.25500000920E-02 0. -1.
       -2    1    3    3    0  502  0.92759770096E+03 -0.47180516604E+03 -0.11499019563E+04  0.15509068697E+04  0.25500000920E-02 0.  1.
</event>
<event>
 5   0  0.1546846E-07  0.3490839E+04  0.7818609E-02  0.8115964E-01
        2   -1    0    0  501    0  0.00000000000E+00  0.00000000000E+00  0.10352165806E+04  0.10352165806E+04  0.25500000920E-02 0. -1.
       -2   -1    0    0    0  501  0.00000000000E+00  0.00000000000E+00 -0.29428522274E+04  0.29428522274E+04  0.25500000920E-02 0.  1.
    10030    2    1    2    0    0  0.00000000000E+00  0.00000000000E+00 -0.19076356468E+04  0.39780688080E+04  0.34908391083E+04 0.  0.
        2    1    3    3  502    0 -0.10860821243E+04  0.10478689658E+04 -0.19530659468E+04  0.24682119729E+04  0.25500000920E-02 0.  1.
       -2    1    3    3    0  502  0.10860821243E+04 -0.10478689658E+04  0.45430300075E+02  0.15098568351E+04  0.25500000920E-02 0. -1.
</event>
<event>
 5   0  0.1503228E-07  0.3623007E+04  0.7818609E-02  0.8085242E-01
       -2   -1    0    0    0  501  0.00000000000E+00  0.00000000000E+00  0.12504906913E+04  0.12504906913E+04  0.25500000920E-02 0. -1.
        2   -1    0    0  501    0  0.00000000000E+00  0.00000000000E+00 -0.26242063379E+04  0.26242063379E+04  0.25500000920E-02 0.  1.
    10030    2    1    2    0    0  0.00000000000E+00  0.00000000000E+00 -0.13737156466E+04  0.38746970293E+04  0.36230073683E+04 0.  0.
        3    1    3    3  502    0 -0.91796417121E+03  0.10473821199E+04  0.55201024449E+03  0.14981264449E+04  0.10100000352E+00 0. -1.
       -3    1    3    3    0  502  0.91796417121E+03 -0.10473821199E+04 -0.19257258911E+04  0.23765705844E+04  0.10100000352E+00 0.  1.
</event>
<event>
 5   0  0.1520986E-07  0.3856801E+04  0.7818609E-02  0.8034074E-01
       -2   -1    0    0    0  501  0.00000000000E+00  0.00000000000E+00  0.14932005893E+04  0.14932005893E+04  0.25500000920E-02 0. -1.
        2   -1    0    0  501    0  0.00000000000E+00  0.00000000000E+00 -0.24904416532E+04  0.24904416532E+04  0.25500000920E-02 0.  1.
    10030    2    1    2    0    0  0.00000000000E+00  0.00000000000E+00 -0.99724106388E+03  0.39836422425E+04  0.38568012364E+04 0.  0.
        4    1    3    3  502    0 -0.32041125364E+03  0.18594787754E+04 -0.90970804416E+03  0.20947302991E+04  0.12699999809E+01 0. -1.
       -4    1    3    3    0  502  0.32041125364E+03 -0.18594787754E+04 -0.87533019720E+02  0.18889119434E+04  0.12699999809E+01 0.  1.
</event>
<event>
 5   0  0.1538018E-07  0.3888636E+04  0.7818609E-02  0.8027397E-01
       -2   -1    0    0    0  501  0.00000000000E+00  0.00000000000E+00  0.24870706152E+04  0.24870706152E+04  0.25500000920E-02 0. -1.
        2   -1    0    0  501    0  0.00000000000E+00  0.00000000000E+00 -0.15200104875E+04  0.15200104875E+04  0.25500000920E-02 0.  1.
    10030    2    1    2    0    0  0.00000000000E+00  0.00000000000E+00  0.96706012769E+03  0.40070811028E+04  0.38886364800E+04 0.  0.
        1    1    3    3  502    0  0.13167888314E+04  0.74381676337E+03 -0.77564601200E+03  0.16996537706E+04  0.50400001928E-02 0.  1.
       -1    1    3    3    0  502 -0.13167888314E+04 -0.74381676337E+03  0.17427061397E+04  0.23074273322E+04  0.50400001928E-02 0. -1.
</event>
<event>
 5   0  0.4750125E-08  0.3967294E+04  0.7818609E-02  0.8011177E-01
       -1   -1    0    0    0  501  0.00000000000E+00  0.00000000000E+00  0.15836607642E+04  0.15836607642E+04  0.50400001928E-02 0. -1.
        1   -1    0    0  501    0  0.00000000000E+00  0.00000000000E+00 -0.24846579406E+04  0.24846579406E+04  0.50400001928E-02 0.  1.
    10030    2    1    2    0    0  0.00000000000E+00  0.00000000000E+00 -0.90099717637E+03  0.40683187049E+04  0.39672939357E+04 0.  0.
        1    1    3    3  502    0  0.19668139610E+04 -0.16444224693E+03 -0.65419434309E+03  0.20792711820E+04  0.50400001928E-02 0. -1.
       -1    1    3    3    0  502 -0.19668139610E+04  0.16444224693E+03 -0.24680283327E+03  0.19890475229E+04  0.50400001928E-02 0.  1.
</event>
<event>
 5   0  0.4750125E-08  0.3917527E+04  0.7818609E-02  0.8021394E-01
       -1   -1    0    0    0  501  0.00000000000E+00  0.00000000000E+00  0.13449968971E+04  0.13449968971E+04  0.50400001928E-02 0.  1.
        1   -1    0    0  501    0  0.00000000000E+00  0.00000000000E+00 -0.28526127192E+04  0.28526127192E+04  0.50400001928E-02 0. -1.
    10030    2    1    2    0    0  0.00000000000E+00  0.00000000000E+00 -0.15076158220E+04  0.41976096163E+04  0.39175274121E+04 0.  0.
        3    1    3    3  502    0  0.39581868761E+03  0.13266514681E+04 -0.22385448598E+04  0.26320637627E+04  0.10100000352E+00 0. -1.
       -3    1    3    3    0  502 -0.39581868761E+03 -0.13266514681E+04  0.73092903777E+03  0.15655458536E+04  0.10100000352E+00 0.  1.
</event>
<event>
 5   0  0.4750125E-08  0.3871492E+04  0.7818609E-02  0.8030985E-01
       -1   -1    0    0    0  501  0.00000000000E+00  0.00000000000E+00  0.14744662564E+04  0.14744662564E+04  0.50400001928E-02 0.  1.
        1   -1    0    0  501    0  0.00000000000E+00  0.00000000000E+00 -0.25413352919E+04  0.25413352919E+04  0.50400001928E-02 0. -1.
    10030    2    1    2    0    0  0.00000000000E+00  0.00000000000E+00 -0.10668690355E+04  0.40158015483E+04  0.38714922880E+04 0.  0.
        1    1    3    3  502    0  0.32575313727E+03  0.15498044722E+04  0.62120853222E+03  0.17011493318E+04  0.50400001928E-02 0.  1.
       -1    1    3    3    0  502 -0.32575313727E+03 -0.15498044722E+04 -0.16880775678E+04  0.23146522165E+04  0.50400001928E-02 0. -1.
</event>
<event>
 5   0  0.1520986E-07  0.3925886E+04  0.7818609E-02  0.8019667E-01
       -2   -1    0    0    0  501  0.00000000000E+00  0.00000000000E+00  0.15977317364E+04  0.15977317364E+04  0.25500000920E-02 0. -1.
        2   -1    0    0  501    0  0.00000000000E+00  0.00000000000E+00 -0.24116347704E+04  0.24116347704E+04  0.25500000920E-02 0.  1.
    10030    2    1    2    0    0  0.00000000000E+00  0.00000000000E+00 -0.81390303404E+03  0.40093665068E+04  0.39258860958E+04 0.  0.
        4    1    3    3  502    0  0.37868329441E+02  0.11360940970E+04  0.12273901437E+04  0.16729112306E+04  0.12699999809E+01 0. -1.
       -4    1    3    3    0  502 -0.37868329441E+02 -0.11360940970E+04 -0.20412931777E+04  0.23364552763E+04  0.12699999809E+01 0.  1.
</event>
<event>
 5   0  0.1546846E-07  0.3875883E+04  0.7818609E-02  0.8030064E-01
        2   -1    0    0  501    0  0.00000000000E+00  0.00000000000E+00  0.20451161435E+04  0.20451161435E+04  0.25500000920E-02 0.  1.
       -2   -1    0    0    0  501  0.00000000000E+00  0.00000000000E+00 -0.18363833920E+04  0.18363833920E+04  0.25500000920E-02 0. -1.
    10030    2    1    2    0    0  0.00000000000E+00  0.00000000000E+00  0.20873275150E+03  0.38814995354E+04  0.38758830326E+04 0.  0.
        2    1    3    3  502    0 -0.14652787291E+04  0.75408753789E+03  0.11256124932E+04  0.19956686232E+04  0.25500000920E-02 0.  1.
       -2    1    3    3    0  502  0.14652787291E+04 -0.75408753789E+03 -0.91687974171E+03  0.18858309122E+04  0.25500000920E-02 0. -1.
</event>
<event>
 5   0  0.1546846E-07  0.3950405E+04  0.7818609E-02  0.8014627E-01
       -2   -1    0    0    0  501  0.00000000000E+00  0.00000000000E+00  0.16666236997E+04  0.16666236997E+04  0.25500000920E-02 0.  1.
        2   -1    0    0  501    0  0.00000000000E+00  0.00000000000E+00 -0.23409151872E+04  0.23409151872E+04  0.25500000920E-02 0. -1.
    10030    2    1    2    0    0  0.00000000000E+00  0.00000000000E+00 -0.67429148748E+03  0.40075388869E+04  0.39504049058E+04 0.  0.
        2    1    3    3  502    0  0.18205735897E+04 -0.42973154674E+03 -0.98056420240E+03  0.21120283030E+04  0.25500000920E-02 0. -1.
       -2    1    3    3    0  502 -0.18205735897E+04  0.42973154674E+03  0.30627271492E+03  0.18955105839E+04  0.25500000920E-02 0.  1.
</event>
<event>
 5   0  0.1538018E-07  0.3888535E+04  0.7818609E-02  0.8027418E-01
        2   -1    0    0  501    0  0.00000000000E+00  0.00000000000E+00  0.17400882241E+04  0.17400882241E+04  0.25500000920E-02 0.  1.
       -2   -1    0    0    0  501  0.00000000000E+00  0.00000000000E+00 -0.21724050847E+04  0.21724050847E+04  0.25500000920E-02 0. -1.
    10030    2    1    2    0    0  0.00000000000E+00  0.00000000000E+00 -0.43231686058E+03  0.39124933089E+04  0.38885352029E+04 0.  0.
        1    1    3    3  502    0  0.99607837440E+03  0.15683320027E+04  0.36038082053E+03  0.18925410787E+04  0.50400001928E-02 0.  1.
       -1    1    3    3    0  502 -0.99607837440E+03 -0.15683320027E+04 -0.79269768111E+03  0.20199522302E+04  0.50400001928E-02 0. -1.
</event>
<event>
 5   0  0.1501585E-07  0.3941726E+04  0.7818609E-02  0.8016407E-01
       -2   -1    0    0    0  501  0.00000000000E+00  0.00000000000E+00  0.13915248376E+04  0.13915248376E+04  0.25500000920E-02 0. -1.
        2   -1    0    0  501    0  0.00000000000E+00  0.00000000000E+00 -0.27913990627E+04  0.27913990627E+04  0.25500000920E-02 0.  1.
    10030    2    1    2    0    0  0.00000000000E+00  0.00000000000E+00 -0.13998742251E+04  0.41829239003E+04  0.39417260825E+04 0.  0.
        5    1    3    3  502    0 -0.17654016080E+04 -0.87311507626E+03 -0.77723861445E+03  0.21173319833E+04  0.46999998093E+01 0. -1.
       -5    1    3    3    0  502  0.17654016080E+04  0.87311507626E+03 -0.62263561064E+03  0.20655919170E+04  0.46999998093E+01 0.  1.
</event>
<event>
 5   0  0.4762788E-08  0.3884191E+04  0.7818609E-02  0.8028325E-01
        1   -1    0    0  501    0  0.00000000000E+00  0.00000000000E+00  0.18788823960E+04  0.18788823961E+04  0.50400001928E-02 0. -1.
       -1   -1    0    0    0  501  0.00000000000E+00  0.00000000000E+00 -0.20074352727E+04  0.20074352727E+04  0.50400001928E-02 0.  1.
    10030    2    1    2    0    0  0.00000000000E+00  0.00000000000E+00 -0.12855287667E+03  0.38863176688E+04  0.38841909300E+04 0.  0.
        2    1    3    3  502    0 -0.16272410938E+04  0.59773108132E+03  0.81172494234E+03  0.19141821765E+04  0.25500000920E-02 0.  1.
       -2    1    3    3    0  502  0.16272410938E+04 -0.59773108132E+03 -0.94027781901E+03  0.19721354923E+04  0.25500000920E-02 0. -1.
</event>
<event>
 5   0  0.4750125E-08  0.3901090E+04  0.7818609E-02  0.8024802E-01
        1   -1    0    0  501    0  0.00000000000E+00  0.00000000000E+00  0.14920839192E+04  0.14920839192E+04  0.50400001928E-02 0.  1.
       -1   -1    0    0    0  501  0.00000000000E+00  0.00000000000E+00 -0.25498744907E+04  0.25498744907E+04  0.50400001928E-02 0. -1.
    10030    2    1    2    0    0  0.00000000000E+00  0.00000000000E+00 -0.10577905715E+04  0.40419584099E+04  0.39010904751E+04 0.  0.
        3    1    3    3  502    0  0.27807026049E+03 -0.51937822148E+02 -0.25285084778E+04  0.25442829520E+04  0.10100000352E+00 0. -1.
       -3    1    3    3    0  502 -0.27807026049E+03  0.51937822148E+02  0.14707179063E+04  0.14976754580E+04  0.10100000352E+00 0.  1.
</event>
<event>
 5   0  0.4750125E-08  0.3882658E+04  0.7818609E-02  0.8028646E-01
       -1   -1    0    0    0  501  0.00000000000E+00  0.00000000000E+00  0.10312380373E+04  0.10312380374E+04  0.50400001928E-02 0. -1.
        1   -1    0    0  501    0  0.00000000000E+00  0.00000000000E+00 -0.36545961402E+04  0.36545961402E+04  0.50400001928E-02 0.  1.
    10030    2    1    2    0    0  0.00000000000E+00  0.00000000000E+00 -0.26233581029E+04  0.46858341776E+04  0.38826581364E+04 0.  0.
        1    1    3    3  502    0  0.32905989563E+03  0.11267855388E+03 -0.36166856953E+04  0.36333720275E+04  0.50400001928E-02 0.  1.
       -1    1    3    3    0  502 -0.32905989563E+03 -0.11267855388E+03  0.99332759244E+03  0.10524621501E+04  0.50400001928E-02 0. -1.
</event>
<event>
 5   0  0.4762788E-08  0.3869969E+04  0.7818609E-02  0.8031304E-01
       -1   -1    0    0    0  501  0.00000000000E+00  0.00000000000E+00  0.28287960993E+04  0.28287960993E+04  0.50400001928E-02 0. -1.
        1   -1    0    0  501    0  0.00000000000E+00  0.00000000000E+00 -0.13235896021E+04  0.13235896021E+04  0.50400001928E-02 0.  1.
    10030    2    1    2    0    0  0.00000000000E+00  0.00000000000E+00  0.15052064972E+04  0.41523857014E+04  0.38699690456E+04 0.  0.
        2    1    3    3  502    0  0.10551815783E+04  0.12221464171E+04 -0.39157161965E+03  0.16614386421E+04  0.25500000920E-02 0.  1.
       -2    1    3    3    0  502 -0.10551815783E+04 -0.12221464171E+04  0.18967781169E+04  0.24909470594E+04  0.25500000920E-02 0. -1.
</event>
<event>
 5   0  0.1503228E-07  0.3894350E+04  0.7818609E-02  0.8026205E-01
       -2   -1    0    0    0  501  0.00000000000E+00  0.00000000000E+00  0.25150277137E+04  0.25150277137E+04  0.25500000920E-02 0. -1.
        2   -1    0    0  501    0  0.00000000000E+00  0.00000000000E+00 -0.15075344691E+04  0.15075344691E+04  0.25500000920E-02 0.  1.
    10030    2    1    2    0    0  0.00000000000E+00  0.00000000000E+00  0.10074932446E+04  0.40225621828E+04  0.38943502509E+04 0.  0.
        3    1    3    3  502    0  0.20281094671E+03  0.22109001975E+03 -0.14835163338E+04  0.15135500651E+04  0.10100000352E+00 0.  1.
       -3    1    3    3    0  502 -0.20281094671E+03 -0.22109001975E+03  0.24910095784E+04  0.25090121177E+04  0.10100000352E+00 0. -1.
</event>
<event>
 5   0  0.4762788E-08  0.3821340E+04  0.7818609E-02  0.8041591E-01
       -1   -1    0    0    0  501  0.00000000000E+00  0.00000000000E+00  0.16658622729E+04  0.16658622729E+04  0.50400001928E-02 0. -1.
        1   -1    0    0  501    0  0.00000000000E+00  0.00000000000E+00 -0.21914538299E+04  0.21914538299E+04  0.50400001928E-02 0.  1.
    10030    2    1    2    0    0  0.00000000000E+00  0.00000000000E+00 -0.52559155700E+03  0.38573161028E+04  0.38213402141E+04 0.  0.
        2    1    3    3  502    0  0.12387843672E+04  0.23527249287E+03 -0.17118313979E+04  0.21261012650E+04  0.25500000920E-02 0.  1.
       -2    1    3    3    0  502 -0.12387843672E+04 -0.23527249287E+03  0.11862398409E+04  0.17312148377E+04  0.25500000920E-02 0. -1.
</event>
<event>
 5   0  0.1501585E-07  0.3914095E+04  0.7818609E-02  0.8022104E-01
       -2   -1    0    0    0  501  0.00000000000E+00  0.00000000000E+00  0.22090795096E+04  0.22090795096E+04  0.25500000920E-02 0. -1.
        2   -1    0    0  501    0  0.00000000000E+00  0.00000000000E+00 -0.17337696374E+04  0.17337696374E+04  0.25500000920E-02 0.  1.
    10030    2    1    2    0    0  0.00000000000E+00  0.00000000000E+00  0.47530987219E+03  0.39428491471E+04  0.39140950323E+04 0.  0.
        5    1    3    3  502    0 -0.15212439483E+04  0.75105612072E+03 -0.74508582692E+03  0.18529553222E+04  0.46999998093E+01 0.  1.
       -5    1    3    3    0  502  0.15212439483E+04 -0.75105612072E+03  0.12203956991E+04  0.20898938248E+04  0.46999998093E+01 0. -1.
</event>
<event>
 5   0  0.1538018E-07  0.4264856E+04  0.7818609E-02  0.7953149E-01
        2   -1    0    0  501    0  0.00000000000E+00  0.00000000000E+00  0.22519860006E+04  0.22519860006E+04  0.25500000920E-02 0. -1.
       -2   -1    0    0    0  501  0.00000000000E+00  0.00000000000E+00 -0.20192175149E+04  0.20192175149E+04  0.25500000920E-02 0.  1.
    10030    2    1    2    0    0  0.00000000000E+00  0.00000000000E+00  0.23276848565E+03  0.42712035156E+04  0.42648561879E+04 0.  0.
        1    1    3    3  502    0  0.31959349502E+02 -0.18822220700E+04 -0.88683924879E+03  0.20809289209E+04  0.50400001928E-02 0.  1.
       -1    1    3    3    0  502 -0.31959349502E+02  0.18822220700E+04  0.11196077344E+04  0.21902745946E+04  0.50400001928E-02 0. -1.
</event>
<event>
 5   0  0.4750125E-08  0.3897919E+04  0.7818609E-02  0.8025462E-01
       -1   -1    0    0    0  501  0.00000000000E+00  0.00000000000E+00  0.17516973827E+04  0.17516973827E+04  0.50400001928E-02 0. -1.
        1   -1    0    0  501    0  0.00000000000E+00  0.00000000000E+00 -0.21684351893E+04  0.21684351893E+04  0.50400001928E-02 0.  1.
    10030    2    1    2    0    0  0.00000000000E+00  0.00000000000E+00 -0.41673780660E+03  0.39201325720E+04  0.38979185449E+04 0.  0.
        5    1    3    3  502    0  0.56042259889E+03  0.42097389933E+03 -0.20372837003E+04  0.21544928588E+04  0.46999998093E+01 0.  1.
       -5    1    3    3    0  502 -0.56042259889E+03 -0.42097389933E+03  0.16205458937E+04  0.17656397132E+04  0.46999998093E+01 0. -1.
</event>
<event>
 5   0  0.4750125E-08  0.3884989E+04  0.7818609E-02  0.8028159E-01
       -1   -1    0    0    0  501  0.00000000000E+00  0.00000000000E+00  0.19537550604E+04  0.19537550604E+04  0.50400001928E-02 0.  1.
        1   -1    0    0  501    0  0.00000000000E+00  0.00000000000E+00 -0.19312984571E+04  0.19312984571E+04  0.50400001928E-02 0. -1.
    10030    2    1    2    0    0  0.00000000000E+00  0.00000000000E+00  0.22456603332E+02  0.38850535175E+04  0.38849886145E+04 0.  0.
        3    1    3    3  502    0  0.24782386102E+02  0.13094198345E+04  0.14458566228E+04  0.19508192775E+04  0.10100000352E+00 0.  1.
       -3    1    3    3    0  502 -0.24782386102E+02 -0.13094198345E+04 -0.14234000195E+04  0.19342342400E+04  0.10100000352E+00 0. -1.
</event>
<event>
 5   0  0.4750125E-08  0.3894907E+04  0.7818609E-02  0.8026089E-01
       -1   -1    0    0    0  501  0.00000000000E+00  0.00000000000E+00  0.15992840714E+04  0.15992840714E+04  0.50400001928E-02 0. -1.
        1   -1    0    0  501    0  0.00000000000E+00  0.00000000000E+00 -0.23714202508E+04  0.23714202508E+04  0.50400001928E-02 0.  1.
    10030    2    1    2    0    0  0.00000000000E+00  0.00000000000E+00 -0.77213617939E+03  0.39707043222E+04  0.38949067428E+04 0.  0.
        1    1    3    3  502    0  0.57174804751E+03  0.15625042742E+04 -0.14178203312E+04  0.21859848875E+04  0.50400001928E-02 0.  1.
       -1    1    3    3    0  502 -0.57174804751E+03 -0.15625042742E+04  0.64568415183E+03  0.17847194347E+04  0.50400001928E-02 0. -1.
</event>
<event>
 5   0  0.4750125E-08  0.3897853E+04  0.7818609E-02  0.8025476E-01
       -3   -1    0    0    0  501  0.00000000000E+00  0.00000000000E+00  0.24393218420E+04  0.24393218441E+04  0.10100000352E+00 0.  1.
        3   -1    0    0  501    0  0.00000000000E+00  0.00000000000E+00 -0.15571189526E+04  0.15571189558E+04  0.10100000352E+00 0. -1.
    10030    2    1    2    0    0  0.00000000000E+00  0.00000000000E+00  0.88220288945E+03  0.39964407999E+04  0.38978528871E+04 0.  0.
        2    1    3    3  502    0  0.18309060250E+04 -0.22054783700E+03  0.10874882797E+04  0.21409084472E+04  0.25500000920E-02 0.  1.
       -2    1    3    3    0  502 -0.18309060250E+04  0.22054783700E+03 -0.20528539025E+03  0.18555323528E+04  0.25500000920E-02 0. -1.
</event>
<event>
 5   0  0.1546846E-07  0.3899025E+04  0.7818609E-02  0.8025232E-01
        2   -1    0    0  501    0  0.00000000000E+00  0.00000000000E+00  0.18660550824E+04  0.18660550824E+04  0.25500000920E-02 0.  1.
       -2   -1    0    0    0  501  0.00000000000E+00  0.00000000000E+00 -0.20367022051E+04  0.20367022051E+04  0.25500000920E-02 0. -1.
    10030    2    1    2    0    0  0.00000000000E+00  0.00000000000E+00 -0.17064712265E+03  0.39027572875E+04  0.38990247505E+04 0.  0.
        2    1    3    3  502    0  0.13112626182E+03  0.75528408591E+03  0.17088628321E+04  0.18729282757E+04  0.25500000920E-02 0.  1.
       -2    1    3    3    0  502 -0.13112626182E+03 -0.75528408591E+03 -0.18795099548E+04  0.20298290118E+04  0.25500000920E-02 0. -1.
</event>
<event>
 5   0  0.4762788E-08  0.3873188E+04  0.7818609E-02  0.8030629E-01
        1   -1    0    0  501    0  0.00000000000E+00  0.00000000000E+00  0.22723569468E+04  0.22723569468E+04  0.50400001928E-02 0.  1.
       -1   -1    0    0    0  501  0.00000000000E+00  0.00000000000E+00 -0.16504434798E+04  0.16504434798E+04  0.50400001928E-02 0. -1.
    10030    2    1    2    0    0  0.00000000000E+00  0.00000000000E+00  0.62191346699E+03  0.39228004267E+04  0.38731881993E+04 0.  0.
        2    1    3    3  502    0 -0.10965419891E+04 -0.10352166986E+04 -0.91964545500E+03  0.17663028364E+04  0.25500000920E-02 0. -1.
       -2    1    3    3    0  502  0.10965419891E+04  0.10352166986E+04  0.15415589220E+04  0.21564975903E+04  0.25500000920E-02 0.  1.
</event>
<event>
 5   0  0.1501585E-07  0.3868678E+04  0.7818609E-02  0.8031575E-01
       -2   -1    0    0    0  501  0.00000000000E+00  0.00000000000E+00  0.14989186663E+04  0.14989186663E+04  0.25500000920E-02 0. -1.
        2   -1    0    0  501    0  0.00000000000E+00  0.00000000000E+00 -0.24962447876E+04  0.24962447876E+04  0.25500000920E-02 0.  1.
    10030    2    1    2    0    0  0.00000000000E+00  0.00000000000E+00 -0.99732612133E+03  0.39951634539E+04  0.38686782796E+04 0.  0.
        5    1    3    3  502    0  0.11680118990E+03 -0.10136127662E+04 -0.21957397280E+04  0.24212286965E+04  0.46999998093E+01 0.  1.
       -5    1    3    3    0  502 -0.11680118990E+03  0.10136127662E+04  0.11984136066E+04  0.15739347574E+04  0.46999998093E+01 0. -1.
</event>
<event>
 5   0  0.4750125E-08  0.3819939E+04  0.7818609E-02  0.8041890E-01
        1   -1    0    0  501    0  0.00000000000E+00  0.00000000000E+00  0.20864445264E+04  0.20864445264E+04  0.50400001928E-02 0. -1.
       -1   -1    0    0    0  501  0.00000000000E+00  0.00000000000E+00 -0.17484209797E+04  0.17484209797E+04  0.50400001928E-02 0.  1.
    10030    2    1    2    0    0  0.00000000000E+00  0.00000000000E+00  0.33802354676E+03  0.38348655061E+04  0.38199389434E+04 0.  0.
        3    1    3    3  502    0 -0.70721273161E+03 -0.17685275573E+04  0.26528311061E+02  0.19048735733E+04  0.10100000352E+00 0. -1.
       -3    1    3    3    0  502  0.70721273161E+03  0.17685275573E+04  0.31149523570E+03  0.19299919328E+04  0.10100000352E+00 0.  1.
</event>
<event>
 5   0  0.1503228E-07  0.3891510E+04  0.7818609E-02  0.8026797E-01
       -2   -1    0    0    0  501  0.00000000000E+00  0.00000000000E+00  0.14786132959E+04  0.14786132959E+04  0.25500000920E-02 0.  1.
        2   -1    0    0  501    0  0.00000000000E+00  0.00000000000E+00 -0.25604815585E+04  0.25604815585E+04  0.25500000920E-02 0. -1.
    10030    2    1    2    0    0  0.00000000000E+00  0.00000000000E+00 -0.10818682626E+04  0.40390948544E+04  0.38915097719E+04 0.  0.
        3    1    3    3  502    0  0.12553235438E+04  0.13759667801E+04  0.43298924499E+02  0.18630610797E+04  0.10100000352E+00 0. -1.
       -3    1    3    3    0  502 -0.12553235438E+04 -0.13759667801E+04 -0.11251671871E+04  0.21760337747E+04  0.10100000352E+00 0.  1.
</event>
<event>
 5   0  0.1501585E-07  0.3874295E+04  0.7818609E-02  0.8030397E-01
       -2   -1    0    0    0  501  0.00000000000E+00  0.00000000000E+00  0.15968900232E+04  0.15968900232E+04  0.25500000920E-02 0.  1.
        2   -1    0    0  501    0  0.00000000000E+00  0.00000000000E+00 -0.23499052423E+04  0.23499052423E+04  0.25500000920E-02 0. -1.
    10030    2    1    2    0    0  0.00000000000E+00  0.00000000000E+00 -0.75301521910E+03  0.39467952655E+04  0.38742948968E+04 0.  0.
        5    1    3    3  502    0  0.37117631966E+03  0.67986450484E+03 -0.21852702342E+04  0.23184942726E+04  0.46999998093E+01 0. -1.
       -5    1    3    3    0  502 -0.37117631966E+03 -0.67986450484E+03  0.14322550151E+04  0.16283009929E+04  0.46999998093E+01 0.  1.
</event>
<event>
 5   0  0.1501585E-07  0.3897564E+04  0.7818609E-02  0.8025536E-01
        2   -1    0    0  501    0  0.00000000000E+00  0.00000000000E+00  0.25071095603E+04  0.25071095603E+04  0.25500000920E-02 0. -1.
       -2   -1    0    0    0  501  0.00000000000E+00  0.00000000000E+00 -0.15147929385E+04  0.15147929385E+04  0.25500000920E-02 0.  1.
    10030    2    1    2    0    0  0.00000000000E+00  0.00000000000E+00  0.99231662179E+03  0.40219024987E+04  0.38975642947E+04 0.  0.
        5    1    3    3  502    0  0.65658263096E+03  0.95506771990E+03  0.21128139702E+04  0.24098257330E+04  0.46999998093E+01 0. -1.
       -5    1    3    3    0  502 -0.65658263096E+03 -0.95506771990E+03 -0.11204973484E+04  0.16120767657E+04  0.46999998093E+01 0.  1.
</event>
<event>
 5   0  0.1503228E-07  0.3899095E+04  0.7818609E-02  0.8025217E-01
       -2   -1    0    0    0  501  0.00000000000E+00  0.00000000000E+00  0.13459854076E+04  0.13459854076E+04  0.25500000920E-02 0.  1.
        2   -1    0    0  501    0  0.00000000000E+00  0.00000000000E+00 -0.28237573467E+04  0.28237573467E+04  0.25500000920E-02 0. -1.
    10030    2    1    2    0    0  0.00000000000E+00  0.00000000000E+00 -0.14777719391E+04  0.41697427543E+04  0.38990953737E+04 0.  0.
        3    1    3    3  502    0 -0.26322415563E+03  0.19312609533E+04 -0.78272338216E+03  0.21004075150E+04  0.10100000352E+00 0.  1.
       -3    1    3    3    0  502  0.26322415563E+03 -0.19312609533E+04 -0.69504855698E+03  0.20693352393E+04  0.10100000352E+00 0. -1.
</event>
<event>
 5   0  0.4750125E-08  0.3895209E+04  0.7818609E-02  0.8026026E-01
        1   -1    0    0  501    0  0.00000000000E+00  0.00000000000E+00  0.21454148901E+04  0.21454148901E+04  0.50400001928E-02 0. -1.
       -1   -1    0    0    0  501  0.00000000000E+00  0.00000000000E+00 -0.17680326063E+04  0.17680326063E+04  0.50400001928E-02 0.  1.
    10030    2    1    2    0    0  0.00000000000E+00  0.00000000000E+00  0.37738228383E+03  0.39134474964E+04  0.38952090983E+04 0.  0.
        1    1    3    3  502    0 -0.13848189273E+03 -0.80613787602E+03  0.19644874273E+04  0.21279676600E+04  0.50400001928E-02 0. -1.
       -1    1    3    3    0  502  0.13848189273E+03  0.80613787602E+03 -0.15871051435E+04  0.17854798365E+04  0.50400001928E-02 0.  1.
</event>
<event>
 5   0  0.4750125E-08  0.3875374E+04  0.7818609E-02  0.8030171E-01
       -1   -1    0    0    0  501  0.00000000000E+00  0.00000000000E+00  0.16704118850E+04  0.16704118850E+04  0.50400001928E-02 0.  1.
        1   -1    0    0  501    0  0.00000000000E+00  0.00000000000E+00 -0.22477276851E+04  0.22477276851E+04  0.50400001928E-02 0. -1.
    10030    2    1    2    0    0  0.00000000000E+00  0.00000000000E+00 -0.57731580017E+03  0.39181395701E+04  0.38753740668E+04 0.  0.
        4    1    3    3  502    0  0.54950293166E+03 -0.18471611185E+04 -0.84760006034E+02  0.19290265786E+04  0.12699999809E+01 0.  1.
       -4    1    3    3    0  502 -0.54950293166E+03  0.18471611185E+04 -0.49255579414E+03  0.19891129915E+04  0.12699999809E+01 0. -1.
</event>
<event>
 5   0  0.4750125E-08  0.3677110E+04  0.7818609E-02  0.8073053E-01
       -3   -1    0    0    0  501  0.00000000000E+00  0.00000000000E+00  0.15371508483E+04  0.15371508516E+04  0.10100000352E+00 0. -1.
        3   -1    0    0  501    0  0.00000000000E+00  0.00000000000E+00 -0.21990588983E+04  0.21990589006E+04  0.10100000352E+00 0.  1.
    10030    2    1    2    0    0  0.00000000000E+00  0.00000000000E+00 -0.66190805002E+03  0.37362097523E+04  0.36771104207E+04 0.  0.
        4    1    3    3  502    0 -0.37399161948E+03  0.16296083208E+04  0.44605271102E+03  0.17304501277E+04  0.12699999809E+01 0. -1.
       -4    1    3    3    0  502  0.37399161948E+03 -0.16296083208E+04 -0.11079607610E+04  0.20057596246E+04  0.12699999809E+01 0.  1.
</event>
<event>
 5   0  0.1546846E-07  0.3964466E+04  0.7818609E-02  0.8011753E-01
       -2   -1    0    0    0  501  0.00000000000E+00  0.00000000000E+00  0.14226411520E+04  0.14226411520E+04  0.25500000920E-02 0. -1.
        2   -1    0    0  501    0  0.00000000000E+00  0.00000000000E+00 -0.27619389559E+04  0.27619389559E+04  0.25500000920E-02 0.  1.
    10030    2    1    2    0    0  0.00000000000E+00  0.00000000000E+00 -0.13392978039E+04  0.41845801079E+04  0.39644661774E+04 0.  0.
        2    1    3    3  502    0  0.38091454132E+02 -0.83298864971E+03 -0.25678065241E+04  0.26998058068E+04  0.25500000920E-02 0.  1.
       -2    1    3    3    0  502 -0.38091454132E+02  0.83298864971E+03  0.12285087202E+04  0.14847743011E+04  0.25500000920E-02 0. -1.
</event>
<event>
 5   0  0.4750125E-08  0.3905301E+04  0.7818609E-02  0.8023928E-01
       -1   -1    0    0    0  501  0.00000000000E+00  0.00000000000E+00  0.20281418606E+04  0.20281418606E+04  0.50400001928E-02 0. -1.
        1   -1    0    0  501    0  0.00000000000E+00  0.00000000000E+00 -0.18799690332E+04  0.18799690332E+04  0.50400001928E-02 0.  1.
    10030    2    1    2    0    0  0.00000000000E+00  0.00000000000E+00  0.14817282738E+03  0.39081108938E+04  0.39053009578E+04 0.  0.
        3    1    3    3  502    0 -0.14519392642E+04  0.12626747858E+04  0.40654321177E+03  0.19666602744E+04  0.10100000352E+00 0. -1.
       -3    1    3    3    0  502  0.14519392642E+04 -0.12626747858E+04 -0.25837038439E+03  0.19414506194E+04  0.10100000352E+00 0.  1.
</event>
<event>
 5   0  0.4750125E-08  0.3805213E+04  0.7818609E-02  0.8045037E-01
        1   -1    0    0  501    0  0.00000000000E+00  0.00000000000E+00  0.26184044917E+04  0.26184044917E+04  0.50400001928E-02 0. -1.
       -1   -1    0    0    0  501  0.00000000000E+00  0.00000000000E+00 -0.13824872610E+04  0.13824872610E+04  0.50400001928E-02 0.  1.
    10030    2    1    2    0    0  0.00000000000E+00  0.00000000000E+00  0.12359172307E+04  0.40008917527E+04  0.38052126637E+04 0.  0.
        4    1    3    3  502    0  0.85744892938E+03 -0.77265838071E+03 -0.97233171045E+03  0.15091885925E+04  0.12699999809E+01 0.  1.
       -4    1    3    3    0  502 -0.85744892938E+03  0.77265838071E+03  0.22082489411E+04  0.24917031602E+04  0.12699999809E+01 0. -1.
</event>
<event>
 5   0  0.1520986E-07  0.3894004E+04  0.7818609E-02  0.8026277E-01
       -2   -1    0    0    0  501  0.00000000000E+00  0.00000000000E+00  0.24273228669E+04  0.24273228669E+04  0.25500000920E-02 0.  1.
        2   -1    0    0  501    0  0.00000000000E+00  0.00000000000E+00 -0.15617276400E+04  0.15617276400E+04  0.25500000920E-02 0. -1.
    10030    2    1    2    0    0  0.00000000000E+00  0.00000000000E+00  0.86559522687E+03  0.39890505069E+04  0.38940042180E+04 0.  0.
        4    1    3    3  502    0  0.14289099876E+04  0.10167694628E+04  0.12991417185E+04  0.21825156840E+04  0.12699999809E+01 0. -1.
       -4    1    3    3    0  502 -0.14289099876E+04 -0.10167694628E+04 -0.43354649161E+03  0.18065348229E+04  0.12699999809E+01 0.  1.
</event>
<event>
 5   0  0.4750125E-08  0.3882296E+04  0.7818609E-02  0.8028721E-01
       -1   -1    0    0    0  501  0.00000000000E+00  0.00000000000E+00  0.27253170628E+04  0.27253170628E+04  0.50400001928E-02 0.  1.
        1   -1    0    0  501    0  0.00000000000E+00  0.00000000000E+00 -0.13826116992E+04  0.13826116992E+04  0.50400001928E-02 0. -1.
    10030    2    1    2    0    0  0.00000000000E+00  0.00000000000E+00  0.13427053636E+04  0.41079287620E+04  0.38822958439E+04 0.  0.
        4    1    3    3  502    0 -0.89625032480E+03 -0.11403201671E+04 -0.69376727690E+03  0.16077653360E+04  0.12699999809E+01 0. -1.
       -4    1    3    3    0  502  0.89625032480E+03  0.11403201671E+04  0.20364726405E+04  0.25001634260E+04  0.12699999809E+01 0.  1.
</event>
<event>
 5   0  0.4750125E-08  0.3901870E+04  0.7818609E-02  0.8024640E-01
        1   -1    0    0  501    0  0.00000000000E+00  0.00000000000E+00  0.29691000763E+04  0.29691000763E+04  0.50400001928E-02 0.  1.
       -1   -1    0    0    0  501  0.00000000000E+00  0.00000000000E+00 -0.12819197915E+04  0.12819197916E+04  0.50400001928E-02 0. -1.
    10030    2    1    2    0    0  0.00000000000E+00  0.00000000000E+00  0.16871802848E+04  0.42510198679E+04  0.39018703981E+04 0.  0.
        4    1    3    3  502    0 -0.18478871094E+04 -0.50023558495E+03  0.43416477619E+03  0.19630137736E+04  0.12699999809E+01 0.  1.
       -4    1    3    3    0  502  0.18478871094E+04  0.50023558495E+03  0.12530155086E+04  0.22880060943E+04  0.12699999809E+01 0. -1.
</event>
<event>
 5   0  0.4750125E-08  0.3891728E+04  0.7818609E-02  0.8026752E-01
        1   -1    0    0  501    0  0.00000000000E+00  0.00000000000E+00  0.19293752162E+04  0.19293752163E+04  0.50400001928E-02 0. -1.
       -1   -1    0    0    0  501  0.00000000000E+00  0.00000000000E+00 -0.19624937076E+04  0.19624937076E+04  0.50400001928E-02 0.  1.
    10030    2    1    2    0    0  0.00000000000E+00  0.00000000000E+00 -0.33118491341E+02  0.38918689238E+04  0.38917280077E+04 0.  0.
        1    1    3    3  502    0 -0.10754612303E+04 -0.26705099744E+03  0.15830153573E+04  0.19323226218E+04  0.50400001928E-02 0. -1.
       -1    1    3    3    0  502  0.10754612303E+04  0.26705099744E+03 -0.16161338487E+04  0.19595463021E+04  0.50400001928E-02 0.  1.
</event>
<event>
 5   0  0.1538018E-07  0.3879059E+04  0.7818609E-02  0.8029399E-01
       -2   -1    0    0    0  501  0.00000000000E+00  0.00000000000E+00  0.17810421350E+04  0.17810421350E+04  0.25500000920E-02 0.  1.
        2   -1    0    0  501    0  0.00000000000E+00  0.00000000000E+00 -0.21121198151E+04  0.21121198151E+04  0.25500000920E-02 0. -1.
    10030    2    1    2    0    0  0.00000000000E+00  0.00000000000E+00 -0.33107768009E+03  0.38931619501E+04  0.38790588471E+04 0.  0.
        1    1    3    3  502    0  0.13726569463E+04  0.28744447996E+03  0.11790944154E+04  0.18322322620E+04  0.50400001928E-02 0.  1.
       -1    1    3    3    0  502 -0.13726569463E+04 -0.28744447996E+03 -0.15101720955E+04  0.20609296881E+04  0.50400001928E-02 0. -1.
</event>
<event>
 5   0  0.4750125E-08  0.3920901E+04  0.7818609E-02  0.8020696E-01
       -1   -1    0    0    0  501  0.00000000000E+00  0.00000000000E+00  0.14932428221E+04  0.14932428222E+04  0.50400001928E-02 0. -1.
        1   -1    0    0  501    0  0.00000000000E+00  0.00000000000E+00 -0.25738386249E+04  0.25738386249E+04  0.50400001928E-02 0.  1.
    10030    2    1    2    0    0  0.00000000000E+00  0.00000000000E+00 -0.10805958027E+04  0.40670814470E+04  0.39209009434E+04 0.  0.
        3    1    3    3  502    0  0.85393842282E+03  0.13258482549E+04  0.66771601319E+03  0.17125796651E+04  0.10100000352E+00 0. -1.
       -3    1    3    3    0  502 -0.85393842282E+03 -0.13258482549E+04 -0.17483118159E+04  0.23545017819E+04  0.10100000352E+00 0.  1.
</event>
<event>
 5   0  0.1546846E-07  0.3796298E+04  0.7818609E-02  0.8046950E-01
       -2   -1    0    0    0  501  0.00000000000E+00  0.00000000000E+00  0.23720685998E+04  0.23720685998E+04  0.25500000920E-02 0. -1.
        2   -1    0    0  501    0  0.00000000000E+00  0.00000000000E+00 -0.15189145361E+04  0.15189145361E+04  0.25500000920E-02 0.  1.
    10030    2    1    2    0    0  0.00000000000E+00  0.00000000000E+00  0.85315406369E+03  0.38909831359E+04  0.37962979213E+04 0.  0.
        2    1    3    3  502    0  0.17400100592E+04 -0.53257331188E+03 -0.12698638173E+03  0.18241148209E+04  0.25500000920E-02 0.  1.
       -2    1    3    3    0  502 -0.17400100592E+04  0.53257331188E+03  0.98014044542E+03  0.20668683150E+04  0.25500000920E-02 0. -1.
</event>
<event>
 5   0  0.1503228E-07  0.3905597E+04  0.7818609E-02  0.8023866E-01
       -2   -1    0    0    0  501  0.00000000000E+00  0.00000000000E+00  0.17081585997E+04  0.17081585997E+04  0.25500000920E-02 0. -1.
        2   -1    0    0  501    0  0.00000000000E+00  0.00000000000E+00 -0.22324749288E+04  0.22324749288E+04  0.25500000920E-02 0.  1.
    10030    2    1    2    0    0  0.00000000000E+00  0.00000000000E+00 -0.52431632910E+03  0.39406335285E+04  0.39055966244E+04 0.  0.
        3    1    3    3  502    0  0.45362555820E+03 -0.66657829446E+03  0.15323693432E+04  0.17315480311E+04  0.10100000352E+00 0. -1.
       -3    1    3    3    0  502 -0.45362555820E+03  0.66657829446E+03 -0.20566856723E+04  0.22090854974E+04  0.10100000352E+00 0.  1.
</event>
<event>
 5   0  0.4750125E-08  0.3909031E+04  0.7818609E-02  0.8023154E-01
        1   -1    0    0  501    0  0.00000000000E+00  0.00000000000E+00  0.24566941325E+04  0.24566941326E+04  0.50400001928E-02 0.  1.
       -1   -1    0    0    0  501  0.00000000000E+00  0.00000000000E+00 -0.15549884620E+04  0.15549884620E+04  0.50400001928E-02 0. -1.
    10030    2    1    2    0    0  0.00000000000E+00  0.00000000000E+00  0.90170567053E+03  0.40116825946E+04  0.39090310978E+04 0.  0.
        5    1    3    3  502    0 -0.24181176647E+03  0.84584229167E+03  0.22420182986E+04  0.24084414575E+04  0.46999998093E+01 0.  1.
       -5    1    3    3    0  502  0.24181176647E+03 -0.84584229167E+03 -0.13403126281E+04  0.16032411371E+04  0.46999998093E+01 0. -1.
</event>
<event>
 5   0  0.1520986E-07  0.3900735E+04  0.7818609E-02  0.8024876E-01
        2   -1    0    0  501    0  0.00000000000E+00  0.00000000000E+00  0.18110602949E+04  0.18110602949E+04  0.25500000920E-02 0. -1.
       -2   -1    0    0    0  501  0.00000000000E+00  0.00000000000E+00 -0.21003904099E+04  0.21003904099E+04  0.25500000920E-02 0.  1.
    10030    2    1    2    0    0  0.00000000000E+00  0.00000000000E+00 -0.28933011496E+03  0.39114507048E+04  0.39007351488E+04 0.  0.
        4    1    3    3  502    0  0.15284005858E+04 -0.10607113759E+04  0.44244748999E+03  0.19122966213E+04  0.12699999809E+01 0. -1.
       -4    1    3    3    0  502 -0.15284005858E+04  0.10607113759E+04 -0.73177760495E+03  0.19991540835E+04  0.12699999809E+01 0.  1.
</event>
<event>
 5   0  0.1520986E-07  0.3890845E+04  0.7818609E-02  0.8026936E-01
       -2   -1    0    0    0  501  0.00000000000E+00  0.00000000000E+00  0.31260647275E+04  0.31260647275E+04  0.25500000920E-02 0. -1.
        2   -1    0    0  501    0  0.00000000000E+00  0.00000000000E+00 -0.12106813985E+04  0.12106813985E+04  0.25500000920E-02 0.  1.
    10030    2    1    2    0    0  0.00000000000E+00  0.00000000000E+00  0.19153833290E+04  0.43367461260E+04  0.38908448523E+04 0.  0.
        4    1    3    3  502    0 -0.17649421871E+04  0.81421585826E+03  0.86646829055E+03  0.21280830104E+04  0.12699999809E+01 0. -1.
       -4    1    3    3    0  502  0.17649421871E+04 -0.81421585826E+03  0.10489150384E+04  0.22086631156E+04  0.12699999809E+01 0.  1.
</event>
<event>
 5   0  0.1546846E-07  0.3899088E+04  0.7818609E-02  0.8025219E-01
        2   -1    0    0  501    0  0.00000000000E+00  0.00000000000E+00  0.16933201497E+04  0.16933201497E+04  0.25500000920E-02 0.  1.
       -2   -1    0    0    0  501  0.00000000000E+00  0.00000000000E+00 -0.22445382502E+04  0.22445382502E+04  0.25500000920E-02 0. -1.
    10030    2    1    2    0    0  0.00000000000E+00  0.00000000000E+00 -0.55121810049E+03  0.39378583999E+04  0.38990880195E+04 0.  0.
        2    1    3    3  502    0 -0.19730022808E+03 -0.19388729401E+04 -0.22444778299E+03  0.19617676889E+04  0.25500000920E-02 0. -1.
       -2    1    3    3    0  502  0.19730022808E+03  0.19388729401E+04 -0.32677031750E+03  0.19760907110E+04  0.25500000920E-02 0.  1.
</event>
<event>
 5   0  0.4750125E-08  0.3928975E+04  0.7818609E-02  0.8019030E-01
        1   -1    0    0  501    0  0.00000000000E+00  0.00000000000E+00  0.23532820598E+04  0.23532820598E+04  0.50400001928E-02 0.  1.
       -1   -1    0    0    0  501  0.00000000000E+00  0.00000000000E+00 -0.16399273659E+04  0.16399273659E+04  0.50400001928E-02 0. -1.
    10030    2    1    2    0    0  0.00000000000E+00  0.00000000000E+00  0.71335469391E+03  0.39932094257E+04  0.39289752605E+04 0.  0.
        5    1    3    3  502    0  0.19125904947E+04 -0.28351225324E+03  0.70993417973E+03  0.20597112001E+04  0.46999998093E+01 0. -1.
       -5    1    3    3    0  502 -0.19125904947E+04  0.28351225324E+03  0.34205141811E+01  0.19334982256E+04  0.46999998093E+01 0.  1.
</event>
<event>
 5   0  0.1503228E-07  0.3902853E+04  0.7818609E-02  0.8024436E-01
       -2   -1    0    0    0  501  0.00000000000E+00  0.00000000000E+00  0.24379738179E+04  0.24379738179E+04  0.25500000920E-02 0.  1.
        2   -1    0    0  501    0  0.00000000000E+00  0.00000000000E+00 -0.15619797088E+04  0.15619797088E+04  0.25500000920E-02 0. -1.
    10030    2    1    2    0    0  0.00000000000E+00  0.00000000000E+00  0.87599410912E+03  0.39999535267E+04  0.39028531277E+04 0.  0.
        3    1    3    3  502    0 -0.12829495918E+04 -0.62462610504E+03  0.18022605167E+04  0.22987519236E+04  0.10100000352E+00 0.  1.
       -3    1    3    3    0  502  0.12829495918E+04  0.62462610504E+03 -0.92626640759E+03  0.17012016030E+04  0.10100000352E+00 0. -1.
</event>
<event>
 5   0  0.4750125E-08  0.3904781E+04  0.7818609E-02  0.8024036E-01
       -1   -1    0    0    0  501  0.00000000000E+00  0.00000000000E+00  0.22040069539E+04  0.22040069539E+04  0.50400001928E-02 0. -1.
        1   -1    0    0  501    0  0.00000000000E+00  0.00000000000E+00 -0.17294992199E+04  0.17294992199E+04  0.50400001928E-02 0.  1.
    10030    2    1    2    0    0  0.00000000000E+00  0.00000000000E+00  0.47450773396E+03  0.39335061738E+04  0.39047808171E+04 0.  0.
        5    1    3    3  502    0 -0.39603033369E+03 -0.62429563100E+03 -0.15830314921E+04  0.17471679527E+04  0.46999998093E+01 0.  1.
       -5    1    3    3    0  502  0.39603033369E+03  0.62429563100E+03  0.20575392261E+04  0.21863382211E+04  0.46999998093E+01 0. -1.
</event>
<event>
 5   0  0.1520986E-07  0.3937370E+04  0.7818609E-02  0.8017302E-01
        2   -1    0    0  501    0  0.00000000000E+00  0.00000000000E+00  0.28612977562E+04  0.28612977562E+04  0.25500000920E-02 0.  1.
       -2   -1    0    0    0  501  0.00000000000E+00  0.00000000000E+00 -0.13545322079E+04  0.13545322079E+04  0.25500000920E-02 0. -1.
    10030    2    1    2    0    0  0.00000000000E+00  0.00000000000E+00  0.15067655484E+04  0.42158299641E+04  0.39373696637E+04 0.  0.
        4    1    3    3  502    0 -0.18927466729E+04 -0.49738259826E+03  0.98262476215E+03  0.21898475867E+04  0.12699999809E+01 0.  1.
       -4    1    3    3    0  502  0.18927466729E+04  0.49738259826E+03  0.52414078622E+03  0.20259823774E+04  0.12699999809E+01 0. -1.
</event>
<event>
 5   0  0.4750125E-08  0.3915332E+04  0.7818609E-02  0.8021848E-01
       -1   -1    0    0    0  501  0.00000000000E+00  0.00000000000E+00  0.19601897120E+04  0.19601897120E+04  0.50400001928E-02 0. -1.
        1   -1    0    0  501    0  0.00000000000E+00  0.00000000000E+00 -0.19551451519E+04  0.19551451519E+04  0.50400001928E-02 0.  1.
    10030    2    1    2    0    0  0.00000000000E+00  0.00000000000E+00  0.50445600594E+01  0.39153348639E+04  0.39153316142E+04 0.  0.
        4    1    3    3  502    0  0.20868537483E+03 -0.54516399032E+03  0.18711330564E+04  0.19600749704E+04  0.12699999809E+01 0. -1.
       -4    1    3    3    0  502 -0.20868537483E+03  0.54516399032E+03 -0.18660884963E+04  0.19552598935E+04  0.12699999809E+01 0.  1.
</event>
<event>
 5   0  0.4750125E-08  0.3894974E+04  0.7818609E-02  0.8026075E-01
        1   -1    0    0  501    0  0.00000000000E+00  0.00000000000E+00  0.21300556250E+04  0.21300556250E+04  0.50400001928E-02 0. -1.
       -1   -1    0    0    0  501  0.00000000000E+00  0.00000000000E+00 -0.17805662723E+04  0.17805662723E+04  0.50400001928E-02 0.  1.
    10030    2    1    2    0    0  0.00000000000E+00  0.00000000000E+00  0.34948935274E+03  0.39106218973E+04  0.38949737889E+04 0.  0.
        3    1    3    3  502    0 -0.52926728738E+03  0.16400094082E+04 -0.73606605304E+03  0.18739124753E+04  0.10100000352E+00 0.  1.
       -3    1    3    3    0  502  0.52926728738E+03 -0.16400094082E+04  0.10855554058E+04  0.20367094220E+04  0.10100000352E+00 0. -1.
</event>
<event>
 5   0  0.1546846E-07  0.3897945E+04  0.7818609E-02  0.8025457E-01
       -2   -1    0    0    0  501  0.00000000000E+00  0.00000000000E+00  0.12579957783E+04  0.12579957783E+04  0.25500000920E-02 0.  1.
        2   -1    0    0  501    0  0.00000000000E+00  0.00000000000E+00 -0.30194799756E+04  0.30194799756E+04  0.25500000920E-02 0. -1.
    10030    2    1    2    0    0  0.00000000000E+00  0.00000000000E+00 -0.17614841974E+04  0.42774757539E+04  0.38979446183E+04 0.  0.
        2    1    3    3  502    0 -0.39512662452E+03 -0.98767919819E+03  0.91131491647E+03  0.14007605523E+04  0.25500000920E-02 0.  1.
       -2    1    3    3    0  502  0.39512662452E+03  0.98767919819E+03 -0.26727991139E+04  0.28767152016E+04  0.25500000920E-02 0. -1.
</event>
<event>
 5   0  0.4750125E-08  0.3902429E+04  0.7818609E-02  0.8024524E-01
        1   -1    0    0  501    0  0.00000000000E+00  0.00000000000E+00  0.22585820866E+04  0.22585820866E+04  0.50400001928E-02 0. -1.
       -1   -1    0    0    0  501  0.00000000000E+00  0.00000000000E+00 -0.16856761997E+04  0.16856761997E+04  0.50400001928E-02 0.  1.
    10030    2    1    2    0    0  0.00000000000E+00  0.00000000000E+00  0.57290588687E+03  0.39442582862E+04  0.39024290222E+04 0.  0.
        3    1    3    3  502    0  0.79718445397E+03  0.58594168401E+03  0.19862665923E+04  0.22190280973E+04  0.10100000352E+00 0. -1.
       -3    1    3    3    0  502 -0.79718445397E+03 -0.58594168401E+03 -0.14133607055E+04  0.17252301889E+04  0.10100000352E+00 0.  1.
</event>
<event>
 5   0  0.1520986E-07  0.3864042E+04  0.7818609E-02  0.8032550E-01
        2   -1    0    0  501    0  0.00000000000E+00  0.00000000000E+00  0.16423306931E+04  0.16423306932E+04  0.25500000920E-02 0.  1.
       -2   -1    0    0    0  501  0.00000000000E+00  0.00000000000E+00 -0.22728099758E+04  0.22728099758E+04  0.25500000920E-02 0. -1.
    10030    2    1    2    0    0  0.00000000000E+00  0.00000000000E+00 -0.63047928268E+03  0.39151406690E+04  0.38640422270E+04 0.  0.
        4    1    3    3  502    0 -0.10033919225E+04  0.15634111918E+03  0.13501093786E+04  0.16893888963E+04  0.12699999809E+01 0.  1.
       -4    1    3    3    0  502  0.10033919225E+04 -0.15634111918E+03 -0.19805886613E+04  0.22257517727E+04  0.12699999809E+01 0. -1.
</event>
<event>
 5   0  0.1538018E-07  0.3877252E+04  0.7818609E-02  0.8029777E-01
       -2   -1    0    0    0  501  0.00000000000E+00  0.00000000000E+00  0.12161432882E+04  0.12161432882E+04  0.25500000920E-02 0. -1.
        2   -1    0    0  501    0  0.00000000000E+00  0.00000000000E+00 -0.30903193120E+04  0.30903193120E+04  0.25500000920E-02 0.  1.
    10030    2    1    2    0    0  0.00000000000E+00  0.00000000000E+00 -0.18741760238E+04  0.43064626001E+04  0.38772521660E+04 0.  0.
        1    1    3    3  502    0  0.34237998977E+03 -0.13916320626E+03  0.11766526797E+04  0.12333296331E+04  0.50400001928E-02 0. -1.
       -1    1    3    3    0  502 -0.34237998977E+03  0.13916320626E+03 -0.30508287034E+04  0.30731329670E+04  0.50400001928E-02 0.  1.
</event>
<event>
 5   0  0.1503228E-07  0.3907445E+04  0.7818609E-02  0.8023483E-01
        2   -1    0    0  501    0  0.00000000000E+00  0.00000000000E+00  0.24680845447E+04  0.24680845447E+04  0.25500000920E-02 0.  1.
       -2   -1    0    0    0  501  0.00000000000E+00  0.00000000000E+00 -0.15465565195E+04  0.15465565195E+04  0.25500000920E-02 0. -1.
    10030    2    1    2    0    0  0.00000000000E+00  0.00000000000E+00  0.92152802519E+03  0.40146410642E+04  0.39074453257E+04 0.  0.
        3    1    3    3  502    0  0.21152414035E+03  0.54058533810E+03 -0.14559044976E+04  0.15673649498E+04  0.10100000352E+00 0. -1.
       -3    1    3    3    0  502 -0.21152414035E+03 -0.54058533810E+03  0.23774325227E+04  0.24472761144E+04  0.10100000352E+00 0.  1.
</event>
<event>
 5   0  0.1503228E-07  0.3896794E+04  0.7818609E-02  0.8025696E-01
       -2   -1    0    0    0  501  0.00000000000E+00  0.00000000000E+00  0.27105042739E+04  0.27105042739E+04  0.25500000920E-02 0. -1.
        2   -1    0    0  501    0  0.00000000000E+00  0.00000000000E+00 -0.14005702509E+04  0.14005702509E+04  0.25500000920E-02 0.  1.
    10030    2    1    2    0    0  0.00000000000E+00  0.00000000000E+00  0.13099340230E+04  0.41110745249E+04  0.38967944011E+04 0.  0.
        3    1    3    3  502    0 -0.16097905126E+04  0.10749201037E+04  0.42054831281E+03  0.19808431582E+04  0.10100000352E+00 0.  1.
       -3    1    3    3    0  502  0.16097905126E+04 -0.10749201037E+04  0.88938571022E+03  0.21302313667E+04  0.10100000352E+00 0. -1.
</event>
<event>
 5   0  0.1501585E-07  0.3903073E+04  0.7818609E-02  0.8024390E-01
        2   -1    0    0  501    0  0.00000000000E+00  0.00000000000E+00  0.25876381989E+04  0.25876381989E+04  0.25500000920E-02 0. -1.
       -2   -1    0    0    0  501  0.00000000000E+00  0.00000000000E+00 -0.14718036930E+04  0.14718036930E+04  0.25500000920E-02 0.  1.
    10030    2    1    2    0    0  0.00000000000E+00  0.00000000000E+00  0.11158345059E+04  0.40594418919E+04  0.39030733825E+04 0.  0.
        5    1    3    3  502    0  0.41943751166E+03  0.16883006387E+04 -0.36192799494E+03  0.17768795222E+04  0.46999998093E+01 0.  1.
       -5    1    3    3    0  502 -0.41943751166E+03 -0.16883006387E+04  0.14777625009E+04  0.22825623697E+04  0.46999998093E+01 0. -1.
</event>
<event>
 5   0  0.4750125E-08  0.3891136E+04  0.7818609E-02  0.8026875E-01
       -1   -1    0    0    0  501  0.00000000000E+00  0.00000000000E+00  0.13512779186E+04  0.13512779186E+04  0.50400001928E-02 0.  1.
        1   -1    0    0  501    0  0.00000000000E+00  0.00000000000E+00 -0.28012262549E+04  0.28012262549E+04  0.50400001928E-02 0. -1.
    10030    2    1    2    0    0  0.00000000000E+00  0.00000000000E+00 -0.14499483363E+04  0.41525041735E+04  0.38911361751E+04 0.  0.
        3    1    3    3  502    0  0.32712497005E+01 -0.11523064812E+04  0.94793681957E+03  0.14921143226E+04  0.10100000352E+00 0.  1.
       -3    1    3    3    0  502 -0.32712497005E+01  0.11523064812E+04 -0.23978851558E+04  0.26603898509E+04  0.10100000352E+00 0. -1.
</event>
<event>
 5   0  0.4750125E-08  0.3894588E+04  0.7818609E-02  0.8026156E-01
       -1   -1    0    0    0  501  0.00000000000E+00  0.00000000000E+00  0.21980347118E+04  0.21980347118E+04  0.50400001928E-02 0.  1.
        1   -1    0    0  501    0  0.00000000000E+00  0.00000000000E+00 -0.17251566211E+04  0.17251566211E+04  0.50400001928E-02 0. -1.
    10030    2    1    2    0    0  0.00000000000E+00  0.00000000000E+00  0.47287809067E+03  0.39231913329E+04  0.38945881099E+04 0.  0.
        4    1    3    3  502    0  0.24660017785E+03  0.16068717820E+04  0.13162745792E+04  0.20917526030E+04  0.12699999809E+01 0.  1.
       -4    1    3    3    0  502 -0.24660017785E+03 -0.16068717820E+04 -0.84339648857E+03  0.18314387298E+04  0.12699999809E+01 0. -1.
</event>
<event>
 5   0  0.1520986E-07  0.3911921E+04  0.7818609E-02  0.8022554E-01
       -2   -1    0    0    0  501  0.00000000000E+00  0.00000000000E+00  0.20474676141E+04  0.20474676142E+04  0.25500000920E-02 0.  1.
        2   -1    0    0  501    0  0.00000000000E+00  0.00000000000E+00 -0.18685430530E+04  0.18685430530E+04  0.25500000920E-02 0. -1.
    10030    2    1    2    0    0  0.00000000000E+00  0.00000000000E+00  0.17892456113E+03  0.39160106672E+04  0.39119209535E+04 0.  0.
        4    1    3    3  502    0  0.65952452048E+03  0.84299117815E+03 -0.15493726567E+04  0.18831261142E+04  0.12699999809E+01 0. -1.
       -4    1    3    3    0  502 -0.65952452048E+03 -0.84299117815E+03  0.17282972179E+04  0.20328845530E+04  0.12699999809E+01 0.  1.
</event>
<event>
 5   0  0.4750125E-08  0.3899623E+04  0.7818609E-02  0.8025108E-01
       -1   -1    0    0    0  501  0.00000000000E+00  0.00000000000E+00  0.18296475774E+04  0.18296475774E+04  0.50400001928E-02 0. -1.
        1   -1    0    0  501    0  0.00000000000E+00  0.00000000000E+00 -0.20778668944E+04  0.20778668944E+04  0.50400001928E-02 0.  1.
    10030    2    1    2    0    0  0.00000000000E+00  0.00000000000E+00 -0.24821931699E+03  0.39075144718E+04  0.38996226123E+04 0.  0.
        3    1    3    3  502    0 -0.18878379905E+04  0.25909483829E+03  0.28988710470E+03  0.19274586785E+04  0.10100000352E+00 0. -1.
       -3    1    3    3    0  502  0.18878379905E+04 -0.25909483829E+03 -0.53810642169E+03  0.19800557934E+04  0.10100000352E+00 0.  1.
</event>
<event>
 5   0  0.4750125E-08  0.3797955E+04  0.7818609E-02  0.8046594E-01
       -1   -1    0    0    0  501  0.00000000000E+00  0.00000000000E+00  0.34103875266E+04  0.34103875266E+04  0.50400001928E-02 0.  1.
        1   -1    0    0  501    0  0.00000000000E+00  0.00000000000E+00 -0.10573917236E+04  0.10573917236E+04  0.50400001928E-02 0. -1.
    10030    2    1    2    0    0  0.00000000000E+00  0.00000000000E+00  0.23529958030E+04  0.44677792502E+04  0.37979549996E+04 0.  0.
        4    1    3    3  502    0 -0.57639568047E+03  0.52919412371E+03 -0.85893064570E+03  0.11619130209E+04  0.12699999809E+01 0. -1.
       -4    1    3    3    0  502  0.57639568047E+03 -0.52919412371E+03  0.32119264487E+04  0.33058662293E+04  0.12699999809E+01 0.  1.
</event>
<event>
 5   0  0.4750125E-08  0.3994053E+04  0.7818609E-02  0.8005747E-01
        1   -1    0    0  501    0  0.00000000000E+00  0.00000000000E+00  0.13879051142E+04  0.13879051142E+04  0.50400001928E-02 0.  1.
       -1   -1    0    0    0  501  0.00000000000E+00  0.00000000000E+00 -0.28734781007E+04  0.28734781007E+04  0.50400001928E-02 0. -1.
    10030    2    1    2    0    0  0.00000000000E+00  0.00000000000E+00 -0.14855729865E+04  0.42613832150E+04  0.39940530550E+04 0.  0.
        5    1    3    3  502    0  0.89353202751E+03 -0.73360396457E+03 -0.24801236193E+04  0.27363496703E+04  0.46999998093E+01 0. -1.
       -5    1    3    3    0  502 -0.89353202751E+03  0.73360396457E+03  0.99455063284E+03  0.15250335446E+04  0.46999998093E+01 0.  1.
</event>
<event>
 5   0  0.4750125E-08  0.3901928E+04  0.7818609E-02  0.8024628E-01
       -1   -1    0    0    0  501  0.00000000000E+00  0.00000000000E+00  0.12853238392E+04  0.12853238392E+04  0.50400001928E-02 0. -1.
        1   -1    0    0  501    0  0.00000000000E+00  0.00000000000E+00 -0.29613245619E+04  0.29613245619E+04  0.50400001928E-02 0.  1.
    10030    2    1    2    0    0  0.00000000000E+00  0.00000000000E+00 -0.16760007227E+04  0.42466484011E+04  0.39019282695E+04 0.  0.
        3    1    3    3  502    0 -0.16290711564E+04  0.10694733715E+04 -0.73698378444E+03  0.20834565591E+04  0.10100000352E+00 0. -1.
       -3    1    3    3    0  502  0.16290711564E+04 -0.10694733715E+04 -0.93901693824E+03  0.21631918420E+04  0.10100000352E+00 0.  1.
</event>
<event>
 5   0  0.4750125E-08  0.3564793E+04  0.7818609E-02  0.8098604E-01
       -1   -1    0    0    0  501  0.00000000000E+00  0.00000000000E+00  0.16894246751E+04  0.16894246751E+04  0.50400001928E-02 0. -1.
        1   -1    0    0  501    0  0.00000000000E+00  0.00000000000E+00 -0.18804846626E+04  0.18804846626E+04  0.50400001928E-02 0.  1.
    10030    2    1    2    0    0  0.00000000000E+00  0.00000000000E+00 -0.19105998753E+03  0.35699093378E+04  0.35647929478E+04 0.  0.
        5    1    3    3  502    0 -0.67060733236E+03 -0.12109803990E+04 -0.12199626992E+04  0.18451338158E+04  0.46999998093E+01 0.  1.
       -5    1    3    3    0  502  0.67060733236E+03  0.12109803990E+04  0.10289027117E+04  0.17247755219E+04  0.46999998093E+01 0. -1.
</event>
<event>
 5   0  0.4762788E-08  0.3905425E+04  0.7818609E-02  0.8023902E-01
        1   -1    0    0  501    0  0.00000000000E+00  0.00000000000E+00  0.19035078180E+04  0.19035078180E+04  0.50400001928E-02 0.  1.
       -1   -1    0    0    0  501  0.00000000000E+00  0.00000000000E+00 -0.20031891799E+04  0.20031891799E+04  0.50400001928E-02 0. -1.
    10030    2    1    2    0    0  0.00000000000E+00  0.00000000000E+00 -0.99681361875E+02  0.39066969980E+04  0.39054250806E+04 0.  0.
        2    1    3    3  502    0  0.18629003985E+04 -0.37335925998E+03  0.40118445185E+03  0.19418403632E+04  0.25500000920E-02 0.  1.
       -2    1    3    3    0  502 -0.18629003985E+04  0.37335925998E+03 -0.50086581372E+03  0.19648566347E+04  0.25500000920E-02 0. -1.
</event>
<event>
 5   0  0.4762788E-08  0.3911413E+04  0.7818609E-02  0.8022660E-01
        1   -1    0    0  501    0  0.00000000000E+00  0.00000000000E+00  0.25630032058E+04  0.25630032058E+04  0.50400001928E-02 0.  1.
       -1   -1    0    0    0  501  0.00000000000E+00  0.00000000000E+00 -0.14923067623E+04  0.14923067623E+04  0.50400001928E-02 0. -1.
    10030    2    1    2    0    0  0.00000000000E+00  0.00000000000E+00  0.10706964435E+04  0.40553099680E+04  0.39114125406E+04 0.  0.
        2    1    3    3  502    0  0.14984338455E+04  0.32103352319E+03 -0.72443397079E+03  0.16950430940E+04  0.25500000920E-02 0. -1.
       -2    1    3    3    0  502 -0.14984338455E+04 -0.32103352319E+03  0.17951304143E+04  0.23602668740E+04  0.25500000920E-02 0.  1.
</event>
<event>
 5   0  0.1501585E-07  0.3896420E+04  0.7818609E-02  0.8025774E-01
        2   -1    0    0  501    0  0.00000000000E+00  0.00000000000E+00  0.21941189027E+04  0.21941189027E+04  0.25500000920E-02 0. -1.
       -2   -1    0    0    0  501  0.00000000000E+00  0.00000000000E+00 -0.17298615506E+04  0.17298615506E+04  0.25500000920E-02 0.  1.
    10030    2    1    2    0    0  0.00000000000E+00  0.00000000000E+00  0.46425735210E+03  0.39239804533E+04  0.38964198579E+04 0.  0.
        5    1    3    3  502    0  0.65935712294E+03  0.56713549123E+03  0.19877626049E+04  0.21697042988E+04  0.46999998093E+01 0. -1.
       -5    1    3    3    0  502 -0.65935712294E+03 -0.56713549123E+03 -0.15235052528E+04  0.17542761545E+04  0.46999998093E+01 0.  1.
</event>
<event>
 5   0  0.4750125E-08  0.3429550E+04  0.7818609E-02  0.8130692E-01
        1   -1    0    0  501    0  0.00000000000E+00  0.00000000000E+00  0.24610449625E+04  0.24610449625E+04  0.50400001928E-02 0. -1.
       -1   -1    0    0    0  501  0.00000000000E+00  0.00000000000E+00 -0.11947987425E+04  0.11947987425E+04  0.50400001928E-02 0.  1.
    10030    2    1    2    0    0  0.00000000000E+00  0.00000000000E+00  0.12662462201E+04  0.36558437050E+04  0.34295500733E+04 0.  0.
        3    1    3    3  502    0 -0.20974972755E+03 -0.20416326614E+03  0.24342175177E+04  0.24517529486E+04  0.10100000352E+00 0. -1.
       -3    1    3    3    0  502  0.20974972755E+03  0.20416326614E+03 -0.11679712976E+04  0.12040907564E+04  0.10100000352E+00 0.  1.
</event>
<event>
 5   0  0.1501585E-07  0.3887505E+04  0.7818609E-02  0.8027633E-01
        2   -1    0    0  501    0  0.00000000000E+00  0.00000000000E+00  0.22638922969E+04  0.22638922969E+04  0.25500000920E-02 0.  1.
       -2   -1    0    0    0  501  0.00000000000E+00  0.00000000000E+00 -0.16688843817E+04  0.16688843817E+04  0.25500000920E-02 0. -1.
    10030    2    1    2    0    0  0.00000000000E+00  0.00000000000E+00  0.59500791529E+03  0.39327766786E+04  0.38875053678E+04 0.  0.
        5    1    3    3  502    0 -0.47011045612E+02 -0.13482789184E+04  0.17131158468E+04  0.21805627885E+04  0.46999998093E+01 0.  1.
       -5    1    3    3    0  502  0.47011045612E+02  0.13482789184E+04 -0.11181079315E+04  0.17522138901E+04  0.46999998093E+01 0. -1.
</event>
<event>
 5   0  0.4750125E-08  0.3892185E+04  0.7818609E-02  0.8026657E-01
        1   -1    0    0  501    0  0.00000000000E+00  0.00000000000E+00  0.29213543573E+04  0.29213543573E+04  0.50400001928E-02 0. -1.
       -1   -1    0    0    0  501  0.00000000000E+00  0.00000000000E+00 -0.12964108436E+04  0.12964108436E+04  0.50400001928E-02 0.  1.
    10030    2    1    2    0    0  0.00000000000E+00  0.00000000000E+00  0.16249435137E+04  0.42177652010E+04  0.38921847165E+04 0.  0.
        3    1    3    3  502    0 -0.78308747756E+03 -0.11392953298E+04 -0.67179448584E+03  0.15370516216E+04  0.10100000352E+00 0.  1.
       -3    1    3    3    0  502  0.78308747756E+03  0.11392953298E+04  0.22967379995E+04  0.26807135794E+04  0.10100000352E+00 0. -1.
</event>
<event>
 5   0  0.1520986E-07  0.3915472E+04  0.7818609E-02  0.8021819E-01
       -2   -1    0    0    0  501  0.00000000000E+00  0.00000000000E+00  0.18028978778E+04  0.18028978778E+04  0.25500000920E-02 0. -1.
        2   -1    0    0  501    0  0.00000000000E+00  0.00000000000E+00 -0.21258718697E+04  0.21258718697E+04  0.25500000920E-02 0.  1.
    10030    2    1    2    0    0  0.00000000000E+00  0.00000000000E+00 -0.32297399186E+03  0.39287697475E+04  0.39154718144E+04 0.  0.
        4    1    3    3  502    0  0.57401990734E+03  0.82693355147E+02  0.17147274940E+04  0.18101461369E+04  0.12699999809E+01 0. -1.
       -4    1    3    3    0  502 -0.57401990734E+03 -0.82693355147E+02 -0.20377014859E+04  0.21186236106E+04  0.12699999809E+01 0.  1.
</event>
<event>
 5   0  0.4750125E-08  0.3964478E+04  0.7818609E-02  0.8011751E-01
       -1   -1    0    0    0  501  0.00000000000E+00  0.00000000000E+00  0.32850960757E+04  0.32850960757E+04  0.50400001928E-02 0.  1.
        1   -1    0    0  501    0  0.00000000000E+00  0.00000000000E+00 -0.11960903820E+04  0.11960903820E+04  0.50400001928E-02 0. -1.
    10030    2    1    2    0    0  0.00000000000E+00  0.00000000000E+00  0.20890056937E+04  0.44811864577E+04  0.39644781851E+04 0.  0.
        4    1    3    3  502    0 -0.10861969276E+02  0.10414989680E+04 -0.86185650753E+03  0.13519010079E+04  0.12699999809E+01 0. -1.
       -4    1    3    3    0  502  0.10861969276E+02 -0.10414989680E+04  0.29508622012E+04  0.31292854498E+04  0.12699999809E+01 0.  1.
</event>
<event>
 5   0  0.1520986E-07  0.3898826E+04  0.7818609E-02  0.8025273E-01
        2   -1    0    0  501    0  0.00000000000E+00  0.00000000000E+00  0.21244677636E+04  0.21244677636E+04  0.25500000920E-02 0. -1.
       -2   -1    0    0    0  501  0.00000000000E+00  0.00000000000E+00 -0.17887825706E+04  0.17887825707E+04  0.25500000920E-02 0.  1.
    10030    2    1    2    0    0  0.00000000000E+00  0.00000000000E+00  0.33568519299E+03  0.39132503343E+04  0.38988259297E+04 0.  0.
        4    1    3    3  502    0  0.28175712381E+03  0.13453569186E+04 -0.12196018533E+04  0.18376078495E+04  0.12699999809E+01 0.  1.
       -4    1    3    3    0  502 -0.28175712381E+03 -0.13453569186E+04  0.15552870463E+04  0.20756424847E+04  0.12699999809E+01 0. -1.
</event>
<event>
 5   0  0.1546846E-07  0.3793512E+04  0.7818609E-02  0.8047549E-01
       -2   -1    0    0    0  501  0.00000000000E+00  0.00000000000E+00  0.14133289800E+04  0.14133289800E+04  0.25500000920E-02 0. -1.
        2   -1    0    0  501    0  0.00000000000E+00  0.00000000000E+00 -0.25455385011E+04  0.25455385011E+04  0.25500000920E-02 0.  1.
    10030    2    1    2    0    0  0.00000000000E+00  0.00000000000E+00 -0.11322095211E+04  0.39588674811E+04  0.37935120052E+04 0.  0.
        2    1    3    3  502    0 -0.74284390208E+03 -0.95393950839E+03  0.95905897675E+03  0.15432471511E+04  0.25500000920E-02 0. -1.
       -2    1    3    3    0  502  0.74284390208E+03  0.95393950839E+03 -0.20912684979E+04  0.24156203300E+04  0.25500000920E-02 0.  1.
</event>
<event>
 5   0  0.4750125E-08  0.3931111E+04  0.7818609E-02  0.8018590E-01
        1   -1    0    0  501    0  0.00000000000E+00  0.00000000000E+00  0.20684448363E+04  0.20684448363E+04  0.50400001928E-02 0.  1.
       -1   -1    0    0    0  501  0.00000000000E+00  0.00000000000E+00 -0.18677844155E+04  0.18677844155E+04  0.50400001928E-02 0. -1.
    10030    2    1    2    0    0  0.00000000000E+00  0.00000000000E+00  0.20066042078E+03  0.39362292517E+04  0.39311113082E+04 0.  0.
        1    1    3    3  502    0 -0.17603600781E+04 -0.18631311668E+03  0.95574263951E+03  0.20117216942E+04  0.50400001928E-02 0.  1.
       -1    1    3    3    0  502  0.17603600781E+04  0.18631311668E+03 -0.75508221872E+03  0.19245075575E+04  0.50400001928E-02 0. -1.
</event>
<event>
 5   0  0.4750125E-08  0.3889504E+04  0.7818609E-02  0.8027216E-01
        1   -1    0    0  501    0  0.00000000000E+00  0.00000000000E+00  0.15062588693E+04  0.15062588693E+04  0.50400001928E-02 0. -1.
       -1   -1    0    0    0  501  0.00000000000E+00  0.00000000000E+00 -0.25108972338E+04  0.25108972338E+04  0.50400001928E-02 0.  1.
    10030    2    1    2    0    0  0.00000000000E+00  0.00000000000E+00 -0.10046383645E+04  0.40171561031E+04  0.38895044560E+04 0.  0.
        1    1    3    3  502    0 -0.98122606322E+02 -0.20770907881E+03  0.14921967983E+04  0.15097756099E+04  0.50400001928E-02 0. -1.
       -1    1    3    3    0  502  0.98122606322E+02  0.20770907881E+03 -0.24968351628E+04  0.25073804932E+04  0.50400001928E-02 0.  1.
</event>
<event>
 5   0  0.1501585E-07  0.3908071E+04  0.7818609E-02  0.8023353E-01
       -2   -1    0    0    0  501  0.00000000000E+00  0.00000000000E+00  0.17923129311E+04  0.17923129311E+04  0.25500000920E-02 0.  1.
        2   -1    0    0  501    0  0.00000000000E+00  0.00000000000E+00 -0.21303509174E+04  0.21303509174E+04  0.25500000920E-02 0. -1.
    10030    2    1    2    0    0  0.00000000000E+00  0.00000000000E+00 -0.33803798636E+03  0.39226638485E+04  0.39080713898E+04 0.  0.
        5    1    3    3  502    0 -0.25526026613E+03  0.17961323703E+03 -0.21051628608E+04  0.21281803210E+04  0.46999998093E+01 0. -1.
       -5    1    3    3    0  502  0.25526026613E+03 -0.17961323703E+03  0.17671248744E+04  0.17944835274E+04  0.46999998093E+01 0.  1.
</event>
<event>
 5   0  0.1503228E-07  0.3881612E+04  0.7818609E-02  0.8028864E-01
        2   -1    0    0  501    0  0.00000000000E+00  0.00000000000E+00  0.15541000453E+04  0.15541000453E+04  0.25500000920E-02 0. -1.
       -2   -1    0    0    0  501  0.00000000000E+00  0.00000000000E+00 -0.24237362009E+04  0.24237362009E+04  0.25500000920E-02 0.  1.
    10030    2    1    2    0    0  0.00000000000E+00  0.00000000000E+00 -0.86963615559E+03  0.39778362463E+04  0.38816123143E+04 0.  0.
        3    1    3    3  502    0  0.79876754385E+03 -0.16926942919E+04 -0.96085069128E+03  0.21039195841E+04  0.10100000352E+00 0.  1.
       -3    1    3    3    0  502 -0.79876754385E+03  0.16926942919E+04  0.91214535691E+02  0.18739166622E+04  0.10100000352E+00 0. -1.
</event>
<event>
 5   0  0.1501585E-07  0.3893104E+04  0.7818609E-02  0.8026465E-01
       -2   -1    0    0    0  501  0.00000000000E+00  0.00000000000E+00  0.16123480985E+04  0.16123480985E+04  0.25500000920E-02 0.  1.
        2   -1    0    0  501    0  0.00000000000E+00  0.00000000000E+00 -0.23500288809E+04  0.23500288809E+04  0.25500000920E-02 0. -1.
    10030    2    1    2    0    0  0.00000000000E+00  0.00000000000E+00 -0.73768078242E+03  0.39623769794E+04  0.38931039532E+04 0.  0.
        5    1    3    3  502    0  0.14452230555E+04  0.11395938658E+04  0.27623426089E+03  0.18610941179E+04  0.46999998093E+01 0. -1.
       -5    1    3    3    0  502 -0.14452230555E+04 -0.11395938658E+04 -0.10139150433E+04  0.21012828615E+04  0.46999998093E+01 0.  1.
</event>
<event>
 5   0  0.4762788E-08  0.3910623E+04  0.7818609E-02  0.8022823E-01
        1   -1    0    0  501    0  0.00000000000E+00  0.00000000000E+00  0.14723118029E+04  0.14723118030E+04  0.50400001928E-02 0.  1.
       -1   -1    0    0    0  501  0.00000000000E+00  0.00000000000E+00 -0.25967617633E+04  0.25967617633E+04  0.50400001928E-02 0. -1.
    10030    2    1    2    0    0  0.00000000000E+00  0.00000000000E+00 -0.11244499603E+04  0.40690735662E+04  0.39106229650E+04 0.  0.
        2    1    3    3  502    0  0.76994553738E+03  0.51741600430E+03  0.12287684257E+04  0.15396127098E+04  0.25500000920E-02 0.  1.
       -2    1    3    3    0  502 -0.76994553738E+03 -0.51741600430E+03 -0.23532183860E+04  0.25294608565E+04  0.25500000920E-02 0. -1.
</event>
<event>
 5   0  0.1520986E-07  0.3905152E+04  0.7818609E-02  0.8023958E-01
       -2   -1    0    0    0  501  0.00000000000E+00  0.00000000000E+00  0.12590301760E+04  0.12590301760E+04  0.25500000920E-02 0.  1.
        2   -1    0    0  501    0  0.00000000000E+00  0.00000000000E+00 -0.30281672471E+04  0.30281672471E+04  0.25500000920E-02 0. -1.
    10030    2    1    2    0    0  0.00000000000E+00  0.00000000000E+00 -0.17691370711E+04  0.42871974230E+04  0.39051524641E+04 0.  0.
        4    1    3    3  502    0 -0.14032422380E+03  0.19450993319E+04 -0.77784699357E+03  0.20995594435E+04  0.12699999809E+01 0.  1.
       -4    1    3    3    0  502  0.14032422380E+03 -0.19450993319E+04 -0.99129007754E+03  0.21876379795E+04  0.12699999809E+01 0. -1.
</event>
<event>
 5   0  0.4750125E-08  0.3659839E+04  0.7818609E-02  0.8076921E-01
        1   -1    0    0  501    0  0.00000000000E+00  0.00000000000E+00  0.10907919752E+04  0.10907919752E+04  0.50400001928E-02 0. -1.
       -1   -1    0    0    0  501  0.00000000000E+00  0.00000000000E+00 -0.30698847499E+04  0.30698847499E+04  0.50400001928E-02 0.  1.
    10030    2    1    2    0    0  0.00000000000E+00  0.00000000000E+00 -0.19790927747E+04  0.41606767250E+04  0.36598391494E+04 0.  0.
        3    1    3    3  502    0  0.37630327327E+03  0.17824338788E+04 -0.79286545745E+03  0.19867839162E+04  0.10100000352E+00 0. -1.
       -3    1    3    3    0  502 -0.37630327327E+03 -0.17824338788E+04 -0.11862273172E+04  0.21738928088E+04  0.10100000352E+00 0.  1.
</event>
<event>
 5   0  0.1503228E-07  0.3907940E+04  0.7818609E-02  0.8023380E-01
       -2   -1    0    0    0  501  0.00000000000E+00  0.00000000000E+00  0.14631422249E+04  0.14631422249E+04  0.25500000920E-02 0. -1.
        2   -1    0    0  501    0  0.00000000000E+00  0.00000000000E+00 -0.26094518178E+04  0.26094518178E+04  0.25500000920E-02 0.  1.
    10030    2    1    2    0    0  0.00000000000E+00  0.00000000000E+00 -0.11463095929E+04  0.40725940427E+04  0.39079401933E+04 0.  0.
        3    1    3    3  502    0 -0.19473393605E+04  0.66713099409E+02 -0.72566950021E+03  0.20792252058E+04  0.10100000352E+00 0. -1.
       -3    1    3    3    0  502  0.19473393605E+04 -0.66713099409E+02 -0.42064009266E+03  0.19933688370E+04  0.10100000352E+00 0.  1.
</event>
<event>
 5   0  0.4750125E-08  0.3905175E+04  0.7818609E-02  0.8023954E-01
        1   -1    0    0  501    0  0.00000000000E+00  0.00000000000E+00  0.23318273194E+04  0.23318273194E+04  0.50400001928E-02 0.  1.
       -1   -1    0    0    0  501  0.00000000000E+00  0.00000000000E+00 -0.16350256299E+04  0.16350256299E+04  0.50400001928E-02 0. -1.
    10030    2    1    2    0    0  0.00000000000E+00  0.00000000000E+00  0.69680168953E+03  0.39668529494E+04  0.39051747371E+04 0.  0.
        1    1    3    3  502    0  0.10427296019E+04  0.26336432206E+02 -0.13283112805E+04  0.16889018587E+04  0.50400001928E-02 0. -1.
       -1    1    3    3    0  502 -0.10427296019E+04 -0.26336432206E+02  0.20251129700E+04  0.22779510907E+04  0.50400001928E-02 0.  1.
</event>
<event>
 5   0  0.1501585E-07  0.3684215E+04  0.7818609E-02  0.8071469E-01
       -2   -1    0    0    0  501  0.00000000000E+00  0.00000000000E+00  0.29077082727E+04  0.29077082727E+04  0.25500000920E-02 0. -1.
        2   -1    0    0  501    0  0.00000000000E+00  0.00000000000E+00 -0.11670224612E+04  0.11670224612E+04  0.25500000920E-02 0.  1.
    10030    2    1    2    0    0  0.00000000000E+00  0.00000000000E+00  0.17406858115E+04  0.40747307339E+04  0.36842154469E+04 0.  0.
        5    1    3    3  502    0  0.18545935631E+03  0.32074618424E+03  0.28660668201E+04  0.28899194443E+04  0.46999998093E+01 0. -1.
       -5    1    3    3    0  502 -0.18545935631E+03 -0.32074618424E+03 -0.11253810085E+04  0.11848112896E+04  0.46999998093E+01 0.  1.
</event>
<event>
 5   0  0.4750125E-08  0.3895251E+04  0.7818609E-02  0.8026018E-01
       -1   -1    0    0    0  501  0.00000000000E+00  0.00000000000E+00  0.12703229214E+04  0.12703229214E+04  0.50400001928E-02 0.  1.
        1   -1    0    0  501    0  0.00000000000E+00  0.00000000000E+00 -0.29860483208E+04  0.29860483208E+04  0.50400001928E-02 0. -1.
    10030    2    1    2    0    0  0.00000000000E+00  0.00000000000E+00 -0.17157253995E+04  0.42563712422E+04  0.38952512762E+04 0.  0.
        4    1    3    3  502    0  0.11485122586E+04  0.12302747795E+04  0.21309545845E+03  0.16964868784E+04  0.12699999809E+01 0.  1.
       -4    1    3    3    0  502 -0.11485122586E+04 -0.12302747795E+04 -0.19288208579E+04  0.25598843638E+04  0.12699999809E+01 0. -1.
</event>
<event>
 5   0  0.1546846E-07  0.3901643E+04  0.7818609E-02  0.8024688E-01
        2   -1    0    0  501    0  0.00000000000E+00  0.00000000000E+00  0.22319786878E+04  0.22319786878E+04  0.25500000920E-02 0.  1.
       -2   -1    0    0    0  501  0.00000000000E+00  0.00000000000E+00 -0.17050806146E+04  0.17050806146E+04  0.25500000920E-02 0. -1.
    10030    2    1    2    0    0  0.00000000000E+00  0.00000000000E+00  0.52689807322E+03  0.39370593024E+04  0.39016425222E+04 0.  0.
        2    1    3    3  502    0 -0.51433213145E+02 -0.12263172005E+04 -0.12666278899E+04  0.17637589016E+04  0.25500000920E-02 0. -1.
       -2    1    3    3    0  502  0.51433213145E+02  0.12263172005E+04  0.17935259631E+04  0.21733004008E+04  0.25500000920E-02 0.  1.
</event>
<event>
 5   0  0.1503228E-07  0.3896733E+04  0.7818609E-02  0.8025709E-01
       -2   -1    0    0    0  501  0.00000000000E+00  0.00000000000E+00  0.23038136349E+04  0.23038136349E+04  0.25500000920E-02 0. -1.
        2   -1    0    0  501    0  0.00000000000E+00  0.00000000000E+00 -0.16477604422E+04  0.16477604422E+04  0.25500000920E-02 0.  1.
    10030    2    1    2    0    0  0.00000000000E+00  0.00000000000E+00  0.65605319275E+03  0.39515740771E+04  0.38967334904E+04 0.  0.
        3    1    3    3  502    0 -0.97920305726E+03 -0.15035569271E+04  0.10980622761E+04  0.21036308690E+04  0.10100000352E+00 0. -1.
       -3    1    3    3    0  502  0.97920305726E+03  0.15035569271E+04 -0.44200908336E+03  0.18479432081E+04  0.10100000352E+00 0.  1.
</event>
<event>
 5   0  0.4750125E-08  0.3885454E+04  0.7818609E-02  0.8028061E-01
        1   -1    0    0  501    0  0.00000000000E+00  0.00000000000E+00  0.15707115450E+04  0.15707115450E+04  0.50400001928E-02 0.  1.
       -1   -1    0    0    0  501  0.00000000000E+00  0.00000000000E+00 -0.24028525131E+04  0.24028525131E+04  0.50400001928E-02 0. -1.
    10030    2    1    2    0    0  0.00000000000E+00  0.00000000000E+00 -0.83214096810E+03  0.39735640581E+04  0.38854539932E+04 0.  0.
        5    1    3    3  502    0 -0.90548037242E+02 -0.19228795206E+04 -0.14840740221E+03  0.19307282162E+04  0.46999998093E+01 0. -1.
       -5    1    3    3    0  502  0.90548037242E+02  0.19228795206E+04 -0.68373356590E+03  0.20428358419E+04  0.46999998093E+01 0.  1.
</event>
<event>
 5   0  0.4762788E-08  0.3930890E+04  0.7818609E-02  0.8018635E-01
       -1   -1    0    0    0  501  0.00000000000E+00  0.00000000000E+00  0.20322306029E+04  0.20322306029E+04  0.50400001928E-02 0.  1.
        1   -1    0    0  501    0  0.00000000000E+00  0.00000000000E+00 -0.19008541857E+04  0.19008541857E+04  0.50400001928E-02 0. -1.
    10030    2    1    2    0    0  0.00000000000E+00  0.00000000000E+00  0.13137641716E+03  0.39330847886E+04  0.39308899999E+04 0.  0.
        2    1    3    3  502    0 -0.13559735162E+04 -0.98725024747E+03  0.10907829725E+04  0.20007835268E+04  0.25500000920E-02 0.  1.
       -2    1    3    3    0  502  0.13559735162E+04  0.98725024747E+03 -0.95940655536E+03  0.19323012618E+04  0.25500000920E-02 0. -1.
</event>
<event>
 5   0  0.1520986E-07  0.3871721E+04  0.7818609E-02  0.8030936E-01
       -2   -1    0    0    0  501  0.00000000000E+00  0.00000000000E+00  0.23586794572E+04  0.23586794572E+04  0.25500000920E-02 0. -1.
        2   -1    0    0  501    0  0.00000000000E+00  0.00000000000E+00 -0.15888366700E+04  0.15888366700E+04  0.25500000920E-02 0.  1.
    10030    2    1    2    0    0  0.00000000000E+00  0.00000000000E+00  0.76984278716E+03  0.39475161272E+04  0.38717212784E+04 0.  0.
        4    1    3    3  502    0 -0.69750000091E+03 -0.17985750345E+04  0.21996287432E+03  0.19415879287E+04  0.12699999809E+01 0.  1.
       -4    1    3    3    0  502  0.69750000091E+03  0.17985750345E+04  0.54987991284E+03  0.20059281985E+04  0.12699999809E+01 0. -1.
</event>
<event>
 5   0  0.1546846E-07  0.3904828E+04  0.7818609E-02  0.8024026E-01
       -2   -1    0    0    0  501  0.00000000000E+00  0.00000000000E+00  0.18908658825E+04  0.18908658825E+04  0.25500000920E-02 0. -1.
        2   -1    0    0  501    0  0.00000000000E+00  0.00000000000E+00 -0.20159650874E+04  0.20159650874E+04  0.25500000920E-02 0.  1.
    10030    2    1    2    0    0  0.00000000000E+00  0.00000000000E+00 -0.12509920497E+03  0.39068309699E+04  0.39048275783E+04 0.  0.
        2    1    3    3  502    0 -0.14472200497E+04 -0.41906235072E+03  0.11798042129E+04  0.19136345280E+04  0.25500000920E-02 0. -1.
       -2    1    3    3    0  502  0.14472200497E+04  0.41906235072E+03 -0.13049034178E+04  0.19931964419E+04  0.25500000920E-02 0.  1.
</event>
<event>
 5   0  0.4762788E-08  0.3901279E+04  0.7818609E-02  0.8024763E-01
       -1   -1    0    0    0  501  0.00000000000E+00  0.00000000000E+00  0.17119517134E+04  0.17119517134E+04  0.50400001928E-02 0. -1.
        1   -1    0    0  501    0  0.00000000000E+00  0.00000000000E+00 -0.22226062247E+04  0.22226062247E+04  0.50400001928E-02 0.  1.
    10030    2    1    2    0    0  0.00000000000E+00  0.00000000000E+00 -0.51065451125E+03  0.39345579381E+04  0.39012790387E+04 0.  0.
        2    1    3    3  502    0 -0.11336755936E+04 -0.11876909214E+03  0.13411057619E+04  0.17600827007E+04  0.25500000920E-02 0. -1.
       -2    1    3    3    0  502  0.11336755936E+04  0.11876909214E+03 -0.18517602731E+04  0.21744752374E+04  0.25500000920E-02 0.  1.
</event>
<event>
 5   0  0.1520986E-07  0.3904240E+04  0.7818609E-02  0.8024148E-01
       -2   -1    0    0    0  501  0.00000000000E+00  0.00000000000E+00  0.28930853549E+04  0.28930853549E+04  0.25500000920E-02 0.  1.
        2   -1    0    0  501    0  0.00000000000E+00  0.00000000000E+00 -0.13171998689E+04  0.13171998689E+04  0.25500000920E-02 0. -1.
    10030    2    1    2    0    0  0.00000000000E+00  0.00000000000E+00  0.15758854860E+04  0.42102852238E+04  0.39042395676E+04 0.  0.
        4    1    3    3  502    0 -0.54774319319E+03  0.12453428205E+04  0.22976354148E+04  0.26702118752E+04  0.12699999809E+01 0.  1.
       -4    1    3    3    0  502  0.54774319319E+03 -0.12453428205E+04 -0.72174992883E+03  0.15400733486E+04  0.12699999809E+01 0. -1.
</event>
<event>
 5   0  0.1501585E-07  0.3915924E+04  0.7818609E-02  0.8021725E-01
        2   -1    0    0  501    0  0.00000000000E+00  0.00000000000E+00  0.21290502856E+04  0.21290502856E+04  0.25500000920E-02 0.  1.
       -2   -1    0    0    0  501  0.00000000000E+00  0.00000000000E+00 -0.18006226286E+04  0.18006226286E+04  0.25500000920E-02 0. -1.
    10030    2    1    2    0    0  0.00000000000E+00  0.00000000000E+00  0.32842765704E+03  0.39296729142E+04  0.39159244741E+04 0.  0.
        5    1    3    3  502    0  0.11042179346E+04  0.12385976417E+04  0.12071763155E+04  0.20520034386E+04  0.46999998093E+01 0.  1.
       -5    1    3    3    0  502 -0.11042179346E+04 -0.12385976417E+04 -0.87874865848E+03  0.18776694757E+04  0.46999998093E+01 0. -1.
</event>
<event>
 5   0  0.1520986E-07  0.3903206E+04  0.7818609E-02  0.8024363E-01
       -2   -1    0    0    0  501  0.00000000000E+00  0.00000000000E+00  0.29301004730E+04  0.29301004730E+04  0.25500000920E-02 0.  1.
        2   -1    0    0  501    0  0.00000000000E+00  0.00000000000E+00 -0.12998715140E+04  0.12998715140E+04  0.25500000920E-02 0. -1.
    10030    2    1    2    0    0  0.00000000000E+00  0.00000000000E+00  0.16302289591E+04  0.42299719870E+04  0.39032059325E+04 0.  0.
        4    1    3    3  502    0  0.32361837560E+03  0.13210818035E+04 -0.70161233380E+03  0.15304402845E+04  0.12699999809E+01 0. -1.
       -4    1    3    3    0  502 -0.32361837560E+03 -0.13210818035E+04  0.23318412929E+04  0.26995317025E+04  0.12699999809E+01 0.  1.
</event>
<event>
 5   0  0.1546846E-07  0.3894553E+04  0.7818609E-02  0.8026163E-01
        2   -1    0    0  501    0  0.00000000000E+00  0.00000000000E+00  0.15359268953E+04  0.15359268953E+04  0.25500000920E-02 0.  1.
       -2   -1    0    0    0  501  0.00000000000E+00  0.00000000000E+00 -0.24687925960E+04  0.24687925960E+04  0.25500000920E-02 0. -1.
    10030    2    1    2    0    0  0.00000000000E+00  0.00000000000E+00 -0.93286570073E+03  0.40047194913E+04  0.38945525787E+04 0.  0.
        2    1    3    3  502    0  0.12724540726E+04  0.23927178695E+03 -0.19620501840E+04  0.23507512160E+04  0.25500000920E-02 0. -1.
       -2    1    3    3    0  502 -0.12724540726E+04 -0.23927178695E+03  0.10291844833E+04  0.16539682753E+04  0.25500000920E-02 0.  1.
</event>
<event>
 5   0  0.1501585E-07  0.4046505E+04  0.7818609E-02  0.7995230E-01
       -2   -1    0    0    0  501  0.00000000000E+00  0.00000000000E+00  0.28455881019E+04  0.28455881019E+04  0.25500000920E-02 0. -1.
        2   -1    0    0  501    0  0.00000000000E+00  0.00000000000E+00 -0.14385603010E+04  0.14385603010E+04  0.25500000920E-02 0.  1.
    10030    2    1    2    0    0  0.00000000000E+00  0.00000000000E+00  0.14070278009E+04  0.42841484028E+04  0.40465047022E+04 0.  0.
        5    1    3    3  502    0  0.13950301157E+03  0.17406104787E+04 -0.37843273575E+03  0.17867342708E+04  0.46999998093E+01 0.  1.
       -5    1    3    3    0  502 -0.13950301157E+03 -0.17406104787E+04  0.17854605367E+04  0.24974141320E+04  0.46999998093E+01 0. -1.
</event>
<event>
 5   0  0.4750125E-08  0.3902071E+04  0.7818609E-02  0.8024599E-01
        1   -1    0    0  501    0  0.00000000000E+00  0.00000000000E+00  0.14480642217E+04  0.14480642217E+04  0.50400001928E-02 0. -1.
       -1   -1    0    0    0  501  0.00000000000E+00  0.00000000000E+00 -0.26287087042E+04  0.26287087042E+04  0.50400001928E-02 0.  1.
    10030    2    1    2    0    0  0.00000000000E+00  0.00000000000E+00 -0.11806444825E+04  0.40767729259E+04  0.39020707445E+04 0.  0.
        1    1    3    3  502    0  0.12759726601E+04 -0.14721122903E+04 -0.70147238921E+03  0.20705758469E+04  0.50400001928E-02 0. -1.
       -1    1    3    3    0  502 -0.12759726601E+04  0.14721122903E+04 -0.47917209331E+03  0.20061970790E+04  0.50400001928E-02 0.  1.
</event>
<event>
 5   0  0.1503228E-07  0.3910515E+04  0.7818609E-02  0.8022846E-01
        2   -1    0    0  501    0  0.00000000000E+00  0.00000000000E+00  0.24792983093E+04  0.24792983093E+04  0.25500000920E-02 0. -1.
       -2   -1    0    0    0  501  0.00000000000E+00  0.00000000000E+00 -0.15419810123E+04  0.15419810123E+04  0.25500000920E-02 0.  1.
    10030    2    1    2    0    0  0.00000000000E+00  0.00000000000E+00  0.93731729703E+03  0.40212793216E+04  0.39105145015E+04 0.  0.
        3    1    3    3  502    0  0.15155238388E+03  0.19415853286E+04  0.64768523318E+03  0.20523688472E+04  0.10100000352E+00 0.  1.
       -3    1    3    3    0  502 -0.15155238388E+03 -0.19415853286E+04  0.28963206384E+03  0.19689104744E+04  0.10100000352E+00 0. -1.
</event>
<event>
 5   0  0.4750125E-08  0.3897602E+04  0.7818609E-02  0.8025528E-01
        1   -1    0    0  501    0  0.00000000000E+00  0.00000000000E+00  0.23152534373E+04  0.23152534373E+04  0.50400001928E-02 0.  1.
       -1   -1    0    0    0  501  0.00000000000E+00  0.00000000000E+00 -0.16403499308E+04  0.16403499308E+04  0.50400001928E-02 0. -1.
    10030    2    1    2    0    0  0.00000000000E+00  0.00000000000E+00  0.67490350648E+03  0.39556033681E+04  0.38976022453E+04 0.  0.
        1    1    3    3  502    0  0.22960400408E+03  0.18084910185E+04  0.10365186045E+04  0.20970761980E+04  0.50400001928E-02 0.  1.
       -1    1    3    3    0  502 -0.22960400408E+03 -0.18084910185E+04 -0.36161509802E+03  0.18585271701E+04  0.50400001928E-02 0. -1.
</event>
<event>
 5   0  0.1546846E-07  0.3914437E+04  0.7818609E-02  0.8022033E-01
        2   -1    0    0  501    0  0.00000000000E+00  0.00000000000E+00  0.13698129257E+04  0.13698129257E+04  0.25500000920E-02 0.  1.
       -2   -1    0    0    0  501  0.00000000000E+00  0.00000000000E+00 -0.27965161518E+04  0.27965161518E+04  0.25500000920E-02 0. -1.
    10030    2    1    2    0    0  0.00000000000E+00  0.00000000000E+00 -0.14267032262E+04  0.41663290775E+04  0.39144368543E+04 0.  0.
        2    1    3    3  502    0  0.16492618299E+04  0.27356170168E+03  0.36988402746E+03  0.17122250968E+04  0.25500000920E-02 0.  1.
       -2    1    3    3    0  502 -0.16492618299E+04 -0.27356170168E+03 -0.17965872536E+04  0.24541039807E+04  0.25500000920E-02 0. -1.
</event>
<event>
 5   0  0.1501585E-07  0.3863956E+04  0.7818609E-02  0.8032568E-01
       -2   -1    0    0    0  501  0.00000000000E+00  0.00000000000E+00  0.16470376126E+04  0.16470376126E+04  0.25500000920E-02 0. -1.
        2   -1    0    0  501    0  0.00000000000E+00  0.00000000000E+00 -0.22662139850E+04  0.22662139850E+04  0.25500000920E-02 0.  1.
    10030    2    1    2    0    0  0.00000000000E+00  0.00000000000E+00 -0.61917637235E+03  0.39132515976E+04  0.38639563514E+04 0.  0.
        5    1    3    3  502    0 -0.18165225398E+04  0.51222858920E+03 -0.72763184658E+03  0.20227709854E+04  0.46999998093E+01 0.  1.
       -5    1    3    3    0  502  0.18165225398E+04 -0.51222858920E+03  0.10845547424E+03  0.18904806122E+04  0.46999998093E+01 0. -1.
</event>
<event>
 5   0  0.4750125E-08  0.3971210E+04  0.7818609E-02  0.8010380E-01
       -1   -1    0    0    0  501  0.00000000000E+00  0.00000000000E+00  0.21522904852E+04  0.21522904852E+04  0.50400001928E-02 0. -1.
        1   -1    0    0  501    0  0.00000000000E+00  0.00000000000E+00 -0.18318285529E+04  0.18318285529E+04  0.50400001928E-02 0.  1.
    10030    2    1    2    0    0  0.00000000000E+00  0.00000000000E+00  0.32046193232E+03  0.39841190381E+04  0.39712099742E+04 0.  0.
        3    1    3    3  502    0 -0.91551013028E+03  0.12049684835E+04  0.14499132283E+04  0.20957948908E+04  0.10100000352E+00 0. -1.
       -3    1    3    3    0  502  0.91551013028E+03 -0.12049684835E+04 -0.11294512959E+04  0.18883241472E+04  0.10100000352E+00 0.  1.
</event>
<event>
 5   0  0.4750125E-08  0.3881144E+04  0.7818609E-02  0.8028962E-01
       -1   -1    0    0    0  501  0.00000000000E+00  0.00000000000E+00  0.26390064330E+04  0.26390064330E+04  0.50400001928E-02 0. -1.
        1   -1    0    0  501    0  0.00000000000E+00  0.00000000000E+00 -0.14269839361E+04  0.14269839362E+04  0.50400001928E-02 0.  1.
    10030    2    1    2    0    0  0.00000000000E+00  0.00000000000E+00  0.12120224969E+04  0.40659903692E+04  0.38811440516E+04 0.  0.
        1    1    3    3  502    0 -0.13522018056E+03 -0.14096566976E+03 -0.14166584177E+04  0.14300618482E+04  0.50400001928E-02 0.  1.
       -1    1    3    3    0  502  0.13522018056E+03  0.14096566976E+03  0.26286809145E+04  0.26359285210E+04  0.50400001928E-02 0. -1.
</event>
<event>
 5   0  0.4750125E-08  0.3730794E+04  0.7818609E-02  0.8061171E-01
       -1   -1    0    0    0  501  0.00000000000E+00  0.00000000000E+00  0.17177921149E+04  0.17177921149E+04  0.50400001928E-02 0.  1.
        1   -1    0    0  501    0  0.00000000000E+00  0.00000000000E+00 -0.20256855777E+04  0.20256855777E+04  0.50400001928E-02 0. -1.
    10030    2    1    2    0    0  0.00000000000E+00  0.00000000000E+00 -0.30789346277E+03  0.37434776927E+04  0.37307943994E+04 0.  0.
        5    1    3    3  502    0  0.10218714937E+04 -0.46148737319E+03  0.13419241309E+04  0.17487064958E+04  0.46999998093E+01 0.  1.
       -5    1    3    3    0  502 -0.10218714937E+04  0.46148737319E+03 -0.16498175937E+04  0.19947711969E+04  0.46999998093E+01 0. -1.
</event>
<event>
 5   0  0.4750125E-08  0.3880719E+04  0.7818609E-02  0.8029051E-01
        1   -1    0    0  501    0  0.00000000000E+00  0.00000000000E+00  0.14452658016E+04  0.14452658016E+04  0.50400001928E-02 0.  1.
       -1   -1    0    0    0  501  0.00000000000E+00  0.00000000000E+00 -0.26050533276E+04  0.26050533276E+04  0.50400001928E-02 0. -1.
    10030    2    1    2    0    0  0.00000000000E+00  0.00000000000E+00 -0.11597875260E+04  0.40503191293E+04  0.38807187406E+04 0.  0.
        3    1    3    3  502    0  0.13041594996E+04  0.75568855923E+03 -0.18552195081E+04  0.23903423672E+04  0.10100000352E+00 0.  1.
       -3    1    3    3    0  502 -0.13041594996E+04 -0.75568855923E+03  0.69543198204E+03  0.16599767621E+04  0.10100000352E+00 0. -1.
</event>
<event>
 5   0  0.1501585E-07  0.3903781E+04  0.7818609E-02  0.8024243E-01
        2   -1    0    0  501    0  0.00000000000E+00  0.00000000000E+00  0.18711072825E+04  0.18711072825E+04  0.25500000920E-02 0.  1.
       -2   -1    0    0    0  501  0.00000000000E+00  0.00000000000E+00 -0.20361618462E+04  0.20361618462E+04  0.25500000920E-02 0. -1.
    10030    2    1    2    0    0  0.00000000000E+00  0.00000000000E+00 -0.16505456375E+03  0.39072691287E+04  0.39037813765E+04 0.  0.
        5    1    3    3  502    0 -0.15656898247E+04  0.81086236953E+03 -0.92051645708E+03  0.19890336969E+04  0.46999998093E+01 0. -1.
       -5    1    3    3    0  502  0.15656898247E+04 -0.81086236953E+03  0.75546189333E+03  0.19182354318E+04  0.46999998093E+01 0.  1.
</event>
<event>
 5   0  0.1501585E-07  0.3754187E+04  0.7818609E-02  0.8056058E-01
       -2   -1    0    0    0  501  0.00000000000E+00  0.00000000000E+00  0.22407995402E+04  0.22407995402E+04  0.25500000920E-02 0. -1.
        2   -1    0    0  501    0  0.00000000000E+00  0.00000000000E+00 -0.15724211441E+04  0.15724211441E+04  0.25500000920E-02 0.  1.
    10030    2    1    2    0    0  0.00000000000E+00  0.00000000000E+00  0.66837839612E+03  0.38132206843E+04  0.37541873031E+04 0.  0.
        5    1    3    3  502    0  0.10353832732E+04  0.29794387696E+03  0.18954572858E+04  0.21802682148E+04  0.46999998093E+01 0. -1.
       -5    1    3    3    0  502 -0.10353832732E+04 -0.29794387696E+03 -0.12270788896E+04  0.16329524695E+04  0.46999998093E+01 0.  1.
</event>
<event>
 5   0  0.4750125E-08  0.3780094E+04  0.7818609E-02  0.8050440E-01
        1   -1    0    0  501    0  0.00000000000E+00  0.00000000000E+00  0.26048765813E+04  0.26048765813E+04  0.50400001928E-02 0.  1.
       -1   -1    0    0    0  501  0.00000000000E+00  0.00000000000E+00 -0.13713810674E+04  0.13713810674E+04  0.50400001928E-02 0. -1.
    10030    2    1    2    0    0  0.00000000000E+00  0.00000000000E+00  0.12334955139E+04  0.39762576487E+04  0.37800944044E+04 0.  0.
        1    1    3    3  502    0 -0.10219216972E+04  0.15711538210E+04  0.36031396462E+03  0.19085791673E+04  0.50400001928E-02 0.  1.
       -1    1    3    3    0  502  0.10219216972E+04 -0.15711538210E+04  0.87318154928E+03  0.20676784815E+04  0.50400001928E-02 0. -1.
</event>
<event>
 5   0  0.4750125E-08  0.3862143E+04  0.7818609E-02  0.8032949E-01
        3   -1    0    0  501    0  0.00000000000E+00  0.00000000000E+00  0.25363490581E+04  0.25363490601E+04  0.10100000352E+00 0.  1.
       -3   -1    0    0    0  501  0.00000000000E+00  0.00000000000E+00 -0.14702377665E+04  0.14702377700E+04  0.10100000352E+00 0. -1.
    10030    2    1    2    0    0  0.00000000000E+00  0.00000000000E+00  0.10661112916E+04  0.40065868301E+04  0.38621425066E+04 0.  0.
        3    1    3    3  502    0  0.18353048282E+04 -0.11923516259E+03  0.11436916798E+04  0.21657773443E+04  0.10100000352E+00 0. -1.
       -3    1    3    3    0  502 -0.18353048282E+04  0.11923516259E+03 -0.77580388182E+02  0.18408094859E+04  0.10100000352E+00 0.  1.
</event>
<event>
 5   0  0.1503228E-07  0.3839175E+04  0.7818609E-02  0.8037800E-01
        2   -1    0    0  501    0  0.00000000000E+00  0.00000000000E+00  0.21752504804E+04  0.21752504804E+04  0.25500000920E-02 0. -1.
       -2   -1    0    0    0  501  0.00000000000E+00  0.00000000000E+00 -0.16939730666E+04  0.16939730666E+04  0.25500000920E-02 0.  1.
    10030    2    1    2    0    0  0.00000000000E+00  0.00000000000E+00  0.48127741383E+03  0.38692235470E+04  0.38391747691E+04 0.  0.
        3    1    3    3  502    0  0.66254872795E+03  0.14343311526E+04  0.13393729652E+04  0.20712789823E+04  0.10100000352E+00 0. -1.
       -3    1    3    3    0  502 -0.66254872795E+03 -0.14343311526E+04 -0.85809555136E+03  0.17979445647E+04  0.10100000352E+00 0.  1.
</event>
<event>
 5   0  0.1501585E-07  0.3941565E+04  0.7818609E-02  0.8016440E-01
       -2   -1    0    0    0  501  0.00000000000E+00  0.00000000000E+00  0.24191549705E+04  0.24191549705E+04  0.25500000920E-02 0.  1.
        2   -1    0    0  501    0  0.00000000000E+00  0.00000000000E+00 -0.16055126109E+04  0.16055126109E+04  0.25500000920E-02 0. -1.
    10030    2    1    2    0    0  0.00000000000E+00  0.00000000000E+00  0.81364235958E+03  0.40246675814E+04  0.39415650764E+04 0.  0.
        5    1    3    3  502    0 -0.18344485819E+04 -0.46512288310E+03  0.96834367900E+03  0.21258533503E+04  0.46999998093E+01 0.  1.
       -5    1    3    3    0  502  0.18344485819E+04  0.46512288310E+03 -0.15470131941E+03  0.18988142311E+04  0.46999998093E+01 0. -1.
</event>
<event>
 5   0  0.1520986E-07  0.3896805E+04  0.7818609E-02  0.8025694E-01
        2   -1    0    0  501    0  0.00000000000E+00  0.00000000000E+00  0.23980210776E+04  0.23980210776E+04  0.25500000920E-02 0.  1.
       -2   -1    0    0    0  501  0.00000000000E+00  0.00000000000E+00 -0.15830852094E+04  0.15830852094E+04  0.25500000920E-02 0. -1.
    10030    2    1    2    0    0  0.00000000000E+00  0.00000000000E+00  0.81493586822E+03  0.39811062870E+04  0.38968046909E+04 0.  0.
        4    1    3    3  502    0 -0.53756259757E+03 -0.89495170213E+02 -0.15036387190E+04  0.15993479740E+04  0.12699999809E+01 0. -1.
       -4    1    3    3    0  502  0.53756259757E+03  0.89495170213E+02  0.23185745873E+04  0.23817583130E+04  0.12699999809E+01 0.  1.
</event>
<event>
 5   0  0.4750125E-08  0.3899262E+04  0.7818609E-02  0.8025183E-01
        1   -1    0    0  501    0  0.00000000000E+00  0.00000000000E+00  0.11401937019E+04  0.11401937019E+04  0.50400001928E-02 0.  1.
       -1   -1    0    0    0  501  0.00000000000E+00  0.00000000000E+00 -0.33336974290E+04  0.33336974290E+04  0.50400001928E-02 0. -1.
    10030    2    1    2    0    0  0.00000000000E+00  0.00000000000E+00 -0.21935037271E+04  0.44738911310E+04  0.38992618854E+04 0.  0.
        3    1    3    3  502    0 -0.13674950024E+04 -0.40410749322E+03  0.42873746604E+03  0.14890135233E+04  0.10100000352E+00 0. -1.
       -3    1    3    3    0  502  0.13674950024E+04  0.40410749322E+03 -0.26222411932E+04  0.29848776077E+04  0.10100000352E+00 0.  1.
</event>
<event>
 5   0  0.4750125E-08  0.3528279E+04  0.7818609E-02  0.8107121E-01
        1   -1    0    0  501    0  0.00000000000E+00  0.00000000000E+00  0.17462789820E+04  0.17462789820E+04  0.50400001928E-02 0. -1.
       -1   -1    0    0    0  501  0.00000000000E+00  0.00000000000E+00 -0.17821824717E+04  0.17821824717E+04  0.50400001928E-02 0.  1.
    10030    2    1    2    0    0  0.00000000000E+00  0.00000000000E+00 -0.35903489718E+02  0.35284614537E+04  0.35282787828E+04 0.  0.
        4    1    3    3  502    0  0.14849177201E+04 -0.13158417216E+03 -0.96134100558E+03  0.17738300854E+04  0.12699999809E+01 0.  1.
       -4    1    3    3    0  502 -0.14849177201E+04  0.13158417216E+03  0.92543751587E+03  0.17546313683E+04  0.12699999809E+01 0. -1.
</event>
<event>
 5   0  0.4750125E-08  0.3958525E+04  0.7818609E-02  0.8012966E-01
       -1   -1    0    0    0  501  0.00000000000E+00  0.00000000000E+00  0.24362207631E+04  0.24362207631E+04  0.50400001928E-02 0. -1.
        1   -1    0    0  501    0  0.00000000000E+00  0.00000000000E+00 -0.16080150427E+04  0.16080150427E+04  0.50400001928E-02 0.  1.
    10030    2    1    2    0    0  0.00000000000E+00  0.00000000000E+00  0.82820572037E+03  0.40442358058E+04  0.39585247931E+04 0.  0.
        4    1    3    3  502    0  0.53503350247E+03 -0.31123013444E+03  0.23347963340E+04  0.24154503885E+04  0.12699999809E+01 0. -1.
       -4    1    3    3    0  502 -0.53503350247E+03  0.31123013444E+03 -0.15065906136E+04  0.16287854172E+04  0.12699999809E+01 0.  1.
</event>
<event>
 5   0  0.4750125E-08  0.4060503E+04  0.7818609E-02  0.7992451E-01
       -1   -1    0    0    0  501  0.00000000000E+00  0.00000000000E+00  0.22681923652E+04  0.22681923652E+04  0.50400001928E-02 0.  1.
        1   -1    0    0  501    0  0.00000000000E+00  0.00000000000E+00 -0.18172717248E+04  0.18172717248E+04  0.50400001928E-02 0. -1.
    10030    2    1    2    0    0  0.00000000000E+00  0.00000000000E+00  0.45092064043E+03  0.40854640900E+04  0.40605033440E+04 0.  0.
        4    1    3    3  502    0  0.15456778432E+04  0.30024823949E+03 -0.10640778679E+04  0.19004031999E+04  0.12699999809E+01 0. -1.
       -4    1    3    3    0  502 -0.15456778432E+04 -0.30024823949E+03  0.15149985084E+04  0.21850608901E+04  0.12699999809E+01 0.  1.
</event>
<event>
 5   0  0.4750125E-08  0.3956920E+04  0.7818609E-02  0.8013294E-01
       -1   -1    0    0    0  501  0.00000000000E+00  0.00000000000E+00  0.17769850848E+04  0.17769850849E+04  0.50400001928E-02 0. -1.
        1   -1    0    0  501    0  0.00000000000E+00  0.00000000000E+00 -0.22027782347E+04  0.22027782347E+04  0.50400001928E-02 0.  1.
    10030    2    1    2    0    0  0.00000000000E+00  0.00000000000E+00 -0.42579314990E+03  0.39797633196E+04  0.39569200489E+04 0.  0.
        1    1    3    3  502    0  0.46389407059E+03 -0.19219180399E+04 -0.28637590023E+03  0.19977431809E+04  0.50400001928E-02 0. -1.
       -1    1    3    3    0  502 -0.46389407059E+03  0.19219180399E+04 -0.13941724967E+03  0.19820201387E+04  0.50400001928E-02 0.  1.
</event>
<event>
 5   0  0.4750125E-08  0.3741407E+04  0.7818609E-02  0.8058847E-01
        1   -1    0    0  501    0  0.00000000000E+00  0.00000000000E+00  0.20451849592E+04  0.20451849592E+04  0.50400001928E-02 0. -1.
       -1   -1    0    0    0  501  0.00000000000E+00  0.00000000000E+00 -0.17111077788E+04  0.17111077789E+04  0.50400001928E-02 0.  1.
    10030    2    1    2    0    0  0.00000000000E+00  0.00000000000E+00  0.33407718035E+03  0.37562927381E+04  0.37414071646E+04 0.  0.
        5    1    3    3  502    0  0.17477876119E+04 -0.38560825355E+03  0.71331232617E+03  0.19267308650E+04  0.46999998093E+01 0. -1.
       -5    1    3    3    0  502 -0.17477876119E+04  0.38560825355E+03 -0.37923514582E+03  0.18295618731E+04  0.46999998093E+01 0.  1.
</event>
<event>
 5   0  0.1520986E-07  0.3900830E+04  0.7818609E-02  0.8024857E-01
       -2   -1    0    0    0  501  0.00000000000E+00  0.00000000000E+00  0.32348932583E+04  0.32348932584E+04  0.25500000920E-02 0.  1.
        2   -1    0    0  501    0  0.00000000000E+00  0.00000000000E+00 -0.11759643484E+04  0.11759643484E+04  0.25500000920E-02 0. -1.
    10030    2    1    2    0    0  0.00000000000E+00  0.00000000000E+00  0.20589289100E+04  0.44108576067E+04  0.39008302412E+04 0.  0.
        4    1    3    3  502    0 -0.11362768570E+04 -0.15107009424E+04  0.15726653261E+04  0.24589876523E+04  0.12699999809E+01 0.  1.
       -4    1    3    3    0  502  0.11362768570E+04  0.15107009424E+04  0.48626358388E+03  0.19518699545E+04  0.12699999809E+01 0. -1.
</event>
<event>
 5   0  0.4750125E-08  0.3911852E+04  0.7818609E-02  0.8022569E-01
       -3   -1    0    0    0  501  0.00000000000E+00  0.00000000000E+00  0.24707512678E+04  0.24707512698E+04  0.10100000352E+00 0. -1.
        3   -1    0    0  501    0  0.00000000000E+00  0.00000000000E+00 -0.15483738183E+04  0.15483738216E+04  0.10100000352E+00 0.  1.
    10030    2    1    2    0    0  0.00000000000E+00  0.00000000000E+00  0.92237744951E+03  0.40191250914E+04  0.39118520346E+04 0.  0.
        3    1    3    3  502    0 -0.27883649728E+03 -0.18390979279E+04  0.10824316553E+04  0.21521359807E+04  0.10100000352E+00 0. -1.
       -3    1    3    3    0  502  0.27883649728E+03  0.18390979279E+04 -0.16005420582E+03  0.18669891107E+04  0.10100000352E+00 0.  1.
</event>
<event>
 5   0  0.1520986E-07  0.4038798E+04  0.7818609E-02  0.7996765E-01
        2   -1    0    0  501    0  0.00000000000E+00  0.00000000000E+00  0.31168787996E+04  0.31168787996E+04  0.25500000920E-02 0. -1.
       -2   -1    0    0    0  501  0.00000000000E+00  0.00000000000E+00 -0.13083509653E+04  0.13083509653E+04  0.25500000920E-02 0.  1.
    10030    2    1    2    0    0  0.00000000000E+00  0.00000000000E+00  0.18085278343E+04  0.44252297649E+04  0.40387975369E+04 0.  0.
        4    1    3    3  502    0  0.12705148343E+04  0.37866496878E+03 -0.76476092220E+03  0.15305084069E+04  0.12699999809E+01 0.  1.
       -4    1    3    3    0  502 -0.12705148343E+04 -0.37866496878E+03  0.25732887565E+04  0.28947213579E+04  0.12699999809E+01 0. -1.
</event>
<event>
 5   0  0.4750125E-08  0.3896219E+04  0.7818609E-02  0.8025816E-01
       -1   -1    0    0    0  501  0.00000000000E+00  0.00000000000E+00  0.16097218976E+04  0.16097218976E+04  0.50400001928E-02 0. -1.
        1   -1    0    0  501    0  0.00000000000E+00  0.00000000000E+00 -0.23576308245E+04  0.23576308245E+04  0.50400001928E-02 0.  1.
    10030    2    1    2    0    0  0.00000000000E+00  0.00000000000E+00 -0.74790892681E+03  0.39673527221E+04  0.38962186616E+04 0.  0.
        1    1    3    3  502    0 -0.16074343097E+04  0.90570078443E+03 -0.10106632869E+04  0.21037060751E+04  0.50400001928E-02 0.  1.
       -1    1    3    3    0  502  0.16074343097E+04 -0.90570078443E+03  0.26275436006E+03  0.18636466470E+04  0.50400001928E-02 0. -1.
</event>
<event>
 5   0  0.1538018E-07  0.3912562E+04  0.7818609E-02  0.8022422E-01
       -2   -1    0    0    0  501  0.00000000000E+00  0.00000000000E+00  0.18678769090E+04  0.18678769090E+04  0.25500000920E-02 0. -1.
        2   -1    0    0  501    0  0.00000000000E+00  0.00000000000E+00 -0.20488688199E+04  0.20488688199E+04  0.25500000920E-02 0.  1.
    10030    2    1    2    0    0  0.00000000000E+00  0.00000000000E+00 -0.18099191093E+03  0.39167457289E+04  0.39125616970E+04 0.  0.
        1    1    3    3  502    0  0.14035534544E+04 -0.10916524648E+04 -0.90706878281E+03  0.19961065052E+04  0.50400001928E-02 0.  1.
       -1    1    3    3    0  502 -0.14035534544E+04  0.10916524648E+04  0.72607687188E+03  0.19206392236E+04  0.50400001928E-02 0. -1.
</event>
<event>
 5   0  0.4750125E-08  0.3886839E+04  0.7818609E-02  0.8027772E-01
        1   -1    0    0  501    0  0.00000000000E+00  0.00000000000E+00  0.28420777674E+04  0.28420777674E+04  0.50400001928E-02 0.  1.
       -1   -1    0    0    0  501  0.00000000000E+00  0.00000000000E+00 -0.13289148699E+04  0.13289148699E+04  0.50400001928E-02 0. -1.
    10030    2    1    2    0    0  0.00000000000E+00  0.00000000000E+00  0.15131628975E+04  0.41709926372E+04  0.38868390275E+04 0.  0.
        3    1    3    3  502    0  0.10153828680E+04  0.13322305466E+04  0.18140346583E+04  0.24691217770E+04  0.10100000352E+00 0.  1.
       -3    1    3    3    0  502 -0.10153828680E+04 -0.13322305466E+04 -0.30087176082E+03  0.17018708602E+04  0.10100000352E+00 0. -1.
</event>
<event>
 5   0  0.1546846E-07  0.3881449E+04  0.7818609E-02  0.8028899E-01
       -2   -1    0    0    0  501  0.00000000000E+00  0.00000000000E+00  0.18330556468E+04  0.18330556468E+04  0.25500000920E-02 0. -1.
        2   -1    0    0  501    0  0.00000000000E+00  0.00000000000E+00 -0.20547174238E+04  0.20547174238E+04  0.25500000920E-02 0.  1.
    10030    2    1    2    0    0  0.00000000000E+00  0.00000000000E+00 -0.22166177694E+03  0.38877730706E+04  0.38814488925E+04 0.  0.
        2    1    3    3  502    0 -0.11779763140E+04  0.14447724194E+04 -0.65153990215E+03  0.19747151147E+04  0.25500000920E-02 0.  1.
       -2    1    3    3    0  502  0.11779763140E+04 -0.14447724194E+04  0.42987812521E+03  0.19130579559E+04  0.25500000920E-02 0. -1.
</event>
<event>
 5   0  0.4750125E-08  0.3890891E+04  0.7818609E-02  0.8026926E-01
       -1   -1    0    0    0  501  0.00000000000E+00  0.00000000000E+00  0.17635723982E+04  0.17635723982E+04  0.50400001928E-02 0. -1.
        1   -1    0    0  501    0  0.00000000000E+00  0.00000000000E+00 -0.21460747676E+04  0.21460747676E+04  0.50400001928E-02 0.  1.
    10030    2    1    2    0    0  0.00000000000E+00  0.00000000000E+00 -0.38250236940E+03  0.39096471658E+04  0.38908910160E+04 0.  0.
        1    1    3    3  502    0  0.26512581193E+03 -0.82881916985E+03  0.15571149687E+04  0.17837712685E+04  0.50400001928E-02 0. -1.
       -1    1    3    3    0  502 -0.26512581193E+03  0.82881916985E+03 -0.19396173381E+04  0.21258758973E+04  0.50400001928E-02 0.  1.
</event>
<event>
 5   0  0.4750125E-08  0.3888325E+04  0.7818609E-02  0.8027462E-01
       -1   -1    0    0    0  501  0.00000000000E+00  0.00000000000E+00  0.19254796640E+04  0.19254796640E+04  0.50400001928E-02 0.  1.
        1   -1    0    0  501    0  0.00000000000E+00  0.00000000000E+00 -0.19630269285E+04  0.19630269285E+04  0.50400001928E-02 0. -1.
    10030    2    1    2    0    0  0.00000000000E+00  0.00000000000E+00 -0.37547264480E+02  0.38885065925E+04  0.38883253109E+04 0.  0.
        5    1    3    3  502    0 -0.14277492038E+04 -0.13029508755E+04  0.19003640866E+03  0.19422370348E+04  0.46999998093E+01 0. -1.
       -5    1    3    3    0  502  0.14277492038E+04  0.13029508755E+04 -0.22758367314E+03  0.19462695577E+04  0.46999998093E+01 0.  1.
</event>
<event>
 5   0  0.4750125E-08  0.3902494E+04  0.7818609E-02  0.8024511E-01
       -1   -1    0    0    0  501  0.00000000000E+00  0.00000000000E+00  0.20211958661E+04  0.20211958661E+04  0.50400001928E-02 0.  1.
        1   -1    0    0  501    0  0.00000000000E+00  0.00000000000E+00 -0.18837186529E+04  0.18837186529E+04  0.50400001928E-02 0. -1.
    10030    2    1    2    0    0  0.00000000000E+00  0.00000000000E+00  0.13747721321E+03  0.39049145190E+04  0.39024937433E+04 0.  0.
        1    1    3    3  502    0 -0.20400056130E+03  0.15448178247E+04 -0.11064199903E+04  0.19110843874E+04  0.50400001928E-02 0.  1.
       -1    1    3    3    0  502  0.20400056130E+03 -0.15448178247E+04  0.12438972035E+04  0.19938301316E+04  0.50400001928E-02 0. -1.
</event>
<event>
 5   0  0.1501585E-07  0.3916220E+04  0.7818609E-02  0.8021664E-01
       -2   -1    0    0    0  501  0.00000000000E+00  0.00000000000E+00  0.17329158819E+04  0.17329158819E+04  0.25500000920E-02 0. -1.
        2   -1    0    0  501    0  0.00000000000E+00  0.00000000000E+00 -0.22125683044E+04  0.22125683044E+04  0.25500000920E-02 0.  1.
    10030    2    1    2    0    0  0.00000000000E+00  0.00000000000E+00 -0.47965242251E+03  0.39454841864E+04  0.39162199911E+04 0.  0.
        5    1    3    3  502    0  0.13486303513E+04 -0.96671192430E+03  0.80757556898E+03  0.18454094827E+04  0.46999998093E+01 0. -1.
       -5    1    3    3    0  502 -0.13486303513E+04  0.96671192430E+03 -0.12872279915E+04  0.21000747037E+04  0.46999998093E+01 0.  1.
</event>
<event>
 5   0  0.1503228E-07  0.3897395E+04  0.7818609E-02  0.8025571E-01
       -2   -1    0    0    0  501  0.00000000000E+00  0.00000000000E+00  0.19255122849E+04  0.19255122849E+04  0.25500000920E-02 0. -1.
        2   -1    0    0  501    0  0.00000000000E+00  0.00000000000E+00 -0.19721616947E+04  0.19721616947E+04  0.25500000920E-02 0.  1.
    10030    2    1    2    0    0  0.00000000000E+00  0.00000000000E+00 -0.46649409782E+02  0.38976739796E+04  0.38973948073E+04 0.  0.
        3    1    3    3  502    0 -0.28436916080E+03  0.33497720211E+03  0.18753228126E+04  0.19261129789E+04  0.10100000352E+00 0. -1.
       -3    1    3    3    0  502  0.28436916080E+03 -0.33497720211E+03 -0.19219722224E+04  0.19715610007E+04  0.10100000352E+00 0.  1.
</event>
<event>
 5   0  0.1538018E-07  0.3902031E+04  0.7818609E-02  0.8024607E-01
        2   -1    0    0  501    0  0.00000000000E+00  0.00000000000E+00  0.25870102540E+04  0.25870102540E+04  0.25500000920E-02 0.  1.
       -2   -1    0    0    0  501  0.00000000000E+00  0.00000000000E+00 -0.14713744488E+04  0.14713744488E+04  0.25500000920E-02 0. -1.
    10030    2    1    2    0    0  0.00000000000E+00  0.00000000000E+00  0.11156358053E+04  0.40583847028E+04  0.39020306439E+04 0.  0.
        1    1    3    3  502    0 -0.97633193082E+03 -0.94842417972E+03  0.20115842884E+04  0.24288276623E+04  0.50400001928E-02 0.  1.
       -1    1    3    3    0  502  0.97633193082E+03  0.94842417972E+03 -0.89594848311E+03  0.16295570405E+04  0.50400001928E-02 0. -1.
</event>
<event>
 5   0  0.4762788E-08  0.3961936E+04  0.7818609E-02  0.8012269E-01
       -1   -1    0    0    0  501  0.00000000000E+00  0.00000000000E+00  0.15787891794E+04  0.15787891794E+04  0.50400001928E-02 0. -1.
        1   -1    0    0  501    0  0.00000000000E+00  0.00000000000E+00 -0.24855979632E+04  0.24855979632E+04  0.50400001928E-02 0.  1.
    10030    2    1    2    0    0  0.00000000000E+00  0.00000000000E+00 -0.90680878383E+03  0.40643871426E+04  0.39619364804E+04 0.  0.
        2    1    3    3  502    0  0.62530371941E+03  0.89449885317E+03 -0.21493639762E+04  0.24105805197E+04  0.25500000920E-02 0.  1.
       -2    1    3    3    0  502 -0.62530371941E+03 -0.89449885317E+03  0.12425551924E+04  0.16538066229E+04  0.25500000920E-02 0. -1.
</event>
<event>
 5   0  0.4750125E-08  0.3905020E+04  0.7818609E-02  0.8023986E-01
        1   -1    0    0  501    0  0.00000000000E+00  0.00000000000E+00  0.20346371770E+04  0.20346371770E+04  0.50400001928E-02 0. -1.
       -1   -1    0    0    0  501  0.00000000000E+00  0.00000000000E+00 -0.18736982368E+04  0.18736982368E+04  0.50400001928E-02 0.  1.
    10030    2    1    2    0    0  0.00000000000E+00  0.00000000000E+00  0.16093894027E+03  0.39083354138E+04  0.39050204051E+04 0.  0.
        1    1    3    3  502    0 -0.71984142981E+03  0.14054159281E+04 -0.10689524418E+04  0.19068363689E+04  0.50400001928E-02 0.  1.
       -1    1    3    3    0  502  0.71984142981E+03 -0.14054159281E+04  0.12298913821E+04  0.20014990449E+04  0.50400001928E-02 0. -1.
</event>
<event>
 5   0  0.1501585E-07  0.3901646E+04  0.7818609E-02  0.8024687E-01
        2   -1    0    0  501    0  0.00000000000E+00  0.00000000000E+00  0.26662653282E+04  0.26662653282E+04  0.25500000920E-02 0.  1.
       -2   -1    0    0    0  501  0.00000000000E+00  0.00000000000E+00 -0.14273563316E+04  0.14273563317E+04  0.25500000920E-02 0. -1.
    10030    2    1    2    0    0  0.00000000000E+00  0.00000000000E+00  0.12389089966E+04  0.40936216599E+04  0.39016461644E+04 0.  0.
        5    1    3    3  502    0 -0.64207979878E+02  0.10267399693E+04  0.23585301467E+04  0.25731311999E+04  0.46999998093E+01 0.  1.
       -5    1    3    3    0  502  0.64207979878E+02 -0.10267399693E+04 -0.11196211501E+04  0.15204904600E+04  0.46999998093E+01 0. -1.
</event>
<event>
 5   0  0.4750125E-08  0.3900759E+04  0.7818609E-02  0.8024871E-01
        1   -1    0    0  501    0  0.00000000000E+00  0.00000000000E+00  0.26454358567E+04  0.26454358567E+04  0.50400001928E-02 0.  1.
       -1   -1    0    0    0  501  0.00000000000E+00  0.00000000000E+00 -0.14379405503E+04  0.14379405504E+04  0.50400001928E-02 0. -1.
    10030    2    1    2    0    0  0.00000000000E+00  0.00000000000E+00  0.12074953063E+04  0.40833764070E+04  0.39007586399E+04 0.  0.
        5    1    3    3  502    0 -0.43928875791E+03 -0.13456800206E+04  0.20082486063E+04  0.24570132041E+04  0.46999998093E+01 0.  1.
       -5    1    3    3    0  502  0.43928875791E+03  0.13456800206E+04 -0.80075329992E+03  0.16263632029E+04  0.46999998093E+01 0. -1.
</event>
<event>
 5   0  0.4750125E-08  0.3939306E+04  0.7818609E-02  0.8016904E-01
       -1   -1    0    0    0  501  0.00000000000E+00  0.00000000000E+00  0.19750509200E+04  0.19750509200E+04  0.50400001928E-02 0.  1.
        1   -1    0    0  501    0  0.00000000000E+00  0.00000000000E+00 -0.19642698895E+04  0.19642698895E+04  0.50400001928E-02 0. -1.
    10030    2    1    2    0    0  0.00000000000E+00  0.00000000000E+00  0.10781030460E+02  0.39393208095E+04  0.39393060568E+04 0.  0.
        4    1    3    3  502    0  0.12376029415E+04  0.14281207099E+04  0.56067777986E+03  0.19711801005E+04  0.12699999809E+01 0.  1.
       -4    1    3    3    0  502 -0.12376029415E+04 -0.14281207099E+04 -0.54989674940E+03  0.19681407090E+04  0.12699999809E+01 0. -1.
</event>
<event>
 5   0  0.1501585E-07  0.3894784E+04  0.7818609E-02  0.8026115E-01
        2   -1    0    0  501    0  0.00000000000E+00  0.00000000000E+00  0.12467567199E+04  0.12467567199E+04  0.25500000920E-02 0.  1.
       -2   -1    0    0    0  501  0.00000000000E+00  0.00000000000E+00 -0.30417611022E+04  0.30417611022E+04  0.25500000920E-02 0. -1.
    10030    2    1    2    0    0  0.00000000000E+00  0.00000000000E+00 -0.17950043823E+04  0.42885178221E+04  0.38947842530E+04 0.  0.
        5    1    3    3  502    0  0.13577077497E+04  0.10660814044E+04 -0.18899611184E+04  0.25596630664E+04  0.46999998093E+01 0. -1.
       -5    1    3    3    0  502 -0.13577077497E+04 -0.10660814044E+04  0.94956736081E+02  0.17288547557E+04  0.46999998093E+01 0.  1.
</event>
<event>
 5   0  0.1501585E-07  0.3889682E+04  0.7818609E-02  0.8027179E-01
        2   -1    0    0  501    0  0.00000000000E+00  0.00000000000E+00  0.16904774054E+04  0.16904774054E+04  0.25500000920E-02 0.  1.
       -2   -1    0    0    0  501  0.00000000000E+00  0.00000000000E+00 -0.22374780744E+04  0.22374780744E+04  0.25500000920E-02 0. -1.
    10030    2    1    2    0    0  0.00000000000E+00  0.00000000000E+00 -0.54700066907E+03  0.39279554798E+04  0.38896818018E+04 0.  0.
        5    1    3    3  502    0  0.69388411221E+03 -0.36518895943E+02 -0.21078473622E+04  0.22194259130E+04  0.46999998093E+01 0. -1.
       -5    1    3    3    0  502 -0.69388411221E+03  0.36518895943E+02  0.15608466932E+04  0.17085295668E+04  0.46999998093E+01 0.  1.
</event>
<event>
 5   0  0.1520986E-07  0.3809724E+04  0.7818609E-02  0.8044071E-01
       -2   -1    0    0    0  501  0.00000000000E+00  0.00000000000E+00  0.25238609213E+04  0.25238609213E+04  0.25500000920E-02 0.  1.
        2   -1    0    0  501    0  0.00000000000E+00  0.00000000000E+00 -0.14376779652E+04  0.14376779652E+04  0.25500000920E-02 0. -1.
    10030    2    1    2    0    0  0.00000000000E+00  0.00000000000E+00  0.10861829561E+04  0.39615388865E+04  0.38097239972E+04 0.  0.
        4    1    3    3  502    0 -0.54083968272E+03  0.22659930924E+03  0.24276710722E+04  0.24974873888E+04  0.12699999809E+01 0.  1.
       -4    1    3    3    0  502  0.54083968272E+03 -0.22659930924E+03 -0.13414881161E+04  0.14640514977E+04  0.12699999809E+01 0. -1.
</event>
<event>
 5   0  0.1538018E-07  0.3911444E+04  0.7818609E-02  0.8022653E-01
        2   -1    0    0  501    0  0.00000000000E+00  0.00000000000E+00  0.18086165630E+04  0.18086165630E+04  0.25500000920E-02 0.  1.
       -2   -1    0    0    0  501  0.00000000000E+00  0.00000000000E+00 -0.21147922651E+04  0.21147922651E+04  0.25500000920E-02 0. -1.
    10030    2    1    2    0    0  0.00000000000E+00  0.00000000000E+00 -0.30617570209E+03  0.39234088281E+04  0.39114438858E+04 0.  0.
        1    1    3    3  502    0 -0.51992749626E+03 -0.16901412639E+04 -0.99107516118E+03  0.20270994224E+04  0.50400001928E-02 0. -1.
       -1    1    3    3    0  502  0.51992749626E+03  0.16901412639E+04  0.68489945910E+03  0.18963094057E+04  0.50400001928E-02 0.  1.
</event>
<event>
 5   0  0.1538018E-07  0.3897721E+04  0.7818609E-02  0.8025503E-01
        2   -1    0    0  501    0  0.00000000000E+00  0.00000000000E+00  0.33185501835E+04  0.33185501835E+04  0.25500000920E-02 0. -1.
       -2   -1    0    0    0  501  0.00000000000E+00  0.00000000000E+00 -0.11444932036E+04  0.11444932036E+04  0.25500000920E-02 0.  1.
    10030    2    1    2    0    0  0.00000000000E+00  0.00000000000E+00  0.21740569800E+04  0.44630433871E+04  0.38977214527E+04 0.  0.
        1    1    3    3  502    0 -0.15360635360E+04  0.11985926901E+04  0.11374948081E+04  0.22561050645E+04  0.50400001928E-02 0.  1.
       -1    1    3    3    0  502  0.15360635360E+04 -0.11985926901E+04  0.10365621719E+04  0.22069383226E+04  0.50400001928E-02 0. -1.
</event>
<event>
 5   0  0.4762788E-08  0.3922695E+04  0.7818609E-02  0.8020326E-01
        1   -1    0    0  501    0  0.00000000000E+00  0.00000000000E+00  0.31238283036E+04  0.31238283036E+04  0.50400001928E-02 0.  1.
       -1   -1    0    0    0  501  0.00000000000E+00  0.00000000000E+00 -0.12314647288E+04  0.12314647288E+04  0.50400001928E-02 0. -1.
    10030    2    1    2    0    0  0.00000000000E+00  0.00000000000E+00  0.18923635748E+04  0.43552930324E+04  0.39226951831E+04 0.  0.
        2    1    3    3  502    0 -0.34465979196E+03 -0.24570482643E+03  0.30725138654E+04  0.31015323127E+04  0.25500000920E-02 0.  1.
       -2    1    3    3    0  502  0.34465979196E+03  0.24570482643E+03 -0.11801502906E+04  0.12537607197E+04  0.25500000920E-02 0. -1.
</event>
<event>
 5   0  0.1538018E-07  0.3858539E+04  0.7818609E-02  0.8033708E-01
        2   -1    0    0  501    0  0.00000000000E+00  0.00000000000E+00  0.19957495273E+04  0.19957495273E+04  0.25500000920E-02 0. -1.
       -2   -1    0    0    0  501  0.00000000000E+00  0.00000000000E+00 -0.18650036294E+04  0.18650036294E+04  0.25500000920E-02 0.  1.
    10030    2    1    2    0    0  0.00000000000E+00  0.00000000000E+00  0.13074589788E+03  0.38607531567E+04  0.38585386414E+04 0.  0.
        1    1    3    3  502    0 -0.75076297179E+03  0.14458970679E+04 -0.96857230502E+03  0.18953616227E+04  0.50400001928E-02 0.  1.
       -1    1    3    3    0  502  0.75076297179E+03 -0.14458970679E+04  0.10993182029E+04  0.19653915340E+04  0.50400001928E-02 0. -1.
</event>
<event>
 5   0  0.4750125E-08  0.3907384E+04  0.7818609E-02  0.8023495E-01
       -1   -1    0    0    0  501  0.00000000000E+00  0.00000000000E+00  0.20401781481E+04  0.20401781481E+04  0.50400001928E-02 0. -1.
        1   -1    0    0  501    0  0.00000000000E+00  0.00000000000E+00 -0.18708719640E+04  0.18708719640E+04  0.50400001928E-02 0.  1.
    10030    2    1    2    0    0  0.00000000000E+00  0.00000000000E+00  0.16930618419E+03  0.39110501121E+04  0.39073838301E+04 0.  0.
        5    1    3    3  502    0 -0.12444358783E+04  0.14435361886E+04 -0.34525267433E+03  0.19369147844E+04  0.46999998093E+01 0.  1.
       -5    1    3    3    0  502  0.12444358783E+04 -0.14435361886E+04  0.51455885852E+03  0.19741353277E+04  0.46999998093E+01 0. -1.
</event>
<event>
 5   0  0.4750125E-08  0.3897727E+04  0.7818609E-02  0.8025502E-01
       -1   -1    0    0    0  501  0.00000000000E+00  0.00000000000E+00  0.13680165006E+04  0.13680165007E+04  0.50400001928E-02 0.  1.
        1   -1    0    0  501    0  0.00000000000E+00  0.00000000000E+00 -0.27763331886E+04  0.27763331886E+04  0.50400001928E-02 0. -1.
    10030    2    1    2    0    0  0.00000000000E+00  0.00000000000E+00 -0.14083166879E+04  0.41443496892E+04  0.38977273446E+04 0.  0.
        5    1    3    3  502    0  0.44081074065E+03 -0.17720319911E+04  0.19833259259E+02  0.18261508521E+04  0.46999998093E+01 0.  1.
       -5    1    3    3    0  502 -0.44081074065E+03  0.17720319911E+04 -0.14281499472E+04  0.23181988371E+04  0.46999998093E+01 0. -1.
</event>
<event>
 5   0  0.1520986E-07  0.3897703E+04  0.7818609E-02  0.8025507E-01
       -2   -1    0    0    0  501  0.00000000000E+00  0.00000000000E+00  0.15561376819E+04  0.15561376819E+04  0.25500000920E-02 0.  1.
        2   -1    0    0  501    0  0.00000000000E+00  0.00000000000E+00 -0.24406728694E+04  0.24406728694E+04  0.25500000920E-02 0. -1.
    10030    2    1    2    0    0  0.00000000000E+00  0.00000000000E+00 -0.88453518750E+03  0.39968105513E+04  0.38977034373E+04 0.  0.
        4    1    3    3  502    0 -0.10183098706E+03  0.10265423031E+04  0.12532141802E+04  0.16231777612E+04  0.12699999809E+01 0.  1.
       -4    1    3    3    0  502  0.10183098706E+03 -0.10265423031E+04 -0.21377493677E+04  0.23736327901E+04  0.12699999809E+01 0. -1.
</event>
<event>
 5   0  0.4750125E-08  0.3906682E+04  0.7818609E-02  0.8023641E-01
       -1   -1    0    0    0  501  0.00000000000E+00  0.00000000000E+00  0.28590825253E+04  0.28590825253E+04  0.50400001928E-02 0. -1.
        1   -1    0    0  501    0  0.00000000000E+00  0.00000000000E+00 -0.13345331748E+04  0.13345331748E+04  0.50400001928E-02 0.  1.
    10030    2    1    2    0    0  0.00000000000E+00  0.00000000000E+00  0.15245493505E+04  0.41936157001E+04  0.39066817017E+04 0.  0.
        1    1    3    3  502    0  0.18919977487E+04 -0.43973735016E+02  0.12814850249E+04  0.22855618652E+04  0.50400001928E-02 0. -1.
       -1    1    3    3    0  502 -0.18919977487E+04  0.43973735016E+02  0.24306432565E+03  0.19080538349E+04  0.50400001928E-02 0.  1.
</event>
<event>
 5   0  0.1503228E-07  0.3844620E+04  0.7818609E-02  0.8036647E-01
        2   -1    0    0  501    0  0.00000000000E+00  0.00000000000E+00  0.19282957478E+04  0.19282957478E+04  0.25500000920E-02 0. -1.
       -2   -1    0    0    0  501  0.00000000000E+00  0.00000000000E+00 -0.19163428232E+04  0.19163428232E+04  0.25500000920E-02 0.  1.
    10030    2    1    2    0    0  0.00000000000E+00  0.00000000000E+00  0.11952924595E+02  0.38446385710E+04  0.38446199902E+04 0.  0.
        3    1    3    3  502    0  0.12234160910E+04 -0.14603583029E+04  0.26265337817E+03  0.19231172902E+04  0.10100000352E+00 0.  1.
       -3    1    3    3    0  502 -0.12234160910E+04  0.14603583029E+04 -0.25070045357E+03  0.19215212807E+04  0.10100000352E+00 0. -1.
</event>
<event>
 5   0  0.1503228E-07  0.3865718E+04  0.7818609E-02  0.8032197E-01
       -2   -1    0    0    0  501  0.00000000000E+00  0.00000000000E+00  0.27102944926E+04  0.27102944926E+04  0.25500000920E-02 0. -1.
        2   -1    0    0  501    0  0.00000000000E+00  0.00000000000E+00 -0.13784271911E+04  0.13784271911E+04  0.25500000920E-02 0.  1.
    10030    2    1    2    0    0  0.00000000000E+00  0.00000000000E+00  0.13318673015E+04  0.40887216836E+04  0.38657178502E+04 0.  0.
        3    1    3    3  502    0  0.54478152737E+03 -0.12550010052E+04 -0.77816013430E+03  0.15739592245E+04  0.10100000352E+00 0.  1.
       -3    1    3    3    0  502 -0.54478152737E+03  0.12550010052E+04  0.21100274358E+04  0.25147624591E+04  0.10100000352E+00 0. -1.
</event>
<event>
 5   0  0.1503228E-07  0.3918423E+04  0.7818609E-02  0.8021209E-01
       -2   -1    0    0    0  501  0.00000000000E+00  0.00000000000E+00  0.13476778690E+04  0.13476778690E+04  0.25500000920E-02 0. -1.
        2   -1    0    0  501    0  0.00000000000E+00  0.00000000000E+00 -0.28482392575E+04  0.28482392575E+04  0.25500000920E-02 0.  1.
    10030    2    1    2    0    0  0.00000000000E+00  0.00000000000E+00 -0.15005613885E+04  0.41959171265E+04  0.39184226485E+04 0.  0.
        3    1    3    3  502    0 -0.75151684611E+03  0.16831037445E+04 -0.39259849267E+02  0.18436803223E+04  0.10100000352E+00 0. -1.
       -3    1    3    3    0  502  0.75151684611E+03 -0.16831037445E+04 -0.14613015392E+04  0.23522368043E+04  0.10100000352E+00 0.  1.
</event>
<event>
 5   0  0.4762788E-08  0.3880877E+04  0.7818609E-02  0.8029018E-01
       -1   -1    0    0    0  501  0.00000000000E+00  0.00000000000E+00  0.31480917313E+04  0.31480917313E+04  0.50400001928E-02 0.  1.
        1   -1    0    0  501    0  0.00000000000E+00  0.00000000000E+00 -0.11960583408E+04  0.11960583408E+04  0.50400001928E-02 0. -1.
    10030    2    1    2    0    0  0.00000000000E+00  0.00000000000E+00  0.19520333905E+04  0.43441500721E+04  0.38808768972E+04 0.  0.
        2    1    3    3  502    0 -0.36745917780E+03 -0.15087717068E+04  0.22784801019E+04  0.27573338364E+04  0.25500000920E-02 0.  1.
       -2    1    3    3    0  502  0.36745917780E+03  0.15087717068E+04 -0.32644671140E+03  0.15868162357E+04  0.25500000920E-02 0. -1.
</event>
<event>
 5   0  0.1501585E-07  0.3905677E+04  0.7818609E-02  0.8023850E-01
        2   -1    0    0  501    0  0.00000000000E+00  0.00000000000E+00  0.28400881165E+04  0.28400881165E+04  0.25500000920E-02 0.  1.
       -2   -1    0    0    0  501  0.00000000000E+00  0.00000000000E+00 -0.13427673602E+04  0.13427673602E+04  0.25500000920E-02 0. -1.
    10030    2    1    2    0    0  0.00000000000E+00  0.00000000000E+00  0.14973207563E+04  0.41828554767E+04  0.39056767009E+04 0.  0.
        5    1    3    3  502    0 -0.71366934399E+03  0.11821426528E+04  0.22275159547E+04  0.26208080056E+04  0.46999998093E+01 0.  1.
       -5    1    3    3    0  502  0.71366934399E+03 -0.11821426528E+04 -0.73019519839E+03  0.15620474711E+04  0.46999998093E+01 0. -1.
</event>
<event>
 5   0  0.1501585E-07  0.3899014E+04  0.7818609E-02  0.8025234E-01
       -2   -1    0    0    0  501  0.00000000000E+00  0.00000000000E+00  0.13726896389E+04  0.13726896389E+04  0.25500000920E-02 0.  1.
        2   -1    0    0  501    0  0.00000000000E+00  0.00000000000E+00 -0.27687090172E+04  0.27687090172E+04  0.25500000920E-02 0. -1.
    10030    2    1    2    0    0  0.00000000000E+00  0.00000000000E+00 -0.13960193783E+04  0.41413986561E+04  0.38990143273E+04 0.  0.
        5    1    3    3  502    0 -0.26499183518E+03 -0.13594074819E+03 -0.27443965542E+04  0.27605135566E+04  0.46999998093E+01 0. -1.
       -5    1    3    3    0  502  0.26499183518E+03  0.13594074819E+03  0.13483771759E+04  0.13808850995E+04  0.46999998093E+01 0.  1.
</event>
<event>
 5   0  0.1520986E-07  0.3905920E+04  0.7818609E-02  0.8023799E-01
       -2   -1    0    0    0  501  0.00000000000E+00  0.00000000000E+00  0.15553831624E+04  0.15553831624E+04  0.25500000920E-02 0.  1.
        2   -1    0    0  501    0  0.00000000000E+00  0.00000000000E+00 -0.24521627641E+04  0.24521627641E+04  0.25500000920E-02 0. -1.
    10030    2    1    2    0    0  0.00000000000E+00  0.00000000000E+00 -0.89677960172E+03  0.40075459265E+04  0.39059199556E+04 0.  0.
        4    1    3    3  502    0  0.36638066443E+03 -0.19164790909E+04 -0.36301319784E+03  0.19846680054E+04  0.12699999809E+01 0. -1.
       -4    1    3    3    0  502 -0.36638066443E+03  0.19164790909E+04 -0.53376640389E+03  0.20228779211E+04  0.12699999809E+01 0.  1.
</event>
<event>
 5   0  0.1520986E-07  0.3914203E+04  0.7818609E-02  0.8022082E-01
        2   -1    0    0  501    0  0.00000000000E+00  0.00000000000E+00  0.13860715409E+04  0.13860715409E+04  0.25500000920E-02 0.  1.
       -2   -1    0    0    0  501  0.00000000000E+00  0.00000000000E+00 -0.27633834445E+04  0.27633834445E+04  0.25500000920E-02 0. -1.
    10030    2    1    2    0    0  0.00000000000E+00  0.00000000000E+00 -0.13773119036E+04  0.41494549854E+04  0.39142034434E+04 0.  0.
        4    1    3    3  502    0  0.96792534044E+03  0.16107726118E+04 -0.10919826689E+03  0.18823904340E+04  0.12699999809E+01 0.  1.
       -4    1    3    3    0  502 -0.96792534044E+03 -0.16107726118E+04 -0.12681136367E+04  0.22670645514E+04  0.12699999809E+01 0. -1.
</event>
<event>
 5   0  0.4750125E-08  0.3662855E+04  0.7818609E-02  0.8076244E-01
       -1   -1    0    0    0  501  0.00000000000E+00  0.00000000000E+00  0.11248046685E+04  0.11248046685E+04  0.50400001928E-02 0.  1.
        1   -1    0    0  501    0  0.00000000000E+00  0.00000000000E+00 -0.29819637636E+04  0.29819637636E+04  0.50400001928E-02 0. -1.
    10030    2    1    2    0    0  0.00000000000E+00  0.00000000000E+00 -0.18571590950E+04  0.41067684321E+04  0.36628550409E+04 0.  0.
        4    1    3    3  502    0  0.22078297896E+03 -0.17235692342E+04 -0.15772158949E+04  0.23467099567E+04  0.12699999809E+01 0.  1.
       -4    1    3    3    0  502 -0.22078297896E+03  0.17235692342E+04 -0.27994320011E+03  0.17600584754E+04  0.12699999809E+01 0. -1.
</event>
<event>
 5   0  0.1503228E-07  0.3896530E+04  0.7818609E-02  0.8025751E-01
       -2   -1    0    0    0  501  0.00000000000E+00  0.00000000000E+00  0.15267138166E+04  0.15267138166E+04  0.25500000920E-02 0. -1.
        2   -1    0    0  501    0  0.00000000000E+00  0.00000000000E+00 -0.24862135460E+04  0.24862135460E+04  0.25500000920E-02 0.  1.
    10030    2    1    2    0    0  0.00000000000E+00  0.00000000000E+00 -0.95949972936E+03  0.40129273626E+04  0.38965300316E+04 0.  0.
        3    1    3    3  502    0  0.17550785475E+04 -0.83159136007E+03 -0.63893644931E+03  0.20445255427E+04  0.10100000352E+00 0.  1.
       -3    1    3    3    0  502 -0.17550785475E+04  0.83159136007E+03 -0.32056328004E+03  0.19684018200E+04  0.10100000352E+00 0. -1.
</event>
<event>
 5   0  0.4750125E-08  0.3897999E+04  0.7818609E-02  0.8025446E-01
        1   -1    0    0  501    0  0.00000000000E+00  0.00000000000E+00  0.14193591354E+04  0.14193591354E+04  0.50400001928E-02 0.  1.
       -1   -1    0    0    0  501  0.00000000000E+00  0.00000000000E+00 -0.26762770598E+04  0.26762770598E+04  0.50400001928E-02 0. -1.
    10030    2    1    2    0    0  0.00000000000E+00  0.00000000000E+00 -0.12569179245E+04  0.40956361952E+04  0.38979986114E+04 0.  0.
        4    1    3    3  502    0 -0.30448164297E+03 -0.19111881989E+04 -0.87091242979E+03  0.21222251237E+04  0.12699999809E+01 0. -1.
       -4    1    3    3    0  502  0.30448164297E+03  0.19111881989E+04 -0.38600549468E+03  0.19734110715E+04  0.12699999809E+01 0.  1.
</event>
<event>
 5   0  0.1538018E-07  0.3412048E+04  0.7818609E-02  0.8134956E-01
       -2   -1    0    0    0  501  0.00000000000E+00  0.00000000000E+00  0.89556563718E+03  0.89556563718E+03  0.25500000920E-02 0.  1.
        2   -1    0    0  501    0  0.00000000000E+00  0.00000000000E+00 -0.32499222459E+04  0.32499222459E+04  0.25500000920E-02 0. -1.
    10030    2    1    2    0    0  0.00000000000E+00  0.00000000000E+00 -0.23543566087E+04  0.41454878831E+04  0.34120484680E+04 0.  0.
        1    1    3    3  502    0 -0.56771000504E+03 -0.46898934415E+03 -0.30468973125E+04  0.31346178216E+04  0.50400001928E-02 0. -1.
       -1    1    3    3    0  502  0.56771000504E+03  0.46898934415E+03  0.69254070377E+03  0.10108700615E+04  0.50400001928E-02 0.  1.
</event>
<event>
 5   0  0.1546846E-07  0.4201169E+04  0.7818609E-02  0.7965150E-01
       -2   -1    0    0    0  501  0.00000000000E+00  0.00000000000E+00  0.21615741426E+04  0.21615741426E+04  0.25500000920E-02 0. -1.
        2   -1    0    0  501    0  0.00000000000E+00  0.00000000000E+00 -0.20413157356E+04  0.20413157356E+04  0.25500000920E-02 0.  1.
    10030    2    1    2    0    0  0.00000000000E+00  0.00000000000E+00  0.12025840700E+03  0.42028898783E+04  0.42011690331E+04 0.  0.
        2    1    3    3  502    0 -0.77937105383E+03  0.17478533070E+04  0.92653526752E+03  0.21262356465E+04  0.25500000920E-02 0. -1.
       -2    1    3    3    0  502  0.77937105383E+03 -0.17478533070E+04 -0.80627686053E+03  0.20766542318E+04  0.25500000920E-02 0.  1.
</event>
<event>
 5   0  0.4750125E-08  0.3901584E+04  0.7818609E-02  0.8024700E-01
        1   -1    0    0  501    0  0.00000000000E+00  0.00000000000E+00  0.30597308344E+04  0.30597308344E+04  0.50400001928E-02 0. -1.
       -1   -1    0    0    0  501  0.00000000000E+00  0.00000000000E+00 -0.12437662784E+04  0.12437662784E+04  0.50400001928E-02 0.  1.
    10030    2    1    2    0    0  0.00000000000E+00  0.00000000000E+00  0.18159645560E+04  0.43034971128E+04  0.39015843104E+04 0.  0.
        1    1    3    3  502    0  0.10878344681E+04  0.87777918757E+03  0.24089349355E+04  0.27851117851E+04  0.50400001928E-02 0. -1.
       -1    1    3    3    0  502 -0.10878344681E+04 -0.87777918757E+03 -0.59297037955E+03  0.15183853276E+04  0.50400001928E-02 0.  1.
</event>
<event>
 5   0  0.4762788E-08  0.3933440E+04  0.7818609E-02  0.8018110E-01
       -1   -1    0    0    0  501  0.00000000000E+00  0.00000000000E+00  0.15812370535E+04  0.15812370535E+04  0.50400001928E-02 0.  1.
        1   -1    0    0  501    0  0.00000000000E+00  0.00000000000E+00 -0.24461779709E+04  0.24461779709E+04  0.50400001928E-02 0. -1.
    10030    2    1    2    0    0  0.00000000000E+00  0.00000000000E+00 -0.86494091742E+03  0.40274150245E+04  0.39334398417E+04 0.  0.
        2    1    3    3  502    0 -0.84072186993E+03  0.10858614883E+04  0.10090285002E+04  0.17041264473E+04  0.25500000920E-02 0.  1.
       -2    1    3    3    0  502  0.84072186993E+03 -0.10858614883E+04 -0.18739694176E+04  0.23232885771E+04  0.25500000920E-02 0. -1.
</event>
<event>
 5   0  0.1520986E-07  0.3912708E+04  0.7818609E-02  0.8022391E-01
       -2   -1    0    0    0  501  0.00000000000E+00  0.00000000000E+00  0.15016977895E+04  0.15016977895E+04  0.25500000920E-02 0.  1.
        2   -1    0    0  501    0  0.00000000000E+00  0.00000000000E+00 -0.25486626026E+04  0.25486626026E+04  0.25500000920E-02 0. -1.
    10030    2    1    2    0    0  0.00000000000E+00  0.00000000000E+00 -0.10469648131E+04  0.40503603922E+04  0.39127080119E+04 0.  0.
        4    1    3    3  502    0 -0.84238686430E+02  0.19525752347E+04 -0.61416082236E+03  0.20486193722E+04  0.12699999809E+01 0.  1.
       -4    1    3    3    0  502  0.84238686430E+02 -0.19525752347E+04 -0.43280399075E+03  0.20017410199E+04  0.12699999809E+01 0. -1.
</event>
<event>
 5   0  0.1520986E-07  0.3918622E+04  0.7818609E-02  0.8021167E-01
        2   -1    0    0  501    0  0.00000000000E+00  0.00000000000E+00  0.20438233913E+04  0.20438233913E+04  0.25500000920E-02 0. -1.
       -2   -1    0    0    0  501  0.00000000000E+00  0.00000000000E+00 -0.18782936094E+04  0.18782936094E+04  0.25500000920E-02 0.  1.
    10030    2    1    2    0    0  0.00000000000E+00  0.00000000000E+00  0.16552978192E+03  0.39221170008E+04  0.39186224185E+04 0.  0.
        4    1    3    3  502    0  0.15934009270E+04  0.10070293231E+04  0.61790442256E+03  0.19836436323E+04  0.12699999809E+01 0. -1.
       -4    1    3    3    0  502 -0.15934009270E+04 -0.10070293231E+04 -0.45237464064E+03  0.19384733684E+04  0.12699999809E+01 0.  1.
</event>
<event>
 5   0  0.4750125E-08  0.3771390E+04  0.7818609E-02  0.8052323E-01
        1   -1    0    0  501    0  0.00000000000E+00  0.00000000000E+00  0.19662334756E+04  0.19662334757E+04  0.50400001928E-02 0. -1.
       -1   -1    0    0    0  501  0.00000000000E+00  0.00000000000E+00 -0.18084551632E+04  0.18084551633E+04  0.50400001928E-02 0.  1.
    10030    2    1    2    0    0  0.00000000000E+00  0.00000000000E+00  0.15777831240E+03  0.37746886389E+04  0.37713897074E+04 0.  0.
        4    1    3    3  502    0  0.81050189121E+03  0.11137378196E+04 -0.12100720488E+04  0.18334669952E+04  0.12699999809E+01 0.  1.
       -4    1    3    3    0  502 -0.81050189121E+03 -0.11137378196E+04  0.13678503612E+04  0.19412216437E+04  0.12699999809E+01 0. -1.
</event>
<event>
 5   0  0.4762788E-08  0.3885372E+04  0.7818609E-02  0.8028078E-01
        1   -1    0    0  501    0  0.00000000000E+00  0.00000000000E+00  0.18381518777E+04  0.18381518778E+04  0.50400001928E-02 0.  1.
       -1   -1    0    0    0  501  0.00000000000E+00  0.00000000000E+00 -0.20531647561E+04  0.20531647561E+04  0.50400001928E-02 0. -1.
    10030    2    1    2    0    0  0.00000000000E+00  0.00000000000E+00 -0.21501287839E+03  0.38913166339E+04  0.38853718750E+04 0.  0.
        2    1    3    3  502    0  0.10196499077E+04  0.12016567388E+02  0.15485646837E+04  0.18541528826E+04  0.25500000920E-02 0.  1.
       -2    1    3    3    0  502 -0.10196499077E+04 -0.12016567388E+02 -0.17635775621E+04  0.20371637513E+04  0.25500000920E-02 0. -1.
</event>
<event>
 5   0  0.1501585E-07  0.3891325E+04  0.7818609E-02  0.8026836E-01
        2   -1    0    0  501    0  0.00000000000E+00  0.00000000000E+00  0.24812428021E+04  0.24812428021E+04  0.25500000920E-02 0.  1.
       -2   -1    0    0    0  501  0.00000000000E+00  0.00000000000E+00 -0.15256881881E+04  0.15256881881E+04  0.25500000920E-02 0. -1.
    10030    2    1    2    0    0  0.00000000000E+00  0.00000000000E+00  0.95555461399E+03  0.40069309903E+04  0.38913251394E+04 0.  0.
        5    1    3    3  502    0 -0.19388721572E+03 -0.19194781053E+04  0.73744420867E+03  0.20653896727E+04  0.46999998093E+01 0. -1.
       -5    1    3    3    0  502  0.19388721572E+03  0.19194781053E+04  0.21811040532E+03  0.19415413176E+04  0.46999998093E+01 0.  1.
</event>
<event>
 5   0  0.1501585E-07  0.3919242E+04  0.7818609E-02  0.8021039E-01
       -2   -1    0    0    0  501  0.00000000000E+00  0.00000000000E+00  0.30838402438E+04  0.30838402438E+04  0.25500000920E-02 0.  1.
        2   -1    0    0  501    0  0.00000000000E+00  0.00000000000E+00 -0.12452375712E+04  0.12452375712E+04  0.25500000920E-02 0. -1.
    10030    2    1    2    0    0  0.00000000000E+00  0.00000000000E+00  0.18386026726E+04  0.43290778150E+04  0.39192416283E+04 0.  0.
        5    1    3    3  502    0 -0.11578791471E+04  0.10398966488E+04 -0.39602922750E+03  0.16059048535E+04  0.46999998093E+01 0. -1.
       -5    1    3    3    0  502  0.11578791471E+04 -0.10398966488E+04  0.22346319001E+04  0.27231729615E+04  0.46999998093E+01 0.  1.
</event>
<event>
 5   0  0.4750125E-08  0.3910745E+04  0.7818609E-02  0.8022798E-01
        1   -1    0    0  501    0  0.00000000000E+00  0.00000000000E+00  0.13338954203E+04  0.13338954203E+04  0.50400001928E-02 0. -1.
       -1   -1    0    0    0  501  0.00000000000E+00  0.00000000000E+00 -0.28664034397E+04  0.28664034397E+04  0.50400001928E-02 0.  1.
    10030    2    1    2    0    0  0.00000000000E+00  0.00000000000E+00 -0.15325080194E+04  0.42002988599E+04  0.39107454128E+04 0.  0.
        5    1    3    3  502    0 -0.11014183963E+04 -0.33413824316E+03 -0.24640159448E+04  0.27195895859E+04  0.46999998093E+01 0.  1.
       -5    1    3    3    0  502  0.11014183963E+04  0.33413824316E+03  0.93150792546E+03  0.14807092741E+04  0.46999998093E+01 0. -1.
</event>
<event>
 5   0  0.1546846E-07  0.3892150E+04  0.7818609E-02  0.8026664E-01
        2   -1    0    0  501    0  0.00000000000E+00  0.00000000000E+00  0.21378910006E+04  0.21378910006E+04  0.25500000920E-02 0. -1.
       -2   -1    0    0    0  501  0.00000000000E+00  0.00000000000E+00 -0.17714695028E+04  0.17714695028E+04  0.25500000920E-02 0.  1.
    10030    2    1    2    0    0  0.00000000000E+00  0.00000000000E+00  0.36642149772E+03  0.39093605034E+04  0.38921504123E+04 0.  0.
        2    1    3    3  502    0 -0.10725603807E+04 -0.73030409793E+03 -0.12735397711E+04  0.18181400920E+04  0.25500000920E-02 0.  1.
       -2    1    3    3    0  502  0.10725603807E+04  0.73030409793E+03  0.16399612688E+04  0.20912204114E+04  0.25500000920E-02 0. -1.
</event>
<event>
 5   0  0.4750125E-08  0.3741206E+04  0.7818609E-02  0.8058891E-01
       -1   -1    0    0    0  501  0.00000000000E+00  0.00000000000E+00  0.13260272661E+04  0.13260272661E+04  0.50400001928E-02 0.  1.
        1   -1    0    0  501    0  0.00000000000E+00  0.00000000000E+00 -0.26388258052E+04  0.26388258052E+04  0.50400001928E-02 0. -1.
    10030    2    1    2    0    0  0.00000000000E+00  0.00000000000E+00 -0.13127985391E+04  0.39648530714E+04  0.37412056711E+04 0.  0.
        4    1    3    3  502    0 -0.94678164284E+03  0.14439886441E+04 -0.14188917812E+04  0.22348946694E+04  0.12699999809E+01 0. -1.
       -4    1    3    3    0  502  0.94678164284E+03 -0.14439886441E+04  0.10609324216E+03  0.17299584020E+04  0.12699999809E+01 0.  1.
</event>
<event>
 5   0  0.1503228E-07  0.3898330E+04  0.7818609E-02  0.8025377E-01
       -2   -1    0    0    0  501  0.00000000000E+00  0.00000000000E+00  0.20584958053E+04  0.20584958053E+04  0.25500000920E-02 0. -1.
        2   -1    0    0  501    0  0.00000000000E+00  0.00000000000E+00 -0.18456409523E+04  0.18456409523E+04  0.25500000920E-02 0.  1.
    10030    2    1    2    0    0  0.00000000000E+00  0.00000000000E+00  0.21285485298E+03  0.39041367576E+04  0.38983299801E+04 0.  0.
        3    1    3    3  502    0  0.33847671882E+03  0.11072033520E+04  0.16768123551E+04  0.20376862948E+04  0.10100000352E+00 0.  1.
       -3    1    3    3    0  502 -0.33847671882E+03 -0.11072033520E+04 -0.14639575021E+04  0.18664504628E+04  0.10100000352E+00 0. -1.
</event>
<event>
 5   0  0.4762788E-08  0.3906783E+04  0.7818609E-02  0.8023620E-01
       -1   -1    0    0    0  501  0.00000000000E+00  0.00000000000E+00  0.15120397718E+04  0.15120397719E+04  0.50400001928E-02 0. -1.
        1   -1    0    0  501    0  0.00000000000E+00  0.00000000000E+00 -0.25235698054E+04  0.25235698054E+04  0.50400001928E-02 0.  1.
    10030    2    1    2    0    0  0.00000000000E+00  0.00000000000E+00 -0.10115300336E+04  0.40356095773E+04  0.39067827750E+04 0.  0.
        2    1    3    3  502    0 -0.13000287517E+04  0.12515749930E+04  0.26670648771E+03  0.18241839460E+04  0.25500000920E-02 0.  1.
       -2    1    3    3    0  502  0.13000287517E+04 -0.12515749930E+04 -0.12782365213E+04  0.22114256313E+04  0.25500000920E-02 0. -1.
</event>
<event>
 5   0  0.1546846E-07  0.3865152E+04  0.7818609E-02  0.8032316E-01
       -2   -1    0    0    0  501  0.00000000000E+00  0.00000000000E+00  0.15471970969E+04  0.15471970969E+04  0.25500000920E-02 0. -1.
        2   -1    0    0  501    0  0.00000000000E+00  0.00000000000E+00 -0.24139462230E+04  0.24139462230E+04  0.25500000920E-02 0.  1.
    10030    2    1    2    0    0  0.00000000000E+00  0.00000000000E+00 -0.86674912603E+03  0.39611433199E+04  0.38651523066E+04 0.  0.
        2    1    3    3  502    0 -0.18954709298E+04 -0.36864852603E+03 -0.35307819001E+03  0.19630017804E+04  0.25500000920E-02 0. -1.
       -2    1    3    3    0  502  0.18954709298E+04  0.36864852603E+03 -0.51367093602E+03  0.19981415395E+04  0.25500000920E-02 0.  1.
</event>
<event>
 5   0  0.4750125E-08  0.3897338E+04  0.7818609E-02  0.8025583E-01
        1   -1    0    0  501    0  0.00000000000E+00  0.00000000000E+00  0.17865503203E+04  0.17865503203E+04  0.50400001928E-02 0. -1.
       -1   -1    0    0    0  501  0.00000000000E+00  0.00000000000E+00 -0.21254993229E+04  0.21254993229E+04  0.50400001928E-02 0.  1.
    10030    2    1    2    0    0  0.00000000000E+00  0.00000000000E+00 -0.33894900263E+03  0.39120496432E+04  0.38973383205E+04 0.  0.
        3    1    3    3  502    0 -0.94336533242E+03  0.37269831051E+03 -0.18396269165E+04  0.21007306784E+04  0.10100000352E+00 0.  1.
       -3    1    3    3    0  502  0.94336533242E+03 -0.37269831051E+03  0.15006779138E+04  0.18113189648E+04  0.10100000352E+00 0. -1.
</event>
<event>
 5   0  0.1546846E-07  0.3923982E+04  0.7818609E-02  0.8020060E-01
       -2   -1    0    0    0  501  0.00000000000E+00  0.00000000000E+00  0.13994153832E+04  0.13994153832E+04  0.25500000920E-02 0. -1.
        2   -1    0    0  501    0  0.00000000000E+00  0.00000000000E+00 -0.27507262115E+04  0.27507262115E+04  0.25500000920E-02 0.  1.
    10030    2    1    2    0    0  0.00000000000E+00  0.00000000000E+00 -0.13513108284E+04  0.41501415947E+04  0.39239819446E+04 0.  0.
        2    1    3    3  502    0 -0.11118922506E+04  0.15994797296E+04 -0.42813985829E+03  0.19944782577E+04  0.25500000920E-02 0. -1.
       -2    1    3    3    0  502  0.11118922506E+04 -0.15994797296E+04 -0.92317097007E+03  0.21556633370E+04  0.25500000920E-02 0.  1.
</event>
<event>
 5   0  0.4750125E-08  0.3895540E+04  0.7818609E-02  0.8025957E-01
        1   -1    0    0  501    0  0.00000000000E+00  0.00000000000E+00  0.18927274937E+04  0.18927274937E+04  0.50400001928E-02 0. -1.
       -1   -1    0    0    0  501  0.00000000000E+00  0.00000000000E+00 -0.20044132769E+04  0.20044132769E+04  0.50400001928E-02 0.  1.
    10030    2    1    2    0    0  0.00000000000E+00  0.00000000000E+00 -0.11168578314E+03  0.38971407706E+04  0.38955400745E+04 0.  0.
        5    1    3    3  502    0  0.11663075526E+03 -0.39125073088E+03 -0.19611217593E+04  0.20031726117E+04  0.46999998093E+01 0.  1.
       -5    1    3    3    0  502 -0.11663075526E+03  0.39125073088E+03  0.18494359761E+04  0.18939681590E+04  0.46999998093E+01 0. -1.
</event>
<event>
 5   0  0.4750125E-08  0.3992609E+04  0.7818609E-02  0.8006039E-01
        1   -1    0    0  501    0  0.00000000000E+00  0.00000000000E+00  0.13453402990E+04  0.13453402990E+04  0.50400001928E-02 0. -1.
       -1   -1    0    0    0  501  0.00000000000E+00  0.00000000000E+00 -0.29622478504E+04  0.29622478505E+04  0.50400001928E-02 0.  1.
    10030    2    1    2    0    0  0.00000000000E+00  0.00000000000E+00 -0.16169075515E+04  0.43075881495E+04  0.39926088758E+04 0.  0.
        4    1    3    3  502    0  0.17035747682E+04  0.61337390616E+03  0.98607251405E+02  0.18133172758E+04  0.12699999809E+01 0. -1.
       -4    1    3    3    0  502 -0.17035747682E+04 -0.61337390616E+03 -0.17155148029E+04  0.24942708737E+04  0.12699999809E+01 0.  1.
</event>
<event>
 5   0  0.1503228E-07  0.3878177E+04  0.7818609E-02  0.8029583E-01
        2   -1    0    0  501    0  0.00000000000E+00  0.00000000000E+00  0.23034877472E+04  0.23034877472E+04  0.25500000920E-02 0. -1.
       -2   -1    0    0    0  501  0.00000000000E+00  0.00000000000E+00 -0.16323349991E+04  0.16323349992E+04  0.25500000920E-02 0.  1.
    10030    2    1    2    0    0  0.00000000000E+00  0.00000000000E+00  0.67115274809E+03  0.39358227464E+04  0.38781767211E+04 0.  0.
        3    1    3    3  502    0 -0.11566418905E+04 -0.13525650165E+03  0.19090901513E+04  0.22362334405E+04  0.10100000352E+00 0. -1.
       -3    1    3    3    0  502  0.11566418905E+04  0.13525650165E+03 -0.12379374033E+04  0.16995893059E+04  0.10100000352E+00 0.  1.
</event>
<event>
 5   0  0.4750125E-08  0.3881622E+04  0.7818609E-02  0.8028862E-01
        1   -1    0    0  501    0  0.00000000000E+00  0.00000000000E+00  0.19387842109E+04  0.19387842109E+04  0.50400001928E-02 0.  1.
       -1   -1    0    0    0  501  0.00000000000E+00  0.00000000000E+00 -0.19428395037E+04  0.19428395037E+04  0.50400001928E-02 0. -1.
    10030    2    1    2    0    0  0.00000000000E+00  0.00000000000E+00 -0.40552927945E+01  0.38816237146E+04  0.38816215963E+04 0.  0.
        3    1    3    3  502    0  0.19300150123E+04  0.19378222180E+03 -0.67120282453E+02  0.19408798623E+04  0.10100000352E+00 0. -1.
       -3    1    3    3    0  502 -0.19300150123E+04 -0.19378222180E+03  0.63064989659E+02  0.19407438524E+04  0.10100000352E+00 0.  1.
</event>
<event>
 5   0  0.4762788E-08  0.3891110E+04  0.7818609E-02  0.8026881E-01
        1   -1    0    0  501    0  0.00000000000E+00  0.00000000000E+00  0.21867336003E+04  0.21867336003E+04  0.50400001928E-02 0. -1.
       -1   -1    0    0    0  501  0.00000000000E+00  0.00000000000E+00 -0.17309765526E+04  0.17309765526E+04  0.50400001928E-02 0.  1.
    10030    2    1    2    0    0  0.00000000000E+00  0.00000000000E+00  0.45575704767E+03  0.39177101529E+04  0.38911101701E+04 0.  0.
        2    1    3    3  502    0 -0.14182697552E+04 -0.98973546321E+03  0.11251040564E+04  0.20632315729E+04  0.25500000920E-02 0.  1.
       -2    1    3    3    0  502  0.14182697552E+04  0.98973546321E+03 -0.66934700869E+03  0.18544785800E+04  0.25500000920E-02 0. -1.
</event>
<event>
 5   0  0.4762788E-08  0.3896277E+04  0.7818609E-02  0.8025804E-01
       -1   -1    0    0    0  501  0.00000000000E+00  0.00000000000E+00  0.31491031602E+04  0.31491031602E+04  0.50400001928E-02 0. -1.
        1   -1    0    0  501    0  0.00000000000E+00  0.00000000000E+00 -0.12051823649E+04  0.12051823649E+04  0.50400001928E-02 0.  1.
    10030    2    1    2    0    0  0.00000000000E+00  0.00000000000E+00  0.19439207953E+04  0.43542855251E+04  0.38962769891E+04 0.  0.
        2    1    3    3  502    0 -0.10235317016E+04  0.14275136001E+04  0.30407607354E+02  0.17567973262E+04  0.25500000920E-02 0.  1.
       -2    1    3    3    0  502  0.10235317016E+04 -0.14275136001E+04  0.19135131879E+04  0.25974881989E+04  0.25500000920E-02 0. -1.
</event>
<event>
 5   0  0.1520986E-07  0.3886434E+04  0.7818609E-02  0.8027857E-01
       -2   -1    0    0    0  501  0.00000000000E+00  0.00000000000E+00  0.16463951773E+04  0.16463951773E+04  0.25500000920E-02 0. -1.
        2   -1    0    0  501    0  0.00000000000E+00  0.00000000000E+00 -0.22935519174E+04  0.22935519174E+04  0.25500000920E-02 0.  1.
    10030    2    1    2    0    0  0.00000000000E+00  0.00000000000E+00 -0.64715674008E+03  0.39399470946E+04  0.38864342606E+04 0.  0.
        4    1    3    3  502    0 -0.55469792182E+03 -0.75952455955E+03  0.14002834637E+04  0.16868203024E+04  0.12699999809E+01 0. -1.
       -4    1    3    3    0  502  0.55469792182E+03  0.75952455955E+03 -0.20474402038E+04  0.22531267922E+04  0.12699999809E+01 0.  1.
</event>
<event>
 5   0  0.4750125E-08  0.3916604E+04  0.7818609E-02  0.8021585E-01
        1   -1    0    0  501    0  0.00000000000E+00  0.00000000000E+00  0.18279261103E+04  0.18279261103E+04  0.50400001928E-02 0.  1.
       -1   -1    0    0    0  501  0.00000000000E+00  0.00000000000E+00 -0.20979769510E+04  0.20979769510E+04  0.50400001928E-02 0. -1.
    10030    2    1    2    0    0  0.00000000000E+00  0.00000000000E+00 -0.27005084072E+03  0.39259030613E+04  0.39166040635E+04 0.  0.
        1    1    3    3  502    0  0.14823106832E+04 -0.10194377521E+04 -0.91045669532E+03  0.20162910718E+04  0.50400001928E-02 0. -1.
       -1    1    3    3    0  502 -0.14823106832E+04  0.10194377521E+04  0.64040585460E+03  0.19096119895E+04  0.50400001928E-02 0.  1.
</event>
<event>
 5   0  0.4750125E-08  0.3889664E+04  0.7818609E-02  0.8027182E-01
       -1   -1    0    0    0  501  0.00000000000E+00  0.00000000000E+00  0.32628130983E+04  0.32628130983E+04  0.50400001928E-02 0. -1.
        1   -1    0    0  501    0  0.00000000000E+00  0.00000000000E+00 -0.11592364728E+04  0.11592364728E+04  0.50400001928E-02 0.  1.
    10030    2    1    2    0    0  0.00000000000E+00  0.00000000000E+00  0.21035766255E+04  0.44220495711E+04  0.38896642259E+04 0.  0.
        1    1    3    3  502    0 -0.15289844248E+04 -0.10555401741E+04  0.39829612970E+03  0.19001574244E+04  0.50400001928E-02 0.  1.
       -1    1    3    3    0  502  0.15289844248E+04  0.10555401741E+04  0.17052804958E+04  0.25218921468E+04  0.50400001928E-02 0. -1.
</event>
<event>
 5   0  0.1501585E-07  0.3897277E+04  0.7818609E-02  0.8025596E-01
       -2   -1    0    0    0  501  0.00000000000E+00  0.00000000000E+00  0.15036168436E+04  0.15036168436E+04  0.25500000920E-02 0. -1.
        2   -1    0    0  501    0  0.00000000000E+00  0.00000000000E+00 -0.25253722406E+04  0.25253722406E+04  0.25500000920E-02 0.  1.
    10030    2    1    2    0    0  0.00000000000E+00  0.00000000000E+00 -0.10217553970E+04  0.40289890842E+04  0.38972771199E+04 0.  0.
        5    1    3    3  502    0 -0.61716576870E+03 -0.74112482605E+03  0.12395712481E+04  0.15705790534E+04  0.46999998093E+01 0. -1.
       -5    1    3    3    0  502  0.61716576870E+03  0.74112482605E+03 -0.22613266451E+04  0.24584100308E+04  0.46999998093E+01 0.  1.
</event>
<event>
 5   0  0.1538018E-07  0.3877810E+04  0.7818609E-02  0.8029660E-01
        2   -1    0    0  501    0  0.00000000000E+00  0.00000000000E+00  0.25326451389E+04  0.25326451389E+04  0.25500000920E-02 0. -1.
       -2   -1    0    0    0  501  0.00000000000E+00  0.00000000000E+00 -0.14843581294E+04  0.14843581294E+04  0.25500000920E-02 0.  1.
    10030    2    1    2    0    0  0.00000000000E+00  0.00000000000E+00  0.10482870096E+04  0.40170032683E+04  0.38778098977E+04 0.  0.
        1    1    3    3  502    0 -0.10428826903E+04 -0.29595777052E+03  0.21893769541E+04  0.24430650328E+04  0.50400001928E-02 0. -1.
       -1    1    3    3    0  502  0.10428826903E+04  0.29595777052E+03 -0.11410899445E+04  0.15739382355E+04  0.50400001928E-02 0.  1.
</event>
<event>
 5   0  0.1538018E-07  0.3863004E+04  0.7818609E-02  0.8032768E-01
        2   -1    0    0  501    0  0.00000000000E+00  0.00000000000E+00  0.13154725787E+04  0.13154725787E+04  0.25500000920E-02 0. -1.
       -2   -1    0    0    0  501  0.00000000000E+00  0.00000000000E+00 -0.28360145253E+04  0.28360145253E+04  0.25500000920E-02 0.  1.
    10030    2    1    2    0    0  0.00000000000E+00  0.00000000000E+00 -0.15205419466E+04  0.41514871040E+04  0.38630036711E+04 0.  0.
        1    1    3    3  502    0 -0.10662078464E+03 -0.14991780487E+04 -0.20640454033E+04  0.25532697155E+04  0.50400001928E-02 0.  1.
       -1    1    3    3    0  502  0.10662078464E+03  0.14991780487E+04  0.54350345672E+03  0.15982173885E+04  0.50400001928E-02 0. -1.
</event>
<event>
 5   0  0.4750125E-08  0.3865199E+04  0.7818609E-02  0.8032306E-01
        1   -1    0    0  501    0  0.00000000000E+00  0.00000000000E+00  0.24540417995E+04  0.24540417996E+04  0.50400001928E-02 0.  1.
       -1   -1    0    0    0  501  0.00000000000E+00  0.00000000000E+00 -0.15219550373E+04  0.15219550373E+04  0.50400001928E-02 0. -1.
    10030    2    1    2    0    0  0.00000000000E+00  0.00000000000E+00  0.93208676228E+03  0.39759968368E+04  0.38651992334E+04 0.  0.
        3    1    3    3  502    0 -0.13062172175E+04  0.52077103192E+03 -0.89767967727E+03  0.16683029402E+04  0.10100000352E+00 0. -1.
       -3    1    3    3    0  502  0.13062172175E+04 -0.52077103192E+03  0.18297664395E+04  0.23076938966E+04  0.10100000352E+00 0.  1.
</event>
<event>
 5   0  0.1501585E-07  0.3910020E+04  0.7818609E-02  0.8022949E-01
        2   -1    0    0  501    0  0.00000000000E+00  0.00000000000E+00  0.16563087230E+04  0.16563087231E+04  0.25500000920E-02 0. -1.
       -2   -1    0    0    0  501  0.00000000000E+00  0.00000000000E+00 -0.23075792776E+04  0.23075792776E+04  0.25500000920E-02 0.  1.
    10030    2    1    2    0    0  0.00000000000E+00  0.00000000000E+00 -0.65127055460E+03  0.39638880007E+04  0.39100197885E+04 0.  0.
        5    1    3    3  502    0  0.95153496678E+03  0.16545555942E+04 -0.75463017401E+03  0.20524282684E+04  0.46999998093E+01 0.  1.
       -5    1    3    3    0  502 -0.95153496678E+03 -0.16545555942E+04  0.10335961942E+03  0.19114597323E+04  0.46999998093E+01 0. -1.
</event>
<event>
 5   0  0.1546846E-07  0.3899372E+04  0.7818609E-02  0.8025160E-01
        2   -1    0    0  501    0  0.00000000000E+00  0.00000000000E+00  0.22552436834E+04  0.22552436834E+04  0.25500000920E-02 0.  1.
       -2   -1    0    0    0  501  0.00000000000E+00  0.00000000000E+00 -0.16855278384E+04  0.16855278384E+04  0.25500000920E-02 0. -1.
    10030    2    1    2    0    0  0.00000000000E+00  0.00000000000E+00  0.56971584503E+03  0.39407715218E+04  0.38993722627E+04 0.  0.
        2    1    3    3  502    0  0.19419862797E+04 -0.13253155669E+02  0.45928716215E+03  0.19956029300E+04  0.25500000920E-02 0.  1.
       -2    1    3    3    0  502 -0.19419862797E+04  0.13253155669E+02  0.11042868288E+03  0.19451685919E+04  0.25500000920E-02 0. -1.
</event>
<event>
 5   0  0.4750125E-08  0.3900647E+04  0.7818609E-02  0.8024895E-01
        3   -1    0    0  501    0  0.00000000000E+00  0.00000000000E+00  0.14376992172E+04  0.14376992208E+04  0.10100000352E+00 0.  1.
       -3   -1    0    0    0  501  0.00000000000E+00  0.00000000000E+00 -0.26457278824E+04  0.26457278844E+04  0.10100000352E+00 0. -1.
    10030    2    1    2    0    0  0.00000000000E+00  0.00000000000E+00 -0.12080286652E+04  0.40834271052E+04  0.39006465704E+04 0.  0.
        4    1    3    3  502    0  0.17725659285E+04  0.78276853858E+03 -0.83584751926E+03  0.21102983780E+04  0.12699999809E+01 0. -1.
       -4    1    3    3    0  502 -0.17725659285E+04 -0.78276853858E+03 -0.37218114595E+03  0.19731287272E+04  0.12699999809E+01 0.  1.
</event>
<event>
 5   0  0.1538018E-07  0.3804934E+04  0.7818609E-02  0.8045097E-01
        2   -1    0    0  501    0  0.00000000000E+00  0.00000000000E+00  0.23840406341E+04  0.23840406341E+04  0.25500000920E-02 0. -1.
       -2   -1    0    0    0  501  0.00000000000E+00  0.00000000000E+00 -0.15181709996E+04  0.15181709996E+04  0.25500000920E-02 0.  1.
    10030    2    1    2    0    0  0.00000000000E+00  0.00000000000E+00  0.86586963454E+03  0.39022116337E+04  0.38049343503E+04 0.  0.
        1    1    3    3  502    0 -0.24646605045E+03 -0.37417154631E+03  0.23291595024E+04  0.23718629488E+04  0.50400001928E-02 0. -1.
       -1    1    3    3    0  502  0.24646605045E+03  0.37417154631E+03 -0.14632898679E+04  0.15303486849E+04  0.50400001928E-02 0.  1.
</event>
<event>
 5   0  0.1520986E-07  0.3936679E+04  0.7818609E-02  0.8017444E-01
        2   -1    0    0  501    0  0.00000000000E+00  0.00000000000E+00  0.18903444112E+04  0.18903444112E+04  0.25500000920E-02 0.  1.
       -2   -1    0    0    0  501  0.00000000000E+00  0.00000000000E+00 -0.20495528637E+04  0.20495528637E+04  0.25500000920E-02 0. -1.
    10030    2    1    2    0    0  0.00000000000E+00  0.00000000000E+00 -0.15920845244E+03  0.39398972749E+04  0.39366792104E+04 0.  0.
        4    1    3    3  502    0 -0.90551400629E+03  0.17454348818E+04  0.91285353697E+01  0.19663630095E+04  0.12699999809E+01 0.  1.
       -4    1    3    3    0  502  0.90551400629E+03 -0.17454348818E+04 -0.16833698781E+03  0.19735342654E+04  0.12699999809E+01 0. -1.
</event>
<event>
 5   0  0.1538018E-07  0.3671102E+04  0.7818609E-02  0.8074396E-01
       -2   -1    0    0    0  501  0.00000000000E+00  0.00000000000E+00  0.13651426154E+04  0.13651426154E+04  0.25500000920E-02 0. -1.
        2   -1    0    0  501    0  0.00000000000E+00  0.00000000000E+00 -0.24680549858E+04  0.24680549858E+04  0.25500000920E-02 0.  1.
    10030    2    1    2    0    0  0.00000000000E+00  0.00000000000E+00 -0.11029123704E+04  0.38331976012E+04  0.36711017629E+04 0.  0.
        1    1    3    3  502    0  0.14949429841E+04  0.84228214491E+03 -0.12321242702E+04  0.21124450181E+04  0.50400001928E-02 0. -1.
       -1    1    3    3    0  502 -0.14949429841E+04 -0.84228214491E+03  0.12921189979E+03  0.17207525831E+04  0.50400001928E-02 0.  1.
</event>
<event>
 5   0  0.1546846E-07  0.3929884E+04  0.7818609E-02  0.8018842E-01
       -2   -1    0    0    0  501  0.00000000000E+00  0.00000000000E+00  0.12816844039E+04  0.12816844039E+04  0.25500000920E-02 0. -1.
        2   -1    0    0  501    0  0.00000000000E+00  0.00000000000E+00 -0.30124395672E+04  0.30124395672E+04  0.25500000920E-02 0.  1.
    10030    2    1    2    0    0  0.00000000000E+00  0.00000000000E+00 -0.17307551632E+04  0.42941239711E+04  0.39298838716E+04 0.  0.
        2    1    3    3  502    0  0.12339003913E+03  0.42942699429E+03 -0.29561960354E+04  0.29897705004E+04  0.25500000920E-02 0.  1.
       -2    1    3    3    0  502 -0.12339003913E+03 -0.42942699429E+03  0.12254408722E+04  0.13043534707E+04  0.25500000920E-02 0. -1.
</event>
<event>
 5   0  0.4762788E-08  0.3902178E+04  0.7818609E-02  0.8024576E-01
        1   -1    0    0  501    0  0.00000000000E+00  0.00000000000E+00  0.14722303444E+04  0.14722303444E+04  0.50400001928E-02 0.  1.
       -1   -1    0    0    0  501  0.00000000000E+00  0.00000000000E+00 -0.25857019018E+04  0.25857019018E+04  0.50400001928E-02 0. -1.
    10030    2    1    2    0    0  0.00000000000E+00  0.00000000000E+00 -0.11134715574E+04  0.40579322463E+04  0.39021782643E+04 0.  0.
        2    1    3    3  502    0 -0.48808842960E+03  0.87834819939E+02 -0.25190641909E+04  0.25674169253E+04  0.25500000920E-02 0. -1.
       -2    1    3    3    0  502  0.48808842960E+03 -0.87834819939E+02  0.14055926335E+04  0.14905153210E+04  0.25500000920E-02 0.  1.
</event>
<event>
 5   0  0.4762788E-08  0.3896400E+04  0.7818609E-02  0.8025778E-01
       -1   -1    0    0    0  501  0.00000000000E+00  0.00000000000E+00  0.13517695243E+04  0.13517695243E+04  0.50400001928E-02 0. -1.
        1   -1    0    0  501    0  0.00000000000E+00  0.00000000000E+00 -0.28077885389E+04  0.28077885389E+04  0.50400001928E-02 0.  1.
    10030    2    1    2    0    0  0.00000000000E+00  0.00000000000E+00 -0.14560190146E+04  0.41595580633E+04  0.38963998654E+04 0.  0.
        2    1    3    3  502    0 -0.44663950288E+03 -0.13883001881E+04 -0.21070030327E+04  0.25624843487E+04  0.25500000920E-02 0.  1.
       -2    1    3    3    0  502  0.44663950288E+03  0.13883001881E+04  0.65098401812E+03  0.15970737145E+04  0.25500000920E-02 0. -1.
</event>
<event>
 5   0  0.1538018E-07  0.3895499E+04  0.7818609E-02  0.8025966E-01
       -2   -1    0    0    0  501  0.00000000000E+00  0.00000000000E+00  0.13003227727E+04  0.13003227727E+04  0.25500000920E-02 0. -1.
        2   -1    0    0  501    0  0.00000000000E+00  0.00000000000E+00 -0.29175286888E+04  0.29175286888E+04  0.25500000920E-02 0.  1.
    10030    2    1    2    0    0  0.00000000000E+00  0.00000000000E+00 -0.16172059161E+04  0.42178514615E+04  0.38954994514E+04 0.  0.
        1    1    3    3  502    0 -0.30101374915E+03 -0.19243455826E+04 -0.81262456482E+03  0.21104676926E+04  0.50400001928E-02 0. -1.
       -1    1    3    3    0  502  0.30101374915E+03  0.19243455826E+04 -0.80458135125E+03  0.21073837688E+04  0.50400001928E-02 0.  1.
</event>
<event>
 5   0  0.4750125E-08  0.3899271E+04  0.7818609E-02  0.8025181E-01
        1   -1    0    0  501    0  0.00000000000E+00  0.00000000000E+00  0.17916841263E+04  0.17916841263E+04  0.50400001928E-02 0. -1.
       -1   -1    0    0    0  501  0.00000000000E+00  0.00000000000E+00 -0.21215115966E+04  0.21215115967E+04  0.50400001928E-02 0.  1.
    10030    2    1    2    0    0  0.00000000000E+00  0.00000000000E+00 -0.32982747033E+03  0.39131957230E+04  0.38992710352E+04 0.  0.
        3    1    3    3  502    0  0.80083194414E+03  0.93505040873E+03 -0.16820754599E+04  0.20844732986E+04  0.10100000352E+00 0.  1.
       -3    1    3    3    0  502 -0.80083194414E+03 -0.93505040873E+03  0.13522479896E+04  0.18287224243E+04  0.10100000352E+00 0. -1.
</event>
<event>
 5   0  0.4750125E-08  0.3904335E+04  0.7818609E-02  0.8024128E-01
        1   -1    0    0  501    0  0.00000000000E+00  0.00000000000E+00  0.12497637875E+04  0.12497637876E+04  0.50400001928E-02 0. -1.
       -1   -1    0    0    0  501  0.00000000000E+00  0.00000000000E+00 -0.30493427281E+04  0.30493427281E+04  0.50400001928E-02 0.  1.
    10030    2    1    2    0    0  0.00000000000E+00  0.00000000000E+00 -0.17995789406E+04  0.42991065157E+04  0.39043350868E+04 0.  0.
        5    1    3    3  502    0 -0.72539752201E+03  0.32816986718E+03  0.10628584341E+04  0.13280011926E+04  0.46999998093E+01 0. -1.
       -5    1    3    3    0  502  0.72539752201E+03 -0.32816986718E+03 -0.28624373747E+04  0.29711053231E+04  0.46999998093E+01 0.  1.
</event>
<event>
 5   0  0.1503228E-07  0.3881134E+04  0.7818609E-02  0.8028964E-01
        2   -1    0    0  501    0  0.00000000000E+00  0.00000000000E+00  0.23994637284E+04  0.23994637284E+04  0.25500000920E-02 0. -1.
       -2   -1    0    0    0  501  0.00000000000E+00  0.00000000000E+00 -0.15694344552E+04  0.15694344552E+04  0.25500000920E-02 0.  1.
    10030    2    1    2    0    0  0.00000000000E+00  0.00000000000E+00  0.83002927318E+03  0.39688981836E+04  0.38811343957E+04 0.  0.
        3    1    3    3  502    0 -0.43860976019E+03 -0.47477133883E+03 -0.14561196368E+04  0.15931323714E+04  0.10100000352E+00 0.  1.
       -3    1    3    3    0  502  0.43860976019E+03  0.47477133883E+03  0.22861489100E+04  0.23757658122E+04  0.10100000352E+00 0. -1.
</event>
<event>
 5   0  0.4750125E-08  0.3900301E+04  0.7818609E-02  0.8024967E-01
       -1   -1    0    0    0  501  0.00000000000E+00  0.00000000000E+00  0.23855180345E+04  0.23855180345E+04  0.50400001928E-02 0. -1.
        1   -1    0    0  501    0  0.00000000000E+00  0.00000000000E+00 -0.15942391797E+04  0.15942391797E+04  0.50400001928E-02 0.  1.
    10030    2    1    2    0    0  0.00000000000E+00  0.00000000000E+00  0.79127885481E+03  0.39797572142E+04  0.39003006625E+04 0.  0.
        4    1    3    3  502    0 -0.14278826940E+04 -0.34863802597E+03 -0.91214431389E+03  0.17298573130E+04  0.12699999809E+01 0.  1.
       -4    1    3    3    0  502  0.14278826940E+04  0.34863802597E+03  0.17034231687E+04  0.22498999012E+04  0.12699999809E+01 0. -1.
</event>
<event>
 5   0  0.1546846E-07  0.3571131E+04  0.7818609E-02  0.8097137E-01
       -2   -1    0    0    0  501  0.00000000000E+00  0.00000000000E+00  0.31943060494E+04  0.31943060494E+04  0.25500000920E-02 0.  1.
        2   -1    0    0  501    0  0.00000000000E+00  0.00000000000E+00 -0.99810238628E+03  0.99810238628E+03  0.25500000920E-02 0. -1.
    10030    2    1    2    0    0  0.00000000000E+00  0.00000000000E+00  0.21962036631E+04  0.41924084357E+04  0.35711311880E+04 0.  0.
        2    1    3    3  502    0  0.12969917090E+03  0.13525393584E+04  0.24581169355E+04  0.28086515376E+04  0.25500000920E-02 0.  1.
       -2    1    3    3    0  502 -0.12969917090E+03 -0.13525393584E+04 -0.26191327237E+03  0.13837568981E+04  0.25500000920E-02 0. -1.
</event>
<event>
 5   0  0.4750125E-08  0.3877743E+04  0.7818609E-02  0.8029674E-01
       -1   -1    0    0    0  501  0.00000000000E+00  0.00000000000E+00  0.17590243930E+04  0.17590243930E+04  0.50400001928E-02 0.  1.
        1   -1    0    0  501    0  0.00000000000E+00  0.00000000000E+00 -0.21371066865E+04  0.21371066865E+04  0.50400001928E-02 0. -1.
    10030    2    1    2    0    0  0.00000000000E+00  0.00000000000E+00 -0.37808229355E+03  0.38961310795E+04  0.38777430508E+04 0.  0.
        1    1    3    3  502    0 -0.71192054334E+03 -0.17925810166E+04 -0.38757680874E+03  0.19673315287E+04  0.50400001928E-02 0.  1.
       -1    1    3    3    0  502  0.71192054334E+03  0.17925810166E+04  0.94945151908E+01  0.19287995508E+04  0.50400001928E-02 0. -1.
</event>
<event>
 5   0  0.4750125E-08  0.3897368E+04  0.7818609E-02  0.8025577E-01
       -1   -1    0    0    0  501  0.00000000000E+00  0.00000000000E+00  0.14460662878E+04  0.14460662878E+04  0.50400001928E-02 0. -1.
        1   -1    0    0  501    0  0.00000000000E+00  0.00000000000E+00 -0.26260000255E+04  0.26260000255E+04  0.50400001928E-02 0.  1.
    10030    2    1    2    0    0  0.00000000000E+00  0.00000000000E+00 -0.11799337377E+04  0.40720663133E+04  0.38973683986E+04 0.  0.
        1    1    3    3  502    0 -0.37709400040E+03  0.61719396403E+03 -0.24805629745E+04  0.25838577641E+04  0.50400001928E-02 0.  1.
       -1    1    3    3    0  502  0.37709400040E+03 -0.61719396403E+03  0.13006292368E+04  0.14882085492E+04  0.50400001928E-02 0. -1.
</event>
<event>
 5   0  0.1501585E-07  0.3908920E+04  0.7818609E-02  0.8023177E-01
       -2   -1    0    0    0  501  0.00000000000E+00  0.00000000000E+00  0.15731310000E+04  0.15731310000E+04  0.25500000920E-02 0.  1.
        2   -1    0    0  501    0  0.00000000000E+00  0.00000000000E+00 -0.24282233916E+04  0.24282233916E+04  0.25500000920E-02 0. -1.
    10030    2    1    2    0    0  0.00000000000E+00  0.00000000000E+00 -0.85509239161E+03  0.40013543915E+04  0.39089197956E+04 0.  0.
        5    1    3    3  502    0  0.13640481959E+04  0.18032276363E+03  0.99335105490E+03  0.16970304028E+04  0.46999998093E+01 0.  1.
       -5    1    3    3    0  502 -0.13640481959E+04 -0.18032276363E+03 -0.18484434465E+04  0.23043239887E+04  0.46999998093E+01 0. -1.
</event>
<event>
 5   0  0.4750125E-08  0.3900119E+04  0.7818609E-02  0.8025004E-01
        1   -1    0    0  501    0  0.00000000000E+00  0.00000000000E+00  0.12742834909E+04  0.12742834909E+04  0.50400001928E-02 0.  1.
       -1   -1    0    0    0  501  0.00000000000E+00  0.00000000000E+00 -0.29842125693E+04  0.29842125693E+04  0.50400001928E-02 0. -1.
    10030    2    1    2    0    0  0.00000000000E+00  0.00000000000E+00 -0.17099290783E+04  0.42584960602E+04  0.39001193882E+04 0.  0.
        3    1    3    3  502    0 -0.73884161960E+03 -0.63949682041E+03  0.98767306098E+03  0.13893671969E+04  0.10100000352E+00 0.  1.
       -3    1    3    3    0  502  0.73884161960E+03  0.63949682041E+03 -0.26976021393E+04  0.28691288633E+04  0.10100000352E+00 0. -1.
</event>
<event>
 5   0  0.4750125E-08  0.3899332E+04  0.7818609E-02  0.8025168E-01
       -1   -1    0    0    0  501  0.00000000000E+00  0.00000000000E+00  0.26089417749E+04  0.26089417749E+04  0.50400001928E-02 0.  1.
        1   -1    0    0  501    0  0.00000000000E+00  0.00000000000E+00 -0.14569885438E+04  0.14569885438E+04  0.50400001928E-02 0. -1.
    10030    2    1    2    0    0  0.00000000000E+00  0.00000000000E+00  0.11519532311E+04  0.40659303186E+04  0.38993323928E+04 0.  0.
        5    1    3    3  502    0  0.12995669164E+04  0.14492133161E+04  0.69059469695E+03  0.20654385809E+04  0.46999998093E+01 0. -1.
       -5    1    3    3    0  502 -0.12995669164E+04 -0.14492133161E+04  0.46135853415E+03  0.20004917378E+04  0.46999998093E+01 0.  1.
</event>
<event>
 5   0  0.1546846E-07  0.3877804E+04  0.7818609E-02  0.8029661E-01
        2   -1    0    0  501    0  0.00000000000E+00  0.00000000000E+00  0.26565104073E+04  0.26565104073E+04  0.25500000920E-02 0.  1.
       -2   -1    0    0    0  501  0.00000000000E+00  0.00000000000E+00 -0.14151425950E+04  0.14151425950E+04  0.25500000920E-02 0. -1.
    10030    2    1    2    0    0  0.00000000000E+00  0.00000000000E+00  0.12413678124E+04  0.40716530023E+04  0.38778040339E+04 0.  0.
        2    1    3    3  502    0  0.13222281386E+04  0.12391008832E+04  0.13448590546E+04  0.22566134197E+04  0.25500000920E-02 0. -1.
       -2    1    3    3    0  502 -0.13222281386E+04 -0.12391008832E+04 -0.10349124216E+03  0.18150395826E+04  0.25500000920E-02 0.  1.
</event>
<event>
 5   0  0.1520986E-07  0.3954194E+04  0.7818609E-02  0.8013851E-01
       -2   -1    0    0    0  501  0.00000000000E+00  0.00000000000E+00  0.17278501044E+04  0.17278501044E+04  0.25500000920E-02 0.  1.
        2   -1    0    0  501    0  0.00000000000E+00  0.00000000000E+00 -0.22622983721E+04  0.22622983721E+04  0.25500000920E-02 0. -1.
    10030    2    1    2    0    0  0.00000000000E+00  0.00000000000E+00 -0.53444826771E+03  0.39901484766E+04  0.39541939652E+04 0.  0.
        4    1    3    3  502    0  0.12501652409E+04  0.14539707146E+04  0.21878462273E+03  0.19299772777E+04  0.12699999809E+01 0.  1.
       -4    1    3    3    0  502 -0.12501652409E+04 -0.14539707146E+04 -0.75323289044E+03  0.20601711989E+04  0.12699999809E+01 0. -1.
</event>
<event>
 5   0  0.4750125E-08  0.3910552E+04  0.7818609E-02  0.8022838E-01
       -1   -1    0    0    0  501  0.00000000000E+00  0.00000000000E+00  0.17054830934E+04  0.17054830934E+04  0.50400001928E-02 0. -1.
        1   -1    0    0  501    0  0.00000000000E+00  0.00000000000E+00 -0.22416550842E+04  0.22416550842E+04  0.50400001928E-02 0.  1.
    10030    2    1    2    0    0  0.00000000000E+00  0.00000000000E+00 -0.53617199083E+03  0.39471381776E+04  0.39105523125E+04 0.  0.
        3    1    3    3  502    0  0.18969017185E+03  0.12382985977E+03 -0.22283650713E+04  0.22398497933E+04  0.10100000352E+00 0.  1.
       -3    1    3    3    0  502 -0.18969017185E+03 -0.12382985977E+03  0.16921930804E+04  0.17072883843E+04  0.10100000352E+00 0. -1.
</event>
<event>
 5   0  0.1546846E-07  0.3895816E+04  0.7818609E-02  0.8025900E-01
       -2   -1    0    0    0  501  0.00000000000E+00  0.00000000000E+00  0.12945599221E+04  0.12945599221E+04  0.25500000920E-02 0.  1.
        2   -1    0    0  501    0  0.00000000000E+00  0.00000000000E+00 -0.29309929314E+04  0.29309929314E+04  0.25500000920E-02 0. -1.
    10030    2    1    2    0    0  0.00000000000E+00  0.00000000000E+00 -0.16364330093E+04  0.42255528535E+04  0.38958162077E+04 0.  0.
        2    1    3    3  502    0 -0.17682747770E+04 -0.74683123708E+03 -0.11776124640E+04  0.22519599683E+04  0.25500000920E-02 0. -1.
       -2    1    3    3    0  502  0.17682747770E+04  0.74683123708E+03 -0.45882054531E+03  0.19735928852E+04  0.25500000920E-02 0.  1.
</event>
<event>
 5   0  0.1520986E-07  0.3888551E+04  0.7818609E-02  0.8027415E-01
       -2   -1    0    0    0  501  0.00000000000E+00  0.00000000000E+00  0.15823541547E+04  0.15823541547E+04  0.25500000920E-02 0.  1.
        2   -1    0    0  501    0  0.00000000000E+00  0.00000000000E+00 -0.23889770914E+04  0.23889770914E+04  0.25500000920E-02 0. -1.
    10030    2    1    2    0    0  0.00000000000E+00  0.00000000000E+00 -0.80662293671E+03  0.39713312461E+04  0.38885513118E+04 0.  0.
        4    1    3    3  502    0 -0.11635553119E+04  0.15278246297E+04 -0.93375931749E+02  0.19227141599E+04  0.12699999809E+01 0.  1.
       -4    1    3    3    0  502  0.11635553119E+04 -0.15278246297E+04 -0.71324700496E+03  0.20486170862E+04  0.12699999809E+01 0. -1.
</event>
<event>
 5   0  0.1503228E-07  0.3905207E+04  0.7818609E-02  0.8023947E-01
        2   -1    0    0  501    0  0.00000000000E+00  0.00000000000E+00  0.27298592540E+04  0.27298592540E+04  0.25500000920E-02 0. -1.
       -2   -1    0    0    0  501  0.00000000000E+00  0.00000000000E+00 -0.13966511266E+04  0.13966511266E+04  0.25500000920E-02 0.  1.
    10030    2    1    2    0    0  0.00000000000E+00  0.00000000000E+00  0.13332081274E+04  0.41265103807E+04  0.39052072942E+04 0.  0.
        3    1    3    3  502    0 -0.17126310757E+04  0.93241038484E+03  0.56006028170E+03  0.20288326340E+04  0.10100000352E+00 0.  1.
       -3    1    3    3    0  502  0.17126310757E+04 -0.93241038484E+03  0.77314784573E+03  0.20976777467E+04  0.10100000352E+00 0. -1.
</event>
<event>
 5   0  0.4750125E-08  0.3777305E+04  0.7818609E-02  0.8051043E-01
       -1   -1    0    0    0  501  0.00000000000E+00  0.00000000000E+00  0.15707820185E+04  0.15707820186E+04  0.50400001928E-02 0.  1.
        1   -1    0    0  501    0  0.00000000000E+00  0.00000000000E+00 -0.22708491275E+04  0.22708491275E+04  0.50400001928E-02 0. -1.
    10030    2    1    2    0    0  0.00000000000E+00  0.00000000000E+00 -0.70006710893E+03  0.38416311460E+04  0.37773053762E+04 0.  0.
        5    1    3    3  502    0 -0.17666994339E+04 -0.50115611697E+03 -0.79868371000E+03  0.20025738693E+04  0.46999998093E+01 0. -1.
       -5    1    3    3    0  502  0.17666994339E+04  0.50115611697E+03  0.98616601065E+02  0.18390572768E+04  0.46999998093E+01 0.  1.
</event>
<event>
 5   0  0.1546846E-07  0.3912480E+04  0.7818609E-02  0.8022439E-01
        2   -1    0    0  501    0  0.00000000000E+00  0.00000000000E+00  0.24145749465E+04  0.24145749465E+04  0.25500000920E-02 0.  1.
       -2   -1    0    0    0  501  0.00000000000E+00  0.00000000000E+00 -0.15849061326E+04  0.15849061326E+04  0.25500000920E-02 0. -1.
    10030    2    1    2    0    0  0.00000000000E+00  0.00000000000E+00  0.82966881385E+03  0.39994810791E+04  0.39124798481E+04 0.  0.
        2    1    3    3  502    0 -0.33550168446E+03  0.16622586317E+04 -0.58215288537E+03  0.17929213928E+04  0.25500000920E-02 0. -1.
       -2    1    3    3    0  502  0.33550168446E+03 -0.16622586317E+04  0.14118216992E+04  0.22065596863E+04  0.25500000920E-02 0.  1.
</event>
<event>
 5   0  0.4750125E-08  0.3899775E+04  0.7818609E-02  0.8025076E-01
       -1   -1    0    0    0  501  0.00000000000E+00  0.00000000000E+00  0.26013183681E+04  0.26013183681E+04  0.50400001928E-02 0.  1.
        1   -1    0    0  501    0  0.00000000000E+00  0.00000000000E+00 -0.14615902627E+04  0.14615902627E+04  0.50400001928E-02 0. -1.
    10030    2    1    2    0    0  0.00000000000E+00  0.00000000000E+00  0.11397281055E+04  0.40629086308E+04  0.38997751715E+04 0.  0.
        4    1    3    3  502    0  0.13624748808E+04  0.12598910447E+04 -0.53841356039E+02  0.18564923243E+04  0.12699999809E+01 0.  1.
       -4    1    3    3    0  502 -0.13624748808E+04 -0.12598910447E+04  0.11935694615E+04  0.22064163066E+04  0.12699999809E+01 0. -1.
</event>
<event>
 5   0  0.1546846E-07  0.3930402E+04  0.7818609E-02  0.8018736E-01
       -2   -1    0    0    0  501  0.00000000000E+00  0.00000000000E+00  0.16201248161E+04  0.16201248161E+04  0.25500000920E-02 0. -1.
        2   -1    0    0  501    0  0.00000000000E+00  0.00000000000E+00 -0.23837758957E+04  0.23837758957E+04  0.25500000920E-02 0.  1.
    10030    2    1    2    0    0  0.00000000000E+00  0.00000000000E+00 -0.76365107964E+03  0.40039007119E+04  0.39304017529E+04 0.  0.
        2    1    3    3  502    0  0.11512145760E+04  0.12690484521E+04 -0.13622340406E+04  0.21889405098E+04  0.25500000920E-02 0.  1.
       -2    1    3    3    0  502 -0.11512145760E+04 -0.12690484521E+04  0.59858296100E+03  0.18149602021E+04  0.25500000920E-02 0. -1.
</event>
<event>
 5   0  0.4750125E-08  0.3844003E+04  0.7818609E-02  0.8036777E-01
        1   -1    0    0  501    0  0.00000000000E+00  0.00000000000E+00  0.26967069679E+04  0.26967069679E+04  0.50400001928E-02 0.  1.
       -1   -1    0    0    0  501  0.00000000000E+00  0.00000000000E+00 -0.13698519163E+04  0.13698519163E+04  0.50400001928E-02 0. -1.
    10030    2    1    2    0    0  0.00000000000E+00  0.00000000000E+00  0.13268550515E+04  0.40665588842E+04  0.38440027095E+04 0.  0.
        5    1    3    3  502    0  0.57408893430E+03 -0.13547243558E+04 -0.64478130785E+03  0.16064312029E+04  0.46999998093E+01 0. -1.
       -5    1    3    3    0  502 -0.57408893430E+03  0.13547243558E+04  0.19716363594E+04  0.24601276813E+04  0.46999998093E+01 0.  1.
</event>
<event>
 5   0  0.4750125E-08  0.3743275E+04  0.7818609E-02  0.8058439E-01
        1   -1    0    0  501    0  0.00000000000E+00  0.00000000000E+00  0.12044082850E+04  0.12044082850E+04  0.50400001928E-02 0.  1.
       -1   -1    0    0    0  501  0.00000000000E+00  0.00000000000E+00 -0.29085039297E+04  0.29085039297E+04  0.50400001928E-02 0. -1.
    10030    2    1    2    0    0  0.00000000000E+00  0.00000000000E+00 -0.17040956447E+04  0.41129122148E+04  0.37432746253E+04 0.  0.
        5    1    3    3  502    0 -0.14721321348E+04 -0.36744597368E+03  0.35197778855E+03  0.15575943052E+04  0.46999998093E+01 0.  1.
       -5    1    3    3    0  502  0.14721321348E+04  0.36744597368E+03 -0.20560734333E+04  0.25553179096E+04  0.46999998093E+01 0. -1.
</event>
<event>
 5   0  0.4750125E-08  0.3878773E+04  0.7818609E-02  0.8029459E-01
       -1   -1    0    0    0  501  0.00000000000E+00  0.00000000000E+00  0.18056528312E+04  0.18056528312E+04  0.50400001928E-02 0.  1.
        1   -1    0    0  501    0  0.00000000000E+00  0.00000000000E+00 -0.20830245086E+04  0.20830245086E+04  0.50400001928E-02 0. -1.
    10030    2    1    2    0    0  0.00000000000E+00  0.00000000000E+00 -0.27737167739E+03  0.38886773398E+04  0.38787725385E+04 0.  0.
        3    1    3    3  502    0  0.78505159072E+03  0.69838208010E+03  0.14955612574E+04  0.18277710510E+04  0.10100000352E+00 0.  1.
       -3    1    3    3    0  502 -0.78505159072E+03 -0.69838208010E+03 -0.17729329348E+04  0.20609062888E+04  0.10100000352E+00 0. -1.
</event>
<event>
 5   0  0.4762788E-08  0.3888287E+04  0.7818609E-02  0.8027470E-01
        1   -1    0    0  501    0  0.00000000000E+00  0.00000000000E+00  0.14554500273E+04  0.14554500273E+04  0.50400001928E-02 0. -1.
       -1   -1    0    0    0  501  0.00000000000E+00  0.00000000000E+00 -0.25969247321E+04  0.25969247321E+04  0.50400001928E-02 0.  1.
    10030    2    1    2    0    0  0.00000000000E+00  0.00000000000E+00 -0.11414747048E+04  0.40523747594E+04  0.38882871151E+04 0.  0.
        2    1    3    3  502    0 -0.17106557848E+04  0.63345180189E+03 -0.12714881760E+04  0.22235751799E+04  0.25500000920E-02 0.  1.
       -2    1    3    3    0  502  0.17106557848E+04 -0.63345180189E+03  0.13001347121E+03  0.18287995795E+04  0.25500000920E-02 0. -1.
</event>
<event>
 5   0  0.1501585E-07  0.3888679E+04  0.7818609E-02  0.8027388E-01
        2   -1    0    0  501    0  0.00000000000E+00  0.00000000000E+00  0.16551945067E+04  0.16551945067E+04  0.25500000920E-02 0.  1.
       -2   -1    0    0    0  501  0.00000000000E+00  0.00000000000E+00 -0.22839944851E+04  0.22839944851E+04  0.25500000920E-02 0. -1.
    10030    2    1    2    0    0  0.00000000000E+00  0.00000000000E+00 -0.62879997835E+03  0.39391889918E+04  0.38886785030E+04 0.  0.
        5    1    3    3  502    0 -0.24168754922E+03 -0.15824515838E+04 -0.14323045711E+04  0.21480419830E+04  0.46999998093E+01 0. -1.
       -5    1    3    3    0  502  0.24168754922E+03  0.15824515838E+04  0.80350459274E+03  0.17911470088E+04  0.46999998093E+01 0.  1.
</event>
<event>
 5   0  0.4750125E-08  0.3973854E+04  0.7818609E-02  0.8009842E-01
       -1   -1    0    0    0  501  0.00000000000E+00  0.00000000000E+00  0.17058467313E+04  0.17058467314E+04  0.50400001928E-02 0. -1.
        1   -1    0    0  501    0  0.00000000000E+00  0.00000000000E+00 -0.23143225183E+04  0.23143225183E+04  0.50400001928E-02 0.  1.
    10030    2    1    2    0    0  0.00000000000E+00  0.00000000000E+00 -0.60847578696E+03  0.40201692497E+04  0.39738543019E+04 0.  0.
        4    1    3    3  502    0  0.90188475728E+03 -0.14542875071E+04 -0.13257236647E+04  0.21646923838E+04  0.12699999809E+01 0.  1.
       -4    1    3    3    0  502 -0.90188475728E+03  0.14542875071E+04  0.71724787770E+03  0.18554768658E+04  0.12699999809E+01 0. -1.
</event>
<event>
 5   0  0.4750125E-08  0.3847346E+04  0.7818609E-02  0.8036070E-01
        1   -1    0    0  501    0  0.00000000000E+00  0.00000000000E+00  0.12571877149E+04  0.12571877149E+04  0.50400001928E-02 0. -1.
       -1   -1    0    0    0  501  0.00000000000E+00  0.00000000000E+00 -0.29434880191E+04  0.29434880191E+04  0.50400001928E-02 0.  1.
    10030    2    1    2    0    0  0.00000000000E+00  0.00000000000E+00 -0.16863003042E+04  0.42006757340E+04  0.38473455662E+04 0.  0.
        5    1    3    3  502    0  0.29808132925E+03 -0.98103369094E+03  0.93396917286E+03  0.13869391073E+04  0.46999998093E+01 0. -1.
       -5    1    3    3    0  502 -0.29808132925E+03  0.98103369094E+03 -0.26202694771E+04  0.28137366266E+04  0.46999998093E+01 0.  1.
</event>
<event>
 5   0  0.1546846E-07  0.3922421E+04  0.7818609E-02  0.8020382E-01
       -2   -1    0    0    0  501  0.00000000000E+00  0.00000000000E+00  0.19122213022E+04  0.19122213022E+04  0.25500000920E-02 0.  1.
        2   -1    0    0  501    0  0.00000000000E+00  0.00000000000E+00 -0.20114548156E+04  0.20114548156E+04  0.25500000920E-02 0. -1.
    10030    2    1    2    0    0  0.00000000000E+00  0.00000000000E+00 -0.99233513385E+02  0.39236761177E+04  0.39224210619E+04 0.  0.
        2    1    3    3  502    0  0.93548461669E+03 -0.89817733239E+03  0.14220755087E+04  0.19246175570E+04  0.25500000920E-02 0.  1.
       -2    1    3    3    0  502 -0.93548461669E+03  0.89817733239E+03 -0.15213090221E+04  0.19990585607E+04  0.25500000920E-02 0. -1.
</event>
<event>
 5   0  0.4762788E-08  0.3747981E+04  0.7818609E-02  0.8057411E-01
       -1   -1    0    0    0  501  0.00000000000E+00  0.00000000000E+00  0.13103981692E+04  0.13103981692E+04  0.50400001928E-02 0.  1.
        1   -1    0    0  501    0  0.00000000000E+00  0.00000000000E+00 -0.26799797201E+04  0.26799797201E+04  0.50400001928E-02 0. -1.
    10030    2    1    2    0    0  0.00000000000E+00  0.00000000000E+00 -0.13695815509E+04  0.39903778894E+04  0.37479810666E+04 0.  0.
        2    1    3    3  502    0  0.43447678826E+03  0.81310935700E+03 -0.24218492223E+04  0.25913839086E+04  0.25500000920E-02 0. -1.
       -2    1    3    3    0  502 -0.43447678826E+03 -0.81310935700E+03  0.10522676714E+04  0.13989939808E+04  0.25500000920E-02 0.  1.
</event>
<event>
 5   0  0.1501585E-07  0.3896623E+04  0.7818609E-02  0.8025732E-01
        2   -1    0    0  501    0  0.00000000000E+00  0.00000000000E+00  0.15232240788E+04  0.15232240788E+04  0.25500000920E-02 0.  1.
       -2   -1    0    0    0  501  0.00000000000E+00  0.00000000000E+00 -0.24920280245E+04  0.24920280245E+04  0.25500000920E-02 0. -1.
    10030    2    1    2    0    0  0.00000000000E+00  0.00000000000E+00 -0.96880394570E+03  0.40152521033E+04  0.38966226874E+04 0.  0.
        5    1    3    3  502    0  0.34635974019E+03 -0.55183284192E+03  0.14076378699E+04  0.15511128321E+04  0.46999998093E+01 0.  1.
       -5    1    3    3    0  502 -0.34635974019E+03  0.55183284192E+03 -0.23764418156E+04  0.24641392712E+04  0.46999998093E+01 0. -1.
</event>
<event>
 5   0  0.4750125E-08  0.3893457E+04  0.7818609E-02  0.8026391E-01
       -1   -1    0    0    0  501  0.00000000000E+00  0.00000000000E+00  0.22608573802E+04  0.22608573802E+04  0.50400001928E-02 0.  1.
        1   -1    0    0  501    0  0.00000000000E+00  0.00000000000E+00 -0.16762457719E+04  0.16762457719E+04  0.50400001928E-02 0. -1.
    10030    2    1    2    0    0  0.00000000000E+00  0.00000000000E+00  0.58461160824E+03  0.39371031521E+04  0.38934573964E+04 0.  0.
        1    1    3    3  502    0  0.15134449348E+04 -0.41875410635E+03 -0.87119319444E+03  0.17957862218E+04  0.50400001928E-02 0. -1.
       -1    1    3    3    0  502 -0.15134449348E+04  0.41875410635E+03  0.14558048027E+04  0.21413169303E+04  0.50400001928E-02 0.  1.
</event>
<event>
 5   0  0.1503228E-07  0.3904378E+04  0.7818609E-02  0.8024119E-01
        2   -1    0    0  501    0  0.00000000000E+00  0.00000000000E+00  0.16765929062E+04  0.16765929062E+04  0.25500000920E-02 0. -1.
       -2   -1    0    0    0  501  0.00000000000E+00  0.00000000000E+00 -0.22730874592E+04  0.22730874592E+04  0.25500000920E-02 0.  1.
    10030    2    1    2    0    0  0.00000000000E+00  0.00000000000E+00 -0.59649455296E+03  0.39496803654E+04  0.39043782139E+04 0.  0.
        3    1    3    3  502    0  0.16987085419E+04  0.64760089636E+03 -0.10178693839E+04  0.20835200321E+04  0.10100000352E+00 0.  1.
       -3    1    3    3    0  502 -0.16987085419E+04 -0.64760089636E+03  0.42137483095E+03  0.18661603333E+04  0.10100000352E+00 0. -1.
</event>
<event>
 5   0  0.1501585E-07  0.3898447E+04  0.7818609E-02  0.8025352E-01
       -2   -1    0    0    0  501  0.00000000000E+00  0.00000000000E+00  0.13737783551E+04  0.13737783551E+04  0.25500000920E-02 0. -1.
        2   -1    0    0  501    0  0.00000000000E+00  0.00000000000E+00 -0.27657099537E+04  0.27657099537E+04  0.25500000920E-02 0.  1.
    10030    2    1    2    0    0  0.00000000000E+00  0.00000000000E+00 -0.13919315986E+04  0.41394883089E+04  0.38984471119E+04 0.  0.
        5    1    3    3  502    0 -0.10686434051E+04 -0.42678184232E+03  0.97462358126E+03  0.15079969109E+04  0.46999998093E+01 0. -1.
       -5    1    3    3    0  502  0.10686434051E+04  0.42678184232E+03 -0.23665551799E+04  0.26314913980E+04  0.46999998093E+01 0.  1.
</event>
<event>
 5   0  0.4750125E-08  0.3739785E+04  0.7818609E-02  0.8059202E-01
        1   -1    0    0  501    0  0.00000000000E+00  0.00000000000E+00  0.19635912943E+04  0.19635912944E+04  0.50400001928E-02 0. -1.
       -1   -1    0    0    0  501  0.00000000000E+00  0.00000000000E+00 -0.17806644515E+04  0.17806644515E+04  0.50400001928E-02 0.  1.
    10030    2    1    2    0    0  0.00000000000E+00  0.00000000000E+00  0.18292684288E+03  0.37442557458E+04  0.37397846008E+04 0.  0.
        1    1    3    3  502    0 -0.12855174191E+04  0.45367956228E+03  0.13728830709E+04  0.19347320503E+04  0.50400001928E-02 0. -1.
       -1    1    3    3    0  502  0.12855174191E+04 -0.45367956228E+03 -0.11899562280E+04  0.18095236955E+04  0.50400001928E-02 0.  1.
</event>
<event>
 5   0  0.1546846E-07  0.3904267E+04  0.7818609E-02  0.8024142E-01
        2   -1    0    0  501    0  0.00000000000E+00  0.00000000000E+00  0.30165007694E+04  0.30165007694E+04  0.25500000920E-02 0.  1.
       -2   -1    0    0    0  501  0.00000000000E+00  0.00000000000E+00 -0.12633261381E+04  0.12633261381E+04  0.25500000920E-02 0. -1.
    10030    2    1    2    0    0  0.00000000000E+00  0.00000000000E+00  0.17531746313E+04  0.42798269075E+04  0.39042665215E+04 0.  0.
        2    1    3    3  502    0  0.20848621966E+02  0.16440170851E+04 -0.27707237141E+03  0.16673319826E+04  0.25500000920E-02 0. -1.
       -2    1    3    3    0  502 -0.20848621966E+02 -0.16440170851E+04  0.20302470027E+04  0.26124949250E+04  0.25500000920E-02 0.  1.
</event>
<event>
 5   0  0.1501585E-07  0.3887818E+04  0.7818609E-02  0.8027568E-01
       -2   -1    0    0    0  501  0.00000000000E+00  0.00000000000E+00  0.14242330943E+04  0.14242330943E+04  0.25500000920E-02 0.  1.
        2   -1    0    0  501    0  0.00000000000E+00  0.00000000000E+00 -0.26532047158E+04  0.26532047158E+04  0.25500000920E-02 0. -1.
    10030    2    1    2    0    0  0.00000000000E+00  0.00000000000E+00 -0.12289716215E+04  0.40774378101E+04  0.38878178776E+04 0.  0.
        5    1    3    3  502    0 -0.18226229359E+04  0.57305639984E+03 -0.23866223877E+03  0.19254427434E+04  0.46999998093E+01 0.  1.
       -5    1    3    3    0  502  0.18226229359E+04 -0.57305639984E+03 -0.99030938269E+03  0.21519950667E+04  0.46999998093E+01 0. -1.
</event>
<event>
 5   0  0.4750125E-08  0.3898599E+04  0.7818609E-02  0.8025321E-01
       -1   -1    0    0    0  501  0.00000000000E+00  0.00000000000E+00  0.17092507919E+04  0.17092507919E+04  0.50400001928E-02 0.  1.
        1   -1    0    0  501    0  0.00000000000E+00  0.00000000000E+00 -0.22230613149E+04  0.22230613150E+04  0.50400001928E-02 0. -1.
    10030    2    1    2    0    0  0.00000000000E+00  0.00000000000E+00 -0.51381052309E+03  0.39323121068E+04  0.38985993962E+04 0.  0.
        4    1    3    3  502    0 -0.46493839446E+03 -0.98026739054E+03  0.13765666704E+04  0.17527205363E+04  0.12699999809E+01 0.  1.
       -4    1    3    3    0  502  0.46493839446E+03  0.98026739054E+03 -0.18903771935E+04  0.21795915705E+04  0.12699999809E+01 0. -1.
</event>
<event>
 5   0  0.1501585E-07  0.3870696E+04  0.7818609E-02  0.8031152E-01
       -2   -1    0    0    0  501  0.00000000000E+00  0.00000000000E+00  0.14835389836E+04  0.14835389836E+04  0.25500000920E-02 0.  1.
        2   -1    0    0  501    0  0.00000000000E+00  0.00000000000E+00 -0.25247546717E+04  0.25247546717E+04  0.25500000920E-02 0. -1.
    10030    2    1    2    0    0  0.00000000000E+00  0.00000000000E+00 -0.10412156881E+04  0.40082936552E+04  0.38706960508E+04 0.  0.
        5    1    3    3  502    0 -0.15032676492E+03  0.11082581442E+04 -0.21562224747E+04  0.24290227872E+04  0.46999998093E+01 0. -1.
       -5    1    3    3    0  502  0.15032676492E+03 -0.11082581442E+04  0.11150067866E+04  0.15792708680E+04  0.46999998093E+01 0.  1.
</event>
<event>
 5   0  0.4750125E-08  0.3859414E+04  0.7818609E-02  0.8033524E-01
        1   -1    0    0  501    0  0.00000000000E+00  0.00000000000E+00  0.25627191144E+04  0.25627191144E+04  0.50400001928E-02 0. -1.
       -1   -1    0    0    0  501  0.00000000000E+00  0.00000000000E+00 -0.14530538844E+04  0.14530538844E+04  0.50400001928E-02 0.  1.
    10030    2    1    2    0    0  0.00000000000E+00  0.00000000000E+00  0.11096652300E+04  0.40157729988E+04  0.38594139264E+04 0.  0.
        4    1    3    3  502    0  0.17390584598E+04 -0.67917998866E+03  0.10626177561E+04  0.21482010828E+04  0.12699999809E+01 0. -1.
       -4    1    3    3    0  502 -0.17390584598E+04  0.67917998866E+03  0.47047473870E+02  0.18675719160E+04  0.12699999809E+01 0.  1.
</event>
<event>
 5   0  0.4750125E-08  0.3905806E+04  0.7818609E-02  0.8023823E-01
        1   -1    0    0  501    0  0.00000000000E+00  0.00000000000E+00  0.18951472906E+04  0.18951472906E+04  0.50400001928E-02 0. -1.
       -1   -1    0    0    0  501  0.00000000000E+00  0.00000000000E+00 -0.20124183634E+04  0.20124183634E+04  0.50400001928E-02 0.  1.
    10030    2    1    2    0    0  0.00000000000E+00  0.00000000000E+00 -0.11727107277E+03  0.39075656540E+04  0.39058055297E+04 0.  0.
        5    1    3    3  502    0 -0.73279924870E+03 -0.13530951232E+04 -0.12616523578E+04  0.19898869096E+04  0.46999998093E+01 0.  1.
       -5    1    3    3    0  502  0.73279924870E+03  0.13530951232E+04  0.11443812850E+04  0.19176787444E+04  0.46999998093E+01 0. -1.
</event>
<event>
 5   0  0.4750125E-08  0.3924328E+04  0.7818609E-02  0.8019988E-01
        1   -1    0    0  501    0  0.00000000000E+00  0.00000000000E+00  0.20248532686E+04  0.20248532686E+04  0.50400001928E-02 0. -1.
       -1   -1    0    0    0  501  0.00000000000E+00  0.00000000000E+00 -0.19014156718E+04  0.19014156718E+04  0.50400001928E-02 0.  1.
    10030    2    1    2    0    0  0.00000000000E+00  0.00000000000E+00  0.12343759684E+03  0.39262689404E+04  0.39243280892E+04 0.  0.
        5    1    3    3  502    0  0.18122572506E+02 -0.34099842589E+03  0.19948900562E+04  0.20239112580E+04  0.46999998093E+01 0. -1.
       -5    1    3    3    0  502 -0.18122572506E+02  0.34099842589E+03 -0.18714524593E+04  0.19023576824E+04  0.46999998093E+01 0.  1.
</event>
<event>
 5   0  0.1503228E-07  0.3903829E+04  0.7818609E-02  0.8024233E-01
        2   -1    0    0  501    0  0.00000000000E+00  0.00000000000E+00  0.15056292998E+04  0.15056292998E+04  0.25500000920E-02 0.  1.
       -2   -1    0    0    0  501  0.00000000000E+00  0.00000000000E+00 -0.25304830852E+04  0.25304830852E+04  0.25500000920E-02 0. -1.
    10030    2    1    2    0    0  0.00000000000E+00  0.00000000000E+00 -0.10248537855E+04  0.40361123850E+04  0.39038286211E+04 0.  0.
        3    1    3    3  502    0 -0.24147546566E+03  0.18939057079E+04 -0.92740329430E+02  0.19114889510E+04  0.10100000352E+00 0.  1.
       -3    1    3    3    0  502  0.24147546566E+03 -0.18939057079E+04 -0.93211345604E+03  0.21246234340E+04  0.10100000352E+00 0. -1.
</event>
<event>
 5   0  0.4750125E-08  0.3897041E+04  0.7818609E-02  0.8025645E-01
        1   -1    0    0  501    0  0.00000000000E+00  0.00000000000E+00  0.29819069913E+04  0.29819069913E+04  0.50400001928E-02 0. -1.
       -1   -1    0    0    0  501  0.00000000000E+00  0.00000000000E+00 -0.12732562377E+04  0.12732562377E+04  0.50400001928E-02 0.  1.
    10030    2    1    2    0    0  0.00000000000E+00  0.00000000000E+00  0.17086507536E+04  0.42551632291E+04  0.38970407630E+04 0.  0.
        5    1    3    3  502    0 -0.50229256750E+03 -0.74172251191E+02 -0.11997484539E+04  0.13027731149E+04  0.46999998093E+01 0.  1.
       -5    1    3    3    0  502  0.50229256750E+03  0.74172251191E+02  0.29083992075E+04  0.29523901142E+04  0.46999998093E+01 0. -1.
</event>
<event>
 5   0  0.4750125E-08  0.3897238E+04  0.7818609E-02  0.8025604E-01
        1   -1    0    0  501    0  0.00000000000E+00  0.00000000000E+00  0.13803126180E+04  0.13803126180E+04  0.50400001928E-02 0.  1.
       -1   -1    0    0    0  501  0.00000000000E+00  0.00000000000E+00 -0.27509096863E+04  0.27509096863E+04  0.50400001928E-02 0. -1.
    10030    2    1    2    0    0  0.00000000000E+00  0.00000000000E+00 -0.13705970684E+04  0.41312223043E+04  0.38972376632E+04 0.  0.
        5    1    3    3  502    0  0.28176097213E+03  0.15771243692E+04  0.49052402801E+03  0.16755137819E+04  0.46999998093E+01 0. -1.
       -5    1    3    3    0  502 -0.28176097213E+03 -0.15771243692E+04 -0.18611210964E+04  0.24557085224E+04  0.46999998093E+01 0.  1.
</event>
<event>
 5   0  0.1503228E-07  0.3769456E+04  0.7818609E-02  0.8052742E-01
       -2   -1    0    0    0  501  0.00000000000E+00  0.00000000000E+00  0.17598135451E+04  0.17598135451E+04  0.25500000920E-02 0. -1.
        2   -1    0    0  501    0  0.00000000000E+00  0.00000000000E+00 -0.20185087335E+04  0.20185087335E+04  0.25500000920E-02 0.  1.
    10030    2    1    2    0    0  0.00000000000E+00  0.00000000000E+00 -0.25869518839E+03  0.37783222785E+04  0.37694556689E+04 0.  0.
        3    1    3    3  502    0 -0.14198222289E+04 -0.11784319177E+04  0.25574623398E+03  0.18627944312E+04  0.10100000352E+00 0.  1.
       -3    1    3    3    0  502  0.14198222289E+04  0.11784319177E+04 -0.51444142237E+03  0.19155278473E+04  0.10100000352E+00 0. -1.
</event>
<event>
 5   0  0.1538018E-07  0.4140071E+04  0.7818609E-02  0.7976871E-01
        2   -1    0    0  501    0  0.00000000000E+00  0.00000000000E+00  0.22175807504E+04  0.22175807504E+04  0.25500000920E-02 0.  1.
       -2   -1    0    0    0  501  0.00000000000E+00  0.00000000000E+00 -0.19323066636E+04  0.19323066636E+04  0.25500000920E-02 0. -1.
    10030    2    1    2    0    0  0.00000000000E+00  0.00000000000E+00  0.28527408685E+03  0.41498874140E+04  0.41400705602E+04 0.  0.
        1    1    3    3  502    0  0.43047964873E+03 -0.15835625170E+04  0.14073987508E+04  0.21618867262E+04  0.50400001928E-02 0.  1.
       -1    1    3    3    0  502 -0.43047964873E+03  0.15835625170E+04 -0.11221246639E+04  0.19880006878E+04  0.50400001928E-02 0. -1.
</event>
<event>
 5   0  0.1520986E-07  0.3880821E+04  0.7818609E-02  0.8029030E-01
       -2   -1    0    0    0  501  0.00000000000E+00  0.00000000000E+00  0.27754005861E+04  0.27754005861E+04  0.25500000920E-02 0. -1.
        2   -1    0    0  501    0  0.00000000000E+00  0.00000000000E+00 -0.13566302730E+04  0.13566302730E+04  0.25500000920E-02 0.  1.
    10030    2    1    2    0    0  0.00000000000E+00  0.00000000000E+00  0.14187703131E+04  0.41320308592E+04  0.38808207663E+04 0.  0.
        4    1    3    3  502    0  0.10561138042E+04  0.22613520049E+03 -0.10070055366E+04  0.14766771008E+04  0.12699999809E+01 0.  1.
       -4    1    3    3    0  502 -0.10561138042E+04 -0.22613520049E+03  0.24257758497E+04  0.26553537584E+04  0.12699999809E+01 0. -1.
</event>
<event>
 5   0  0.4762788E-08  0.3899764E+04  0.7818609E-02  0.8025078E-01
        1   -1    0    0  501    0  0.00000000000E+00  0.00000000000E+00  0.14910771128E+04  0.14910771128E+04  0.50400001928E-02 0. -1.
       -1   -1    0    0    0  501  0.00000000000E+00  0.00000000000E+00 -0.25498617900E+04  0.25498617900E+04  0.50400001928E-02 0.  1.
    10030    2    1    2    0    0  0.00000000000E+00  0.00000000000E+00 -0.10587846772E+04  0.40409389027E+04  0.38997643804E+04 0.  0.
        2    1    3    3  502    0 -0.15237415224E+04 -0.12016603302E+04 -0.72671930347E+03  0.20721719819E+04  0.25500000920E-02 0.  1.
       -2    1    3    3    0  502  0.15237415224E+04  0.12016603302E+04 -0.33206537376E+03  0.19687669209E+04  0.25500000920E-02 0. -1.
</event>
<event>
 5   0  0.1501585E-07  0.3877903E+04  0.7818609E-02  0.8029641E-01
        2   -1    0    0  501    0  0.00000000000E+00  0.00000000000E+00  0.16422895738E+04  0.16422895738E+04  0.25500000920E-02 0. -1.
       -2   -1    0    0    0  501  0.00000000000E+00  0.00000000000E+00 -0.22892022450E+04  0.22892022450E+04  0.25500000920E-02 0.  1.
    10030    2    1    2    0    0  0.00000000000E+00  0.00000000000E+00 -0.64691267122E+03  0.39314918187E+04  0.38779030308E+04 0.  0.
        5    1    3    3  502    0 -0.72702499651E+03 -0.14143999805E+04 -0.14480271578E+04  0.21507899456E+04  0.46999998093E+01 0.  1.
       -5    1    3    3    0  502  0.72702499651E+03  0.14143999805E+04  0.80111448662E+03  0.17807018731E+04  0.46999998093E+01 0. -1.
</event>
<event>
 5   0  0.4750125E-08  0.3862218E+04  0.7818609E-02  0.8032933E-01
       -1   -1    0    0    0  501  0.00000000000E+00  0.00000000000E+00  0.23120231027E+04  0.23120231027E+04  0.50400001928E-02 0. -1.
        1   -1    0    0  501    0  0.00000000000E+00  0.00000000000E+00 -0.16129517195E+04  0.16129517195E+04  0.50400001928E-02 0.  1.
    10030    2    1    2    0    0  0.00000000000E+00  0.00000000000E+00  0.69907138323E+03  0.39249748222E+04  0.38622178286E+04 0.  0.
        4    1    3    3  502    0  0.50058559044E+03  0.17176224806E+04  0.10882355187E+04  0.20940561302E+04  0.12699999809E+01 0. -1.
       -4    1    3    3    0  502 -0.50058559044E+03 -0.17176224806E+04 -0.38916413551E+03  0.18309186920E+04  0.12699999809E+01 0.  1.
</event>
<event>
 5   0  0.1538018E-07  0.3845665E+04  0.7818609E-02  0.8036426E-01
       -2   -1    0    0    0  501  0.00000000000E+00  0.00000000000E+00  0.14421926492E+04  0.14421926492E+04  0.25500000920E-02 0. -1.
        2   -1    0    0  501    0  0.00000000000E+00  0.00000000000E+00 -0.25636553006E+04  0.25636553006E+04  0.25500000920E-02 0.  1.
    10030    2    1    2    0    0  0.00000000000E+00  0.00000000000E+00 -0.11214626514E+04  0.40058479498E+04  0.38456650034E+04 0.  0.
        1    1    3    3  502    0 -0.10969353192E+04  0.10317136766E+04  0.68472340033E+03  0.16542509906E+04  0.50400001928E-02 0. -1.
       -1    1    3    3    0  502  0.10969353192E+04 -0.10317136766E+04 -0.18061860518E+04  0.23515969592E+04  0.50400001928E-02 0.  1.
</event>
<event>
 5   0  0.1501585E-07  0.3918206E+04  0.7818609E-02  0.8021253E-01
       -2   -1    0    0    0  501  0.00000000000E+00  0.00000000000E+00  0.11285286876E+04  0.11285286876E+04  0.25500000920E-02 0. -1.
        2   -1    0    0  501    0  0.00000000000E+00  0.00000000000E+00 -0.34009628596E+04  0.34009628596E+04  0.25500000920E-02 0.  1.
    10030    2    1    2    0    0  0.00000000000E+00  0.00000000000E+00 -0.22724341720E+04  0.45294915471E+04  0.39182057896E+04 0.  0.
        5    1    3    3  502    0  0.59761189312E+02  0.14411778802E+04 -0.26687489226E+04  0.30336130248E+04  0.46999998093E+01 0.  1.
       -5    1    3    3    0  502 -0.59761189312E+02 -0.14411778802E+04  0.39631475063E+03  0.14958785223E+04  0.46999998093E+01 0. -1.
</event>
<event>
 5   0  0.1546846E-07  0.3901366E+04  0.7818609E-02  0.8024745E-01
        2   -1    0    0  501    0  0.00000000000E+00  0.00000000000E+00  0.17866381068E+04  0.17866381068E+04  0.25500000920E-02 0.  1.
       -2   -1    0    0    0  501  0.00000000000E+00  0.00000000000E+00 -0.21297897806E+04  0.21297897806E+04  0.25500000920E-02 0. -1.
    10030    2    1    2    0    0  0.00000000000E+00  0.00000000000E+00 -0.34315167384E+03  0.39164278874E+04  0.39013657001E+04 0.  0.
        2    1    3    3  502    0  0.16516068672E+04  0.81363643767E+03 -0.81854371111E+03  0.20149003210E+04  0.25500000920E-02 0. -1.
       -2    1    3    3    0  502 -0.16516068672E+04 -0.81363643767E+03  0.47539203727E+03  0.19015275664E+04  0.25500000920E-02 0.  1.
</event>
<event>
 5   0  0.4750125E-08  0.3895307E+04  0.7818609E-02  0.8026006E-01
        1   -1    0    0  501    0  0.00000000000E+00  0.00000000000E+00  0.22673540489E+04  0.22673540489E+04  0.50400001928E-02 0.  1.
       -1   -1    0    0    0  501  0.00000000000E+00  0.00000000000E+00 -0.16730316130E+04  0.16730316130E+04  0.50400001928E-02 0. -1.
    10030    2    1    2    0    0  0.00000000000E+00  0.00000000000E+00  0.59432243592E+03  0.39403856619E+04  0.38953074342E+04 0.  0.
        3    1    3    3  502    0 -0.38501620997E+03  0.11784977921E+04 -0.12223069527E+04  0.17410137348E+04  0.10100000352E+00 0. -1.
       -3    1    3    3    0  502  0.38501620997E+03 -0.11784977921E+04  0.18166293887E+04  0.21993719271E+04  0.10100000352E+00 0.  1.
</event>
<event>
 5   0  0.4750125E-08  0.3934516E+04  0.7818609E-02  0.8017889E-01
        1   -1    0    0  501    0  0.00000000000E+00  0.00000000000E+00  0.18248131639E+04  0.18248131639E+04  0.50400001928E-02 0.  1.
       -1   -1    0    0    0  501  0.00000000000E+00  0.00000000000E+00 -0.21208224018E+04  0.21208224018E+04  0.50400001928E-02 0. -1.
    10030    2    1    2    0    0  0.00000000000E+00  0.00000000000E+00 -0.29600923789E+03  0.39456355657E+04  0.39345163042E+04 0.  0.
        4    1    3    3  502    0 -0.12254598344E+04 -0.15235902651E+04 -0.36546745474E+03  0.19891322668E+04  0.12699999809E+01 0. -1.
       -4    1    3    3    0  502  0.12254598344E+04  0.15235902651E+04  0.69458216851E+02  0.19565032988E+04  0.12699999809E+01 0.  1.
</event>
<event>
 5   0  0.1546846E-07  0.3919142E+04  0.7818609E-02  0.8021060E-01
       -2   -1    0    0    0  501  0.00000000000E+00  0.00000000000E+00  0.21361485488E+04  0.21361485488E+04  0.25500000920E-02 0. -1.
        2   -1    0    0  501    0  0.00000000000E+00  0.00000000000E+00 -0.17975895879E+04  0.17975895879E+04  0.25500000920E-02 0.  1.
    10030    2    1    2    0    0  0.00000000000E+00  0.00000000000E+00  0.33855896092E+03  0.39337381366E+04  0.39191419415E+04 0.  0.
        2    1    3    3  502    0 -0.61330026873E+03 -0.64480062533E+03  0.19216376753E+04  0.21176865729E+04  0.25500000920E-02 0. -1.
       -2    1    3    3    0  502  0.61330026873E+03  0.64480062533E+03 -0.15830787144E+04  0.18160515637E+04  0.25500000920E-02 0.  1.
</event>
<event>
 5   0  0.1501585E-07  0.3646841E+04  0.7818609E-02  0.8079846E-01
       -2   -1    0    0    0  501  0.00000000000E+00  0.00000000000E+00  0.11079640147E+04  0.11079640147E+04  0.25500000920E-02 0. -1.
        2   -1    0    0  501    0  0.00000000000E+00  0.00000000000E+00 -0.30008749686E+04  0.30008749686E+04  0.25500000920E-02 0.  1.
    10030    2    1    2    0    0  0.00000000000E+00  0.00000000000E+00 -0.18929109539E+04  0.41088389833E+04  0.36468405383E+04 0.  0.
        5    1    3    3  502    0  0.13128452459E+04 -0.11354195753E+04 -0.31702374716E+03  0.17644450680E+04  0.46999998093E+01 0. -1.
       -5    1    3    3    0  502 -0.13128452459E+04  0.11354195753E+04 -0.15758872068E+04  0.23443939153E+04  0.46999998093E+01 0.  1.
</event>
<event>
 5   0  0.4750125E-08  0.3912865E+04  0.7818609E-02  0.8022359E-01
       -1   -1    0    0    0  501  0.00000000000E+00  0.00000000000E+00  0.14786473619E+04  0.14786473619E+04  0.50400001928E-02 0.  1.
        1   -1    0    0  501    0  0.00000000000E+00  0.00000000000E+00 -0.25886015083E+04  0.25886015083E+04  0.50400001928E-02 0. -1.
    10030    2    1    2    0    0  0.00000000000E+00  0.00000000000E+00 -0.11099541464E+04  0.40672488703E+04  0.39128653396E+04 0.  0.
        1    1    3    3  502    0  0.14439887061E+03  0.48082093960E+03 -0.25205069079E+04  0.25700184596E+04  0.50400001928E-02 0. -1.
       -1    1    3    3    0  502 -0.14439887061E+03 -0.48082093960E+03  0.14105527615E+04  0.14972304107E+04  0.50400001928E-02 0.  1.
</event>
<event>
 5   0  0.4762788E-08  0.3660782E+04  0.7818609E-02  0.8076709E-01
       -1   -1    0    0    0  501  0.00000000000E+00  0.00000000000E+00  0.18152353914E+04  0.18152353914E+04  0.50400001928E-02 0.  1.
        1   -1    0    0  501    0  0.00000000000E+00  0.00000000000E+00 -0.18456734574E+04  0.18456734574E+04  0.50400001928E-02 0. -1.
    10030    2    1    2    0    0  0.00000000000E+00  0.00000000000E+00 -0.30438065976E+02  0.36609088488E+04  0.36607823103E+04 0.  0.
        2    1    3    3  502    0  0.37369541426E+03 -0.20056498717E+03  0.17654202870E+04  0.18156495715E+04  0.25500000920E-02 0.  1.
       -2    1    3    3    0  502 -0.37369541426E+03  0.20056498717E+03 -0.17958583530E+04  0.18452592773E+04  0.25500000920E-02 0. -1.
</event>
<event>
 5   0  0.1520986E-07  0.3897612E+04  0.7818609E-02  0.8025526E-01
        2   -1    0    0  501    0  0.00000000000E+00  0.00000000000E+00  0.24891657440E+04  0.24891657440E+04  0.25500000920E-02 0.  1.
       -2   -1    0    0    0  501  0.00000000000E+00  0.00000000000E+00 -0.15257499022E+04  0.15257499022E+04  0.25500000920E-02 0. -1.
    10030    2    1    2    0    0  0.00000000000E+00  0.00000000000E+00  0.96341584177E+03  0.40149156462E+04  0.38976117767E+04 0.  0.
        4    1    3    3  502    0  0.66688064980E+02  0.10009062573E+04 -0.12393799823E+04  0.15944669916E+04  0.12699999809E+01 0. -1.
       -4    1    3    3    0  502 -0.66688064980E+02 -0.10009062573E+04  0.22027958241E+04  0.24204486546E+04  0.12699999809E+01 0.  1.
</event>
<event>
 5   0  0.1520986E-07  0.3887659E+04  0.7818609E-02  0.8027601E-01
       -2   -1    0    0    0  501  0.00000000000E+00  0.00000000000E+00  0.13224478715E+04  0.13224478715E+04  0.25500000920E-02 0.  1.
        2   -1    0    0  501    0  0.00000000000E+00  0.00000000000E+00 -0.28571814572E+04  0.28571814572E+04  0.25500000920E-02 0. -1.
    10030    2    1    2    0    0  0.00000000000E+00  0.00000000000E+00 -0.15347335857E+04  0.41796293287E+04  0.38876592117E+04 0.  0.
        4    1    3    3  502    0  0.16466735854E+04  0.27164383044E+03  0.30404516939E+03  0.16963989346E+04  0.12699999809E+01 0.  1.
       -4    1    3    3    0  502 -0.16466735854E+04 -0.27164383044E+03 -0.18387787551E+04  0.24832303941E+04  0.12699999809E+01 0. -1.
</event>
<event>
 5   0  0.1520986E-07  0.3894568E+04  0.7818609E-02  0.8026160E-01
        2   -1    0    0  501    0  0.00000000000E+00  0.00000000000E+00  0.28778518391E+04  0.28778518391E+04  0.25500000920E-02 0.  1.
       -2   -1    0    0    0  501  0.00000000000E+00  0.00000000000E+00 -0.13176197279E+04  0.13176197279E+04  0.25500000920E-02 0. -1.
    10030    2    1    2    0    0  0.00000000000E+00  0.00000000000E+00  0.15602321113E+04  0.41954715670E+04  0.38945676818E+04 0.  0.
        4    1    3    3  502    0 -0.49158663281E+03 -0.55391933518E+03  0.27202142166E+04  0.28192288032E+04  0.12699999809E+01 0.  1.
       -4    1    3    3    0  502  0.49158663281E+03  0.55391933518E+03 -0.11599821053E+04  0.13762427638E+04  0.12699999809E+01 0. -1.
</event>
<event>
 5   0  0.1503228E-07  0.3873962E+04  0.7818609E-02  0.8030467E-01
       -2   -1    0    0    0  501  0.00000000000E+00  0.00000000000E+00  0.24294659602E+04  0.24294659602E+04  0.25500000920E-02 0.  1.
        2   -1    0    0  501    0  0.00000000000E+00  0.00000000000E+00 -0.15443291135E+04  0.15443291135E+04  0.25500000920E-02 0. -1.
    10030    2    1    2    0    0  0.00000000000E+00  0.00000000000E+00  0.88513684675E+03  0.39737950737E+04  0.38739618029E+04 0.  0.
        3    1    3    3  502    0  0.57854158041E+02 -0.13496769706E+03  0.24237480510E+04  0.24281923334E+04  0.10100000352E+00 0.  1.
       -3    1    3    3    0  502 -0.57854158041E+02  0.13496769706E+03 -0.15386112043E+04  0.15456027403E+04  0.10100000352E+00 0. -1.
</event>
<event>
 5   0  0.4762788E-08  0.3870091E+04  0.7818609E-02  0.8031279E-01
        1   -1    0    0  501    0  0.00000000000E+00  0.00000000000E+00  0.16088173007E+04  0.16088173007E+04  0.50400001928E-02 0.  1.
       -1   -1    0    0    0  501  0.00000000000E+00  0.00000000000E+00 -0.23274249588E+04  0.23274249588E+04  0.50400001928E-02 0. -1.
    10030    2    1    2    0    0  0.00000000000E+00  0.00000000000E+00 -0.71860765815E+03  0.39362422595E+04  0.38700912340E+04 0.  0.
        2    1    3    3  502    0  0.81406829677E+03  0.33550971860E+03 -0.21118725071E+04  0.22880733051E+04  0.25500000920E-02 0. -1.
       -2    1    3    3    0  502 -0.81406829677E+03 -0.33550971860E+03  0.13932648490E+04  0.16481689545E+04  0.25500000920E-02 0.  1.
</event>
<event>
 5   0  0.4750125E-08  0.3890785E+04  0.7818609E-02  0.8026948E-01
        1   -1    0    0  501    0  0.00000000000E+00  0.00000000000E+00  0.17772063985E+04  0.17772063985E+04  0.50400001928E-02 0.  1.
       -1   -1    0    0    0  501  0.00000000000E+00  0.00000000000E+00 -0.21294951755E+04  0.21294951755E+04  0.50400001928E-02 0. -1.
    10030    2    1    2    0    0  0.00000000000E+00  0.00000000000E+00 -0.35228877704E+03  0.39067015740E+04  0.38907852429E+04 0.  0.
        1    1    3    3  502    0  0.11358358573E+04 -0.15012402619E+04 -0.66877043128E+03  0.19977735879E+04  0.50400001928E-02 0. -1.
       -1    1    3    3    0  502 -0.11358358573E+04  0.15012402619E+04  0.31648165424E+03  0.19089279861E+04  0.50400001928E-02 0.  1.
</event>
<event>
 5   0  0.4750125E-08  0.3902958E+04  0.7818609E-02  0.8024414E-01
        3   -1    0    0  501    0  0.00000000000E+00  0.00000000000E+00  0.16723263760E+04  0.16723263791E+04  0.10100000352E+00 0. -1.
       -3   -1    0    0    0  501  0.00000000000E+00  0.00000000000E+00 -0.22772288153E+04  0.22772288175E+04  0.10100000352E+00 0.  1.
    10030    2    1    2    0    0  0.00000000000E+00  0.00000000000E+00 -0.60490243927E+03  0.39495551966E+04  0.39029577617E+04 0.  0.
        5    1    3    3  502    0  0.12358704968E+04  0.13181359836E+04 -0.10484015455E+04  0.20890251905E+04  0.46999998093E+01 0.  1.
       -5    1    3    3    0  502 -0.12358704968E+04 -0.13181359836E+04  0.44349910622E+03  0.18605300060E+04  0.46999998093E+01 0. -1.
</event>
<event>
 5   0  0.1538018E-07  0.3912553E+04  0.7818609E-02  0.8022423E-01
        2   -1    0    0  501    0  0.00000000000E+00  0.00000000000E+00  0.19469646964E+04  0.19469646964E+04  0.25500000920E-02 0.  1.
       -2   -1    0    0    0  501  0.00000000000E+00  0.00000000000E+00 -0.19656329763E+04  0.19656329763E+04  0.25500000920E-02 0. -1.
    10030    2    1    2    0    0  0.00000000000E+00  0.00000000000E+00 -0.18668279912E+02  0.39125976728E+04  0.39125531363E+04 0.  0.
        1    1    3    3  502    0  0.56677851544E+03 -0.11701280464E+04  0.14523871474E+04  0.19493244873E+04  0.50400001928E-02 0.  1.
       -1    1    3    3    0  502 -0.56677851544E+03  0.11701280464E+04 -0.14710554274E+04  0.19632731855E+04  0.50400001928E-02 0. -1.
</event>
<event>
 5   0  0.1501585E-07  0.3836290E+04  0.7818609E-02  0.8038412E-01
       -2   -1    0    0    0  501  0.00000000000E+00  0.00000000000E+00  0.16875806413E+04  0.16875806413E+04  0.25500000920E-02 0. -1.
        2   -1    0    0  501    0  0.00000000000E+00  0.00000000000E+00 -0.21802104326E+04  0.21802104326E+04  0.25500000920E-02 0.  1.
    10030    2    1    2    0    0  0.00000000000E+00  0.00000000000E+00 -0.49262979123E+03  0.38677910739E+04  0.38362903540E+04 0.  0.
        5    1    3    3  502    0  0.18397005551E+04 -0.22337980098E+03 -0.74521360105E+03  0.19974388774E+04  0.46999998093E+01 0. -1.
       -5    1    3    3    0  502 -0.18397005551E+04  0.22337980098E+03  0.25258380981E+03  0.18703521965E+04  0.46999998093E+01 0.  1.
</event>
<event>
 5   0  0.1520986E-07  0.3903252E+04  0.7818609E-02  0.8024353E-01
       -2   -1    0    0    0  501  0.00000000000E+00  0.00000000000E+00  0.21770060030E+04  0.21770060030E+04  0.25500000920E-02 0.  1.
        2   -1    0    0  501    0  0.00000000000E+00  0.00000000000E+00 -0.17495788993E+04  0.17495788993E+04  0.25500000920E-02 0. -1.
    10030    2    1    2    0    0  0.00000000000E+00  0.00000000000E+00  0.42742710366E+03  0.39265849023E+04  0.39032518579E+04 0.  0.
        4    1    3    3  502    0 -0.58815663690E+02 -0.91881732360E+03 -0.15173745772E+04  0.17748554242E+04  0.12699999809E+01 0. -1.
       -4    1    3    3    0  502  0.58815663690E+02  0.91881732360E+03  0.19448016808E+04  0.21517294781E+04  0.12699999809E+01 0.  1.
</event>
<event>
 5   0  0.4750125E-08  0.3872586E+04  0.7818609E-02  0.8030755E-01
       -3   -1    0    0    0  501  0.00000000000E+00  0.00000000000E+00  0.28166853384E+04  0.28166853403E+04  0.10100000352E+00 0.  1.
        3   -1    0    0  501    0  0.00000000000E+00  0.00000000000E+00 -0.13310786701E+04  0.13310786740E+04  0.10100000352E+00 0. -1.
    10030    2    1    2    0    0  0.00000000000E+00  0.00000000000E+00  0.14856066683E+04  0.41477640142E+04  0.38725855891E+04 0.  0.
        1    1    3    3  502    0  0.17818264755E+04  0.75320423686E+03  0.65314371383E+03  0.20417685770E+04  0.50400001928E-02 0.  1.
       -1    1    3    3    0  502 -0.17818264755E+04 -0.75320423686E+03  0.83246295448E+03  0.21059954372E+04  0.50400001928E-02 0. -1.
</event>
<event>
 5   0  0.4750125E-08  0.3910635E+04  0.7818609E-02  0.8022821E-01
        1   -1    0    0  501    0  0.00000000000E+00  0.00000000000E+00  0.32888158583E+04  0.32888158583E+04  0.50400001928E-02 0.  1.
       -1   -1    0    0    0  501  0.00000000000E+00  0.00000000000E+00 -0.11625056783E+04  0.11625056783E+04  0.50400001928E-02 0. -1.
    10030    2    1    2    0    0  0.00000000000E+00  0.00000000000E+00  0.21263101800E+04  0.44513215365E+04  0.39106352988E+04 0.  0.
        3    1    3    3  502    0 -0.15943055161E+04  0.87989123965E+03  0.25247033734E+03  0.18384123459E+04  0.10100000352E+00 0.  1.
       -3    1    3    3    0  502  0.15943055161E+04 -0.87989123965E+03  0.18738398427E+04  0.26129091906E+04  0.10100000352E+00 0. -1.
</event>
<event>
 5   0  0.4762788E-08  0.3513986E+04  0.7818609E-02  0.8110483E-01
        1   -1    0    0  501    0  0.00000000000E+00  0.00000000000E+00  0.16623323942E+04  0.16623323942E+04  0.50400001928E-02 0. -1.
       -1   -1    0    0    0  501  0.00000000000E+00  0.00000000000E+00 -0.18570440145E+04  0.18570440145E+04  0.50400001928E-02 0.  1.
    10030    2    1    2    0    0  0.00000000000E+00  0.00000000000E+00 -0.19471162026E+03  0.35193764087E+04  0.35139860118E+04 0.  0.
        2    1    3    3  502    0  0.80656569756E+03  0.93333573511E+03  0.11557071421E+04  0.16903617415E+04  0.25500000920E-02 0. -1.
       -2    1    3    3    0  502 -0.80656569756E+03 -0.93333573511E+03 -0.13504187624E+04  0.18290146672E+04  0.25500000920E-02 0.  1.
</event>
<event>
 5   0  0.4762788E-08  0.3979385E+04  0.7818609E-02  0.8008718E-01
       -1   -1    0    0    0  501  0.00000000000E+00  0.00000000000E+00  0.31743995338E+04  0.31743995338E+04  0.50400001928E-02 0.  1.
        1   -1    0    0  501    0  0.00000000000E+00  0.00000000000E+00 -0.12471262235E+04  0.12471262235E+04  0.50400001928E-02 0. -1.
    10030    2    1    2    0    0  0.00000000000E+00  0.00000000000E+00  0.19272733104E+04  0.44215257573E+04  0.39793853306E+04 0.  0.
        2    1    3    3  502    0 -0.14221827721E+04  0.12361871543E+04  0.16734548311E+04  0.25201614213E+04  0.25500000920E-02 0.  1.
       -2    1    3    3    0  502  0.14221827721E+04 -0.12361871543E+04  0.25381847925E+03  0.19013643360E+04  0.25500000920E-02 0. -1.
</event>
<event>
 5   0  0.4750125E-08  0.3878117E+04  0.7818609E-02  0.8029596E-01
       -1   -1    0    0    0  501  0.00000000000E+00  0.00000000000E+00  0.18579739474E+04  0.18579739474E+04  0.50400001928E-02 0.  1.
        1   -1    0    0  501    0  0.00000000000E+00  0.00000000000E+00 -0.20236818814E+04  0.20236818814E+04  0.50400001928E-02 0. -1.
    10030    2    1    2    0    0  0.00000000000E+00  0.00000000000E+00 -0.16570793398E+03  0.38816558287E+04  0.38781171789E+04 0.  0.
        5    1    3    3  502    0  0.78699981345E+03  0.16420663786E+04 -0.74992696523E+03  0.19693052687E+04  0.46999998093E+01 0. -1.
       -5    1    3    3    0  502 -0.78699981345E+03 -0.16420663786E+04  0.58421903124E+03  0.19123505601E+04  0.46999998093E+01 0.  1.
</event>
<event>
 5   0  0.1538018E-07  0.3893862E+04  0.7818609E-02  0.8026307E-01
       -2   -1    0    0    0  501  0.00000000000E+00  0.00000000000E+00  0.13230429585E+04  0.13230429585E+04  0.25500000920E-02 0. -1.
        2   -1    0    0  501    0  0.00000000000E+00  0.00000000000E+00 -0.28650169200E+04  0.28650169200E+04  0.25500000920E-02 0.  1.
    10030    2    1    2    0    0  0.00000000000E+00  0.00000000000E+00 -0.15419739615E+04  0.41880598785E+04  0.38938620736E+04 0.  0.
        1    1    3    3  502    0 -0.28755006625E+03 -0.18412479585E+04 -0.16478894456E+03  0.18708379090E+04  0.50400001928E-02 0. -1.
       -1    1    3    3    0  502  0.28755006625E+03  0.18412479585E+04 -0.13771850169E+04  0.23172219695E+04  0.50400001928E-02 0.  1.
</event>
<event>
 5   0  0.4750125E-08  0.3775436E+04  0.7818609E-02  0.8051447E-01
       -1   -1    0    0    0  501  0.00000000000E+00  0.00000000000E+00  0.32103813860E+04  0.32103813860E+04  0.50400001928E-02 0. -1.
        1   -1    0    0  501    0  0.00000000000E+00  0.00000000000E+00 -0.11099864881E+04  0.11099864881E+04  0.50400001928E-02 0.  1.
    10030    2    1    2    0    0  0.00000000000E+00  0.00000000000E+00  0.21003948979E+04  0.43203678741E+04  0.37754363775E+04 0.  0.
        4    1    3    3  502    0  0.29613978462E+03  0.14433628814E+04 -0.30015939235E+03  0.15036929385E+04  0.12699999809E+01 0. -1.
       -4    1    3    3    0  502 -0.29613978462E+03 -0.14433628814E+04  0.24005542902E+04  0.28166749356E+04  0.12699999809E+01 0.  1.
</event>
<event>
 5   0  0.4750125E-08  0.3881230E+04  0.7818609E-02  0.8028944E-01
        1   -1    0    0  501    0  0.00000000000E+00  0.00000000000E+00  0.15651694703E+04  0.15651694703E+04  0.50400001928E-02 0. -1.
       -1   -1    0    0    0  501  0.00000000000E+00  0.00000000000E+00 -0.24061200400E+04  0.24061200400E+04  0.50400001928E-02 0.  1.
    10030    2    1    2    0    0  0.00000000000E+00  0.00000000000E+00 -0.84095056969E+03  0.39712895104E+04  0.38812295107E+04 0.  0.
        1    1    3    3  502    0 -0.55438988874E+03  0.13208677474E+04 -0.17600309802E+04  0.22693057983E+04  0.50400001928E-02 0.  1.
       -1    1    3    3    0  502  0.55438988874E+03 -0.13208677474E+04  0.91908041054E+03  0.17019837120E+04  0.50400001928E-02 0. -1.
</event>
<event>
 5   0  0.1520986E-07  0.3905741E+04  0.7818609E-02  0.8023836E-01
        2   -1    0    0  501    0  0.00000000000E+00  0.00000000000E+00  0.22687812379E+04  0.22687812379E+04  0.25500000920E-02 0.  1.
       -2   -1    0    0    0  501  0.00000000000E+00  0.00000000000E+00 -0.16809477715E+04  0.16809477715E+04  0.25500000920E-02 0. -1.
    10030    2    1    2    0    0  0.00000000000E+00  0.00000000000E+00  0.58783346641E+03  0.39497290093E+04  0.39057407829E+04 0.  0.
        4    1    3    3  502    0 -0.29988236779E+03 -0.35590303205E+03 -0.16240471538E+04  0.16894162227E+04  0.12699999809E+01 0. -1.
       -4    1    3    3    0  502  0.29988236779E+03  0.35590303205E+03  0.22118806202E+04  0.22603127867E+04  0.12699999809E+01 0.  1.
</event>
<event>
 5   0  0.4750125E-08  0.3885697E+04  0.7818609E-02  0.8028011E-01
       -1   -1    0    0    0  501  0.00000000000E+00  0.00000000000E+00  0.32212072289E+04  0.32212072289E+04  0.50400001928E-02 0.  1.
        1   -1    0    0  501    0  0.00000000000E+00  0.00000000000E+00 -0.11718151536E+04  0.11718151536E+04  0.50400001928E-02 0. -1.
    10030    2    1    2    0    0  0.00000000000E+00  0.00000000000E+00  0.20493920753E+04  0.43930223825E+04  0.38856965624E+04 0.  0.
        5    1    3    3  502    0 -0.10821430252E+04  0.11302718822E+04 -0.27721382834E+03  0.15891562703E+04  0.46999998093E+01 0. -1.
       -5    1    3    3    0  502  0.10821430252E+04 -0.11302718822E+04  0.23266059037E+04  0.28038661123E+04  0.46999998093E+01 0.  1.
</event>
<event>
 5   0  0.4750125E-08  0.3912728E+04  0.7818609E-02  0.8022387E-01
       -3   -1    0    0    0  501  0.00000000000E+00  0.00000000000E+00  0.21235731261E+04  0.21235731285E+04  0.10100000352E+00 0. -1.
        3   -1    0    0  501    0  0.00000000000E+00  0.00000000000E+00 -0.18023206673E+04  0.18023206702E+04  0.10100000352E+00 0.  1.
    10030    2    1    2    0    0  0.00000000000E+00  0.00000000000E+00  0.32125245875E+03  0.39258937986E+04  0.39127278178E+04 0.  0.
        5    1    3    3  502    0 -0.31053591251E+03 -0.11063627778E+03 -0.17742465757E+04  0.18046179485E+04  0.46999998093E+01 0.  1.
       -5    1    3    3    0  502  0.31053591251E+03  0.11063627778E+03  0.20954990344E+04  0.21212758501E+04  0.46999998093E+01 0. -1.
</event>
<event>
 5   0  0.4750125E-08  0.3898128E+04  0.7818609E-02  0.8025419E-01
       -1   -1    0    0    0  501  0.00000000000E+00  0.00000000000E+00  0.18562371183E+04  0.18562371183E+04  0.50400001928E-02 0. -1.
        1   -1    0    0  501    0  0.00000000000E+00  0.00000000000E+00 -0.20465326986E+04  0.20465326986E+04  0.50400001928E-02 0.  1.
    10030    2    1    2    0    0  0.00000000000E+00  0.00000000000E+00 -0.19029558026E+03  0.39027698169E+04  0.38981277346E+04 0.  0.
        4    1    3    3  502    0  0.10219688576E+04 -0.54735084972E+03  0.14735093443E+04  0.18748985837E+04  0.12699999809E+01 0. -1.
       -4    1    3    3    0  502 -0.10219688576E+04  0.54735084972E+03 -0.16638049245E+04  0.20278712332E+04  0.12699999809E+01 0.  1.
</event>
<event>
 5   0  0.1538018E-07  0.3942227E+04  0.7818609E-02  0.8016304E-01
        2   -1    0    0  501    0  0.00000000000E+00  0.00000000000E+00  0.18840597920E+04  0.18840597920E+04  0.25500000920E-02 0. -1.
       -2   -1    0    0    0  501  0.00000000000E+00  0.00000000000E+00 -0.20621899747E+04  0.20621899747E+04  0.25500000920E-02 0.  1.
    10030    2    1    2    0    0  0.00000000000E+00  0.00000000000E+00 -0.17813018275E+03  0.39462497667E+04  0.39422273982E+04 0.  0.
        1    1    3    3  502    0 -0.30334860672E+03 -0.19414085493E+04  0.66662539055E+02  0.19660954775E+04  0.50400001928E-02 0.  1.
       -1    1    3    3    0  502  0.30334860672E+03  0.19414085493E+04 -0.24479272180E+03  0.19801542892E+04  0.50400001928E-02 0. -1.
</event>
<event>
 5   0  0.4750125E-08  0.3847254E+04  0.7818609E-02  0.8036090E-01
        1   -1    0    0  501    0  0.00000000000E+00  0.00000000000E+00  0.23804696762E+04  0.23804696762E+04  0.50400001928E-02 0. -1.
       -1   -1    0    0    0  501  0.00000000000E+00  0.00000000000E+00 -0.15544586507E+04  0.15544586507E+04  0.50400001928E-02 0.  1.
    10030    2    1    2    0    0  0.00000000000E+00  0.00000000000E+00  0.82601102548E+03  0.39349283268E+04  0.38472544396E+04 0.  0.
        4    1    3    3  502    0  0.76539942133E+03  0.16752012423E+04  0.98081869247E+03  0.20866581888E+04  0.12699999809E+01 0. -1.
       -4    1    3    3    0  502 -0.76539942133E+03 -0.16752012423E+04 -0.15480766698E+03  0.18482701380E+04  0.12699999809E+01 0.  1.
</event>
<event>
 5   0  0.1538018E-07  0.3903655E+04  0.7818609E-02  0.8024269E-01
       -2   -1    0    0    0  501  0.00000000000E+00  0.00000000000E+00  0.20751023156E+04  0.20751023156E+04  0.25500000920E-02 0. -1.
        2   -1    0    0  501    0  0.00000000000E+00  0.00000000000E+00 -0.18358759004E+04  0.18358759004E+04  0.25500000920E-02 0.  1.
    10030    2    1    2    0    0  0.00000000000E+00  0.00000000000E+00  0.23922641525E+03  0.39109782160E+04  0.39036548680E+04 0.  0.
        1    1    3    3  502    0  0.95306656449E+02 -0.13488825171E+04 -0.12905296723E+04  0.18692335966E+04  0.50400001928E-02 0.  1.
       -1    1    3    3    0  502 -0.95306656449E+02  0.13488825171E+04  0.15297560875E+04  0.20417446194E+04  0.50400001928E-02 0. -1.
</event>
<event>
 5   0  0.1503228E-07  0.3970573E+04  0.7818609E-02  0.8010509E-01
        2   -1    0    0  501    0  0.00000000000E+00  0.00000000000E+00  0.22263246982E+04  0.22263246982E+04  0.25500000920E-02 0.  1.
       -2   -1    0    0    0  501  0.00000000000E+00  0.00000000000E+00 -0.17703445515E+04  0.17703445515E+04  0.25500000920E-02 0. -1.
    10030    2    1    2    0    0  0.00000000000E+00  0.00000000000E+00  0.45598014671E+03  0.39966692497E+04  0.39705726536E+04 0.  0.
        3    1    3    3  502    0 -0.61547750717E+03  0.13295300682E+04  0.15765339232E+04  0.21521900440E+04  0.10100000352E+00 0.  1.
       -3    1    3    3    0  502  0.61547750717E+03 -0.13295300682E+04 -0.11205537765E+04  0.18444792057E+04  0.10100000352E+00 0. -1.
</event>
<event>
 5   0  0.1503228E-07  0.3917836E+04  0.7818609E-02  0.8021330E-01
       -2   -1    0    0    0  501  0.00000000000E+00  0.00000000000E+00  0.22112653969E+04  0.22112653969E+04  0.25500000920E-02 0.  1.
        2   -1    0    0  501    0  0.00000000000E+00  0.00000000000E+00 -0.17353681819E+04  0.17353681819E+04  0.25500000920E-02 0. -1.
    10030    2    1    2    0    0  0.00000000000E+00  0.00000000000E+00  0.47589721502E+03  0.39466335788E+04  0.39178359392E+04 0.  0.
        3    1    3    3  502    0  0.19133497576E+04  0.41342241437E+03  0.16300949815E+03  0.19642804011E+04  0.10100000352E+00 0. -1.
       -3    1    3    3    0  502 -0.19133497576E+04 -0.41342241437E+03  0.31288771686E+03  0.19823531777E+04  0.10100000352E+00 0.  1.
</event>
<event>
 5   0  0.4750125E-08  0.3900405E+04  0.7818609E-02  0.8024945E-01
        1   -1    0    0  501    0  0.00000000000E+00  0.00000000000E+00  0.21631125521E+04  0.21631125521E+04  0.50400001928E-02 0. -1.
       -1   -1    0    0    0  501  0.00000000000E+00  0.00000000000E+00 -0.17582482557E+04  0.17582482557E+04  0.50400001928E-02 0.  1.
    10030    2    1    2    0    0  0.00000000000E+00  0.00000000000E+00  0.40486429634E+03  0.39213608078E+04  0.39004045286E+04 0.  0.
        1    1    3    3  502    0  0.58055841592E+03  0.18391141153E+04  0.49364350575E+03  0.19907467730E+04  0.50400001928E-02 0. -1.
       -1    1    3    3    0  502 -0.58055841592E+03 -0.18391141153E+04 -0.88779209406E+02  0.19306140348E+04  0.50400001928E-02 0.  1.
</event>
<event>
 5   0  0.4750125E-08  0.3893497E+04  0.7818609E-02  0.8026383E-01
        1   -1    0    0  501    0  0.00000000000E+00  0.00000000000E+00  0.24910768488E+04  0.24910768488E+04  0.50400001928E-02 0. -1.
       -1   -1    0    0    0  501  0.00000000000E+00  0.00000000000E+00 -0.15213621002E+04  0.15213621002E+04  0.50400001928E-02 0.  1.
    10030    2    1    2    0    0  0.00000000000E+00  0.00000000000E+00  0.96971474859E+03  0.40124389490E+04  0.38934970946E+04 0.  0.
        5    1    3    3  502    0 -0.17985890691E+04 -0.62746287594E+03  0.71126322150E+02  0.19062301392E+04  0.46999998093E+01 0. -1.
       -5    1    3    3    0  502  0.17985890691E+04  0.62746287594E+03  0.89858842644E+03  0.21062088097E+04  0.46999998093E+01 0.  1.
</event>
<event>
 5   0  0.1503228E-07  0.3873556E+04  0.7818609E-02  0.8030552E-01
        2   -1    0    0  501    0  0.00000000000E+00  0.00000000000E+00  0.22660970060E+04  0.22660970060E+04  0.25500000920E-02 0. -1.
       -2   -1    0    0    0  501  0.00000000000E+00  0.00000000000E+00 -0.16553170063E+04  0.16553170063E+04  0.25500000920E-02 0.  1.
    10030    2    1    2    0    0  0.00000000000E+00  0.00000000000E+00  0.61077999969E+03  0.39214140123E+04  0.38735559435E+04 0.  0.
        3    1    3    3  502    0 -0.41932330016E+03 -0.60338142089E+03  0.21195143981E+04  0.22432660259E+04  0.10100000352E+00 0. -1.
       -3    1    3    3    0  502  0.41932330016E+03  0.60338142089E+03 -0.15087343984E+04  0.16781479864E+04  0.10100000352E+00 0.  1.
</event>
<event>
 5   0  0.4750125E-08  0.3908597E+04  0.7818609E-02  0.8023244E-01
        1   -1    0    0  501    0  0.00000000000E+00  0.00000000000E+00  0.28003263143E+04  0.28003263143E+04  0.50400001928E-02 0.  1.
       -1   -1    0    0    0  501  0.00000000000E+00  0.00000000000E+00 -0.13638706430E+04  0.13638706430E+04  0.50400001928E-02 0. -1.
    10030    2    1    2    0    0  0.00000000000E+00  0.00000000000E+00  0.14364556713E+04  0.41641969573E+04  0.39085971146E+04 0.  0.
        5    1    3    3  502    0 -0.12318015308E+04 -0.68111587894E+03  0.21626160138E+04  0.25803457065E+04  0.46999998093E+01 0.  1.
       -5    1    3    3    0  502  0.12318015308E+04  0.68111587894E+03 -0.72616034253E+03  0.15838512508E+04  0.46999998093E+01 0. -1.
</event>
<event>
 5   0  0.1546846E-07  0.3613237E+04  0.7818609E-02  0.8087466E-01
        2   -1    0    0  501    0  0.00000000000E+00  0.00000000000E+00  0.22758062254E+04  0.22758062254E+04  0.25500000920E-02 0.  1.
       -2   -1    0    0    0  501  0.00000000000E+00  0.00000000000E+00 -0.14341601379E+04  0.14341601380E+04  0.25500000920E-02 0. -1.
    10030    2    1    2    0    0  0.00000000000E+00  0.00000000000E+00  0.84164608746E+03  0.37099663634E+04  0.36132370917E+04 0.  0.
        2    1    3    3  502    0 -0.38259207026E+03  0.14501618164E+04  0.14550236784E+04  0.20896028069E+04  0.25500000920E-02 0.  1.
       -2    1    3    3    0  502  0.38259207026E+03 -0.14501618164E+04 -0.61337759089E+03  0.16203635565E+04  0.25500000920E-02 0. -1.
</event>
<event>
 5   0  0.4750125E-08  0.3899100E+04  0.7818609E-02  0.8025216E-01
       -1   -1    0    0    0  501  0.00000000000E+00  0.00000000000E+00  0.13129665136E+04  0.13129665136E+04  0.50400001928E-02 0.  1.
        1   -1    0    0  501    0  0.00000000000E+00  0.00000000000E+00 -0.28947773100E+04  0.28947773100E+04  0.50400001928E-02 0. -1.
    10030    2    1    2    0    0  0.00000000000E+00  0.00000000000E+00 -0.15818107965E+04  0.42077438236E+04  0.38991002410E+04 0.  0.
        3    1    3    3  502    0 -0.30641794669E+03  0.12158341950E+04 -0.24019258095E+04  0.27095003879E+04  0.10100000352E+00 0. -1.
       -3    1    3    3    0  502  0.30641794669E+03 -0.12158341950E+04  0.82011501301E+03  0.14982434357E+04  0.10100000352E+00 0.  1.
</event>
<event>
 5   0  0.4750125E-08  0.3894101E+04  0.7818609E-02  0.8026257E-01
       -1   -1    0    0    0  501  0.00000000000E+00  0.00000000000E+00  0.24688488297E+04  0.24688488297E+04  0.50400001928E-02 0.  1.
        1   -1    0    0  501    0  0.00000000000E+00  0.00000000000E+00 -0.15355360059E+04  0.15355360059E+04  0.50400001928E-02 0. -1.
    10030    2    1    2    0    0  0.00000000000E+00  0.00000000000E+00  0.93331282385E+03  0.40043848356E+04  0.38941013193E+04 0.  0.
        3    1    3    3  502    0 -0.15716360985E+04 -0.45873414001E+03  0.15503176937E+04  0.22547642890E+04  0.10100000352E+00 0.  1.
       -3    1    3    3    0  502  0.15716360985E+04  0.45873414001E+03 -0.61700486988E+03  0.17496205466E+04  0.10100000352E+00 0. -1.
</event>
<event>
 5   0  0.4750125E-08  0.3869449E+04  0.7818609E-02  0.8031413E-01
        1   -1    0    0  501    0  0.00000000000E+00  0.00000000000E+00  0.15733613871E+04  0.15733613871E+04  0.50400001928E-02 0. -1.
       -1   -1    0    0    0  501  0.00000000000E+00  0.00000000000E+00 -0.23790839913E+04  0.23790839913E+04  0.50400001928E-02 0.  1.
    10030    2    1    2    0    0  0.00000000000E+00  0.00000000000E+00 -0.80572260423E+03  0.39524453784E+04  0.38694489988E+04 0.  0.
        4    1    3    3  502    0  0.18209544647E+04  0.64696262036E+03 -0.30746931959E+03  0.19567766326E+04  0.12699999809E+01 0. -1.
       -4    1    3    3    0  502 -0.18209544647E+04 -0.64696262036E+03 -0.49825328464E+03  0.19956687458E+04  0.12699999809E+01 0.  1.
</event>
<event>
 5   0  0.1520986E-07  0.3920143E+04  0.7818609E-02  0.8020853E-01
       -2   -1    0    0    0  501  0.00000000000E+00  0.00000000000E+00  0.11700316923E+04  0.11700316923E+04  0.25500000920E-02 0.  1.
        2   -1    0    0  501    0  0.00000000000E+00  0.00000000000E+00 -0.32835687238E+04  0.32835687238E+04  0.25500000920E-02 0. -1.
    10030    2    1    2    0    0  0.00000000000E+00  0.00000000000E+00 -0.21135370315E+04  0.44536004161E+04  0.39201425845E+04 0.  0.
        4    1    3    3  502    0  0.13409531740E+03 -0.17707486811E+04 -0.19993363093E+04  0.26741128878E+04  0.12699999809E+01 0. -1.
       -4    1    3    3    0  502 -0.13409531740E+03  0.17707486811E+04 -0.11420072219E+03  0.17794875284E+04  0.12699999809E+01 0.  1.
</event>
<event>
 5   0  0.4750125E-08  0.4070099E+04  0.7818609E-02  0.7990553E-01
        1   -1    0    0  501    0  0.00000000000E+00  0.00000000000E+00  0.16598911372E+04  0.16598911372E+04  0.50400001928E-02 0.  1.
       -1   -1    0    0    0  501  0.00000000000E+00  0.00000000000E+00 -0.24949985234E+04  0.24949985234E+04  0.50400001928E-02 0. -1.
    10030    2    1    2    0    0  0.00000000000E+00  0.00000000000E+00 -0.83510738619E+03  0.41548896605E+04  0.40700987389E+04 0.  0.
        5    1    3    3  502    0 -0.14929163760E+04  0.95417954090E+03  0.60437368965E+03  0.18720436824E+04  0.46999998093E+01 0.  1.
       -5    1    3    3    0  502  0.14929163760E+04 -0.95417954090E+03 -0.14394810758E+04  0.22828459781E+04  0.46999998093E+01 0. -1.
</event>
<event>
 5   0  0.4750125E-08  0.3898909E+04  0.7818609E-02  0.8025256E-01
        3   -1    0    0  501    0  0.00000000000E+00  0.00000000000E+00  0.32730737417E+04  0.32730737433E+04  0.10100000352E+00 0.  1.
       -3   -1    0    0    0  501  0.00000000000E+00  0.00000000000E+00 -0.11611018940E+04  0.11611018984E+04  0.10100000352E+00 0. -1.
    10030    2    1    2    0    0  0.00000000000E+00  0.00000000000E+00  0.21119718477E+04  0.44341756417E+04  0.38989086340E+04 0.  0.
        2    1    3    3  502    0  0.79591520064E+03  0.35329261192E+03 -0.92761738905E+03  0.12723091986E+04  0.25500000920E-02 0. -1.
       -2    1    3    3    0  502 -0.79591520064E+03 -0.35329261192E+03  0.30395892367E+04  0.31618664431E+04  0.25500000920E-02 0.  1.
</event>
<event>
 5   0  0.4750125E-08  0.3911566E+04  0.7818609E-02  0.8022628E-01
        1   -1    0    0  501    0  0.00000000000E+00  0.00000000000E+00  0.12062714249E+04  0.12062714249E+04  0.50400001928E-02 0. -1.
       -1   -1    0    0    0  501  0.00000000000E+00  0.00000000000E+00 -0.31710007814E+04  0.31710007814E+04  0.50400001928E-02 0.  1.
    10030    2    1    2    0    0  0.00000000000E+00  0.00000000000E+00 -0.19647293565E+04  0.43772722064E+04  0.39115662495E+04 0.  0.
        4    1    3    3  502    0  0.54753921344E+03 -0.58596525148E+02  0.11177281594E+04  0.12460138821E+04  0.12699999809E+01 0. -1.
       -4    1    3    3    0  502 -0.54753921344E+03  0.58596525148E+02 -0.30824575160E+04  0.31312583243E+04  0.12699999809E+01 0.  1.
</event>
<event>
 5   0  0.1546846E-07  0.3926685E+04  0.7818609E-02  0.8019502E-01
       -2   -1    0    0    0  501  0.00000000000E+00  0.00000000000E+00  0.27582612173E+04  0.27582612173E+04  0.25500000920E-02 0. -1.
        2   -1    0    0  501    0  0.00000000000E+00  0.00000000000E+00 -0.13975158193E+04  0.13975158193E+04  0.25500000920E-02 0.  1.
    10030    2    1    2    0    0  0.00000000000E+00  0.00000000000E+00  0.13607453980E+04  0.41557770367E+04  0.39266849556E+04 0.  0.
        2    1    3    3  502    0  0.14026719764E+04 -0.13736619495E+04  0.69801435961E+03  0.20836650093E+04  0.25500000920E-02 0.  1.
       -2    1    3    3    0  502 -0.14026719764E+04  0.13736619495E+04  0.66273103839E+03  0.20721120274E+04  0.25500000920E-02 0. -1.
</event>
<event>
 5   0  0.1520986E-07  0.3900571E+04  0.7818609E-02  0.8024911E-01
       -2   -1    0    0    0  501  0.00000000000E+00  0.00000000000E+00  0.15553794187E+04  0.15553794187E+04  0.25500000920E-02 0. -1.
        2   -1    0    0  501    0  0.00000000000E+00  0.00000000000E+00 -0.24454566345E+04  0.24454566345E+04  0.25500000920E-02 0.  1.
    10030    2    1    2    0    0  0.00000000000E+00  0.00000000000E+00 -0.89007721575E+03  0.40008360532E+04  0.39005706857E+04 0.  0.
        4    1    3    3  502    0  0.13382736350E+04 -0.93340574768E+03 -0.15408590196E+04  0.22442082664E+04  0.12699999809E+01 0.  1.
       -4    1    3    3    0  502 -0.13382736350E+04  0.93340574768E+03  0.65078180385E+03  0.17566277867E+04  0.12699999809E+01 0. -1.
</event>
<event>
 5   0  0.1520986E-07  0.3814851E+04  0.7818609E-02  0.8042975E-01
       -2   -1    0    0    0  501  0.00000000000E+00  0.00000000000E+00  0.13461622516E+04  0.13461622516E+04  0.25500000920E-02 0.  1.
        2   -1    0    0  501    0  0.00000000000E+00  0.00000000000E+00 -0.27026991003E+04  0.27026991003E+04  0.25500000920E-02 0. -1.
    10030    2    1    2    0    0  0.00000000000E+00  0.00000000000E+00 -0.13565368487E+04  0.40488613520E+04  0.38148507213E+04 0.  0.
        4    1    3    3  502    0 -0.18664152994E+04  0.56258087706E+02 -0.10915093370E+04  0.21628835586E+04  0.12699999809E+01 0.  1.
       -4    1    3    3    0  502  0.18664152994E+04 -0.56258087706E+02 -0.26502751166E+03  0.18859777934E+04  0.12699999809E+01 0. -1.
</event>
<event>
 5   0  0.4750125E-08  0.3857059E+04  0.7818609E-02  0.8034020E-01
        1   -1    0    0  501    0  0.00000000000E+00  0.00000000000E+00  0.20525379038E+04  0.20525379038E+04  0.50400001928E-02 0.  1.
       -1   -1    0    0    0  501  0.00000000000E+00  0.00000000000E+00 -0.18120133368E+04  0.18120133368E+04  0.50400001928E-02 0. -1.
    10030    2    1    2    0    0  0.00000000000E+00  0.00000000000E+00  0.24052456704E+03  0.38645512406E+04  0.38570590122E+04 0.  0.
        4    1    3    3  502    0 -0.18155835386E+04 -0.64581909331E+03  0.43966117567E+02  0.19275270477E+04  0.12699999809E+01 0.  1.
       -4    1    3    3    0  502  0.18155835386E+04  0.64581909331E+03  0.19655844947E+03  0.19370241929E+04  0.12699999809E+01 0. -1.
</event>
<event>
 5   0  0.1546846E-07  0.3556895E+04  0.7818609E-02  0.8100437E-01
        2   -1    0    0  501    0  0.00000000000E+00  0.00000000000E+00  0.18623570282E+04  0.18623570282E+04  0.25500000920E-02 0. -1.
       -2   -1    0    0    0  501  0.00000000000E+00  0.00000000000E+00 -0.16983188049E+04  0.16983188049E+04  0.25500000920E-02 0.  1.
    10030    2    1    2    0    0  0.00000000000E+00  0.00000000000E+00  0.16403822325E+03  0.35606758331E+04  0.35568952543E+04 0.  0.
        2    1    3    3  502    0  0.63772690706E+03 -0.14923985330E+04  0.81006577923E+03  0.18138785946E+04  0.25500000920E-02 0. -1.
       -2    1    3    3    0  502 -0.63772690706E+03  0.14923985330E+04 -0.64602755598E+03  0.17467972385E+04  0.25500000920E-02 0.  1.
</event>
<event>
 5   0  0.1520986E-07  0.3903167E+04  0.7818609E-02  0.8024371E-01
        2   -1    0    0  501    0  0.00000000000E+00  0.00000000000E+00  0.16837987490E+04  0.16837987490E+04  0.25500000920E-02 0. -1.
       -2   -1    0    0    0  501  0.00000000000E+00  0.00000000000E+00 -0.22619561904E+04  0.22619561904E+04  0.25500000920E-02 0.  1.
    10030    2    1    2    0    0  0.00000000000E+00  0.00000000000E+00 -0.57815744143E+03  0.39457549394E+04  0.39031674336E+04 0.  0.
        4    1    3    3  502    0 -0.61062785200E+03  0.62519557873E+03 -0.20530942511E+04  0.22313523931E+04  0.12699999809E+01 0.  1.
       -4    1    3    3    0  502  0.61062785200E+03 -0.62519557873E+03  0.14749368097E+04  0.17144025463E+04  0.12699999809E+01 0. -1.
</event>
<event>
 5   0  0.1501585E-07  0.3872857E+04  0.7818609E-02  0.8030698E-01
       -2   -1    0    0    0  501  0.00000000000E+00  0.00000000000E+00  0.19344183881E+04  0.19344183881E+04  0.25500000920E-02 0.  1.
        2   -1    0    0  501    0  0.00000000000E+00  0.00000000000E+00 -0.19384403651E+04  0.19384403651E+04  0.25500000920E-02 0. -1.
    10030    2    1    2    0    0  0.00000000000E+00  0.00000000000E+00 -0.40219769770E+01  0.38728587532E+04  0.38728566648E+04 0.  0.
        5    1    3    3  502    0  0.91584929308E+03  0.27875718715E+03 -0.16852371037E+04  0.19381774126E+04  0.46999998093E+01 0. -1.
       -5    1    3    3    0  502 -0.91584929308E+03 -0.27875718715E+03  0.16812151268E+04  0.19346813405E+04  0.46999998093E+01 0.  1.
</event>
<event>
 5   0  0.4762788E-08  0.3891195E+04  0.7818609E-02  0.8026863E-01
       -1   -1    0    0    0  501  0.00000000000E+00  0.00000000000E+00  0.27748577913E+04  0.27748577913E+04  0.50400001928E-02 0. -1.
        1   -1    0    0  501    0  0.00000000000E+00  0.00000000000E+00 -0.13641599824E+04  0.13641599824E+04  0.50400001928E-02 0.  1.
    10030    2    1    2    0    0  0.00000000000E+00  0.00000000000E+00  0.14106978089E+04  0.41390177736E+04  0.38911951663E+04 0.  0.
        2    1    3    3  502    0 -0.17316969212E+04  0.53432338035E+03 -0.47599681068E+02  0.18128820788E+04  0.25500000920E-02 0.  1.
       -2    1    3    3    0  502  0.17316969212E+04 -0.53432338035E+03  0.14582974899E+04  0.23261356949E+04  0.25500000920E-02 0. -1.
</event>
<event>
 5   0  0.1501585E-07  0.3908941E+04  0.7818609E-02  0.8023172E-01
       -2   -1    0    0    0  501  0.00000000000E+00  0.00000000000E+00  0.30158576971E+04  0.30158576971E+04  0.25500000920E-02 0.  1.
        2   -1    0    0  501    0  0.00000000000E+00  0.00000000000E+00 -0.12666227997E+04  0.12666227997E+04  0.25500000920E-02 0. -1.
    10030    2    1    2    0    0  0.00000000000E+00  0.00000000000E+00  0.17492348974E+04  0.42824804968E+04  0.39089405827E+04 0.  0.
        5    1    3    3  502    0 -0.16487400236E+04 -0.90257332525E+03  0.14614838620E+04  0.23809534733E+04  0.46999998093E+01 0.  1.
       -5    1    3    3    0  502  0.16487400236E+04  0.90257332525E+03  0.28775103540E+03  0.19015270236E+04  0.46999998093E+01 0. -1.
</event>
<event>
 5   0  0.4762788E-08  0.3915029E+04  0.7818609E-02  0.8021911E-01
       -1   -1    0    0    0  501  0.00000000000E+00  0.00000000000E+00  0.18570678165E+04  0.18570678165E+04  0.50400001928E-02 0.  1.
        1   -1    0    0  501    0  0.00000000000E+00  0.00000000000E+00 -0.20633943851E+04  0.20633943851E+04  0.50400001928E-02 0. -1.
    10030    2    1    2    0    0  0.00000000000E+00  0.00000000000E+00 -0.20632656868E+03  0.39204622016E+04  0.39150291469E+04 0.  0.
        2    1    3    3  502    0 -0.10041353516E+03 -0.16880882125E+04 -0.10905024579E+04  0.20121929087E+04  0.25500000920E-02 0. -1.
       -2    1    3    3    0  502  0.10041353516E+03  0.16880882125E+04  0.88417588923E+03  0.19082692929E+04  0.25500000920E-02 0.  1.
</event>
<event>
 5   0  0.1538018E-07  0.3838361E+04  0.7818609E-02  0.8037972E-01
        2   -1    0    0  501    0  0.00000000000E+00  0.00000000000E+00  0.17250959367E+04  0.17250959367E+04  0.25500000920E-02 0.  1.
       -2   -1    0    0    0  501  0.00000000000E+00  0.00000000000E+00 -0.21351007120E+04  0.21351007120E+04  0.25500000920E-02 0. -1.
    10030    2    1    2    0    0  0.00000000000E+00  0.00000000000E+00 -0.41000477526E+03  0.38601966487E+04  0.38383608808E+04 0.  0.
        1    1    3    3  502    0  0.52943427518E+03  0.13682168732E+04 -0.14493510108E+04  0.20622648755E+04  0.50400001928E-02 0. -1.
       -1    1    3    3    0  502 -0.52943427518E+03 -0.13682168732E+04  0.10393462356E+04  0.17979317733E+04  0.50400001928E-02 0.  1.
</event>
<event>
 5   0  0.4750125E-08  0.3944798E+04  0.7818609E-02  0.8015776E-01
        1   -1    0    0  501    0  0.00000000000E+00  0.00000000000E+00  0.12513775586E+04  0.12513775587E+04  0.50400001928E-02 0. -1.
       -1   -1    0    0    0  501  0.00000000000E+00  0.00000000000E+00 -0.31088603126E+04  0.31088603126E+04  0.50400001928E-02 0.  1.
    10030    2    1    2    0    0  0.00000000000E+00  0.00000000000E+00 -0.18574827540E+04  0.43602378713E+04  0.39447981080E+04 0.  0.
        1    1    3    3  502    0  0.15864298906E+04  0.94721221898E+03 -0.16916375967E+04  0.25051164732E+04  0.50400001928E-02 0.  1.
       -1    1    3    3    0  502 -0.15864298906E+04 -0.94721221898E+03 -0.16584515726E+03  0.18551213981E+04  0.50400001928E-02 0. -1.
</event>
<event>
 5   0  0.1503228E-07  0.3844285E+04  0.7818609E-02  0.8036718E-01
        2   -1    0    0  501    0  0.00000000000E+00  0.00000000000E+00  0.21338306215E+04  0.21338306215E+04  0.25500000920E-02 0. -1.
       -2   -1    0    0    0  501  0.00000000000E+00  0.00000000000E+00 -0.17314546049E+04  0.17314546049E+04  0.25500000920E-02 0.  1.
    10030    2    1    2    0    0  0.00000000000E+00  0.00000000000E+00  0.40237601655E+03  0.38652852264E+04  0.38442845138E+04 0.  0.
        3    1    3    3  502    0 -0.13790732735E+04  0.37309753298E+03  0.14941311170E+04  0.20672379321E+04  0.10100000352E+00 0. -1.
       -3    1    3    3    0  502  0.13790732735E+04 -0.37309753298E+03 -0.10917551005E+04  0.17980472943E+04  0.10100000352E+00 0.  1.
</event>
<event>
 5   0  0.4750125E-08  0.3933441E+04  0.7818609E-02  0.8018110E-01
        1   -1    0    0  501    0  0.00000000000E+00  0.00000000000E+00  0.33838642534E+04  0.33838642534E+04  0.50400001928E-02 0. -1.
       -1   -1    0    0    0  501  0.00000000000E+00  0.00000000000E+00 -0.11430684934E+04  0.11430684934E+04  0.50400001928E-02 0.  1.
    10030    2    1    2    0    0  0.00000000000E+00  0.00000000000E+00  0.22407957600E+04  0.45269327467E+04  0.39334405367E+04 0.  0.
        5    1    3    3  502    0  0.21859886149E+03  0.19422906260E+04  0.86907220691E+03  0.21390621610E+04  0.46999998093E+01 0. -1.
       -5    1    3    3    0  502 -0.21859886149E+03 -0.19422906260E+04  0.13717235531E+04  0.23878705857E+04  0.46999998093E+01 0.  1.
</event>
<event>
 5   0  0.4750125E-08  0.3886070E+04  0.7818609E-02  0.8027933E-01
        1   -1    0    0  501    0  0.00000000000E+00  0.00000000000E+00  0.16211209823E+04  0.16211209823E+04  0.50400001928E-02 0. -1.
       -1   -1    0    0    0  501  0.00000000000E+00  0.00000000000E+00 -0.23288734671E+04  0.23288734671E+04  0.50400001928E-02 0.  1.
    10030    2    1    2    0    0  0.00000000000E+00  0.00000000000E+00 -0.70775248482E+03  0.39499944495E+04  0.38860703250E+04 0.  0.
        3    1    3    3  502    0 -0.11116789825E+04 -0.14544126592E+04  0.30817449403E+03  0.18563722343E+04  0.10100000352E+00 0.  1.
       -3    1    3    3    0  502  0.11116789825E+04  0.14544126592E+04 -0.10159269789E+04  0.20936222152E+04  0.10100000352E+00 0. -1.
</event>
<event>
 5   0  0.1546846E-07  0.3899822E+04  0.7818609E-02  0.8025066E-01
       -2   -1    0    0    0  501  0.00000000000E+00  0.00000000000E+00  0.22026552050E+04  0.22026552050E+04  0.25500000920E-02 0. -1.
        2   -1    0    0  501    0  0.00000000000E+00  0.00000000000E+00 -0.17261680373E+04  0.17261680373E+04  0.25500000920E-02 0.  1.
    10030    2    1    2    0    0  0.00000000000E+00  0.00000000000E+00  0.47648716765E+03  0.39288232423E+04  0.38998220535E+04 0.  0.
        2    1    3    3  502    0 -0.17121781734E+04  0.79261701510E+03 -0.25771526867E+03  0.19042617966E+04  0.25500000920E-02 0.  1.
       -2    1    3    3    0  502  0.17121781734E+04 -0.79261701510E+03  0.73420243632E+03  0.20245614458E+04  0.25500000920E-02 0. -1.
</event>
<event>
 5   0  0.1501585E-07  0.3896149E+04  0.7818609E-02  0.8025831E-01
       -2   -1    0    0    0  501  0.00000000000E+00  0.00000000000E+00  0.28796701768E+04  0.28796701768E+04  0.25500000920E-02 0.  1.
        2   -1    0    0  501    0  0.00000000000E+00  0.00000000000E+00 -0.13178570421E+04  0.13178570421E+04  0.25500000920E-02 0. -1.
    10030    2    1    2    0    0  0.00000000000E+00  0.00000000000E+00  0.15618131347E+04  0.41975272189E+04  0.38961486735E+04 0.  0.
        5    1    3    3  502    0 -0.15732632738E+04 -0.54709767943E+03 -0.30743232654E+03  0.16938151980E+04  0.46999998093E+01 0. -1.
       -5    1    3    3    0  502  0.15732632738E+04  0.54709767943E+03  0.18692454612E+04  0.25037120209E+04  0.46999998093E+01 0.  1.
</event>
<event>
 5   0  0.4750125E-08  0.3883128E+04  0.7818609E-02  0.8028547E-01
        1   -1    0    0  501    0  0.00000000000E+00  0.00000000000E+00  0.14124551872E+04  0.14124551872E+04  0.50400001928E-02 0. -1.
       -1   -1    0    0    0  501  0.00000000000E+00  0.00000000000E+00 -0.26688783733E+04  0.26688783733E+04  0.50400001928E-02 0.  1.
    10030    2    1    2    0    0  0.00000000000E+00  0.00000000000E+00 -0.12564231861E+04  0.40813335606E+04  0.38831281733E+04 0.  0.
        1    1    3    3  502    0 -0.16381053691E+04 -0.27027547201E+03 -0.16861857096E+04  0.23663601329E+04  0.50400001928E-02 0.  1.
       -1    1    3    3    0  502  0.16381053691E+04  0.27027547201E+03  0.42976252356E+03  0.17149734277E+04  0.50400001928E-02 0. -1.
</event>
<event>
 5   0  0.1520986E-07  0.3921823E+04  0.7818609E-02  0.8020506E-01
       -2   -1    0    0    0  501  0.00000000000E+00  0.00000000000E+00  0.24318730052E+04  0.24318730052E+04  0.25500000920E-02 0.  1.
        2   -1    0    0  501    0  0.00000000000E+00  0.00000000000E+00 -0.15811573318E+04  0.15811573318E+04  0.25500000920E-02 0. -1.
    10030    2    1    2    0    0  0.00000000000E+00  0.00000000000E+00  0.85071567333E+03  0.40130303370E+04  0.39218229599E+04 0.  0.
        4    1    3    3  502    0 -0.18980059690E+03  0.55857174065E+03 -0.14881987650E+04  0.16008634649E+04  0.12699999809E+01 0. -1.
       -4    1    3    3    0  502  0.18980059690E+03 -0.55857174065E+03  0.23389144384E+04  0.24121668721E+04  0.12699999809E+01 0.  1.
</event>
<event>
 5   0  0.4750125E-08  0.3861953E+04  0.7818609E-02  0.8032989E-01
       -1   -1    0    0    0  501  0.00000000000E+00  0.00000000000E+00  0.26317484381E+04  0.26317484381E+04  0.50400001928E-02 0. -1.
        1   -1    0    0  501    0  0.00000000000E+00  0.00000000000E+00 -0.14168032829E+04  0.14168032829E+04  0.50400001928E-02 0.  1.
    10030    2    1    2    0    0  0.00000000000E+00  0.00000000000E+00  0.12149451552E+04  0.40485517211E+04  0.38619527843E+04 0.  0.
        5    1    3    3  502    0 -0.98528150882E+03 -0.16407131021E+04  0.87664444355E+03  0.21050526610E+04  0.46999998093E+01 0. -1.
       -5    1    3    3    0  502  0.98528150882E+03  0.16407131021E+04  0.33830071169E+03  0.19434990601E+04  0.46999998093E+01 0.  1.
</event>
<event>
 5   0  0.1546846E-07  0.3907659E+04  0.7818609E-02  0.8023438E-01
        2   -1    0    0  501    0  0.00000000000E+00  0.00000000000E+00  0.19720498598E+04  0.19720498598E+04  0.25500000920E-02 0. -1.
       -2   -1    0    0    0  501  0.00000000000E+00  0.00000000000E+00 -0.19357771466E+04  0.19357771466E+04  0.25500000920E-02 0.  1.
    10030    2    1    2    0    0  0.00000000000E+00  0.00000000000E+00  0.36272713128E+02  0.39078270064E+04  0.39076586599E+04 0.  0.
        2    1    3    3  502    0 -0.37824882317E+03  0.16338693994E+03  0.19281091013E+04  0.19716419987E+04  0.25500000920E-02 0. -1.
       -2    1    3    3    0  502  0.37824882317E+03 -0.16338693994E+03 -0.18918363882E+04  0.19361850077E+04  0.25500000920E-02 0.  1.
</event>
<event>
 5   0  0.1503228E-07  0.4046628E+04  0.7818609E-02  0.7995206E-01
        2   -1    0    0  501    0  0.00000000000E+00  0.00000000000E+00  0.25785479131E+04  0.25785479131E+04  0.25500000920E-02 0.  1.
       -2   -1    0    0    0  501  0.00000000000E+00  0.00000000000E+00 -0.15876375772E+04  0.15876375772E+04  0.25500000920E-02 0. -1.
    10030    2    1    2    0    0  0.00000000000E+00  0.00000000000E+00  0.99091033595E+03  0.41661854903E+04  0.40466280093E+04 0.  0.
        3    1    3    3  502    0  0.18956594161E+04 -0.66121558118E+03  0.23690019637E+03  0.20215964929E+04  0.10100000352E+00 0. -1.
       -3    1    3    3    0  502 -0.18956594161E+04  0.66121558118E+03  0.75401013958E+03  0.21445889974E+04  0.10100000352E+00 0.  1.
</event>
<event>
 5   0  0.4750125E-08  0.3906072E+04  0.7818609E-02  0.8023768E-01
        1   -1    0    0  501    0  0.00000000000E+00  0.00000000000E+00  0.19773248712E+04  0.19773248712E+04  0.50400001928E-02 0. -1.
       -1   -1    0    0    0  501  0.00000000000E+00  0.00000000000E+00 -0.19290450685E+04  0.19290450685E+04  0.50400001928E-02 0.  1.
    10030    2    1    2    0    0  0.00000000000E+00  0.00000000000E+00  0.48279802717E+02  0.39063699396E+04  0.39060715772E+04 0.  0.
        4    1    3    3  502    0 -0.13546004972E+03  0.80369908332E+03  0.17991178692E+04  0.19751223663E+04  0.12699999809E+01 0. -1.
       -4    1    3    3    0  502  0.13546004972E+03 -0.80369908332E+03 -0.17508380665E+04  0.19312475734E+04  0.12699999809E+01 0.  1.
</event>
<event>
 5   0  0.4750125E-08  0.3800033E+04  0.7818609E-02  0.8046148E-01
        1   -1    0    0  501    0  0.00000000000E+00  0.00000000000E+00  0.23550177188E+04  0.23550177188E+04  0.50400001928E-02 0.  1.
       -1   -1    0    0    0  501  0.00000000000E+00  0.00000000000E+00 -0.15329236262E+04  0.15329236262E+04  0.50400001928E-02 0. -1.
    10030    2    1    2    0    0  0.00000000000E+00  0.00000000000E+00  0.82209409263E+03  0.38879413450E+04  0.38000327900E+04 0.  0.
        5    1    3    3  502    0 -0.18478790712E+04  0.35447397452E+03  0.68122281728E+03  0.20010985676E+04  0.46999998093E+01 0. -1.
       -5    1    3    3    0  502  0.18478790712E+04 -0.35447397452E+03  0.14087127535E+03  0.18868427774E+04  0.46999998093E+01 0.  1.
</event>
<event>
 5   0  0.1503228E-07  0.3984407E+04  0.7818609E-02  0.8007700E-01
       -2   -1    0    0    0  501  0.00000000000E+00  0.00000000000E+00  0.29882294999E+04  0.29882294999E+04  0.25500000920E-02 0.  1.
        2   -1    0    0  501    0  0.00000000000E+00  0.00000000000E+00 -0.13281692626E+04  0.13281692626E+04  0.25500000920E-02 0. -1.
    10030    2    1    2    0    0  0.00000000000E+00  0.00000000000E+00  0.16600602373E+04  0.43163987626E+04  0.39844068926E+04 0.  0.
        3    1    3    3  502    0  0.15888307558E+04 -0.39028512598E+03 -0.40142197264E+03  0.16845905320E+04  0.10100000352E+00 0. -1.
       -3    1    3    3    0  502 -0.15888307558E+04  0.39028512598E+03  0.20614822099E+04  0.26318082305E+04  0.10100000352E+00 0.  1.
</event>
<event>
 5   0  0.1503228E-07  0.3920770E+04  0.7818609E-02  0.8020723E-01
       -2   -1    0    0    0  501  0.00000000000E+00  0.00000000000E+00  0.17276811541E+04  0.17276811541E+04  0.25500000920E-02 0.  1.
        2   -1    0    0  501    0  0.00000000000E+00  0.00000000000E+00 -0.22244318041E+04  0.22244318041E+04  0.25500000920E-02 0. -1.
    10030    2    1    2    0    0  0.00000000000E+00  0.00000000000E+00 -0.49675064993E+03  0.39521129582E+04  0.39207697747E+04 0.  0.
        3    1    3    3  502    0 -0.13542829771E+04  0.11648156738E+04  0.56568898057E+03  0.18737347648E+04  0.10100000352E+00 0. -1.
       -3    1    3    3    0  502  0.13542829771E+04 -0.11648156738E+04 -0.10624396305E+04  0.20783781934E+04  0.10100000352E+00 0.  1.
</event>
<event>
 5   0  0.1546846E-07  0.3914077E+04  0.7818609E-02  0.8022108E-01
       -2   -1    0    0    0  501  0.00000000000E+00  0.00000000000E+00  0.16520990810E+04  0.16520990810E+04  0.25500000920E-02 0. -1.
        2   -1    0    0  501    0  0.00000000000E+00  0.00000000000E+00 -0.23182621602E+04  0.23182621602E+04  0.25500000920E-02 0.  1.
    10030    2    1    2    0    0  0.00000000000E+00  0.00000000000E+00 -0.66616307923E+03  0.39703612412E+04  0.39140765370E+04 0.  0.
        2    1    3    3  502    0  0.69322702087E+03  0.92036164058E+03  0.12715540885E+04  0.17159484409E+04  0.25500000920E-02 0. -1.
       -2    1    3    3    0  502 -0.69322702087E+03 -0.92036164058E+03 -0.19377171677E+04  0.22544128003E+04  0.25500000920E-02 0.  1.
</event>
<event>
 5   0  0.4750125E-08  0.3905691E+04  0.7818609E-02  0.8023847E-01
        1   -1    0    0  501    0  0.00000000000E+00  0.00000000000E+00  0.18456945200E+04  0.18456945200E+04  0.50400001928E-02 0.  1.
       -1   -1    0    0    0  501  0.00000000000E+00  0.00000000000E+00 -0.20662175069E+04  0.20662175069E+04  0.50400001928E-02 0. -1.
    10030    2    1    2    0    0  0.00000000000E+00  0.00000000000E+00 -0.22052298695E+03  0.39119120269E+04  0.39056914008E+04 0.  0.
        1    1    3    3  502    0  0.81589930081E+03 -0.15342336175E+04  0.78224802204E+03  0.19056433114E+04  0.50400001928E-02 0. -1.
       -1    1    3    3    0  502 -0.81589930081E+03  0.15342336175E+04 -0.10027710090E+04  0.20062687155E+04  0.50400001928E-02 0.  1.
</event>
<event>
 5   0  0.1520986E-07  0.3885796E+04  0.7818609E-02  0.8027990E-01
       -2   -1    0    0    0  501  0.00000000000E+00  0.00000000000E+00  0.14374698102E+04  0.14374698102E+04  0.25500000920E-02 0. -1.
        2   -1    0    0  501    0  0.00000000000E+00  0.00000000000E+00 -0.26260393306E+04  0.26260393306E+04  0.25500000920E-02 0.  1.
    10030    2    1    2    0    0  0.00000000000E+00  0.00000000000E+00 -0.11885695203E+04  0.40635091408E+04  0.38857958043E+04 0.  0.
        4    1    3    3  502    0  0.11651905392E+04 -0.16820719707E+03 -0.22105742903E+04  0.25045165121E+04  0.12699999809E+01 0.  1.
       -4    1    3    3    0  502 -0.11651905392E+04  0.16820719707E+03  0.10220047699E+04  0.15589926287E+04  0.12699999809E+01 0. -1.
</event>
<event>
 5   0  0.1503228E-07  0.3891698E+04  0.7818609E-02  0.8026758E-01
       -2   -1    0    0    0  501  0.00000000000E+00  0.00000000000E+00  0.25625859430E+04  0.25625859430E+04  0.25500000920E-02 0.  1.
        2   -1    0    0  501    0  0.00000000000E+00  0.00000000000E+00 -0.14775423344E+04  0.14775423344E+04  0.25500000920E-02 0. -1.
    10030    2    1    2    0    0  0.00000000000E+00  0.00000000000E+00  0.10850436085E+04  0.40401282774E+04  0.38916984551E+04 0.  0.
        3    1    3    3  502    0  0.18583149389E+04  0.46085811303E+03  0.18199471904E+03  0.19232385969E+04  0.10100000352E+00 0.  1.
       -3    1    3    3    0  502 -0.18583149389E+04 -0.46085811303E+03  0.90304888949E+03  0.21168896805E+04  0.10100000352E+00 0. -1.
</event>
<event>
 5   0  0.4762788E-08  0.3907869E+04  0.7818609E-02  0.8023395E-01
        1   -1    0    0  501    0  0.00000000000E+00  0.00000000000E+00  0.23676236424E+04  0.23676236424E+04  0.50400001928E-02 0. -1.
       -1   -1    0    0    0  501  0.00000000000E+00  0.00000000000E+00 -0.16125281508E+04  0.16125281508E+04  0.50400001928E-02 0.  1.
    10030    2    1    2    0    0  0.00000000000E+00  0.00000000000E+00  0.75509549156E+03  0.39801517932E+04  0.39078688688E+04 0.  0.
        2    1    3    3  502    0 -0.12911279112E+04 -0.53432352392E+03  0.17685872175E+04  0.22539772974E+04  0.25500000920E-02 0. -1.
       -2    1    3    3    0  502  0.12911279112E+04  0.53432352392E+03 -0.10134917260E+04  0.17261744958E+04  0.25500000920E-02 0.  1.
</event>
<event>
 5   0  0.4750125E-08  0.3913287E+04  0.7818609E-02  0.8022271E-01
       -1   -1    0    0    0  501  0.00000000000E+00  0.00000000000E+00  0.27429455562E+04  0.27429455562E+04  0.50400001928E-02 0.  1.
        1   -1    0    0  501    0  0.00000000000E+00  0.00000000000E+00 -0.13957453202E+04  0.13957453202E+04  0.50400001928E-02 0. -1.
    10030    2    1    2    0    0  0.00000000000E+00  0.00000000000E+00  0.13472002360E+04  0.41386908764E+04  0.39132868147E+04 0.  0.
        1    1    3    3  502    0 -0.15373456617E+04 -0.11811827996E+04  0.95307257713E+03  0.21603175292E+04  0.50400001928E-02 0.  1.
       -1    1    3    3    0  502  0.15373456617E+04  0.11811827996E+04  0.39412765882E+03  0.19783733472E+04  0.50400001928E-02 0. -1.
</event>
<event>
 5   0  0.1538018E-07  0.3869653E+04  0.7818609E-02  0.8031371E-01
       -2   -1    0    0    0  501  0.00000000000E+00  0.00000000000E+00  0.19340279174E+04  0.19340279174E+04  0.25500000920E-02 0. -1.
        2   -1    0    0  501    0  0.00000000000E+00  0.00000000000E+00 -0.19356253648E+04  0.19356253648E+04  0.25500000920E-02 0.  1.
    10030    2    1    2    0    0  0.00000000000E+00  0.00000000000E+00 -0.15974473764E+01  0.38696532822E+04  0.38696529525E+04 0.  0.
        1    1    3    3  502    0 -0.19111104555E+04 -0.15722839636E+03  0.25705697736E+03  0.19347201946E+04  0.50400001928E-02 0. -1.
       -1    1    3    3    0  502  0.19111104555E+04  0.15722839636E+03 -0.25865442474E+03  0.19349330876E+04  0.50400001928E-02 0.  1.
</event>
<event>
 5   0  0.4750125E-08  0.3891372E+04  0.7818609E-02  0.8026826E-01
        1   -1    0    0  501    0  0.00000000000E+00  0.00000000000E+00  0.22600943142E+04  0.22600943142E+04  0.50400001928E-02 0.  1.
       -1   -1    0    0    0  501  0.00000000000E+00  0.00000000000E+00 -0.16750156024E+04  0.16750156024E+04  0.50400001928E-02 0. -1.
    10030    2    1    2    0    0  0.00000000000E+00  0.00000000000E+00  0.58507871176E+03  0.39351099166E+04  0.38913716035E+04 0.  0.
        5    1    3    3  502    0 -0.87438929626E+03  0.20799383635E+03 -0.14525022867E+04  0.17080992537E+04  0.46999998093E+01 0.  1.
       -5    1    3    3    0  502  0.87438929626E+03 -0.20799383635E+03  0.20375809985E+04  0.22270106629E+04  0.46999998093E+01 0. -1.
</event>
<event>
 5   0  0.4750125E-08  0.3977016E+04  0.7818609E-02  0.8009199E-01
        1   -1    0    0  501    0  0.00000000000E+00  0.00000000000E+00  0.18284340802E+04  0.18284340802E+04  0.50400001928E-02 0. -1.
       -1   -1    0    0    0  501  0.00000000000E+00  0.00000000000E+00 -0.21625958186E+04  0.21625958186E+04  0.50400001928E-02 0.  1.
    10030    2    1    2    0    0  0.00000000000E+00  0.00000000000E+00 -0.33416173839E+03  0.39910298987E+04  0.39770159146E+04 0.  0.
        1    1    3    3  502    0  0.39647166545E+02  0.13234596928E+04 -0.16559010787E+04  0.21201711815E+04  0.50400001928E-02 0.  1.
       -1    1    3    3    0  502 -0.39647166545E+02 -0.13234596928E+04  0.13217393403E+04  0.18708587173E+04  0.50400001928E-02 0. -1.
</event>
<event>
 5   0  0.1503228E-07  0.3881019E+04  0.7818609E-02  0.8028989E-01
       -2   -1    0    0    0  501  0.00000000000E+00  0.00000000000E+00  0.16237570884E+04  0.16237570884E+04  0.25500000920E-02 0.  1.
        2   -1    0    0  501    0  0.00000000000E+00  0.00000000000E+00 -0.23190517858E+04  0.23190517858E+04  0.25500000920E-02 0. -1.
    10030    2    1    2    0    0  0.00000000000E+00  0.00000000000E+00 -0.69529469740E+03  0.39428088741E+04  0.38810188226E+04 0.  0.
        3    1    3    3  502    0 -0.23108291165E+03  0.12025029102E-01  0.16097290192E+04  0.16262308685E+04  0.10100000352E+00 0.  1.
       -3    1    3    3    0  502  0.23108291165E+03 -0.12025029102E-01 -0.23050237166E+04  0.23165780057E+04  0.10100000352E+00 0. -1.
</event>
<event>
 5   0  0.4750125E-08  0.3916445E+04  0.7818609E-02  0.8021618E-01
        1   -1    0    0  501    0  0.00000000000E+00  0.00000000000E+00  0.25940599828E+04  0.25940599828E+04  0.50400001928E-02 0.  1.
       -1   -1    0    0    0  501  0.00000000000E+00  0.00000000000E+00 -0.14782366434E+04  0.14782366434E+04  0.50400001928E-02 0. -1.
    10030    2    1    2    0    0  0.00000000000E+00  0.00000000000E+00  0.11158233394E+04  0.40722966262E+04  0.39164445722E+04 0.  0.
        1    1    3    3  502    0 -0.14904882754E+04 -0.91481761077E+03 -0.35816299287E+03  0.17851406918E+04  0.50400001928E-02 0. -1.
       -1    1    3    3    0  502  0.14904882754E+04  0.91481761077E+03  0.14739863323E+04  0.22871559343E+04  0.50400001928E-02 0.  1.
</event>
<event>
 5   0  0.4750125E-08  0.3935843E+04  0.7818609E-02  0.8017616E-01
       -1   -1    0    0    0  501  0.00000000000E+00  0.00000000000E+00  0.17300982262E+04  0.17300982262E+04  0.50400001928E-02 0. -1.
        1   -1    0    0  501    0  0.00000000000E+00  0.00000000000E+00 -0.22384361326E+04  0.22384361326E+04  0.50400001928E-02 0.  1.
    10030    2    1    2    0    0  0.00000000000E+00  0.00000000000E+00 -0.50833790638E+03  0.39685343588E+04  0.39358426709E+04 0.  0.
        1    1    3    3  502    0  0.17701517147E+04 -0.77423592469E+03  0.12288365176E+03  0.19359697188E+04  0.50400001928E-02 0. -1.
       -1    1    3    3    0  502 -0.17701517147E+04  0.77423592469E+03 -0.63122155815E+03  0.20325646400E+04  0.50400001928E-02 0.  1.
</event>
<event>
 5   0  0.4762788E-08  0.3874564E+04  0.7818609E-02  0.8030340E-01
        1   -1    0    0  501    0  0.00000000000E+00  0.00000000000E+00  0.25959285880E+04  0.25959285880E+04  0.50400001928E-02 0. -1.
       -1   -1    0    0    0  501  0.00000000000E+00  0.00000000000E+00 -0.14457490063E+04  0.14457490063E+04  0.50400001928E-02 0.  1.
    10030    2    1    2    0    0  0.00000000000E+00  0.00000000000E+00  0.11501795817E+04  0.40416775943E+04  0.38745638085E+04 0.  0.
        2    1    3    3  502    0  0.14462186641E+03  0.18982091052E+04  0.94967097772E+03  0.21274370160E+04  0.25500000920E-02 0.  1.
       -2    1    3    3    0  502 -0.14462186641E+03 -0.18982091052E+04  0.20050860399E+03  0.19142405783E+04  0.25500000920E-02 0. -1.
</event>
<event>
 5   0  0.1538018E-07  0.3725925E+04  0.7818609E-02  0.8062241E-01
       -2   -1    0    0    0  501  0.00000000000E+00  0.00000000000E+00  0.17364030214E+04  0.17364030214E+04  0.25500000920E-02 0. -1.
        2   -1    0    0  501    0  0.00000000000E+00  0.00000000000E+00 -0.19987463481E+04  0.19987463481E+04  0.25500000920E-02 0.  1.
    10030    2    1    2    0    0  0.00000000000E+00  0.00000000000E+00 -0.26234332667E+03  0.37351493695E+04  0.37259249578E+04 0.  0.
        1    1    3    3  502    0 -0.61699093068E+03  0.65927367917E+03  0.15023746564E+04  0.17528403238E+04  0.50400001928E-02 0. -1.
       -1    1    3    3    0  502  0.61699093068E+03 -0.65927367917E+03 -0.17647179831E+04  0.19823090456E+04  0.50400001928E-02 0.  1.
</event>
<event>
 5   0  0.1503228E-07  0.3896336E+04  0.7818609E-02  0.8025792E-01
       -2   -1    0    0    0  501  0.00000000000E+00  0.00000000000E+00  0.22030949624E+04  0.22030949624E+04  0.25500000920E-02 0.  1.
        2   -1    0    0  501    0  0.00000000000E+00  0.00000000000E+00 -0.17227390530E+04  0.17227390530E+04  0.25500000920E-02 0. -1.
    10030    2    1    2    0    0  0.00000000000E+00  0.00000000000E+00  0.48035590939E+03  0.39258340155E+04  0.38963355756E+04 0.  0.
        3    1    3    3  502    0  0.14378054508E+04  0.19244817947E+03  0.15504217821E+04  0.21232353917E+04  0.10100000352E+00 0.  1.
       -3    1    3    3    0  502 -0.14378054508E+04 -0.19244817947E+03 -0.10700658727E+04  0.18025986237E+04  0.10100000352E+00 0. -1.
</event>
<event>
 5   0  0.1546846E-07  0.3871943E+04  0.7818609E-02  0.8030890E-01
        2   -1    0    0  501    0  0.00000000000E+00  0.00000000000E+00  0.31732827633E+04  0.31732827633E+04  0.25500000920E-02 0.  1.
       -2   -1    0    0    0  501  0.00000000000E+00  0.00000000000E+00 -0.11811065962E+04  0.11811065962E+04  0.25500000920E-02 0. -1.
    10030    2    1    2    0    0  0.00000000000E+00  0.00000000000E+00  0.19921761671E+04  0.43543893595E+04  0.38719427698E+04 0.  0.
        2    1    3    3  502    0  0.97689296922E+03  0.13182243190E+04 -0.15954509643E+03  0.16484810786E+04  0.25500000920E-02 0. -1.
       -2    1    3    3    0  502 -0.97689296922E+03 -0.13182243190E+04  0.21517212635E+04  0.27059082809E+04  0.25500000920E-02 0.  1.
</event>
<event>
 5   0  0.1538018E-07  0.3903194E+04  0.7818609E-02  0.8024365E-01
        2   -1    0    0  501    0  0.00000000000E+00  0.00000000000E+00  0.22804247276E+04  0.22804247276E+04  0.25500000920E-02 0. -1.
       -2   -1    0    0    0  501  0.00000000000E+00  0.00000000000E+00 -0.16701850752E+04  0.16701850752E+04  0.25500000920E-02 0.  1.
    10030    2    1    2    0    0  0.00000000000E+00  0.00000000000E+00  0.61023965241E+03  0.39506098028E+04  0.39031942535E+04 0.  0.
        1    1    3    3  502    0 -0.77689068890E+03 -0.16779054786E+04  0.93704826597E+03  0.20729171209E+04  0.50400001928E-02 0. -1.
       -1    1    3    3    0  502  0.77689068890E+03  0.16779054786E+04 -0.32680861356E+03  0.18776926818E+04  0.50400001928E-02 0.  1.
</event>
<event>
 5   0  0.1503228E-07  0.3976146E+04  0.7818609E-02  0.8009376E-01
        2   -1    0    0  501    0  0.00000000000E+00  0.00000000000E+00  0.26535199248E+04  0.26535199248E+04  0.25500000920E-02 0.  1.
       -2   -1    0    0    0  501  0.00000000000E+00  0.00000000000E+00 -0.14895063543E+04  0.14895063543E+04  0.25500000920E-02 0. -1.
    10030    2    1    2    0    0  0.00000000000E+00  0.00000000000E+00  0.11640135705E+04  0.41430262792E+04  0.39761462696E+04 0.  0.
        3    1    3    3  502    0 -0.18976337595E+04 -0.36665996300E+02 -0.34498514320E+02  0.18983014613E+04  0.10100000352E+00 0. -1.
       -3    1    3    3    0  502  0.18976337595E+04  0.36665996300E+02  0.11985120848E+04  0.22447248179E+04  0.10100000352E+00 0.  1.
</event>
<event>
 5   0  0.4750125E-08  0.3846719E+04  0.7818609E-02  0.8036203E-01
       -1   -1    0    0    0  501  0.00000000000E+00  0.00000000000E+00  0.26309540553E+04  0.26309540553E+04  0.50400001928E-02 0. -1.
        1   -1    0    0  501    0  0.00000000000E+00  0.00000000000E+00 -0.14060722260E+04  0.14060722261E+04  0.50400001928E-02 0.  1.
    10030    2    1    2    0    0  0.00000000000E+00  0.00000000000E+00  0.12248818293E+04  0.40370262814E+04  0.38467188227E+04 0.  0.
        3    1    3    3  502    0 -0.12023506179E+04 -0.14685711272E+04  0.28564642997E+03  0.19193598040E+04  0.10100000352E+00 0.  1.
       -3    1    3    3    0  502  0.12023506179E+04  0.14685711272E+04  0.93923539933E+03  0.21176664774E+04  0.10100000352E+00 0. -1.
</event>
<event>
 5   0  0.1520986E-07  0.3917310E+04  0.7818609E-02  0.8021439E-01
        2   -1    0    0  501    0  0.00000000000E+00  0.00000000000E+00  0.19763852515E+04  0.19763852515E+04  0.25500000920E-02 0. -1.
       -2   -1    0    0    0  501  0.00000000000E+00  0.00000000000E+00 -0.19410834343E+04  0.19410834343E+04  0.25500000920E-02 0.  1.
    10030    2    1    2    0    0  0.00000000000E+00  0.00000000000E+00  0.35301817204E+02  0.39174686859E+04  0.39173096235E+04 0.  0.
        4    1    3    3  502    0 -0.16767124208E+04  0.66188279987E+03 -0.74845700599E+03  0.19518306498E+04  0.12699999809E+01 0.  1.
       -4    1    3    3    0  502  0.16767124208E+04 -0.66188279987E+03  0.78375882319E+03  0.19656380361E+04  0.12699999809E+01 0. -1.
</event>
<event>
 5   0  0.1546846E-07  0.3907048E+04  0.7818609E-02  0.8023565E-01
        2   -1    0    0  501    0  0.00000000000E+00  0.00000000000E+00  0.22622512048E+04  0.22622512048E+04  0.25500000920E-02 0. -1.
       -2   -1    0    0    0  501  0.00000000000E+00  0.00000000000E+00 -0.16869284209E+04  0.16869284209E+04  0.25500000920E-02 0.  1.
    10030    2    1    2    0    0  0.00000000000E+00  0.00000000000E+00  0.57532278389E+03  0.39491796257E+04  0.39070479151E+04 0.  0.
        2    1    3    3  502    0 -0.69611035959E+03  0.14709540758E+04 -0.80472407647E+03  0.18154493563E+04  0.25500000920E-02 0.  1.
       -2    1    3    3    0  502  0.69611035959E+03 -0.14709540758E+04  0.13800468604E+04  0.21337302694E+04  0.25500000920E-02 0. -1.
</event>
<event>
 5   0  0.4762788E-08  0.3892478E+04  0.7818609E-02  0.8026595E-01
       -1   -1    0    0    0  501  0.00000000000E+00  0.00000000000E+00  0.14952928525E+04  0.14952928525E+04  0.50400001928E-02 0. -1.
        1   -1    0    0  501    0  0.00000000000E+00  0.00000000000E+00 -0.25331801899E+04  0.25331801899E+04  0.50400001928E-02 0.  1.
    10030    2    1    2    0    0  0.00000000000E+00  0.00000000000E+00 -0.10378873375E+04  0.40284730424E+04  0.38924779933E+04 0.  0.
        2    1    3    3  502    0 -0.19096855984E+04 -0.33549468369E+03 -0.34456211362E+03  0.19693092234E+04  0.25500000920E-02 0. -1.
       -2    1    3    3    0  502  0.19096855984E+04  0.33549468369E+03 -0.69332522383E+03  0.20591638190E+04  0.25500000920E-02 0.  1.
</event>
<event>
 5   0  0.4762788E-08  0.3878898E+04  0.7818609E-02  0.8029432E-01
        1   -1    0    0  501    0  0.00000000000E+00  0.00000000000E+00  0.20053129796E+04  0.20053129796E+04  0.50400001928E-02 0. -1.
       -1   -1    0    0    0  501  0.00000000000E+00  0.00000000000E+00 -0.18757480788E+04  0.18757480788E+04  0.50400001928E-02 0.  1.
    10030    2    1    2    0    0  0.00000000000E+00  0.00000000000E+00  0.12956490084E+03  0.38810610584E+04  0.38788977655E+04 0.  0.
        2    1    3    3  502    0 -0.53038796731E+03  0.13297649648E+03 -0.17970260774E+04  0.18783761251E+04  0.25500000920E-02 0.  1.
       -2    1    3    3    0  502  0.53038796731E+03 -0.13297649648E+03  0.19265909783E+04  0.20026849333E+04  0.25500000920E-02 0. -1.
</event>
<event>
 5   0  0.1538018E-07  0.3874908E+04  0.7818609E-02  0.8030268E-01
       -2   -1    0    0    0  501  0.00000000000E+00  0.00000000000E+00  0.24603018060E+04  0.24603018060E+04  0.25500000920E-02 0. -1.
        2   -1    0    0  501    0  0.00000000000E+00  0.00000000000E+00 -0.15257183226E+04  0.15257183226E+04  0.25500000920E-02 0.  1.
    10030    2    1    2    0    0  0.00000000000E+00  0.00000000000E+00  0.93458348334E+03  0.39860201286E+04  0.38749077638E+04 0.  0.
        1    1    3    3  502    0  0.12887212378E+04  0.58920655641E+02  0.19542352547E+04  0.23416467503E+04  0.50400001928E-02 0. -1.
       -1    1    3    3    0  502 -0.12887212378E+04 -0.58920655641E+02 -0.10196517714E+04  0.16443733783E+04  0.50400001928E-02 0.  1.
</event>
<event>
 5   0  0.4750125E-08  0.3907479E+04  0.7818609E-02  0.8023476E-01
        1   -1    0    0  501    0  0.00000000000E+00  0.00000000000E+00  0.13655799903E+04  0.13655799903E+04  0.50400001928E-02 0. -1.
       -1   -1    0    0    0  501  0.00000000000E+00  0.00000000000E+00 -0.27952209752E+04  0.27952209752E+04  0.50400001928E-02 0.  1.
    10030    2    1    2    0    0  0.00000000000E+00  0.00000000000E+00 -0.14296409848E+04  0.41608009655E+04  0.39074788968E+04 0.  0.
        1    1    3    3  502    0  0.76649897551E+03  0.57769390102E+03  0.10972208406E+04  0.14577875345E+04  0.50400001928E-02 0. -1.
       -1    1    3    3    0  502 -0.76649897551E+03 -0.57769390102E+03 -0.25268618255E+04  0.27030134309E+04  0.50400001928E-02 0.  1.
</event>
<event>
 5   0  0.4750125E-08  0.3650635E+04  0.7818609E-02  0.8078991E-01
        1   -1    0    0  501    0  0.00000000000E+00  0.00000000000E+00  0.15730328673E+04  0.15730328673E+04  0.50400001928E-02 0.  1.
       -1   -1    0    0    0  501  0.00000000000E+00  0.00000000000E+00 -0.21180633256E+04  0.21180633256E+04  0.50400001928E-02 0. -1.
    10030    2    1    2    0    0  0.00000000000E+00  0.00000000000E+00 -0.54503045823E+03  0.36910961929E+04  0.36506345893E+04 0.  0.
        5    1    3    3  502    0 -0.10654956912E+04 -0.61462917824E+03  0.10910278103E+04  0.16442061512E+04  0.46999998093E+01 0.  1.
       -5    1    3    3    0  502  0.10654956912E+04  0.61462917824E+03 -0.16360582686E+04  0.20468900417E+04  0.46999998093E+01 0. -1.
</event>
<event>
 5   0  0.4750125E-08  0.3626069E+04  0.7818609E-02  0.8084546E-01
        1   -1    0    0  501    0  0.00000000000E+00  0.00000000000E+00  0.17261327088E+04  0.17261327088E+04  0.50400001928E-02 0. -1.
       -1   -1    0    0    0  501  0.00000000000E+00  0.00000000000E+00 -0.19043111932E+04  0.19043111932E+04  0.50400001928E-02 0.  1.
    10030    2    1    2    0    0  0.00000000000E+00  0.00000000000E+00 -0.17817848436E+03  0.36304439020E+04  0.36260688567E+04 0.  0.
        1    1    3    3  502    0 -0.13289632270E+04 -0.36347922931E+03 -0.12689989228E+04  0.18731307149E+04  0.50400001928E-02 0. -1.
       -1    1    3    3    0  502  0.13289632270E+04  0.36347922931E+03  0.10908204385E+04  0.17573131872E+04  0.50400001928E-02 0.  1.
</event>
<event>
 5   0  0.4750125E-08  0.3900526E+04  0.7818609E-02  0.8024920E-01
       -1   -1    0    0    0  501  0.00000000000E+00  0.00000000000E+00  0.17761753397E+04  0.17761753397E+04  0.50400001928E-02 0. -1.
        1   -1    0    0  501    0  0.00000000000E+00  0.00000000000E+00 -0.21414131262E+04  0.21414131262E+04  0.50400001928E-02 0.  1.
    10030    2    1    2    0    0  0.00000000000E+00  0.00000000000E+00 -0.36523778649E+03  0.39175884660E+04  0.39005257015E+04 0.  0.
        3    1    3    3  502    0 -0.18091354818E+04  0.58851681605E+03  0.24844611596E+03  0.19186059306E+04  0.10100000352E+00 0. -1.
       -3    1    3    3    0  502  0.18091354818E+04 -0.58851681605E+03 -0.61368390245E+03  0.19989825353E+04  0.10100000352E+00 0.  1.
</event>
<event>
 5   0  0.1503228E-07  0.3885044E+04  0.7818609E-02  0.8028147E-01
        2   -1    0    0  501    0  0.00000000000E+00  0.00000000000E+00  0.18906263734E+04  0.18906263734E+04  0.25500000920E-02 0. -1.
       -2   -1    0    0    0  501  0.00000000000E+00  0.00000000000E+00 -0.19958416896E+04  0.19958416896E+04  0.25500000920E-02 0.  1.
    10030    2    1    2    0    0  0.00000000000E+00  0.00000000000E+00 -0.10521531619E+03  0.38864680629E+04  0.38850435958E+04 0.  0.
        3    1    3    3  502    0  0.93845929746E+03 -0.10053470983E+04 -0.14249569560E+04  0.19803865728E+04  0.10100000352E+00 0.  1.
       -3    1    3    3    0  502 -0.93845929746E+03  0.10053470983E+04  0.13197416398E+04  0.19060814901E+04  0.10100000352E+00 0. -1.
</event>
<event>
 5   0  0.1538018E-07  0.3913689E+04  0.7818609E-02  0.8022188E-01
        2   -1    0    0  501    0  0.00000000000E+00  0.00000000000E+00  0.28161596289E+04  0.28161596289E+04  0.25500000920E-02 0.  1.
       -2   -1    0    0    0  501  0.00000000000E+00  0.00000000000E+00 -0.13597387109E+04  0.13597387109E+04  0.25500000920E-02 0. -1.
    10030    2    1    2    0    0  0.00000000000E+00  0.00000000000E+00  0.14564209180E+04  0.41758983398E+04  0.39136894427E+04 0.  0.
        1    1    3    3  502    0  0.14587382985E+04  0.48574660875E+03  0.20198395209E+04  0.25384284275E+04  0.50400001928E-02 0.  1.
       -1    1    3    3    0  502 -0.14587382985E+04 -0.48574660875E+03 -0.56341860291E+03  0.16374699123E+04  0.50400001928E-02 0. -1.
</event>
<event>
 5   0  0.1520986E-07  0.3901916E+04  0.7818609E-02  0.8024631E-01
       -2   -1    0    0    0  501  0.00000000000E+00  0.00000000000E+00  0.19704758015E+04  0.19704758015E+04  0.25500000920E-02 0.  1.
        2   -1    0    0  501    0  0.00000000000E+00  0.00000000000E+00 -0.19316339586E+04  0.19316339586E+04  0.25500000920E-02 0. -1.
    10030    2    1    2    0    0  0.00000000000E+00  0.00000000000E+00  0.38841842918E+02  0.39021097601E+04  0.39019164383E+04 0.  0.
        4    1    3    3  502    0 -0.12277843581E+04 -0.71050798730E+03  0.13588753250E+04  0.19643878924E+04  0.12699999809E+01 0.  1.
       -4    1    3    3    0  502  0.12277843581E+04  0.71050798730E+03 -0.13200334821E+04  0.19377218677E+04  0.12699999809E+01 0. -1.
</event>
<event>
 5   0  0.4762788E-08  0.3881413E+04  0.7818609E-02  0.8028906E-01
       -1   -1    0    0    0  501  0.00000000000E+00  0.00000000000E+00  0.17023483178E+04  0.17023483178E+04  0.50400001928E-02 0.  1.
        1   -1    0    0  501    0  0.00000000000E+00  0.00000000000E+00 -0.22124392232E+04  0.22124392232E+04  0.50400001928E-02 0. -1.
    10030    2    1    2    0    0  0.00000000000E+00  0.00000000000E+00 -0.51009090537E+03  0.39147875410E+04  0.38814132425E+04 0.  0.
        2    1    3    3  502    0 -0.13329670331E+04  0.14101587459E+04 -0.28683454624E+03  0.19615358414E+04  0.25500000920E-02 0. -1.
       -2    1    3    3    0  502  0.13329670331E+04 -0.14101587459E+04 -0.22325635912E+03  0.19532516996E+04  0.25500000920E-02 0.  1.
</event>
<event>
 5   0  0.1501585E-07  0.3880223E+04  0.7818609E-02  0.8029155E-01
       -2   -1    0    0    0  501  0.00000000000E+00  0.00000000000E+00  0.17579887062E+04  0.17579887062E+04  0.25500000920E-02 0. -1.
        2   -1    0    0  501    0  0.00000000000E+00  0.00000000000E+00 -0.21411017604E+04  0.21411017604E+04  0.25500000920E-02 0.  1.
    10030    2    1    2    0    0  0.00000000000E+00  0.00000000000E+00 -0.38311305421E+03  0.38990904666E+04  0.38802230419E+04 0.  0.
        5    1    3    3  502    0  0.17730569533E+04 -0.44679602681E+02 -0.98168991498E+03  0.20271813944E+04  0.46999998093E+01 0. -1.
       -5    1    3    3    0  502 -0.17730569533E+04  0.44679602681E+02  0.59857686077E+03  0.18719090723E+04  0.46999998093E+01 0.  1.
</event>
<event>
 5   0  0.1501585E-07  0.3903926E+04  0.7818609E-02  0.8024213E-01
       -2   -1    0    0    0  501  0.00000000000E+00  0.00000000000E+00  0.20281207238E+04  0.20281207238E+04  0.25500000920E-02 0.  1.
        2   -1    0    0  501    0  0.00000000000E+00  0.00000000000E+00 -0.18786650639E+04  0.18786650639E+04  0.25500000920E-02 0. -1.
    10030    2    1    2    0    0  0.00000000000E+00  0.00000000000E+00  0.14945565985E+03  0.39067857877E+04  0.39039259979E+04 0.  0.
        5    1    3    3  502    0  0.76760542553E+03  0.12389326521E+04  0.13741262442E+04  0.20031019022E+04  0.46999998093E+01 0.  1.
       -5    1    3    3    0  502 -0.76760542553E+03 -0.12389326521E+04 -0.12246705843E+04  0.19036838855E+04  0.46999998093E+01 0. -1.
</event>
<event>
 5   0  0.1503228E-07  0.3929634E+04  0.7818609E-02  0.8018894E-01
       -2   -1    0    0    0  501  0.00000000000E+00  0.00000000000E+00  0.14375437330E+04  0.14375437330E+04  0.25500000920E-02 0.  1.
        2   -1    0    0  501    0  0.00000000000E+00  0.00000000000E+00 -0.26854869930E+04  0.26854869930E+04  0.25500000920E-02 0. -1.
    10030    2    1    2    0    0  0.00000000000E+00  0.00000000000E+00 -0.12479432601E+04  0.41230307260E+04  0.39296335691E+04 0.  0.
        3    1    3    3  502    0  0.62781769786E+03  0.13591260471E+04  0.71110096580E+03  0.16574206670E+04  0.10100000352E+00 0.  1.
       -3    1    3    3    0  502 -0.62781769786E+03 -0.13591260471E+04 -0.19590442259E+04  0.24656100590E+04  0.10100000352E+00 0. -1.
</event>
<event>
 5   0  0.1501585E-07  0.3889360E+04  0.7818609E-02  0.8027246E-01
        2   -1    0    0  501    0  0.00000000000E+00  0.00000000000E+00  0.24682573110E+04  0.24682573110E+04  0.25500000920E-02 0. -1.
       -2   -1    0    0    0  501  0.00000000000E+00  0.00000000000E+00 -0.15321664553E+04  0.15321664553E+04  0.25500000920E-02 0.  1.
    10030    2    1    2    0    0  0.00000000000E+00  0.00000000000E+00  0.93609085573E+03  0.40004237663E+04  0.38893603870E+04 0.  0.
        5    1    3    3  502    0  0.68542035636E+03  0.10817497245E+04 -0.10372258626E+04  0.16479815264E+04  0.46999998093E+01 0.  1.
       -5    1    3    3    0  502 -0.68542035636E+03 -0.10817497245E+04  0.19733167183E+04  0.23524422399E+04  0.46999998093E+01 0. -1.
</event>
<event>
 5   0  0.1546846E-07  0.3823543E+04  0.7818609E-02  0.8041121E-01
        2   -1    0    0  501    0  0.00000000000E+00  0.00000000000E+00  0.27747439733E+04  0.27747439733E+04  0.25500000920E-02 0. -1.
       -2   -1    0    0    0  501  0.00000000000E+00  0.00000000000E+00 -0.13171919620E+04  0.13171919620E+04  0.25500000920E-02 0.  1.
    10030    2    1    2    0    0  0.00000000000E+00  0.00000000000E+00  0.14575520113E+04  0.40919359354E+04  0.38235430995E+04 0.  0.
        2    1    3    3  502    0 -0.34021538328E+03  0.69156885141E+03  0.26011142944E+04  0.27128968937E+04  0.25500000920E-02 0. -1.
       -2    1    3    3    0  502  0.34021538328E+03 -0.69156885141E+03 -0.11435622831E+04  0.13790390417E+04  0.25500000920E-02 0.  1.
</event>
<event>
 5   0  0.1501585E-07  0.3892356E+04  0.7818609E-02  0.8026621E-01
       -2   -1    0    0    0  501  0.00000000000E+00  0.00000000000E+00  0.18704390983E+04  0.18704390983E+04  0.25500000920E-02 0.  1.
        2   -1    0    0  501    0  0.00000000000E+00  0.00000000000E+00 -0.20249835118E+04  0.20249835118E+04  0.25500000920E-02 0. -1.
    10030    2    1    2    0    0  0.00000000000E+00  0.00000000000E+00 -0.15454441354E+03  0.38954226101E+04  0.38923557565E+04 0.  0.
        5    1    3    3  502    0  0.17685454985E+04 -0.65089057800E+03  0.40908860329E+03  0.19284157488E+04  0.46999998093E+01 0.  1.
       -5    1    3    3    0  502 -0.17685454985E+04  0.65089057800E+03 -0.56363301682E+03  0.19670068613E+04  0.46999998093E+01 0. -1.
</event>
<event>
 5   0  0.1546846E-07  0.3800570E+04  0.7818609E-02  0.8046033E-01
        2   -1    0    0  501    0  0.00000000000E+00  0.00000000000E+00  0.24109082578E+04  0.24109082578E+04  0.25500000920E-02 0.  1.
       -2   -1    0    0    0  501  0.00000000000E+00  0.00000000000E+00 -0.14978100738E+04  0.14978100738E+04  0.25500000920E-02 0. -1.
    10030    2    1    2    0    0  0.00000000000E+00  0.00000000000E+00  0.91309818393E+03  0.39087183316E+04  0.38005697866E+04 0.  0.
        2    1    3    3  502    0  0.29972856782E+03 -0.85862910436E+03 -0.12594632154E+04  0.15534892160E+04  0.25500000920E-02 0. -1.
       -2    1    3    3    0  502 -0.29972856782E+03  0.85862910436E+03  0.21725613993E+04  0.23552291156E+04  0.25500000920E-02 0.  1.
</event>
<event>
 5   0  0.1520986E-07  0.3885208E+04  0.7818609E-02  0.8028113E-01
        2   -1    0    0  501    0  0.00000000000E+00  0.00000000000E+00  0.15789982036E+04  0.15789982036E+04  0.25500000920E-02 0.  1.
       -2   -1    0    0    0  501  0.00000000000E+00  0.00000000000E+00 -0.23899393899E+04  0.23899393899E+04  0.25500000920E-02 0. -1.
    10030    2    1    2    0    0  0.00000000000E+00  0.00000000000E+00 -0.81094118632E+03  0.39689375936E+04  0.38852078469E+04 0.  0.
        4    1    3    3  502    0  0.14938842138E+04  0.88471253293E+03  0.48468783450E+03  0.18025898646E+04  0.12699999809E+01 0.  1.
       -4    1    3    3    0  502 -0.14938842138E+04 -0.88471253293E+03 -0.12956290208E+04  0.21663477289E+04  0.12699999809E+01 0. -1.
</event>
<event>
 5   0  0.1538018E-07  0.3815674E+04  0.7818609E-02  0.8042800E-01
        2   -1    0    0  501    0  0.00000000000E+00  0.00000000000E+00  0.21913670617E+04  0.21913670617E+04  0.25500000920E-02 0. -1.
       -2   -1    0    0    0  501  0.00000000000E+00  0.00000000000E+00 -0.16609911187E+04  0.16609911187E+04  0.25500000920E-02 0.  1.
    10030    2    1    2    0    0  0.00000000000E+00  0.00000000000E+00  0.53037594296E+03  0.38523581804E+04  0.38156735852E+04 0.  0.
        1    1    3    3  502    0  0.16929271018E+04 -0.14781038972E+03  0.11406993749E+04  0.20467156977E+04  0.50400001928E-02 0. -1.
       -1    1    3    3    0  502 -0.16929271018E+04  0.14781038972E+03 -0.61032343195E+03  0.18056424826E+04  0.50400001928E-02 0.  1.
</event>
<event>
 5   0  0.4750125E-08  0.3877984E+04  0.7818609E-02  0.8029624E-01
        1   -1    0    0  501    0  0.00000000000E+00  0.00000000000E+00  0.26670216998E+04  0.26670216998E+04  0.50400001928E-02 0. -1.
       -1   -1    0    0    0  501  0.00000000000E+00  0.00000000000E+00 -0.14096960734E+04  0.14096960734E+04  0.50400001928E-02 0.  1.
    10030    2    1    2    0    0  0.00000000000E+00  0.00000000000E+00  0.12573256263E+04  0.40767177732E+04  0.38779840216E+04 0.  0.
        1    1    3    3  502    0 -0.18139214156E+04  0.28744825247E+03  0.12824272053E+04  0.22399903876E+04  0.50400001928E-02 0. -1.
       -1    1    3    3    0  502  0.18139214156E+04 -0.28744825247E+03 -0.25101578977E+02  0.18367273856E+04  0.50400001928E-02 0.  1.
</event>
<event>
 5   0  0.4750125E-08  0.3890330E+04  0.7818609E-02  0.8027043E-01
        1   -1    0    0  501    0  0.00000000000E+00  0.00000000000E+00  0.25090872698E+04  0.25090872699E+04  0.50400001928E-02 0.  1.
       -1   -1    0    0    0  501  0.00000000000E+00  0.00000000000E+00 -0.15079851792E+04  0.15079851792E+04  0.50400001928E-02 0. -1.
    10030    2    1    2    0    0  0.00000000000E+00  0.00000000000E+00  0.10011020907E+04  0.40170724490E+04  0.38903297630E+04 0.  0.
        5    1    3    3  502    0  0.48030942767E+03  0.49507809475E+03  0.23785520272E+04  0.24765563394E+04  0.46999998093E+01 0.  1.
       -5    1    3    3    0  502 -0.48030942767E+03 -0.49507809475E+03 -0.13774499366E+04  0.15405161096E+04  0.46999998093E+01 0. -1.
</event>
<event>
 5   0  0.4762788E-08  0.3908362E+04  0.7818609E-02  0.8023292E-01
        1   -1    0    0  501    0  0.00000000000E+00  0.00000000000E+00  0.16979235030E+04  0.16979235030E+04  0.50400001928E-02 0. -1.
       -1   -1    0    0    0  501  0.00000000000E+00  0.00000000000E+00 -0.22491140313E+04  0.22491140313E+04  0.50400001928E-02 0.  1.
    10030    2    1    2    0    0  0.00000000000E+00  0.00000000000E+00 -0.55119052829E+03  0.39470375343E+04  0.39083620993E+04 0.  0.
        2    1    3    3  502    0 -0.63365180855E+03  0.17037266336E+04  0.44887689391E+03  0.18723486648E+04  0.25500000920E-02 0. -1.
       -2    1    3    3    0  502  0.63365180855E+03 -0.17037266336E+04 -0.10000674222E+04  0.20746888696E+04  0.25500000920E-02 0.  1.
</event>
<event>
 5   0  0.4750125E-08  0.3940392E+04  0.7818609E-02  0.8016681E-01
       -3   -1    0    0    0  501  0.00000000000E+00  0.00000000000E+00  0.14745527588E+04  0.14745527622E+04  0.10100000352E+00 0. -1.
        3   -1    0    0  501    0  0.00000000000E+00  0.00000000000E+00 -0.26324400129E+04  0.26324400149E+04  0.10100000352E+00 0.  1.
    10030    2    1    2    0    0  0.00000000000E+00  0.00000000000E+00 -0.11578872542E+04  0.41069927771E+04  0.39403917036E+04 0.  0.
        3    1    3    3  502    0  0.48585962286E+03  0.89366584576E+03 -0.23375808169E+04  0.25493101621E+04  0.10100000352E+00 0.  1.
       -3    1    3    3    0  502 -0.48585962286E+03 -0.89366584576E+03  0.11796935627E+04  0.15576826150E+04  0.10100000352E+00 0. -1.
</event>
<event>
 5   0  0.1538018E-07  0.3928521E+04  0.7818609E-02  0.8019123E-01
       -2   -1    0    0    0  501  0.00000000000E+00  0.00000000000E+00  0.17522314073E+04  0.17522314073E+04  0.25500000920E-02 0. -1.
        2   -1    0    0  501    0  0.00000000000E+00  0.00000000000E+00 -0.22019458460E+04  0.22019458460E+04  0.25500000920E-02 0.  1.
    10030    2    1    2    0    0  0.00000000000E+00  0.00000000000E+00 -0.44971443868E+03  0.39541772532E+04  0.39285206724E+04 0.  0.
        1    1    3    3  502    0  0.43825539511E+03 -0.14228187697E+04 -0.15145675920E+04  0.21237692985E+04  0.50400001928E-02 0.  1.
       -1    1    3    3    0  502 -0.43825539511E+03  0.14228187697E+04  0.10648531533E+04  0.18304079547E+04  0.50400001928E-02 0. -1.
</event>
<event>
 5   0  0.1520986E-07  0.3883459E+04  0.7818609E-02  0.8028478E-01
       -2   -1    0    0    0  501  0.00000000000E+00  0.00000000000E+00  0.20748416962E+04  0.20748416962E+04  0.25500000920E-02 0.  1.
        2   -1    0    0  501    0  0.00000000000E+00  0.00000000000E+00 -0.18171574099E+04  0.18171574099E+04  0.25500000920E-02 0. -1.
    10030    2    1    2    0    0  0.00000000000E+00  0.00000000000E+00  0.25768428628E+03  0.38919991060E+04  0.38834592633E+04 0.  0.
        4    1    3    3  502    0 -0.97784043497E+03  0.15137526888E+04  0.85340725002E+03  0.19939720827E+04  0.12699999809E+01 0.  1.
       -4    1    3    3    0  502  0.97784043497E+03 -0.15137526888E+04 -0.59572296375E+03  0.18980270234E+04  0.12699999809E+01 0. -1.
</event>
<event>
 5   0  0.4750125E-08  0.3709907E+04  0.7818609E-02  0.8065770E-01
       -1   -1    0    0    0  501  0.00000000000E+00  0.00000000000E+00  0.12399884231E+04  0.12399884231E+04  0.50400001928E-02 0. -1.
        1   -1    0    0  501    0  0.00000000000E+00  0.00000000000E+00 -0.27749075593E+04  0.27749075593E+04  0.50400001928E-02 0.  1.
    10030    2    1    2    0    0  0.00000000000E+00  0.00000000000E+00 -0.15349191362E+04  0.40148959824E+04  0.37099074105E+04 0.  0.
        4    1    3    3  502    0 -0.11096763945E+04  0.14830098344E+04 -0.87649861101E+03  0.20491342800E+04  0.12699999809E+01 0. -1.
       -4    1    3    3    0  502  0.11096763945E+04 -0.14830098344E+04 -0.65842052519E+03  0.19657617024E+04  0.12699999809E+01 0.  1.
</event>
<event>
 5   0  0.4762788E-08  0.3898635E+04  0.7818609E-02  0.8025313E-01
       -1   -1    0    0    0  501  0.00000000000E+00  0.00000000000E+00  0.16023830397E+04  0.16023830397E+04  0.50400001928E-02 0.  1.
        1   -1    0    0  501    0  0.00000000000E+00  0.00000000000E+00 -0.23713676703E+04  0.23713676703E+04  0.50400001928E-02 0. -1.
    10030    2    1    2    0    0  0.00000000000E+00  0.00000000000E+00 -0.76898463058E+03  0.39737507099E+04  0.38986353180E+04 0.  0.
        2    1    3    3  502    0 -0.81283437030E+03 -0.16655371626E+04 -0.10003908018E+04  0.21060616112E+04  0.25500000920E-02 0. -1.
       -2    1    3    3    0  502  0.81283437030E+03  0.16655371626E+04  0.23140617124E+03  0.18676890988E+04  0.25500000920E-02 0.  1.
</event>
<event>
 5   0  0.4762788E-08  0.3913804E+04  0.7818609E-02  0.8022164E-01
       -1   -1    0    0    0  501  0.00000000000E+00  0.00000000000E+00  0.24720896058E+04  0.24720896058E+04  0.50400001928E-02 0.  1.
        1   -1    0    0  501    0  0.00000000000E+00  0.00000000000E+00 -0.15490802514E+04  0.15490802514E+04  0.50400001928E-02 0. -1.
    10030    2    1    2    0    0  0.00000000000E+00  0.00000000000E+00  0.92300935448E+03  0.40211698572E+04  0.39138038725E+04 0.  0.
        2    1    3    3  502    0  0.16369926663E+03  0.52613933349E+03  0.23907389857E+04  0.24534165863E+04  0.25500000920E-02 0.  1.
       -2    1    3    3    0  502 -0.16369926663E+03 -0.52613933349E+03 -0.14677296312E+04  0.15677532709E+04  0.25500000920E-02 0. -1.
</event>
<event>
 5   0  0.1546846E-07  0.3849933E+04  0.7818609E-02  0.8035524E-01
       -2   -1    0    0    0  501  0.00000000000E+00  0.00000000000E+00  0.22324032712E+04  0.22324032712E+04  0.25500000920E-02 0. -1.
        2   -1    0    0  501    0  0.00000000000E+00  0.00000000000E+00 -0.16598685319E+04  0.16598685319E+04  0.25500000920E-02 0.  1.
    10030    2    1    2    0    0  0.00000000000E+00  0.00000000000E+00  0.57253473933E+03  0.38922718030E+04  0.38499329554E+04 0.  0.
        2    1    3    3  502    0 -0.14063034881E+04  0.45867488275E+03 -0.95911707823E+03  0.17629457503E+04  0.25500000920E-02 0.  1.
       -2    1    3    3    0  502  0.14063034881E+04 -0.45867488275E+03  0.15316518176E+04  0.21293260528E+04  0.25500000920E-02 0. -1.
</event>
<event>
 5   0  0.4750125E-08  0.3989157E+04  0.7818609E-02  0.8006738E-01
       -1   -1    0    0    0  501  0.00000000000E+00  0.00000000000E+00  0.15795515531E+04  0.15795515531E+04  0.50400001928E-02 0.  1.
        1   -1    0    0  501    0  0.00000000000E+00  0.00000000000E+00 -0.25186532992E+04  0.25186532992E+04  0.50400001928E-02 0. -1.
    10030    2    1    2    0    0  0.00000000000E+00  0.00000000000E+00 -0.93910174617E+03  0.40982048523E+04  0.39891566680E+04 0.  0.
        1    1    3    3  502    0 -0.67819334904E+03 -0.16202279238E+04  0.50140842351E+03  0.18266075525E+04  0.50400001928E-02 0.  1.
       -1    1    3    3    0  502  0.67819334904E+03  0.16202279238E+04 -0.14405101697E+04  0.22715972998E+04  0.50400001928E-02 0. -1.
</event>
<event>
 5   0  0.4750125E-08  0.3912019E+04  0.7818609E-02  0.8022534E-01
       -1   -1    0    0    0  501  0.00000000000E+00  0.00000000000E+00  0.24252378953E+04  0.24252378953E+04  0.50400001928E-02 0. -1.
        1   -1    0    0  501    0  0.00000000000E+00  0.00000000000E+00 -0.15775658611E+04  0.15775658611E+04  0.50400001928E-02 0.  1.
    10030    2    1    2    0    0  0.00000000000E+00  0.00000000000E+00  0.84767203421E+03  0.40028037563E+04  0.39120186648E+04 0.  0.
        4    1    3    3  502    0 -0.16969197972E+04  0.34862999866E+03 -0.50547636007E+03  0.18046017947E+04  0.12699999809E+01 0. -1.
       -4    1    3    3    0  502  0.16969197972E+04 -0.34862999866E+03  0.13531483943E+04  0.21982019616E+04  0.12699999809E+01 0.  1.
</event>
<event>
 5   0  0.4750125E-08  0.4047980E+04  0.7818609E-02  0.7994937E-01
       -1   -1    0    0    0  501  0.00000000000E+00  0.00000000000E+00  0.15288675428E+04  0.15288675428E+04  0.50400001928E-02 0.  1.
        1   -1    0    0  501    0  0.00000000000E+00  0.00000000000E+00 -0.26794567862E+04  0.26794567862E+04  0.50400001928E-02 0. -1.
    10030    2    1    2    0    0  0.00000000000E+00  0.00000000000E+00 -0.11505892434E+04  0.42083243290E+04  0.40479795023E+04 0.  0.
        3    1    3    3  502    0  0.26327318470E+02 -0.73599204006E+03  0.13846292737E+04  0.15683034294E+04  0.10100000352E+00 0.  1.
       -3    1    3    3    0  502 -0.26327318470E+02  0.73599204006E+03 -0.25352185171E+04  0.26400208996E+04  0.10100000352E+00 0. -1.
</event>
<event>
 5   0  0.4750125E-08  0.3896358E+04  0.7818609E-02  0.8025787E-01
       -1   -1    0    0    0  501  0.00000000000E+00  0.00000000000E+00  0.18909366378E+04  0.18909366378E+04  0.50400001928E-02 0.  1.
        1   -1    0    0  501    0  0.00000000000E+00  0.00000000000E+00 -0.20071547106E+04  0.20071547106E+04  0.50400001928E-02 0. -1.
    10030    2    1    2    0    0  0.00000000000E+00  0.00000000000E+00 -0.11621807284E+03  0.38980913484E+04  0.38963584948E+04 0.  0.
        4    1    3    3  502    0  0.12053800951E+03  0.18682080238E+04  0.48126906475E+03  0.19329646033E+04  0.12699999809E+01 0.  1.
       -4    1    3    3    0  502 -0.12053800951E+03 -0.18682080238E+04 -0.59748713759E+03  0.19651267451E+04  0.12699999809E+01 0. -1.
</event>
<event>
 5   0  0.1520986E-07  0.3900520E+04  0.7818609E-02  0.8024921E-01
       -2   -1    0    0    0  501  0.00000000000E+00  0.00000000000E+00  0.13508560766E+04  0.13508560766E+04  0.25500000920E-02 0.  1.
        2   -1    0    0  501    0  0.00000000000E+00  0.00000000000E+00 -0.28156329370E+04  0.28156329370E+04  0.25500000920E-02 0. -1.
    10030    2    1    2    0    0  0.00000000000E+00  0.00000000000E+00 -0.14647768605E+04  0.41664890136E+04  0.39005204075E+04 0.  0.
        4    1    3    3  502    0  0.17391413771E+04 -0.87454955499E+03 -0.85906487744E+03  0.21277790605E+04  0.12699999809E+01 0.  1.
       -4    1    3    3    0  502 -0.17391413771E+04  0.87454955499E+03 -0.60571198302E+03  0.20387099531E+04  0.12699999809E+01 0. -1.
</event>
<event>
 5   0  0.1546846E-07  0.3947520E+04  0.7818609E-02  0.8015218E-01
        2   -1    0    0  501    0  0.00000000000E+00  0.00000000000E+00  0.24060097225E+04  0.24060097225E+04  0.25500000920E-02 0.  1.
       -2   -1    0    0    0  501  0.00000000000E+00  0.00000000000E+00 -0.16191654895E+04  0.16191654896E+04  0.25500000920E-02 0. -1.
    10030    2    1    2    0    0  0.00000000000E+00  0.00000000000E+00  0.78684423290E+03  0.40251752120E+04  0.39475196821E+04 0.  0.
        2    1    3    3  502    0 -0.19291397790E+04 -0.36338985512E+03  0.18421425772E+03  0.19716914988E+04  0.25500000920E-02 0. -1.
       -2    1    3    3    0  502  0.19291397790E+04  0.36338985512E+03  0.60262997518E+03  0.20534837132E+04  0.25500000920E-02 0.  1.
</event>
<event>
 5   0  0.1501585E-07  0.3591141E+04  0.7818609E-02  0.8092524E-01
        2   -1    0    0  501    0  0.00000000000E+00  0.00000000000E+00  0.21441578862E+04  0.21441578862E+04  0.25500000920E-02 0. -1.
       -2   -1    0    0    0  501  0.00000000000E+00  0.00000000000E+00 -0.15036550530E+04  0.15036550531E+04  0.25500000920E-02 0.  1.
    10030    2    1    2    0    0  0.00000000000E+00  0.00000000000E+00  0.64050283315E+03  0.36478129392E+04  0.35911412337E+04 0.  0.
        5    1    3    3  502    0  0.22290833512E+03 -0.24323262629E+03  0.21130980769E+04  0.21387042360E+04  0.46999998093E+01 0. -1.
       -5    1    3    3    0  502 -0.22290833512E+03  0.24323262629E+03 -0.14725952438E+04  0.15091087033E+04  0.46999998093E+01 0.  1.
</event>
<event>
 5   0  0.1503228E-07  0.3788139E+04  0.7818609E-02  0.8048705E-01
       -2   -1    0    0    0  501  0.00000000000E+00  0.00000000000E+00  0.14453213624E+04  0.14453213624E+04  0.25500000920E-02 0.  1.
        2   -1    0    0  501    0  0.00000000000E+00  0.00000000000E+00 -0.24821466602E+04  0.24821466602E+04  0.25500000920E-02 0. -1.
    10030    2    1    2    0    0  0.00000000000E+00  0.00000000000E+00 -0.10368252977E+04  0.39274680226E+04  0.37881391699E+04 0.  0.
        3    1    3    3  502    0 -0.11240880958E+04 -0.10561036268E+04 -0.16581971736E+04  0.22646295049E+04  0.10100000352E+00 0. -1.
       -3    1    3    3    0  502  0.11240880958E+04  0.10561036268E+04  0.62137187585E+03  0.16628385177E+04  0.10100000352E+00 0.  1.
</event>
<event>
 5   0  0.1538018E-07  0.3901079E+04  0.7818609E-02  0.8024805E-01
        2   -1    0    0  501    0  0.00000000000E+00  0.00000000000E+00  0.10282392334E+04  0.10282392334E+04  0.25500000920E-02 0. -1.
       -2   -1    0    0    0  501  0.00000000000E+00  0.00000000000E+00 -0.37001160291E+04  0.37001160291E+04  0.25500000920E-02 0.  1.
    10030    2    1    2    0    0  0.00000000000E+00  0.00000000000E+00 -0.26718767957E+04  0.47283552625E+04  0.39010790658E+04 0.  0.
        1    1    3    3  502    0  0.81914563620E+03  0.17600482736E+04 -0.15653835437E+04  0.24938314172E+04  0.50400001928E-02 0.  1.
       -1    1    3    3    0  502 -0.81914563620E+03 -0.17600482736E+04 -0.11064932520E+04  0.22345238453E+04  0.50400001928E-02 0. -1.
</event>
<event>
 5   0  0.4750125E-08  0.3909930E+04  0.7818609E-02  0.8022967E-01
       -1   -1    0    0    0  501  0.00000000000E+00  0.00000000000E+00  0.16173774313E+04  0.16173774313E+04  0.50400001928E-02 0. -1.
        1   -1    0    0  501    0  0.00000000000E+00  0.00000000000E+00 -0.23630150685E+04  0.23630150685E+04  0.50400001928E-02 0.  1.
    10030    2    1    2    0    0  0.00000000000E+00  0.00000000000E+00 -0.74563763716E+03  0.39803924998E+04  0.39099295348E+04 0.  0.
        5    1    3    3  502    0  0.37444487544E+03 -0.18577838449E+04  0.11572055855E+03  0.18986793086E+04  0.46999998093E+01 0.  1.
       -5    1    3    3    0  502 -0.37444487544E+03  0.18577838449E+04 -0.86135819571E+03  0.20817131912E+04  0.46999998093E+01 0. -1.
</event>
<event>
 5   0  0.4750125E-08  0.3892954E+04  0.7818609E-02  0.8026496E-01
       -1   -1    0    0    0  501  0.00000000000E+00  0.00000000000E+00  0.22533416503E+04  0.22533416503E+04  0.50400001928E-02 0.  1.
        1   -1    0    0  501    0  0.00000000000E+00  0.00000000000E+00 -0.16814017482E+04  0.16814017482E+04  0.50400001928E-02 0. -1.
    10030    2    1    2    0    0  0.00000000000E+00  0.00000000000E+00  0.57193990210E+03  0.39347433986E+04  0.38929539377E+04 0.  0.
        3    1    3    3  502    0 -0.12209954655E+03  0.11856097451E+04  0.18413831194E+04  0.21934608658E+04  0.10100000352E+00 0.  1.
       -3    1    3    3    0  502  0.12209954655E+03 -0.11856097451E+04 -0.12694432173E+04  0.17412825328E+04  0.10100000352E+00 0. -1.
</event>
<event>
 5   0  0.1501585E-07  0.3823603E+04  0.7818609E-02  0.8041109E-01
       -2   -1    0    0    0  501  0.00000000000E+00  0.00000000000E+00  0.17355962159E+04  0.17355962159E+04  0.25500000920E-02 0.  1.
        2   -1    0    0  501    0  0.00000000000E+00  0.00000000000E+00 -0.21058960297E+04  0.21058960297E+04  0.25500000920E-02 0. -1.
    10030    2    1    2    0    0  0.00000000000E+00  0.00000000000E+00 -0.37029981380E+03  0.38414922456E+04  0.38236031071E+04 0.  0.
        5    1    3    3  502    0 -0.40312522065E+03  0.16194811592E+04  0.75180860177E+03  0.18304282101E+04  0.46999998093E+01 0.  1.
       -5    1    3    3    0  502  0.40312522065E+03 -0.16194811592E+04 -0.11221084156E+04  0.20110640355E+04  0.46999998093E+01 0. -1.
</event>
<event>
 5   0  0.4750125E-08  0.3847386E+04  0.7818609E-02  0.8036062E-01
        1   -1    0    0  501    0  0.00000000000E+00  0.00000000000E+00  0.17730509892E+04  0.17730509893E+04  0.50400001928E-02 0. -1.
       -1   -1    0    0    0  501  0.00000000000E+00  0.00000000000E+00 -0.20871342539E+04  0.20871342539E+04  0.50400001928E-02 0.  1.
    10030    2    1    2    0    0  0.00000000000E+00  0.00000000000E+00 -0.31408326468E+03  0.38601852432E+04  0.38473863615E+04 0.  0.
        4    1    3    3  502    0  0.13266913636E+04  0.12008297333E+04 -0.86542990410E+03  0.19877305035E+04  0.12699999809E+01 0.  1.
       -4    1    3    3    0  502 -0.13266913636E+04 -0.12008297333E+04  0.55134663942E+03  0.18724547397E+04  0.12699999809E+01 0. -1.
</event>
<event>
 5   0  0.1538018E-07  0.3908262E+04  0.7818609E-02  0.8023313E-01
        2   -1    0    0  501    0  0.00000000000E+00  0.00000000000E+00  0.28561595759E+04  0.28561595759E+04  0.25500000920E-02 0. -1.
       -2   -1    0    0    0  501  0.00000000000E+00  0.00000000000E+00 -0.13369799900E+04  0.13369799900E+04  0.25500000920E-02 0.  1.
    10030    2    1    2    0    0  0.00000000000E+00  0.00000000000E+00  0.15191795859E+04  0.41931395659E+04  0.39082621208E+04 0.  0.
        1    1    3    3  502    0 -0.67038803034E+02  0.10808657247E+04  0.25047662050E+04  0.27288493285E+04  0.50400001928E-02 0. -1.
       -1    1    3    3    0  502  0.67038803034E+02 -0.10808657247E+04 -0.98558661904E+03  0.14642902375E+04  0.50400001928E-02 0.  1.
</event>
<event>
 5   0  0.1503228E-07  0.3892533E+04  0.7818609E-02  0.8026584E-01
       -2   -1    0    0    0  501  0.00000000000E+00  0.00000000000E+00  0.16883645062E+04  0.16883645062E+04  0.25500000920E-02 0.  1.
        2   -1    0    0  501    0  0.00000000000E+00  0.00000000000E+00 -0.22435639660E+04  0.22435639661E+04  0.25500000920E-02 0. -1.
    10030    2    1    2    0    0  0.00000000000E+00  0.00000000000E+00 -0.55519945985E+03  0.39319284723E+04  0.38925332459E+04 0.  0.
        3    1    3    3  502    0  0.23480054257E+03  0.12200662148E+04  0.12356477148E+04  0.17522894020E+04  0.10100000352E+00 0.  1.
       -3    1    3    3    0  502 -0.23480054257E+03 -0.12200662148E+04 -0.17908471746E+04  0.21796390702E+04  0.10100000352E+00 0. -1.
</event>
<event>
 5   0  0.4750125E-08  0.3873064E+04  0.7818609E-02  0.8030655E-01
        1   -1    0    0  501    0  0.00000000000E+00  0.00000000000E+00  0.17787817400E+04  0.17787817400E+04  0.50400001928E-02 0. -1.
       -1   -1    0    0    0  501  0.00000000000E+00  0.00000000000E+00 -0.21082724409E+04  0.21082724409E+04  0.50400001928E-02 0.  1.
    10030    2    1    2    0    0  0.00000000000E+00  0.00000000000E+00 -0.32949070086E+03  0.38870541809E+04  0.38730641723E+04 0.  0.
        3    1    3    3  502    0 -0.43364494877E+03  0.61538551916E+03 -0.19554012466E+04  0.20953141350E+04  0.10100000352E+00 0.  1.
       -3    1    3    3    0  502  0.43364494877E+03 -0.61538551916E+03  0.16259105458E+04  0.17917400458E+04  0.10100000352E+00 0. -1.
</event>
<event>
 5   0  0.1503228E-07  0.3877839E+04  0.7818609E-02  0.8029654E-01
        2   -1    0    0  501    0  0.00000000000E+00  0.00000000000E+00  0.19704872901E+04  0.19704872901E+04  0.25500000920E-02 0. -1.
       -2   -1    0    0    0  501  0.00000000000E+00  0.00000000000E+00 -0.19078576609E+04  0.19078576609E+04  0.25500000920E-02 0.  1.
    10030    2    1    2    0    0  0.00000000000E+00  0.00000000000E+00  0.62629629156E+02  0.38783449510E+04  0.38778392293E+04 0.  0.
        3    1    3    3  502    0 -0.61075259889E+03 -0.15884053229E+04  0.96060715649E+03  0.19541791950E+04  0.10100000352E+00 0. -1.
       -3    1    3    3    0  502  0.61075259889E+03  0.15884053229E+04 -0.89797752733E+03  0.19241657560E+04  0.10100000352E+00 0.  1.
</event>
<event>
 5   0  0.1538018E-07  0.3901726E+04  0.7818609E-02  0.8024670E-01
        2   -1    0    0  501    0  0.00000000000E+00  0.00000000000E+00  0.13670299685E+04  0.13670299685E+04  0.25500000920E-02 0. -1.
       -2   -1    0    0    0  501  0.00000000000E+00  0.00000000000E+00 -0.27840409261E+04  0.27840409261E+04  0.25500000920E-02 0.  1.
    10030    2    1    2    0    0  0.00000000000E+00  0.00000000000E+00 -0.14170109576E+04  0.41510708946E+04  0.39017264791E+04 0.  0.
        1    1    3    3  502    0  0.57371471345E+03  0.18445135767E+04 -0.99887288367E+03  0.21746553623E+04  0.50400001928E-02 0. -1.
       -1    1    3    3    0  502 -0.57371471345E+03 -0.18445135767E+04 -0.41813807394E+03  0.19764155322E+04  0.50400001928E-02 0.  1.
</event>
<event>
 5   0  0.4750125E-08  0.3905893E+04  0.7818609E-02  0.8023805E-01
        1   -1    0    0  501    0  0.00000000000E+00  0.00000000000E+00  0.11180815363E+04  0.11180815363E+04  0.50400001928E-02 0. -1.
       -1   -1    0    0    0  501  0.00000000000E+00  0.00000000000E+00 -0.34112005363E+04  0.34112005363E+04  0.50400001928E-02 0.  1.
    10030    2    1    2    0    0  0.00000000000E+00  0.00000000000E+00 -0.22931190000E+04  0.45292820725E+04  0.39058931558E+04 0.  0.
        4    1    3    3  502    0 -0.13103891936E+04  0.14331532435E+04 -0.90623726386E+03  0.21429688867E+04  0.12699999809E+01 0. -1.
       -4    1    3    3    0  502  0.13103891936E+04 -0.14331532435E+04 -0.13868817361E+04  0.23863131858E+04  0.12699999809E+01 0.  1.
</event>
<event>
 5   0  0.1520986E-07  0.3521199E+04  0.7818609E-02  0.8108784E-01
        2   -1    0    0  501    0  0.00000000000E+00  0.00000000000E+00  0.20710550404E+04  0.20710550404E+04  0.25500000920E-02 0. -1.
       -2   -1    0    0    0  501  0.00000000000E+00  0.00000000000E+00 -0.14966814839E+04  0.14966814839E+04  0.25500000920E-02 0.  1.
    10030    2    1    2    0    0  0.00000000000E+00  0.00000000000E+00  0.57437355646E+03  0.35677365243E+04  0.35211985068E+04 0.  0.
        4    1    3    3  502    0  0.15282119154E+03  0.70896985772E+03  0.19126701758E+04  0.20455564988E+04  0.12699999809E+01 0. -1.
       -4    1    3    3    0  502 -0.15282119154E+03 -0.70896985772E+03 -0.13382966193E+04  0.15221800255E+04  0.12699999809E+01 0.  1.
</event>
<event>
 5   0  0.1546846E-07  0.3909290E+04  0.7818609E-02  0.8023100E-01
        2   -1    0    0  501    0  0.00000000000E+00  0.00000000000E+00  0.24929250997E+04  0.24929250997E+04  0.25500000920E-02 0.  1.
       -2   -1    0    0    0  501  0.00000000000E+00  0.00000000000E+00 -0.15325919672E+04  0.15325919672E+04  0.25500000920E-02 0. -1.
    10030    2    1    2    0    0  0.00000000000E+00  0.00000000000E+00  0.96033313247E+03  0.40255170669E+04  0.39092899523E+04 0.  0.
        2    1    3    3  502    0  0.23937435005E+03 -0.14308446837E+04 -0.86874976125E+03  0.16909591172E+04  0.25500000920E-02 0. -1.
       -2    1    3    3    0  502 -0.23937435005E+03  0.14308446837E+04  0.18290828937E+04  0.23345579497E+04  0.25500000920E-02 0.  1.
</event>
<event>
 5   0  0.4750125E-08  0.3881916E+04  0.7818609E-02  0.8028801E-01
       -1   -1    0    0    0  501  0.00000000000E+00  0.00000000000E+00  0.20006948422E+04  0.20006948422E+04  0.50400001928E-02 0.  1.
        1   -1    0    0  501    0  0.00000000000E+00  0.00000000000E+00 -0.18830045092E+04  0.18830045092E+04  0.50400001928E-02 0. -1.
    10030    2    1    2    0    0  0.00000000000E+00  0.00000000000E+00  0.11769033301E+03  0.38836993514E+04  0.38819157175E+04 0.  0.
        3    1    3    3  502    0 -0.27757070628E+03  0.16178422928E+04 -0.97741944359E+03  0.19104470577E+04  0.10100000352E+00 0. -1.
       -3    1    3    3    0  502  0.27757070628E+03 -0.16178422928E+04  0.10951097766E+04  0.19732522937E+04  0.10100000352E+00 0.  1.
</event>
<event>
 5   0  0.4750125E-08  0.3682882E+04  0.7818609E-02  0.8071766E-01
       -1   -1    0    0    0  501  0.00000000000E+00  0.00000000000E+00  0.32030060506E+04  0.32030060507E+04  0.50400001928E-02 0.  1.
        1   -1    0    0  501    0  0.00000000000E+00  0.00000000000E+00 -0.10586634038E+04  0.10586634038E+04  0.50400001928E-02 0. -1.
    10030    2    1    2    0    0  0.00000000000E+00  0.00000000000E+00  0.21443426468E+04  0.42616694545E+04  0.36828821801E+04 0.  0.
        4    1    3    3  502    0  0.15889261373E+04 -0.68211298458E+03  0.33946280560E+03  0.17621580527E+04  0.12699999809E+01 0. -1.
       -4    1    3    3    0  502 -0.15889261373E+04  0.68211298458E+03  0.18048798412E+04  0.24995114018E+04  0.12699999809E+01 0.  1.
</event>
<event>
 5   0  0.4750125E-08  0.3895283E+04  0.7818609E-02  0.8026011E-01
        1   -1    0    0  501    0  0.00000000000E+00  0.00000000000E+00  0.24689552628E+04  0.24689552628E+04  0.50400001928E-02 0.  1.
       -1   -1    0    0    0  501  0.00000000000E+00  0.00000000000E+00 -0.15364017894E+04  0.15364017894E+04  0.50400001928E-02 0. -1.
    10030    2    1    2    0    0  0.00000000000E+00  0.00000000000E+00  0.93255347341E+03  0.40053570523E+04  0.38952829339E+04 0.  0.
        5    1    3    3  502    0  0.98534243771E+03  0.10094175099E+04  0.18471559696E+04  0.23241838771E+04  0.46999998093E+01 0.  1.
       -5    1    3    3    0  502 -0.98534243771E+03 -0.10094175099E+04 -0.91460249616E+03  0.16811731751E+04  0.46999998093E+01 0. -1.
</event>
<event>
 5   0  0.4750125E-08  0.3909309E+04  0.7818609E-02  0.8023096E-01
       -1   -1    0    0    0  501  0.00000000000E+00  0.00000000000E+00  0.19663452164E+04  0.19663452164E+04  0.50400001928E-02 0.  1.
        1   -1    0    0  501    0  0.00000000000E+00  0.00000000000E+00 -0.19430333504E+04  0.19430333504E+04  0.50400001928E-02 0. -1.
    10030    2    1    2    0    0  0.00000000000E+00  0.00000000000E+00  0.23311865948E+02  0.39093785668E+04  0.39093090611E+04 0.  0.
        4    1    3    3  502    0 -0.63598361806E+03  0.14929074521E+04 -0.10780537174E+04  0.19481912774E+04  0.12699999809E+01 0. -1.
       -4    1    3    3    0  502  0.63598361806E+03 -0.14929074521E+04  0.11013655833E+04  0.19611872894E+04  0.12699999809E+01 0.  1.
</event>
<event>
 5   0  0.4750125E-08  0.3925798E+04  0.7818609E-02  0.8019685E-01
       -1   -1    0    0    0  501  0.00000000000E+00  0.00000000000E+00  0.14937159456E+04  0.14937159456E+04  0.50400001928E-02 0.  1.
        1   -1    0    0  501    0  0.00000000000E+00  0.00000000000E+00 -0.25794550835E+04  0.25794550835E+04  0.50400001928E-02 0. -1.
    10030    2    1    2    0    0  0.00000000000E+00  0.00000000000E+00 -0.10857391379E+04  0.40731710290E+04  0.39257983591E+04 0.  0.
        1    1    3    3  502    0  0.15978187860E+04  0.11320619996E+04 -0.40219227175E+03  0.19990867583E+04  0.50400001928E-02 0. -1.
       -1    1    3    3    0  502 -0.15978187860E+04 -0.11320619996E+04 -0.68354686616E+03  0.20740842707E+04  0.50400001928E-02 0.  1.
</event>
<event>
 5   0  0.1501585E-07  0.3899825E+04  0.7818609E-02  0.8025066E-01
        2   -1    0    0  501    0  0.00000000000E+00  0.00000000000E+00  0.17643450345E+04  0.17643450345E+04  0.25500000920E-02 0.  1.
       -2   -1    0    0    0  501  0.00000000000E+00  0.00000000000E+00 -0.21549970718E+04  0.21549970718E+04  0.25500000920E-02 0. -1.
    10030    2    1    2    0    0  0.00000000000E+00  0.00000000000E+00 -0.39065203723E+03  0.39193421063E+04  0.38998248079E+04 0.  0.
        5    1    3    3  502    0  0.71585171098E+03 -0.11595162867E+04 -0.15970155704E+04  0.20993814597E+04  0.46999998093E+01 0. -1.
       -5    1    3    3    0  502 -0.71585171098E+03  0.11595162867E+04  0.12063635331E+04  0.18199606466E+04  0.46999998093E+01 0.  1.
</event>
<event>
 5   0  0.4750125E-08  0.3882110E+04  0.7818609E-02  0.8028760E-01
       -1   -1    0    0    0  501  0.00000000000E+00  0.00000000000E+00  0.15890437891E+04  0.15890437892E+04  0.50400001928E-02 0. -1.
        1   -1    0    0  501    0  0.00000000000E+00  0.00000000000E+00 -0.23710450945E+04  0.23710450945E+04  0.50400001928E-02 0.  1.
    10030    2    1    2    0    0  0.00000000000E+00  0.00000000000E+00 -0.78200130539E+03  0.39600888837E+04  0.38821099837E+04 0.  0.
        4    1    3    3  502    0  0.62859457740E+03  0.38757763886E+02 -0.22639253284E+04  0.23498920852E+04  0.12699999809E+01 0.  1.
       -4    1    3    3    0  502 -0.62859457740E+03 -0.38757763886E+02  0.14819240230E+04  0.16101967985E+04  0.12699999809E+01 0. -1.
</event>
<event>
 5   0  0.4762788E-08  0.3911498E+04  0.7818609E-02  0.8022642E-01
        1   -1    0    0  501    0  0.00000000000E+00  0.00000000000E+00  0.12508967565E+04  0.12508967565E+04  0.50400001928E-02 0.  1.
       -1   -1    0    0    0  501  0.00000000000E+00  0.00000000000E+00 -0.30577690211E+04  0.30577690211E+04  0.50400001928E-02 0. -1.
    10030    2    1    2    0    0  0.00000000000E+00  0.00000000000E+00 -0.18068722646E+04  0.43086657777E+04  0.39114975908E+04 0.  0.
        2    1    3    3  502    0  0.16581658545E+04  0.10358298724E+04 -0.84840520691E+03  0.21312552453E+04  0.25500000920E-02 0. -1.
       -2    1    3    3    0  502 -0.16581658545E+04 -0.10358298724E+04 -0.95846705771E+03  0.21774105323E+04  0.25500000920E-02 0.  1.
</event>
<event>
 5   0  0.1503228E-07  0.3907764E+04  0.7818609E-02  0.8023416E-01
       -2   -1    0    0    0  501  0.00000000000E+00  0.00000000000E+00  0.14663846115E+04  0.14663846115E+04  0.25500000920E-02 0. -1.
        2   -1    0    0  501    0  0.00000000000E+00  0.00000000000E+00 -0.26034467529E+04  0.26034467529E+04  0.25500000920E-02 0.  1.
    10030    2    1    2    0    0  0.00000000000E+00  0.00000000000E+00 -0.11370621414E+04  0.40698313643E+04  0.39077636854E+04 0.  0.
        3    1    3    3  502    0  0.51145899261E+03 -0.90744189848E+03  0.11530885290E+04  0.15539157848E+04  0.10100000352E+00 0. -1.
       -3    1    3    3    0  502 -0.51145899261E+03  0.90744189848E+03 -0.22901506704E+04  0.25159155796E+04  0.10100000352E+00 0.  1.
</event>
<event>
 5   0  0.1503228E-07  0.4126502E+04  0.7818609E-02  0.7979502E-01
       -2   -1    0    0    0  501  0.00000000000E+00  0.00000000000E+00  0.26765149876E+04  0.26765149876E+04  0.25500000920E-02 0. -1.
        2   -1    0    0  501    0  0.00000000000E+00  0.00000000000E+00 -0.15905027947E+04  0.15905027947E+04  0.25500000920E-02 0.  1.
    10030    2    1    2    0    0  0.00000000000E+00  0.00000000000E+00  0.10860121929E+04  0.42670177824E+04  0.41265019413E+04 0.  0.
        3    1    3    3  502    0 -0.18416167804E+03  0.17672245311E+04 -0.54152004043E+03  0.18574827136E+04  0.10100000352E+00 0.  1.
       -3    1    3    3    0  502  0.18416167804E+03 -0.17672245311E+04  0.16275322333E+04  0.24095350688E+04  0.10100000352E+00 0. -1.
</event>
<event>
 5   0  0.4750125E-08  0.3890199E+04  0.7818609E-02  0.8027071E-01
       -1   -1    0    0    0  501  0.00000000000E+00  0.00000000000E+00  0.17302561301E+04  0.17302561301E+04  0.50400001928E-02 0. -1.
        1   -1    0    0  501    0  0.00000000000E+00  0.00000000000E+00 -0.21866194451E+04  0.21866194451E+04  0.50400001928E-02 0.  1.
    10030    2    1    2    0    0  0.00000000000E+00  0.00000000000E+00 -0.45636331508E+03  0.39168755752E+04  0.38901988119E+04 0.  0.
        5    1    3    3  502    0  0.93428877893E+03  0.85685051140E+03  0.12571638549E+04  0.17853770944E+04  0.46999998093E+01 0. -1.
       -5    1    3    3    0  502 -0.93428877893E+03 -0.85685051140E+03 -0.17135271700E+04  0.21314984808E+04  0.46999998093E+01 0.  1.
</event>
<event>
 5   0  0.1501585E-07  0.3896653E+04  0.7818609E-02  0.8025726E-01
       -2   -1    0    0    0  501  0.00000000000E+00  0.00000000000E+00  0.14429989721E+04  0.14429989721E+04  0.25500000920E-02 0.  1.
        2   -1    0    0  501    0  0.00000000000E+00  0.00000000000E+00 -0.26306161556E+04  0.26306161556E+04  0.25500000920E-02 0. -1.
    10030    2    1    2    0    0  0.00000000000E+00  0.00000000000E+00 -0.11876171835E+04  0.40736151277E+04  0.38966531324E+04 0.  0.
        5    1    3    3  502    0 -0.14758316605E+04 -0.11522341192E+04 -0.30611094020E+02  0.18726135973E+04  0.46999998093E+01 0.  1.
       -5    1    3    3    0  502  0.14758316605E+04  0.11522341192E+04 -0.11570060894E+04  0.22010015304E+04  0.46999998093E+01 0. -1.
</event>
<event>
 5   0  0.1503228E-07  0.3843336E+04  0.7818609E-02  0.8036918E-01
        2   -1    0    0  501    0  0.00000000000E+00  0.00000000000E+00  0.16628924819E+04  0.16628924819E+04  0.25500000920E-02 0.  1.
       -2   -1    0    0    0  501  0.00000000000E+00  0.00000000000E+00 -0.22207138585E+04  0.22207138585E+04  0.25500000920E-02 0. -1.
    10030    2    1    2    0    0  0.00000000000E+00  0.00000000000E+00 -0.55782137662E+03  0.38836063404E+04  0.38433362485E+04 0.  0.
        3    1    3    3  502    0  0.12940348266E+04 -0.11685189429E+04 -0.10953653991E+04  0.20590745543E+04  0.10100000352E+00 0.  1.
       -3    1    3    3    0  502 -0.12940348266E+04  0.11685189429E+04  0.53754402250E+03  0.18245317861E+04  0.10100000352E+00 0. -1.
</event>
<event>
 5   0  0.4750125E-08  0.3926983E+04  0.7818609E-02  0.8019441E-01
        1   -1    0    0  501    0  0.00000000000E+00  0.00000000000E+00  0.24660559520E+04  0.24660559520E+04  0.50400001928E-02 0. -1.
       -1   -1    0    0    0  501  0.00000000000E+00  0.00000000000E+00 -0.15633458333E+04  0.15633458333E+04  0.50400001928E-02 0.  1.
    10030    2    1    2    0    0  0.00000000000E+00  0.00000000000E+00  0.90271011870E+03  0.40294017853E+04  0.39269827080E+04 0.  0.
        3    1    3    3  502    0  0.46827932958E+03  0.13975446212E+04  0.17824480329E+04  0.23129067208E+04  0.10100000352E+00 0. -1.
       -3    1    3    3    0  502 -0.46827932958E+03 -0.13975446212E+04 -0.87973791416E+03  0.17164950646E+04  0.10100000352E+00 0.  1.
</event>
<event>
 5   0  0.4750125E-08  0.3946729E+04  0.7818609E-02  0.8015380E-01
       -1   -1    0    0    0  501  0.00000000000E+00  0.00000000000E+00  0.23606696189E+04  0.23606696189E+04  0.50400001928E-02 0. -1.
        1   -1    0    0  501    0  0.00000000000E+00  0.00000000000E+00 -0.16496027738E+04  0.16496027738E+04  0.50400001928E-02 0.  1.
    10030    2    1    2    0    0  0.00000000000E+00  0.00000000000E+00  0.71106684505E+03  0.40102723927E+04  0.39467288488E+04 0.  0.
        3    1    3    3  502    0  0.84346469310E+03  0.13636780184E+04  0.15243211972E+04  0.22123755442E+04  0.10100000352E+00 0. -1.
       -3    1    3    3    0  502 -0.84346469310E+03 -0.13636780184E+04 -0.81325435211E+03  0.17978968485E+04  0.10100000352E+00 0.  1.
</event>
<event>
 5   0  0.4750125E-08  0.3889706E+04  0.7818609E-02  0.8027174E-01
        1   -1    0    0  501    0  0.00000000000E+00  0.00000000000E+00  0.12842519797E+04  0.12842519798E+04  0.50400001928E-02 0.  1.
       -1   -1    0    0    0  501  0.00000000000E+00  0.00000000000E+00 -0.29452576814E+04  0.29452576814E+04  0.50400001928E-02 0. -1.
    10030    2    1    2    0    0  0.00000000000E+00  0.00000000000E+00 -0.16610057017E+04  0.42295096612E+04  0.38897059057E+04 0.  0.
        4    1    3    3  502    0 -0.14995665009E+03  0.18956951938E+04 -0.12739325458E+04  0.22888977716E+04  0.12699999809E+01 0. -1.
       -4    1    3    3    0  502  0.14995665009E+03 -0.18956951938E+04 -0.38707315584E+03  0.19406118895E+04  0.12699999809E+01 0.  1.
</event>
<event>
 5   0  0.1538018E-07  0.3887272E+04  0.7818609E-02  0.8027682E-01
       -2   -1    0    0    0  501  0.00000000000E+00  0.00000000000E+00  0.19638670561E+04  0.19638670561E+04  0.25500000920E-02 0.  1.
        2   -1    0    0  501    0  0.00000000000E+00  0.00000000000E+00 -0.19236129652E+04  0.19236129652E+04  0.25500000920E-02 0. -1.
    10030    2    1    2    0    0  0.00000000000E+00  0.00000000000E+00  0.40254090837E+02  0.38874800213E+04  0.38872716041E+04 0.  0.
        1    1    3    3  502    0 -0.18743900417E+04 -0.50599579778E+03 -0.71258132478E+02  0.19427937351E+04  0.50400001928E-02 0.  1.
       -1    1    3    3    0  502  0.18743900417E+04  0.50599579778E+03  0.11151222331E+03  0.19446862862E+04  0.50400001928E-02 0. -1.
</event>
<event>
 5   0  0.4750125E-08  0.3911855E+04  0.7818609E-02  0.8022568E-01
       -4   -1    0    0    0  501  0.00000000000E+00  0.00000000000E+00  0.18628676520E+04  0.18628680849E+04  0.12699999809E+01 0. -1.
        4   -1    0    0  501    0  0.00000000000E+00  0.00000000000E+00 -0.20536348211E+04  0.20536352138E+04  0.12699999809E+01 0.  1.
    10030    2    1    2    0    0  0.00000000000E+00  0.00000000000E+00 -0.19076716907E+03  0.39165032987E+04  0.39118545443E+04 0.  0.
        4    1    3    3  502    0  0.15733152761E+04  0.30401135391E+03  0.10275133507E+04  0.19035569758E+04  0.12699999809E+01 0. -1.
       -4    1    3    3    0  502 -0.15733152761E+04 -0.30401135391E+03 -0.12182805198E+04  0.20129463229E+04  0.12699999809E+01 0.  1.
</event>
<event>
 5   0  0.1546846E-07  0.3652062E+04  0.7818609E-02  0.8078669E-01
       -2   -1    0    0    0  501  0.00000000000E+00  0.00000000000E+00  0.21002537525E+04  0.21002537525E+04  0.25500000920E-02 0. -1.
        2   -1    0    0  501    0  0.00000000000E+00  0.00000000000E+00 -0.15876126175E+04  0.15876126175E+04  0.25500000920E-02 0.  1.
    10030    2    1    2    0    0  0.00000000000E+00  0.00000000000E+00  0.51264113499E+03  0.36878663700E+04  0.36520620791E+04 0.  0.
        2    1    3    3  502    0 -0.20854322968E+03 -0.13594176856E+04  0.14692974616E+04  0.20125460872E+04  0.25500000920E-02 0. -1.
       -2    1    3    3    0  502  0.20854322968E+03  0.13594176856E+04 -0.95665632658E+03  0.16753202827E+04  0.25500000920E-02 0.  1.
</event>
<event>
 5   0  0.1503228E-07  0.3888398E+04  0.7818609E-02  0.8027447E-01
        2   -1    0    0  501    0  0.00000000000E+00  0.00000000000E+00  0.15568480163E+04  0.15568480163E+04  0.25500000920E-02 0.  1.
       -2   -1    0    0    0  501  0.00000000000E+00  0.00000000000E+00 -0.24279244329E+04  0.24279244329E+04  0.25500000920E-02 0. -1.
    10030    2    1    2    0    0  0.00000000000E+00  0.00000000000E+00 -0.87107641657E+03  0.39847724492E+04  0.38883977868E+04 0.  0.
        3    1    3    3  502    0  0.18812003949E+04  0.11239358334E+03  0.54178404616E+02  0.18853335390E+04  0.10100000352E+00 0. -1.
       -3    1    3    3    0  502 -0.18812003949E+04 -0.11239358334E+03 -0.92525482118E+03  0.20994389102E+04  0.10100000352E+00 0.  1.
</event>
<event>
 5   0  0.4750125E-08  0.3838635E+04  0.7818609E-02  0.8037914E-01
       -1   -1    0    0    0  501  0.00000000000E+00  0.00000000000E+00  0.18905860647E+04  0.18905860648E+04  0.50400001928E-02 0.  1.
        1   -1    0    0  501    0  0.00000000000E+00  0.00000000000E+00 -0.19484858875E+04  0.19484858875E+04  0.50400001928E-02 0. -1.
    10030    2    1    2    0    0  0.00000000000E+00  0.00000000000E+00 -0.57899822769E+02  0.38390719523E+04  0.38386353129E+04 0.  0.
        4    1    3    3  502    0 -0.18171670263E+04  0.61492029863E+03 -0.88586201251E+02  0.19204353942E+04  0.12699999809E+01 0.  1.
       -4    1    3    3    0  502  0.18171670263E+04 -0.61492029863E+03  0.30686378482E+02  0.19186365581E+04  0.12699999809E+01 0. -1.
</event>
<event>
 5   0  0.4750125E-08  0.3821089E+04  0.7818609E-02  0.8041644E-01
        1   -1    0    0  501    0  0.00000000000E+00  0.00000000000E+00  0.21490340242E+04  0.21490340242E+04  0.50400001928E-02 0.  1.
       -1   -1    0    0    0  501  0.00000000000E+00  0.00000000000E+00 -0.16985211400E+04  0.16985211400E+04  0.50400001928E-02 0. -1.
    10030    2    1    2    0    0  0.00000000000E+00  0.00000000000E+00  0.45051288419E+03  0.38475551641E+04  0.38210887038E+04 0.  0.
        1    1    3    3  502    0 -0.10588852526E+04 -0.45931436296E+02 -0.13753550237E+04  0.17363608831E+04  0.50400001928E-02 0. -1.
       -1    1    3    3    0  502  0.10588852526E+04  0.45931436296E+02  0.18258679079E+04  0.21111942810E+04  0.50400001928E-02 0.  1.
</event>
<event>
 5   0  0.1503228E-07  0.3863769E+04  0.7818609E-02  0.8032607E-01
       -2   -1    0    0    0  501  0.00000000000E+00  0.00000000000E+00  0.20761653145E+04  0.20761653145E+04  0.25500000920E-02 0.  1.
        2   -1    0    0  501    0  0.00000000000E+00  0.00000000000E+00 -0.17976299654E+04  0.17976299654E+04  0.25500000920E-02 0. -1.
    10030    2    1    2    0    0  0.00000000000E+00  0.00000000000E+00  0.27853534904E+03  0.38737952799E+04  0.38637686176E+04 0.  0.
        3    1    3    3  502    0 -0.16976202950E+04 -0.16502908157E+03  0.10488306700E+04  0.20022974425E+04  0.10100000352E+00 0.  1.
       -3    1    3    3    0  502  0.16976202950E+04  0.16502908157E+03 -0.77029532095E+03  0.18714978374E+04  0.10100000352E+00 0. -1.
</event>
<event>
 5   0  0.1501585E-07  0.3844639E+04  0.7818609E-02  0.8036643E-01
        2   -1    0    0  501    0  0.00000000000E+00  0.00000000000E+00  0.20782128275E+04  0.20782128275E+04  0.25500000920E-02 0. -1.
       -2   -1    0    0    0  501  0.00000000000E+00  0.00000000000E+00 -0.17781205269E+04  0.17781205269E+04  0.25500000920E-02 0.  1.
    10030    2    1    2    0    0  0.00000000000E+00  0.00000000000E+00  0.30009230054E+03  0.38563333544E+04  0.38446393266E+04 0.  0.
        5    1    3    3  502    0  0.59686042657E+03  0.17954270334E+04 -0.19082600424E+03  0.19016406745E+04  0.46999998093E+01 0.  1.
       -5    1    3    3    0  502 -0.59686042657E+03 -0.17954270334E+04  0.49091830478E+03  0.19546926799E+04  0.46999998093E+01 0. -1.
</event>
<event>
 5   0  0.4750125E-08  0.3812702E+04  0.7818609E-02  0.8043435E-01
       -1   -1    0    0    0  501  0.00000000000E+00  0.00000000000E+00  0.27232409923E+04  0.27232409923E+04  0.50400001928E-02 0. -1.
        1   -1    0    0  501    0  0.00000000000E+00  0.00000000000E+00 -0.13345033764E+04  0.13345033764E+04  0.50400001928E-02 0.  1.
    10030    2    1    2    0    0  0.00000000000E+00  0.00000000000E+00  0.13887376159E+04  0.40577443687E+04  0.38127020859E+04 0.  0.
        3    1    3    3  502    0 -0.16592574978E+04  0.31482664514E+03  0.16354645609E+04  0.23509563162E+04  0.10100000352E+00 0.  1.
       -3    1    3    3    0  502  0.16592574978E+04 -0.31482664514E+03 -0.24672694499E+03  0.17067880525E+04  0.10100000352E+00 0. -1.
</event>
<event>
 5   0  0.4750125E-08  0.3903582E+04  0.7818609E-02  0.8024285E-01
       -1   -1    0    0    0  501  0.00000000000E+00  0.00000000000E+00  0.19105101712E+04  0.19105101712E+04  0.50400001928E-02 0. -1.
        1   -1    0    0  501    0  0.00000000000E+00  0.00000000000E+00 -0.19939634485E+04  0.19939634485E+04  0.50400001928E-02 0.  1.
    10030    2    1    2    0    0  0.00000000000E+00  0.00000000000E+00 -0.83453277254E+02  0.39044736197E+04  0.39035816627E+04 0.  0.
        4    1    3    3  502    0 -0.78273168129E+03  0.25232660001E+02 -0.18299215572E+04  0.19904572567E+04  0.12699999809E+01 0.  1.
       -4    1    3    3    0  502  0.78273168129E+03 -0.25232660001E+02  0.17464682800E+04  0.19140163630E+04  0.12699999809E+01 0. -1.
</event>
<event>
 5   0  0.4762788E-08  0.3952844E+04  0.7818609E-02  0.8014128E-01
       -1   -1    0    0    0  501  0.00000000000E+00  0.00000000000E+00  0.21501013033E+04  0.21501013033E+04  0.50400001928E-02 0.  1.
        1   -1    0    0  501    0  0.00000000000E+00  0.00000000000E+00 -0.18167720837E+04  0.18167720837E+04  0.50400001928E-02 0. -1.
    10030    2    1    2    0    0  0.00000000000E+00  0.00000000000E+00  0.33332921958E+03  0.39668733871E+04  0.39528440521E+04 0.  0.
        2    1    3    3  502    0 -0.14842573821E+04  0.12790734714E+03  0.14700674474E+04  0.20929592843E+04  0.25500000920E-02 0.  1.
       -2    1    3    3    0  502  0.14842573821E+04 -0.12790734714E+03 -0.11367382279E+04  0.18739141027E+04  0.25500000920E-02 0. -1.
</event>
<event>
 5   0  0.1520986E-07  0.3899460E+04  0.7818609E-02  0.8025141E-01
       -2   -1    0    0    0  501  0.00000000000E+00  0.00000000000E+00  0.18606298239E+04  0.18606298239E+04  0.25500000920E-02 0.  1.
        2   -1    0    0  501    0  0.00000000000E+00  0.00000000000E+00 -0.20430973099E+04  0.20430973099E+04  0.25500000920E-02 0. -1.
    10030    2    1    2    0    0  0.00000000000E+00  0.00000000000E+00 -0.18246748596E+03  0.39037271338E+04  0.38994603667E+04 0.  0.
        4    1    3    3  502    0  0.89324497762E+02 -0.71209889502E+03  0.17235880910E+04  0.18670354101E+04  0.12699999809E+01 0.  1.
       -4    1    3    3    0  502 -0.89324497762E+02  0.71209889502E+03 -0.19060555769E+04  0.20366917237E+04  0.12699999809E+01 0. -1.
</event>
<event>
 5   0  0.4750125E-08  0.3841716E+04  0.7818609E-02  0.8037262E-01
       -1   -1    0    0    0  501  0.00000000000E+00  0.00000000000E+00  0.17034126755E+04  0.17034126755E+04  0.50400001928E-02 0.  1.
        1   -1    0    0  501    0  0.00000000000E+00  0.00000000000E+00 -0.21660606432E+04  0.21660606432E+04  0.50400001928E-02 0. -1.
    10030    2    1    2    0    0  0.00000000000E+00  0.00000000000E+00 -0.46264796764E+03  0.38694733187E+04  0.38417158435E+04 0.  0.
        5    1    3    3  502    0  0.12885576697E+04 -0.13496362664E+04  0.22779195549E+03  0.18798431277E+04  0.46999998093E+01 0.  1.
       -5    1    3    3    0  502 -0.12885576697E+04  0.13496362664E+04 -0.69043992313E+03  0.19896301910E+04  0.46999998093E+01 0. -1.
</event>
<event>
 5   0  0.1501585E-07  0.3901209E+04  0.7818609E-02  0.8024778E-01
       -2   -1    0    0    0  501  0.00000000000E+00  0.00000000000E+00  0.21069873719E+04  0.21069873719E+04  0.25500000920E-02 0.  1.
        2   -1    0    0  501    0  0.00000000000E+00  0.00000000000E+00 -0.18058287253E+04  0.18058287253E+04  0.25500000920E-02 0. -1.
    10030    2    1    2    0    0  0.00000000000E+00  0.00000000000E+00  0.30115864656E+03  0.39128160972E+04  0.39012092074E+04 0.  0.
        5    1    3    3  502    0 -0.90549700083E+03  0.14687319918E+03  0.18771362962E+04  0.20892963695E+04  0.46999998093E+01 0.  1.
       -5    1    3    3    0  502  0.90549700083E+03 -0.14687319918E+03 -0.15759776496E+04  0.18235197277E+04  0.46999998093E+01 0. -1.
</event>
<event>
 5   0  0.4762788E-08  0.3527187E+04  0.7818609E-02  0.8107377E-01
       -1   -1    0    0    0  501  0.00000000000E+00  0.00000000000E+00  0.19443250129E+04  0.19443250129E+04  0.50400001928E-02 0.  1.
        1   -1    0    0  501    0  0.00000000000E+00  0.00000000000E+00 -0.15996617103E+04  0.15996617103E+04  0.50400001928E-02 0. -1.
    10030    2    1    2    0    0  0.00000000000E+00  0.00000000000E+00  0.34466330257E+03  0.35439867233E+04  0.35271871374E+04 0.  0.
        2    1    3    3  502    0 -0.83742105401E+03 -0.12272450653E+04  0.11270455877E+04  0.18648421458E+04  0.25500000920E-02 0.  1.
       -2    1    3    3    0  502  0.83742105401E+03  0.12272450653E+04 -0.78238228514E+03  0.16791445775E+04  0.25500000920E-02 0. -1.
</event>
<event>
 5   0  0.1538018E-07  0.3904920E+04  0.7818609E-02  0.8024007E-01
       -2   -1    0    0    0  501  0.00000000000E+00  0.00000000000E+00  0.27493481814E+04  0.27493481814E+04  0.25500000920E-02 0. -1.
        2   -1    0    0  501    0  0.00000000000E+00  0.00000000000E+00 -0.13865466694E+04  0.13865466694E+04  0.25500000920E-02 0.  1.
    10030    2    1    2    0    0  0.00000000000E+00  0.00000000000E+00  0.13628015119E+04  0.41358948508E+04  0.39049197503E+04 0.  0.
        1    1    3    3  502    0 -0.98260638419E+03 -0.37189897050E+03 -0.10616249388E+04  0.14936102776E+04  0.50400001928E-02 0.  1.
       -1    1    3    3    0  502  0.98260638419E+03  0.37189897050E+03  0.24244264508E+04  0.26422845732E+04  0.50400001928E-02 0. -1.
</event>
<event>
 5   0  0.4750125E-08  0.3900774E+04  0.7818609E-02  0.8024868E-01
        1   -1    0    0  501    0  0.00000000000E+00  0.00000000000E+00  0.15028901758E+04  0.15028901759E+04  0.50400001928E-02 0.  1.
       -1   -1    0    0    0  501  0.00000000000E+00  0.00000000000E+00 -0.25311287809E+04  0.25311287809E+04  0.50400001928E-02 0. -1.
    10030    2    1    2    0    0  0.00000000000E+00  0.00000000000E+00 -0.10282386050E+04  0.40340189567E+04  0.39007735533E+04 0.  0.
        5    1    3    3  502    0 -0.16593445257E+04 -0.79158402190E+03  0.15924189259E+03  0.18453751892E+04  0.46999998093E+01 0.  1.
       -5    1    3    3    0  502  0.16593445257E+04  0.79158402190E+03 -0.11874804976E+04  0.21886437675E+04  0.46999998093E+01 0. -1.
</event>
<event>
 5   0  0.4762788E-08  0.3921868E+04  0.7818609E-02  0.8020496E-01
        1   -1    0    0  501    0  0.00000000000E+00  0.00000000000E+00  0.14257646163E+04  0.14257646163E+04  0.50400001928E-02 0. -1.
       -1   -1    0    0    0  501  0.00000000000E+00  0.00000000000E+00 -0.26969819321E+04  0.26969819321E+04  0.50400001928E-02 0.  1.
    10030    2    1    2    0    0  0.00000000000E+00  0.00000000000E+00 -0.12712173158E+04  0.41227465484E+04  0.39218676213E+04 0.  0.
        2    1    3    3  502    0  0.74154431303E+03  0.13312178928E+04  0.66179998155E+03  0.16613272591E+04  0.25500000920E-02 0. -1.
       -2    1    3    3    0  502 -0.74154431303E+03 -0.13312178928E+04 -0.19330172973E+04  0.24614192894E+04  0.25500000920E-02 0.  1.
</event>
<event>
 5   0  0.1546846E-07  0.3887109E+04  0.7818609E-02  0.8027716E-01
       -2   -1    0    0    0  501  0.00000000000E+00  0.00000000000E+00  0.25843059233E+04  0.25843059233E+04  0.25500000920E-02 0.  1.
        2   -1    0    0  501    0  0.00000000000E+00  0.00000000000E+00 -0.14616709312E+04  0.14616709312E+04  0.25500000920E-02 0. -1.
    10030    2    1    2    0    0  0.00000000000E+00  0.00000000000E+00  0.11226349921E+04  0.40459768545E+04  0.38871093864E+04 0.  0.
        2    1    3    3  502    0 -0.18196783754E+04 -0.33432696752E+03 -0.58329089495E+02  0.18510554270E+04  0.25500000920E-02 0. -1.
       -2    1    3    3    0  502  0.18196783754E+04  0.33432696752E+03  0.11809640816E+04  0.21949214275E+04  0.25500000920E-02 0.  1.
</event>
<event>
 5   0  0.1546846E-07  0.3899896E+04  0.7818609E-02  0.8025051E-01
        2   -1    0    0  501    0  0.00000000000E+00  0.00000000000E+00  0.18518435454E+04  0.18518435454E+04  0.25500000920E-02 0. -1.
       -2   -1    0    0    0  501  0.00000000000E+00  0.00000000000E+00 -0.20532494312E+04  0.20532494312E+04  0.25500000920E-02 0.  1.
    10030    2    1    2    0    0  0.00000000000E+00  0.00000000000E+00 -0.20140588581E+03  0.39050929766E+04  0.38998957454E+04 0.  0.
        2    1    3    3  502    0 -0.10434825334E+04  0.19953953211E+03  0.15365984016E+04  0.18681023715E+04  0.25500000920E-02 0. -1.
       -2    1    3    3    0  502  0.10434825334E+04 -0.19953953211E+03 -0.17380042875E+04  0.20369906052E+04  0.25500000920E-02 0.  1.
</event>
<event>
 5   0  0.1520986E-07  0.3905247E+04  0.7818609E-02  0.8023939E-01
       -2   -1    0    0    0  501  0.00000000000E+00  0.00000000000E+00  0.20726132774E+04  0.20726132774E+04  0.25500000920E-02 0.  1.
        2   -1    0    0  501    0  0.00000000000E+00  0.00000000000E+00 -0.18395800109E+04  0.18395800109E+04  0.25500000920E-02 0. -1.
    10030    2    1    2    0    0  0.00000000000E+00  0.00000000000E+00  0.23303326647E+03  0.39121932883E+04  0.39052467043E+04 0.  0.
        4    1    3    3  502    0 -0.16127993553E+04 -0.66113455449E+03  0.99814780505E+03  0.20086117876E+04  0.12699999809E+01 0.  1.
       -4    1    3    3    0  502  0.16127993553E+04  0.66113455449E+03 -0.76511453858E+03  0.19035815007E+04  0.12699999809E+01 0. -1.
</event>
<event>
 5   0  0.1546846E-07  0.3889152E+04  0.7818609E-02  0.8027289E-01
        2   -1    0    0  501    0  0.00000000000E+00  0.00000000000E+00  0.24771760660E+04  0.24771760660E+04  0.25500000920E-02 0. -1.
       -2   -1    0    0    0  501  0.00000000000E+00  0.00000000000E+00 -0.15264864589E+04  0.15264864589E+04  0.25500000920E-02 0.  1.
    10030    2    1    2    0    0  0.00000000000E+00  0.00000000000E+00  0.95068960709E+03  0.40036625249E+04  0.38891519492E+04 0.  0.
        2    1    3    3  502    0  0.42287525824E+03 -0.96232639459E+03 -0.12088199137E+04  0.16019179622E+04  0.25500000920E-02 0.  1.
       -2    1    3    3    0  502 -0.42287525824E+03  0.96232639459E+03  0.21595095208E+04  0.24017445627E+04  0.25500000920E-02 0. -1.
</event>
<event>
 5   0  0.1546846E-07  0.3914946E+04  0.7818609E-02  0.8021928E-01
        2   -1    0    0  501    0  0.00000000000E+00  0.00000000000E+00  0.23336344999E+04  0.23336344999E+04  0.25500000920E-02 0.  1.
       -2   -1    0    0    0  501  0.00000000000E+00  0.00000000000E+00 -0.16419451109E+04  0.16419451109E+04  0.25500000920E-02 0. -1.
    10030    2    1    2    0    0  0.00000000000E+00  0.00000000000E+00  0.69168938903E+03  0.39755796108E+04  0.39149455975E+04 0.  0.
        2    1    3    3  502    0 -0.46891910930E+03  0.12920225736E+02 -0.15840224524E+04  0.16520227580E+04  0.25500000920E-02 0. -1.
       -2    1    3    3    0  502  0.46891910930E+03 -0.12920225736E+02  0.22757118414E+04  0.23235568528E+04  0.25500000920E-02 0.  1.
</event>
<event>
 5   0  0.1503228E-07  0.3885974E+04  0.7818609E-02  0.8027953E-01
        2   -1    0    0  501    0  0.00000000000E+00  0.00000000000E+00  0.26361723879E+04  0.26361723879E+04  0.25500000920E-02 0. -1.
       -2   -1    0    0    0  501  0.00000000000E+00  0.00000000000E+00 -0.14320759656E+04  0.14320759656E+04  0.25500000920E-02 0.  1.
    10030    2    1    2    0    0  0.00000000000E+00  0.00000000000E+00  0.12040964224E+04  0.40682483535E+04  0.38859743272E+04 0.  0.
        3    1    3    3  502    0 -0.43083453636E+03  0.21637922123E+03  0.25725572986E+04  0.26173439648E+04  0.10100000352E+00 0. -1.
       -3    1    3    3    0  502  0.43083453636E+03 -0.21637922123E+03 -0.13684608763E+04  0.14509043887E+04  0.10100000352E+00 0.  1.
</event>
<event>
 5   0  0.4750125E-08  0.3926328E+04  0.7818609E-02  0.8019576E-01
       -1   -1    0    0    0  501  0.00000000000E+00  0.00000000000E+00  0.25094583916E+04  0.25094583916E+04  0.50400001928E-02 0.  1.
        1   -1    0    0  501    0  0.00000000000E+00  0.00000000000E+00 -0.15357943276E+04  0.15357943276E+04  0.50400001928E-02 0. -1.
    10030    2    1    2    0    0  0.00000000000E+00  0.00000000000E+00  0.97366406398E+03  0.40452527193E+04  0.39263275275E+04 0.  0.
        4    1    3    3  502    0  0.11810042881E+04  0.15655348207E+04  0.58092145078E+03  0.20452730253E+04  0.12699999809E+01 0.  1.
       -4    1    3    3    0  502 -0.11810042881E+04 -0.15655348207E+04  0.39274261319E+03  0.19999796940E+04  0.12699999809E+01 0. -1.
</event>
<event>
 5   0  0.4750125E-08  0.3919991E+04  0.7818609E-02  0.8020884E-01
       -1   -1    0    0    0  501  0.00000000000E+00  0.00000000000E+00  0.18753204270E+04  0.18753204270E+04  0.50400001928E-02 0.  1.
        1   -1    0    0  501    0  0.00000000000E+00  0.00000000000E+00 -0.20484935555E+04  0.20484935555E+04  0.50400001928E-02 0. -1.
    10030    2    1    2    0    0  0.00000000000E+00  0.00000000000E+00 -0.17317312852E+03  0.39238139824E+04  0.39199907189E+04 0.  0.
        1    1    3    3  502    0 -0.20184028426E+03  0.96951887656E+03 -0.17796485072E+04  0.20366283809E+04  0.50400001928E-02 0.  1.
       -1    1    3    3    0  502  0.20184028426E+03 -0.96951887656E+03  0.16064753787E+04  0.18871856016E+04  0.50400001928E-02 0. -1.
</event>
<event>
 5   0  0.4750125E-08  0.3892298E+04  0.7818609E-02  0.8026633E-01
       -1   -1    0    0    0  501  0.00000000000E+00  0.00000000000E+00  0.24861430100E+04  0.24861430100E+04  0.50400001928E-02 0. -1.
        1   -1    0    0  501    0  0.00000000000E+00  0.00000000000E+00 -0.15234427009E+04  0.15234427009E+04  0.50400001928E-02 0.  1.
    10030    2    1    2    0    0  0.00000000000E+00  0.00000000000E+00  0.96270030913E+03  0.40095857109E+04  0.38922982527E+04 0.  0.
        3    1    3    3  502    0  0.12458589746E+04 -0.10153783724E+04  0.16118426695E+04  0.22762237643E+04  0.10100000352E+00 0. -1.
       -3    1    3    3    0  502 -0.12458589746E+04  0.10153783724E+04 -0.64914236041E+03  0.17333619466E+04  0.10100000352E+00 0.  1.
</event>
<event>
 5   0  0.4762788E-08  0.3899873E+04  0.7818609E-02  0.8025056E-01
       -1   -1    0    0    0  501  0.00000000000E+00  0.00000000000E+00  0.26634850059E+04  0.26634850059E+04  0.50400001928E-02 0. -1.
        1   -1    0    0  501    0  0.00000000000E+00  0.00000000000E+00 -0.14275479072E+04  0.14275479072E+04  0.50400001928E-02 0.  1.
    10030    2    1    2    0    0  0.00000000000E+00  0.00000000000E+00  0.12359370987E+04  0.40910329131E+04  0.38998730472E+04 0.  0.
        2    1    3    3  502    0  0.14307029072E+04  0.89908316480E+03  0.16388033164E+04  0.23539196367E+04  0.25500000920E-02 0. -1.
       -2    1    3    3    0  502 -0.14307029072E+04 -0.89908316480E+03 -0.40286621779E+03  0.17371132765E+04  0.25500000920E-02 0.  1.
</event>
<event>
 5   0  0.4750125E-08  0.4026189E+04  0.7818609E-02  0.7999284E-01
       -1   -1    0    0    0  501  0.00000000000E+00  0.00000000000E+00  0.29684577283E+04  0.29684577283E+04  0.50400001928E-02 0. -1.
        1   -1    0    0  501    0  0.00000000000E+00  0.00000000000E+00 -0.13652034456E+04  0.13652034456E+04  0.50400001928E-02 0.  1.
    10030    2    1    2    0    0  0.00000000000E+00  0.00000000000E+00  0.16032542827E+04  0.43336611739E+04  0.40261886289E+04 0.  0.
        3    1    3    3  502    0 -0.15268462558E+04 -0.99682441675E+03 -0.11652832383E+03  0.18271555126E+04  0.10100000352E+00 0.  1.
       -3    1    3    3    0  502  0.15268462558E+04  0.99682441675E+03  0.17197826065E+04  0.25065056614E+04  0.10100000352E+00 0. -1.
</event>
<event>
 5   0  0.1520986E-07  0.3885220E+04  0.7818609E-02  0.8028110E-01
        2   -1    0    0  501    0  0.00000000000E+00  0.00000000000E+00  0.22982395530E+04  0.22982395530E+04  0.25500000920E-02 0.  1.
       -2   -1    0    0    0  501  0.00000000000E+00  0.00000000000E+00 -0.16420105994E+04  0.16420105994E+04  0.25500000920E-02 0. -1.
    10030    2    1    2    0    0  0.00000000000E+00  0.00000000000E+00  0.65622895352E+03  0.39402501524E+04  0.38852200484E+04 0.  0.
        4    1    3    3  502    0 -0.10351738145E+04 -0.30239423054E+03  0.19667677640E+04  0.22430345846E+04  0.12699999809E+01 0.  1.
       -4    1    3    3    0  502  0.10351738145E+04  0.30239423054E+03 -0.13105388105E+04  0.16972155679E+04  0.12699999809E+01 0. -1.
</event>
<event>
 5   0  0.1520986E-07  0.3906972E+04  0.7818609E-02  0.8023581E-01
        2   -1    0    0  501    0  0.00000000000E+00  0.00000000000E+00  0.18756449250E+04  0.18756449250E+04  0.25500000920E-02 0.  1.
       -2   -1    0    0    0  501  0.00000000000E+00  0.00000000000E+00 -0.20345571946E+04  0.20345571946E+04  0.25500000920E-02 0. -1.
    10030    2    1    2    0    0  0.00000000000E+00  0.00000000000E+00 -0.15891226957E+03  0.39102021196E+04  0.39069716542E+04 0.  0.
        4    1    3    3  502    0  0.22933580378E+03  0.54498970589E+03 -0.19428485958E+04  0.20308301183E+04  0.12699999809E+01 0. -1.
       -4    1    3    3    0  502 -0.22933580378E+03 -0.54498970589E+03  0.17839363262E+04  0.18793720013E+04  0.12699999809E+01 0.  1.
</event>
<event>
 5   0  0.1546846E-07  0.3888699E+04  0.7818609E-02  0.8027384E-01
        2   -1    0    0  501    0  0.00000000000E+00  0.00000000000E+00  0.28763479404E+04  0.28763479404E+04  0.25500000920E-02 0.  1.
       -2   -1    0    0    0  501  0.00000000000E+00  0.00000000000E+00 -0.13143383985E+04  0.13143383985E+04  0.25500000920E-02 0. -1.
    10030    2    1    2    0    0  0.00000000000E+00  0.00000000000E+00  0.15620095419E+04  0.41906863389E+04  0.38886987775E+04 0.  0.
        2    1    3    3  502    0  0.13197628999E+04  0.98716425464E+01  0.23196883214E+04  0.26688622051E+04  0.25500000920E-02 0.  1.
       -2    1    3    3    0  502 -0.13197628999E+04 -0.98716425464E+01 -0.75767877953E+03  0.15218241338E+04  0.25500000920E-02 0. -1.
</event>
<event>
 5   0  0.4750125E-08  0.3907095E+04  0.7818609E-02  0.8023555E-01
       -1   -1    0    0    0  501  0.00000000000E+00  0.00000000000E+00  0.17930691887E+04  0.17930691887E+04  0.50400001928E-02 0.  1.
        1   -1    0    0  501    0  0.00000000000E+00  0.00000000000E+00 -0.21283881107E+04  0.21283881107E+04  0.50400001928E-02 0. -1.
    10030    2    1    2    0    0  0.00000000000E+00  0.00000000000E+00 -0.33531892203E+03  0.39214572995E+04  0.39070946459E+04 0.  0.
        1    1    3    3  502    0  0.16276742597E+04 -0.43580127718E+03 -0.11597773122E+04  0.20455634096E+04  0.50400001928E-02 0. -1.
       -1    1    3    3    0  502 -0.16276742597E+04  0.43580127718E+03  0.82445839019E+03  0.18758938898E+04  0.50400001928E-02 0.  1.
</event>
<event>
 5   0  0.4750125E-08  0.3871110E+04  0.7818609E-02  0.8031065E-01
        1   -1    0    0  501    0  0.00000000000E+00  0.00000000000E+00  0.21009222286E+04  0.21009222286E+04  0.50400001928E-02 0. -1.
       -1   -1    0    0    0  501  0.00000000000E+00  0.00000000000E+00 -0.17832045636E+04  0.17832045636E+04  0.50400001928E-02 0.  1.
    10030    2    1    2    0    0  0.00000000000E+00  0.00000000000E+00  0.31771766499E+03  0.38841267921E+04  0.38711104896E+04 0.  0.
        3    1    3    3  502    0  0.43613701856E+03  0.10401560989E+04 -0.14193999203E+04  0.18129634175E+04  0.10100000352E+00 0.  1.
       -3    1    3    3    0  502 -0.43613701856E+03 -0.10401560989E+04  0.17371175853E+04  0.20711633747E+04  0.10100000352E+00 0. -1.
</event>
<event>
 5   0  0.4750125E-08  0.3901719E+04  0.7818609E-02  0.8024672E-01
       -1   -1    0    0    0  501  0.00000000000E+00  0.00000000000E+00  0.25733763620E+04  0.25733763620E+04  0.50400001928E-02 0. -1.
        1   -1    0    0  501    0  0.00000000000E+00  0.00000000000E+00 -0.14789334382E+04  0.14789334382E+04  0.50400001928E-02 0.  1.
    10030    2    1    2    0    0  0.00000000000E+00  0.00000000000E+00  0.10944429239E+04  0.40523098002E+04  0.39017187755E+04 0.  0.
        4    1    3    3  502    0 -0.40418605051E+03  0.49080604129E+03 -0.13683038814E+04  0.15088121349E+04  0.12699999809E+01 0.  1.
       -4    1    3    3    0  502  0.40418605051E+03 -0.49080604129E+03  0.24627468053E+04  0.25434976653E+04  0.12699999809E+01 0. -1.
</event>
<event>
 5   0  0.4750125E-08  0.3898859E+04  0.7818609E-02  0.8025267E-01
       -1   -1    0    0    0  501  0.00000000000E+00  0.00000000000E+00  0.14161061537E+04  0.14161061537E+04  0.50400001928E-02 0.  1.
        1   -1    0    0  501    0  0.00000000000E+00  0.00000000000E+00 -0.26836085352E+04  0.26836085352E+04  0.50400001928E-02 0. -1.
    10030    2    1    2    0    0  0.00000000000E+00  0.00000000000E+00 -0.12675023815E+04  0.40997146889E+04  0.38988585821E+04 0.  0.
        4    1    3    3  502    0 -0.50290166986E+03  0.12841014754E+04 -0.20825741012E+04  0.24977876588E+04  0.12699999809E+01 0. -1.
       -4    1    3    3    0  502  0.50290166986E+03 -0.12841014754E+04  0.81507171965E+03  0.16019270301E+04  0.12699999809E+01 0.  1.
</event>
<event>
 5   0  0.1538018E-07  0.3895908E+04  0.7818609E-02  0.8025881E-01
       -2   -1    0    0    0  501  0.00000000000E+00  0.00000000000E+00  0.18014879110E+04  0.18014879110E+04  0.25500000920E-02 0.  1.
        2   -1    0    0  501    0  0.00000000000E+00  0.00000000000E+00 -0.21063282432E+04  0.21063282432E+04  0.25500000920E-02 0. -1.
    10030    2    1    2    0    0  0.00000000000E+00  0.00000000000E+00 -0.30484033219E+03  0.39078161541E+04  0.38959080413E+04 0.  0.
        1    1    3    3  502    0  0.61290586227E+03 -0.90701414694E+03  0.14637765338E+04  0.18278320491E+04  0.50400001928E-02 0.  1.
       -1    1    3    3    0  502 -0.61290586227E+03  0.90701414694E+03 -0.17686168660E+04  0.20799841051E+04  0.50400001928E-02 0. -1.
</event>
<event>
 5   0  0.1546846E-07  0.3883769E+04  0.7818609E-02  0.8028414E-01
        2   -1    0    0  501    0  0.00000000000E+00  0.00000000000E+00  0.15568197461E+04  0.15568197461E+04  0.25500000920E-02 0.  1.
       -2   -1    0    0    0  501  0.00000000000E+00  0.00000000000E+00 -0.24221909448E+04  0.24221909448E+04  0.25500000920E-02 0. -1.
    10030    2    1    2    0    0  0.00000000000E+00  0.00000000000E+00 -0.86537119870E+03  0.39790106908E+04  0.38837686293E+04 0.  0.
        2    1    3    3  502    0 -0.13743472049E+04  0.10049128617E+04 -0.13895235888E+04  0.21976023078E+04  0.25500000920E-02 0. -1.
       -2    1    3    3    0  502  0.13743472049E+04 -0.10049128617E+04  0.52415239010E+03  0.17814083831E+04  0.25500000920E-02 0.  1.
</event>
<event>
 5   0  0.1503228E-07  0.3909678E+04  0.7818609E-02  0.8023019E-01
        2   -1    0    0  501    0  0.00000000000E+00  0.00000000000E+00  0.15834091533E+04  0.15834091533E+04  0.25500000920E-02 0.  1.
       -2   -1    0    0    0  501  0.00000000000E+00  0.00000000000E+00 -0.24133972083E+04  0.24133972083E+04  0.25500000920E-02 0. -1.
    10030    2    1    2    0    0  0.00000000000E+00  0.00000000000E+00 -0.82998805502E+03  0.39968063617E+04  0.39096778539E+04 0.  0.
        3    1    3    3  502    0 -0.15603289589E+03 -0.14648056238E+04  0.89870963665E+03  0.17255957815E+04  0.10100000352E+00 0.  1.
       -3    1    3    3    0  502  0.15603289589E+03  0.14648056238E+04 -0.17286976917E+04  0.22712105802E+04  0.10100000352E+00 0. -1.
</event>
<event>
 5   0  0.1501585E-07  0.4256803E+04  0.7818609E-02  0.7954654E-01
       -2   -1    0    0    0  501  0.00000000000E+00  0.00000000000E+00  0.15923982037E+04  0.15923982037E+04  0.25500000920E-02 0. -1.
        2   -1    0    0  501    0  0.00000000000E+00  0.00000000000E+00 -0.28448247142E+04  0.28448247142E+04  0.25500000920E-02 0.  1.
    10030    2    1    2    0    0  0.00000000000E+00  0.00000000000E+00 -0.12524265105E+04  0.44372229179E+04  0.42568033851E+04 0.  0.
        5    1    3    3  502    0 -0.12861611922E+04 -0.56216407506E+03 -0.22939728207E+04  0.26893442419E+04  0.46999998093E+01 0.  1.
       -5    1    3    3    0  502  0.12861611922E+04  0.56216407506E+03  0.10415463102E+04  0.17478786760E+04  0.46999998093E+01 0. -1.
</event>
<event>
 5   0  0.4750125E-08  0.3873315E+04  0.7818609E-02  0.8030602E-01
       -1   -1    0    0    0  501  0.00000000000E+00  0.00000000000E+00  0.21527342331E+04  0.21527342331E+04  0.50400001928E-02 0.  1.
        1   -1    0    0  501    0  0.00000000000E+00  0.00000000000E+00 -0.17422688228E+04  0.17422688228E+04  0.50400001928E-02 0. -1.
    10030    2    1    2    0    0  0.00000000000E+00  0.00000000000E+00  0.41046541036E+03  0.38950030559E+04  0.38733147241E+04 0.  0.
        5    1    3    3  502    0 -0.16580191400E+04  0.99096498691E+03  0.64518569463E+02  0.19326727115E+04  0.46999998093E+01 0. -1.
       -5    1    3    3    0  502  0.16580191400E+04 -0.99096498691E+03  0.34594684089E+03  0.19623303444E+04  0.46999998093E+01 0.  1.
</event>
<event>
 5   0  0.4762788E-08  0.3826173E+04  0.7818609E-02  0.8040561E-01
       -1   -1    0    0    0  501  0.00000000000E+00  0.00000000000E+00  0.27366077766E+04  0.27366077766E+04  0.50400001928E-02 0.  1.
        1   -1    0    0  501    0  0.00000000000E+00  0.00000000000E+00 -0.13373857687E+04  0.13373857687E+04  0.50400001928E-02 0. -1.
    10030    2    1    2    0    0  0.00000000000E+00  0.00000000000E+00  0.13992220079E+04  0.40739935453E+04  0.38261731769E+04 0.  0.
        2    1    3    3  502    0 -0.22108700875E+03 -0.18148307475E+04  0.99728570618E+02  0.18309658368E+04  0.25500000920E-02 0.  1.
       -2    1    3    3    0  502  0.22108700875E+03  0.18148307475E+04  0.12994934373E+04  0.22430277085E+04  0.25500000920E-02 0. -1.
</event>
<event>
 5   0  0.4750125E-08  0.3896840E+04  0.7818609E-02  0.8025687E-01
       -1   -1    0    0    0  501  0.00000000000E+00  0.00000000000E+00  0.16073612549E+04  0.16073612549E+04  0.50400001928E-02 0.  1.
        1   -1    0    0  501    0  0.00000000000E+00  0.00000000000E+00 -0.23618460160E+04  0.23618460160E+04  0.50400001928E-02 0. -1.
    10030    2    1    2    0    0  0.00000000000E+00  0.00000000000E+00 -0.75448476115E+03  0.39692072709E+04  0.38968396304E+04 0.  0.
        5    1    3    3  502    0 -0.74741982899E+03  0.67655437046E+03 -0.20755257804E+04  0.23074209785E+04  0.46999998093E+01 0. -1.
       -5    1    3    3    0  502  0.74741982899E+03 -0.67655437046E+03  0.13210410193E+04  0.16617862924E+04  0.46999998093E+01 0.  1.
</event>
<event>
 5   0  0.1546846E-07  0.3928376E+04  0.7818609E-02  0.8019153E-01
       -2   -1    0    0    0  501  0.00000000000E+00  0.00000000000E+00  0.18433637492E+04  0.18433637492E+04  0.25500000920E-02 0. -1.
        2   -1    0    0  501    0  0.00000000000E+00  0.00000000000E+00 -0.20929316593E+04  0.20929316593E+04  0.25500000920E-02 0.  1.
    10030    2    1    2    0    0  0.00000000000E+00  0.00000000000E+00 -0.24956791009E+03  0.39362954085E+04  0.39283759241E+04 0.  0.
        2    1    3    3  502    0  0.12931116849E+04  0.13405406014E+04 -0.74961737719E+03  0.20077632196E+04  0.25500000920E-02 0. -1.
       -2    1    3    3    0  502 -0.12931116849E+04 -0.13405406014E+04  0.50004946711E+03  0.19285321888E+04  0.25500000920E-02 0.  1.
</event>
<event>
 5   0  0.1538018E-07  0.3918689E+04  0.7818609E-02  0.8021153E-01
        2   -1    0    0  501    0  0.00000000000E+00  0.00000000000E+00  0.16238195812E+04  0.16238195812E+04  0.25500000920E-02 0. -1.
       -2   -1    0    0    0  501  0.00000000000E+00  0.00000000000E+00 -0.23641980628E+04  0.23641980628E+04  0.25500000920E-02 0.  1.
    10030    2    1    2    0    0  0.00000000000E+00  0.00000000000E+00 -0.74037848161E+03  0.39880176441E+04  0.39186891218E+04 0.  0.
        1    1    3    3  502    0  0.12540575322E+04 -0.10195207354E+04  0.75708449512E+03  0.17847296033E+04  0.50400001928E-02 0. -1.
       -1    1    3    3    0  502 -0.12540575322E+04  0.10195207354E+04 -0.14974629767E+04  0.22032880408E+04  0.50400001928E-02 0.  1.
</event>
<event>
 5   0  0.1538018E-07  0.3848124E+04  0.7818609E-02  0.8035906E-01
        2   -1    0    0  501    0  0.00000000000E+00  0.00000000000E+00  0.26746141408E+04  0.26746141408E+04  0.25500000920E-02 0. -1.
       -2   -1    0    0    0  501  0.00000000000E+00  0.00000000000E+00 -0.13841305093E+04  0.13841305093E+04  0.25500000920E-02 0.  1.
    10030    2    1    2    0    0  0.00000000000E+00  0.00000000000E+00  0.12904836315E+04  0.40587446501E+04  0.38481242355E+04 0.  0.
        1    1    3    3  502    0 -0.55854041594E+03 -0.10680152570E+04  0.22271276090E+04  0.25323351619E+04  0.50400001928E-02 0. -1.
       -1    1    3    3    0  502  0.55854041594E+03  0.10680152570E+04 -0.93664397744E+03  0.15264094883E+04  0.50400001928E-02 0.  1.
</event>
<event>
 5   0  0.1503228E-07  0.3910327E+04  0.7818609E-02  0.8022885E-01
       -2   -1    0    0    0  501  0.00000000000E+00  0.00000000000E+00  0.19015120020E+04  0.19015120020E+04  0.25500000920E-02 0. -1.
        2   -1    0    0  501    0  0.00000000000E+00  0.00000000000E+00 -0.20103286952E+04  0.20103286952E+04  0.25500000920E-02 0.  1.
    10030    2    1    2    0    0  0.00000000000E+00  0.00000000000E+00 -0.10881669322E+03  0.39118406972E+04  0.39103269131E+04 0.  0.
        3    1    3    3  502    0  0.11823949493E+04 -0.11211407531E+04 -0.11354050877E+04  0.19859907169E+04  0.10100000352E+00 0.  1.
       -3    1    3    3    0  502 -0.11823949493E+04  0.11211407531E+04  0.10265883945E+04  0.19258499802E+04  0.10100000352E+00 0. -1.
</event>
<event>
 5   0  0.4750125E-08  0.3867917E+04  0.7818609E-02  0.8031735E-01
       -1   -1    0    0    0  501  0.00000000000E+00  0.00000000000E+00  0.14331217901E+04  0.14331217902E+04  0.50400001928E-02 0.  1.
        1   -1    0    0  501    0  0.00000000000E+00  0.00000000000E+00 -0.26098239888E+04  0.26098239888E+04  0.50400001928E-02 0. -1.
    10030    2    1    2    0    0  0.00000000000E+00  0.00000000000E+00 -0.11767021987E+04  0.40429457790E+04  0.38679170761E+04 0.  0.
        4    1    3    3  502    0 -0.10910455018E+04  0.97093793415E+03 -0.19134286657E+04  0.24071376426E+04  0.12699999809E+01 0. -1.
       -4    1    3    3    0  502  0.10910455018E+04 -0.97093793415E+03  0.73672646702E+03  0.16358081364E+04  0.12699999809E+01 0.  1.
</event>
<event>
 5   0  0.1503228E-07  0.3916809E+04  0.7818609E-02  0.8021542E-01
       -2   -1    0    0    0  501  0.00000000000E+00  0.00000000000E+00  0.19875825434E+04  0.19875825434E+04  0.25500000920E-02 0. -1.
        2   -1    0    0  501    0  0.00000000000E+00  0.00000000000E+00 -0.19296543195E+04  0.19296543195E+04  0.25500000920E-02 0.  1.
    10030    2    1    2    0    0  0.00000000000E+00  0.00000000000E+00  0.57928223937E+02  0.39172368629E+04  0.39168085172E+04 0.  0.
        3    1    3    3  502    0  0.17106146676E+04  0.73902310089E+03  0.63151613753E+03  0.19675289900E+04  0.10100000352E+00 0. -1.
       -3    1    3    3    0  502 -0.17106146676E+04 -0.73902310089E+03 -0.57358791360E+03  0.19497078728E+04  0.10100000352E+00 0.  1.
</event>
<event>
 5   0  0.4762788E-08  0.3895463E+04  0.7818609E-02  0.8025974E-01
        1   -1    0    0  501    0  0.00000000000E+00  0.00000000000E+00  0.16018035658E+04  0.16018035658E+04  0.50400001928E-02 0.  1.
       -1   -1    0    0    0  501  0.00000000000E+00  0.00000000000E+00 -0.23683660065E+04  0.23683660065E+04  0.50400001928E-02 0. -1.
    10030    2    1    2    0    0  0.00000000000E+00  0.00000000000E+00 -0.76656244071E+03  0.39701695723E+04  0.38954625472E+04 0.  0.
        2    1    3    3  502    0  0.10975872829E+04 -0.14458096669E+04  0.33637222176E+03  0.18461337189E+04  0.25500000920E-02 0. -1.
       -2    1    3    3    0  502 -0.10975872829E+04  0.14458096669E+04 -0.11029346625E+04  0.21240358533E+04  0.25500000920E-02 0.  1.
</event>
<event>
 5   0  0.1501585E-07  0.3889136E+04  0.7818609E-02  0.8027293E-01
       -2   -1    0    0    0  501  0.00000000000E+00  0.00000000000E+00  0.34295433562E+04  0.34295433562E+04  0.25500000920E-02 0.  1.
        2   -1    0    0  501    0  0.00000000000E+00  0.00000000000E+00 -0.11025795278E+04  0.11025795278E+04  0.25500000920E-02 0. -1.
    10030    2    1    2    0    0  0.00000000000E+00  0.00000000000E+00  0.23269638284E+04  0.45321228841E+04  0.38891357880E+04 0.  0.
        5    1    3    3  502    0 -0.88056730166E+03  0.11703920878E+04 -0.32709455582E+03  0.15007429328E+04  0.46999998093E+01 0.  1.
       -5    1    3    3    0  502  0.88056730166E+03 -0.11703920878E+04  0.26540583842E+04  0.30313799512E+04  0.46999998093E+01 0. -1.
</event>
<event>
 5   0  0.1503228E-07  0.3893677E+04  0.7818609E-02  0.8026346E-01
       -2   -1    0    0    0  501  0.00000000000E+00  0.00000000000E+00  0.17787911566E+04  0.17787911566E+04  0.25500000920E-02 0.  1.
        2   -1    0    0  501    0  0.00000000000E+00  0.00000000000E+00 -0.21307617409E+04  0.21307617409E+04  0.25500000920E-02 0. -1.
    10030    2    1    2    0    0  0.00000000000E+00  0.00000000000E+00 -0.35197058424E+03  0.39095528975E+04  0.38936769982E+04 0.  0.
        3    1    3    3  502    0  0.12577169562E+04 -0.30160993942E+03 -0.16370333010E+04  0.20863121857E+04  0.10100000352E+00 0. -1.
       -3    1    3    3    0  502 -0.12577169562E+04  0.30160993942E+03  0.12850627167E+04  0.18232407119E+04  0.10100000352E+00 0.  1.
</event>
<event>
 5   0  0.4762788E-08  0.3897363E+04  0.7818609E-02  0.8025578E-01
       -1   -1    0    0    0  501  0.00000000000E+00  0.00000000000E+00  0.16538837557E+04  0.16538837557E+04  0.50400001928E-02 0. -1.
        1   -1    0    0  501    0  0.00000000000E+00  0.00000000000E+00 -0.22960254986E+04  0.22960254986E+04  0.50400001928E-02 0.  1.
    10030    2    1    2    0    0  0.00000000000E+00  0.00000000000E+00 -0.64214174283E+03  0.39499092543E+04  0.38973628391E+04 0.  0.
        2    1    3    3  502    0 -0.77758037086E+03 -0.13725563077E+04 -0.14805308943E+04  0.21634495094E+04  0.25500000920E-02 0.  1.
       -2    1    3    3    0  502  0.77758037086E+03  0.13725563077E+04  0.83838915147E+03  0.17864597449E+04  0.25500000920E-02 0. -1.
</event>
<event>
 5   0  0.4762788E-08  0.3915916E+04  0.7818609E-02  0.8021727E-01
       -1   -1    0    0    0  501  0.00000000000E+00  0.00000000000E+00  0.26571257473E+04  0.26571257473E+04  0.50400001928E-02 0.  1.
        1   -1    0    0  501    0  0.00000000000E+00  0.00000000000E+00 -0.14427616543E+04  0.14427616543E+04  0.50400001928E-02 0. -1.
    10030    2    1    2    0    0  0.00000000000E+00  0.00000000000E+00  0.12143640930E+04  0.40998874016E+04  0.39159158003E+04 0.  0.
        2    1    3    3  502    0  0.20669841357E+03 -0.14027753998E+04 -0.80647272487E+03  0.16312269347E+04  0.25500000920E-02 0. -1.
       -2    1    3    3    0  502 -0.20669841357E+03  0.14027753998E+04  0.20208368179E+04  0.24686604669E+04  0.25500000920E-02 0.  1.
</event>
<event>
 5   0  0.1546846E-07  0.3890043E+04  0.7818609E-02  0.8027103E-01
       -2   -1    0    0    0  501  0.00000000000E+00  0.00000000000E+00  0.31621362593E+04  0.31621362593E+04  0.25500000920E-02 0. -1.
        2   -1    0    0  501    0  0.00000000000E+00  0.00000000000E+00 -0.11963772095E+04  0.11963772096E+04  0.25500000920E-02 0.  1.
    10030    2    1    2    0    0  0.00000000000E+00  0.00000000000E+00  0.19657590498E+04  0.43585134689E+04  0.38900425469E+04 0.  0.
        2    1    3    3  502    0  0.24172921936E+03  0.30663992196E+03 -0.11520130935E+04  0.12163861331E+04  0.25500000920E-02 0.  1.
       -2    1    3    3    0  502 -0.24172921936E+03 -0.30663992196E+03  0.31177721432E+04  0.31421273358E+04  0.25500000920E-02 0. -1.
</event>
<event>
 5   0  0.1546846E-07  0.3506092E+04  0.7818609E-02  0.8112348E-01
        2   -1    0    0  501    0  0.00000000000E+00  0.00000000000E+00  0.20544534133E+04  0.20544534133E+04  0.25500000920E-02 0. -1.
       -2   -1    0    0    0  501  0.00000000000E+00  0.00000000000E+00 -0.14958576850E+04  0.14958576850E+04  0.25500000920E-02 0.  1.
    10030    2    1    2    0    0  0.00000000000E+00  0.00000000000E+00  0.55859572828E+03  0.35503110983E+04  0.35060917996E+04 0.  0.
        2    1    3    3  502    0  0.16019397952E+04 -0.70652406565E+03  0.36862933418E+03  0.17892107055E+04  0.25500000920E-02 0. -1.
       -2    1    3    3    0  502 -0.16019397952E+04  0.70652406565E+03  0.18996639410E+03  0.17611003928E+04  0.25500000920E-02 0.  1.
</event>
<event>
 5   0  0.4750125E-08  0.3903443E+04  0.7818609E-02  0.8024314E-01
       -1   -1    0    0    0  501  0.00000000000E+00  0.00000000000E+00  0.21377127417E+04  0.21377127417E+04  0.50400001928E-02 0. -1.
        1   -1    0    0  501    0  0.00000000000E+00  0.00000000000E+00 -0.17819121656E+04  0.17819121657E+04  0.50400001928E-02 0.  1.
    10030    2    1    2    0    0  0.00000000000E+00  0.00000000000E+00  0.35580057606E+03  0.39196249074E+04  0.39034427579E+04 0.  0.
        3    1    3    3  502    0  0.81508492170E+03  0.24430343578E+03 -0.15858461689E+04  0.17997098877E+04  0.10100000352E+00 0.  1.
       -3    1    3    3    0  502 -0.81508492170E+03 -0.24430343578E+03  0.19416467449E+04  0.21199150197E+04  0.10100000352E+00 0. -1.
</event>
<event>
 5   0  0.1520986E-07  0.3885532E+04  0.7818609E-02  0.8028045E-01
       -2   -1    0    0    0  501  0.00000000000E+00  0.00000000000E+00  0.16118506872E+04  0.16118506872E+04  0.25500000920E-02 0.  1.
        2   -1    0    0  501    0  0.00000000000E+00  0.00000000000E+00 -0.23416186194E+04  0.23416186194E+04  0.25500000920E-02 0. -1.
    10030    2    1    2    0    0  0.00000000000E+00  0.00000000000E+00 -0.72976793211E+03  0.39534693066E+04  0.38855319229E+04 0.  0.
        4    1    3    3  502    0 -0.19359163637E+04  0.14530910397E+03 -0.44000621343E+03  0.19906014126E+04  0.12699999809E+01 0.  1.
       -4    1    3    3    0  502  0.19359163637E+04 -0.14530910397E+03 -0.28976171868E+03  0.19628678940E+04  0.12699999809E+01 0. -1.
</event>
<event>
 5   0  0.4750125E-08  0.3907501E+04  0.7818609E-02  0.8023471E-01
       -1   -1    0    0    0  501  0.00000000000E+00  0.00000000000E+00  0.16906641465E+04  0.16906641465E+04  0.50400001928E-02 0. -1.
        1   -1    0    0  501    0  0.00000000000E+00  0.00000000000E+00 -0.22577757333E+04  0.22577757333E+04  0.50400001928E-02 0.  1.
    10030    2    1    2    0    0  0.00000000000E+00  0.00000000000E+00 -0.56711158685E+03  0.39484398798E+04  0.39075007271E+04 0.  0.
        1    1    3    3  502    0  0.17198807094E+04  0.23655982563E+03 -0.11891542706E+04  0.21042903994E+04  0.50400001928E-02 0.  1.
       -1    1    3    3    0  502 -0.17198807094E+04 -0.23655982563E+03  0.62204268377E+03  0.18441494804E+04  0.50400001928E-02 0. -1.
</event>
<event>
 5   0  0.1546846E-07  0.3909870E+04  0.7818609E-02  0.8022980E-01
        2   -1    0    0  501    0  0.00000000000E+00  0.00000000000E+00  0.24551599554E+04  0.24551599554E+04  0.25500000920E-02 0.  1.
       -2   -1    0    0    0  501  0.00000000000E+00  0.00000000000E+00 -0.15566278060E+04  0.15566278060E+04  0.25500000920E-02 0. -1.
    10030    2    1    2    0    0  0.00000000000E+00  0.00000000000E+00  0.89853214938E+03  0.40117877613E+04  0.39098696933E+04 0.  0.
        2    1    3    3  502    0 -0.16844416301E+04  0.63925893677E+03  0.12278437375E+04  0.21802742573E+04  0.25500000920E-02 0.  1.
       -2    1    3    3    0  502  0.16844416301E+04 -0.63925893677E+03 -0.32931158809E+03  0.18315135040E+04  0.25500000920E-02 0. -1.
</event>
<event>
 5   0  0.4750125E-08  0.3880740E+04  0.7818609E-02  0.8029047E-01
       -1   -1    0    0    0  501  0.00000000000E+00  0.00000000000E+00  0.13264020917E+04  0.13264020917E+04  0.50400001928E-02 0. -1.
        1   -1    0    0  501    0  0.00000000000E+00  0.00000000000E+00 -0.28385326390E+04  0.28385326390E+04  0.50400001928E-02 0.  1.
    10030    2    1    2    0    0  0.00000000000E+00  0.00000000000E+00 -0.15121305473E+04  0.41649347307E+04  0.38807399447E+04 0.  0.
        5    1    3    3  502    0  0.16843801931E+04  0.59929020660E+03  0.53302713007E+02  0.17886164083E+04  0.46999998093E+01 0. -1.
       -5    1    3    3    0  502 -0.16843801931E+04 -0.59929020660E+03 -0.15654332603E+04  0.23763183224E+04  0.46999998093E+01 0.  1.
</event>
<event>
 5   0  0.1538018E-07  0.3900942E+04  0.7818609E-02  0.8024833E-01
       -2   -1    0    0    0  501  0.00000000000E+00  0.00000000000E+00  0.18071235364E+04  0.18071235364E+04  0.25500000920E-02 0.  1.
        2   -1    0    0  501    0  0.00000000000E+00  0.00000000000E+00 -0.21051894300E+04  0.21051894300E+04  0.25500000920E-02 0. -1.
    10030    2    1    2    0    0  0.00000000000E+00  0.00000000000E+00 -0.29806589363E+03  0.39123129664E+04  0.39009421260E+04 0.  0.
        1    1    3    3  502    0  0.33519649903E+03  0.99075585816E+03 -0.18001560510E+04  0.20819499685E+04  0.50400001928E-02 0. -1.
       -1    1    3    3    0  502 -0.33519649903E+03 -0.99075585816E+03  0.15020901573E+04  0.18303629979E+04  0.50400001928E-02 0.  1.
</event>
<event>
 5   0  0.1501585E-07  0.3888567E+04  0.7818609E-02  0.8027411E-01
       -2   -1    0    0    0  501  0.00000000000E+00  0.00000000000E+00  0.15746413949E+04  0.15746413949E+04  0.25500000920E-02 0.  1.
        2   -1    0    0  501    0  0.00000000000E+00  0.00000000000E+00 -0.24006980547E+04  0.24006980547E+04  0.25500000920E-02 0. -1.
    10030    2    1    2    0    0  0.00000000000E+00  0.00000000000E+00 -0.82605665986E+03  0.39753394496E+04  0.38885671055E+04 0.  0.
        5    1    3    3  502    0 -0.13090997404E+04  0.36537320589E+03  0.10083115243E+04  0.16923220526E+04  0.46999998093E+01 0.  1.
       -5    1    3    3    0  502  0.13090997404E+04 -0.36537320589E+03 -0.18343681842E+04  0.22830173970E+04  0.46999998093E+01 0. -1.
</event>
<event>
 5   0  0.4750125E-08  0.3903588E+04  0.7818609E-02  0.8024283E-01
        1   -1    0    0  501    0  0.00000000000E+00  0.00000000000E+00  0.27906319872E+04  0.27906319872E+04  0.50400001928E-02 0.  1.
       -1   -1    0    0    0  501  0.00000000000E+00  0.00000000000E+00 -0.13651026387E+04  0.13651026387E+04  0.50400001928E-02 0. -1.
    10030    2    1    2    0    0  0.00000000000E+00  0.00000000000E+00  0.14255293485E+04  0.41557346258E+04  0.39035876264E+04 0.  0.
        3    1    3    3  502    0 -0.88907356370E+03  0.99687115552E+03 -0.80228906766E+03  0.15581629121E+04  0.10100000352E+00 0. -1.
       -3    1    3    3    0  502  0.88907356370E+03 -0.99687115552E+03  0.22278184162E+04  0.25975717137E+04  0.10100000352E+00 0.  1.
</event>
<event>
 5   0  0.4750125E-08  0.3816025E+04  0.7818609E-02  0.8042725E-01
        1   -1    0    0  501    0  0.00000000000E+00  0.00000000000E+00  0.20409162823E+04  0.20409162823E+04  0.50400001928E-02 0.  1.
       -1   -1    0    0    0  501  0.00000000000E+00  0.00000000000E+00 -0.17837635921E+04  0.17837635921E+04  0.50400001928E-02 0. -1.
    10030    2    1    2    0    0  0.00000000000E+00  0.00000000000E+00  0.25715269023E+03  0.38246798744E+04  0.38160252404E+04 0.  0.
        4    1    3    3  502    0  0.23052055899E+03 -0.14064690904E+04  0.14000019625E+04  0.19978243512E+04  0.12699999809E+01 0.  1.
       -4    1    3    3    0  502 -0.23052055899E+03  0.14064690904E+04 -0.11428492723E+04  0.18268555232E+04  0.12699999809E+01 0. -1.
</event>
<event>
 5   0  0.4750125E-08  0.3925420E+04  0.7818609E-02  0.8019763E-01
       -1   -1    0    0    0  501  0.00000000000E+00  0.00000000000E+00  0.12509033412E+04  0.12509033412E+04  0.50400001928E-02 0. -1.
        1   -1    0    0  501    0  0.00000000000E+00  0.00000000000E+00 -0.30795584167E+04  0.30795584167E+04  0.50400001928E-02 0.  1.
    10030    2    1    2    0    0  0.00000000000E+00  0.00000000000E+00 -0.18286550755E+04  0.43304617578E+04  0.39254196783E+04 0.  0.
        4    1    3    3  502    0  0.82905184190E+03  0.15421106645E+04  0.64213842399E+02  0.17520152078E+04  0.12699999809E+01 0.  1.
       -4    1    3    3    0  502 -0.82905184190E+03 -0.15421106645E+04 -0.18928689179E+04  0.25784465500E+04  0.12699999809E+01 0. -1.
</event>
<event>
 5   0  0.1546846E-07  0.3935239E+04  0.7818609E-02  0.8017740E-01
        2   -1    0    0  501    0  0.00000000000E+00  0.00000000000E+00  0.21436321726E+04  0.21436321726E+04  0.25500000920E-02 0. -1.
       -2   -1    0    0    0  501  0.00000000000E+00  0.00000000000E+00 -0.18060592931E+04  0.18060592931E+04  0.25500000920E-02 0.  1.
    10030    2    1    2    0    0  0.00000000000E+00  0.00000000000E+00  0.33757287952E+03  0.39496914656E+04  0.39352391572E+04 0.  0.
        2    1    3    3  502    0  0.47210725331E+03 -0.12254448981E+03 -0.17444209820E+04  0.18113274064E+04  0.25500000920E-02 0.  1.
       -2    1    3    3    0  502 -0.47210725331E+03  0.12254448981E+03  0.20819938615E+04  0.21383640593E+04  0.25500000920E-02 0. -1.
</event>
<event>
 5   0  0.1546846E-07  0.3896383E+04  0.7818609E-02  0.8025782E-01
        2   -1    0    0  501    0  0.00000000000E+00  0.00000000000E+00  0.20617240873E+04  0.20617240873E+04  0.25500000920E-02 0. -1.
       -2   -1    0    0    0  501  0.00000000000E+00  0.00000000000E+00 -0.18409104086E+04  0.18409104086E+04  0.25500000920E-02 0.  1.
    10030    2    1    2    0    0  0.00000000000E+00  0.00000000000E+00  0.22081367864E+03  0.39026344959E+04  0.38963825952E+04 0.  0.
        2    1    3    3  502    0  0.17826769173E+04  0.47043627383E+02  0.89607557742E+03  0.19957709124E+04  0.25500000920E-02 0.  1.
       -2    1    3    3    0  502 -0.17826769173E+04 -0.47043627383E+02 -0.67526189878E+03  0.19068635835E+04  0.25500000920E-02 0. -1.
</event>
<event>
 5   0  0.1520986E-07  0.3899338E+04  0.7818609E-02  0.8025167E-01
        2   -1    0    0  501    0  0.00000000000E+00  0.00000000000E+00  0.14593384474E+04  0.14593384474E+04  0.25500000920E-02 0. -1.
       -2   -1    0    0    0  501  0.00000000000E+00  0.00000000000E+00 -0.26047475896E+04  0.26047475896E+04  0.25500000920E-02 0.  1.
    10030    2    1    2    0    0  0.00000000000E+00  0.00000000000E+00 -0.11454091422E+04  0.40640860369E+04  0.38993375351E+04 0.  0.
        4    1    3    3  502    0 -0.84483337726E+02  0.17105879107E+04  0.39830046481E+03  0.17583780332E+04  0.12699999809E+01 0. -1.
       -4    1    3    3    0  502  0.84483337726E+02 -0.17105879107E+04 -0.15437096070E+04  0.23057080037E+04  0.12699999809E+01 0.  1.
</event>
<event>
 5   0  0.1501585E-07  0.3913446E+04  0.7818609E-02  0.8022239E-01
       -2   -1    0    0    0  501  0.00000000000E+00  0.00000000000E+00  0.17676799474E+04  0.17676799474E+04  0.25500000920E-02 0.  1.
        2   -1    0    0  501    0  0.00000000000E+00  0.00000000000E+00 -0.21659827668E+04  0.21659827668E+04  0.25500000920E-02 0. -1.
    10030    2    1    2    0    0  0.00000000000E+00  0.00000000000E+00 -0.39830281945E+03  0.39336627142E+04  0.39134456957E+04 0.  0.
        5    1    3    3  502    0  0.13512706026E+03 -0.12534922908E+04  0.13049881240E+04  0.18145297846E+04  0.46999998093E+01 0.  1.
       -5    1    3    3    0  502 -0.13512706026E+03  0.12534922908E+04 -0.17032909434E+04  0.21191329296E+04  0.46999998093E+01 0. -1.
</event>
<event>
 5   0  0.1546846E-07  0.3885530E+04  0.7818609E-02  0.8028045E-01
       -2   -1    0    0    0  501  0.00000000000E+00  0.00000000000E+00  0.17403220656E+04  0.17403220656E+04  0.25500000920E-02 0. -1.
        2   -1    0    0  501    0  0.00000000000E+00  0.00000000000E+00 -0.21687570430E+04  0.21687570430E+04  0.25500000920E-02 0.  1.
    10030    2    1    2    0    0  0.00000000000E+00  0.00000000000E+00 -0.42843497735E+03  0.39090791086E+04  0.38855299442E+04 0.  0.
        2    1    3    3  502    0  0.23321979788E+03  0.16479266449E+04 -0.12224299159E+04  0.20650396123E+04  0.25500000920E-02 0.  1.
       -2    1    3    3    0  502 -0.23321979788E+03 -0.16479266449E+04  0.79399493855E+03  0.18440394962E+04  0.25500000920E-02 0. -1.
</event>
<event>
 5   0  0.1538018E-07  0.4214955E+04  0.7818609E-02  0.7962534E-01
       -2   -1    0    0    0  501  0.00000000000E+00  0.00000000000E+00  0.18056237421E+04  0.18056237421E+04  0.25500000920E-02 0. -1.
        2   -1    0    0  501    0  0.00000000000E+00  0.00000000000E+00 -0.24597931671E+04  0.24597931671E+04  0.25500000920E-02 0.  1.
    10030    2    1    2    0    0  0.00000000000E+00  0.00000000000E+00 -0.65416942497E+03  0.42654169092E+04  0.42149547770E+04 0.  0.
        1    1    3    3  502    0  0.29243010545E+03  0.14015795261E+04 -0.18920532563E+04  0.23727212351E+04  0.50400001928E-02 0.  1.
       -1    1    3    3    0  502 -0.29243010545E+03 -0.14015795261E+04  0.12378838314E+04  0.18926956741E+04  0.50400001928E-02 0. -1.
</event>
<event>
 5   0  0.1520986E-07  0.3913921E+04  0.7818609E-02  0.8022140E-01
       -2   -1    0    0    0  501  0.00000000000E+00  0.00000000000E+00  0.26834677696E+04  0.26834677696E+04  0.25500000920E-02 0. -1.
        2   -1    0    0  501    0  0.00000000000E+00  0.00000000000E+00 -0.14271437994E+04  0.14271437994E+04  0.25500000920E-02 0.  1.
    10030    2    1    2    0    0  0.00000000000E+00  0.00000000000E+00  0.12563239702E+04  0.41106115691E+04  0.39139209948E+04 0.  0.
        4    1    3    3  502    0  0.15951310765E+04 -0.47164021921E+03 -0.45457059675E+03  0.17243908165E+04  0.12699999809E+01 0.  1.
       -4    1    3    3    0  502 -0.15951310765E+04  0.47164021921E+03  0.17108945670E+04  0.23862207526E+04  0.12699999809E+01 0. -1.
</event>
<event>
 5   0  0.1520986E-07  0.3889820E+04  0.7818609E-02  0.8027150E-01
        2   -1    0    0  501    0  0.00000000000E+00  0.00000000000E+00  0.11463604535E+04  0.11463604535E+04  0.25500000920E-02 0. -1.
       -2   -1    0    0    0  501  0.00000000000E+00  0.00000000000E+00 -0.32997256693E+04  0.32997256693E+04  0.25500000920E-02 0.  1.
    10030    2    1    2    0    0  0.00000000000E+00  0.00000000000E+00 -0.21533652159E+04  0.44460861228E+04  0.38898200548E+04 0.  0.
        4    1    3    3  502    0 -0.15239778101E+04  0.10371632599E+04 -0.17853989985E+04  0.25662944473E+04  0.12699999809E+01 0.  1.
       -4    1    3    3    0  502  0.15239778101E+04 -0.10371632599E+04 -0.36796621731E+03  0.18797916755E+04  0.12699999809E+01 0. -1.
</event>
<event>
 5   0  0.1501585E-07  0.3843055E+04  0.7818609E-02  0.8036978E-01
        2   -1    0    0  501    0  0.00000000000E+00  0.00000000000E+00  0.25302187180E+04  0.25302187180E+04  0.25500000920E-02 0.  1.
       -2   -1    0    0    0  501  0.00000000000E+00  0.00000000000E+00 -0.14592680209E+04  0.14592680209E+04  0.25500000920E-02 0. -1.
    10030    2    1    2    0    0  0.00000000000E+00  0.00000000000E+00  0.10709506971E+04  0.39894867388E+04  0.38430546501E+04 0.  0.
        5    1    3    3  502    0 -0.23206423322E+03  0.13717382106E+02  0.25155608369E+04  0.25262839091E+04  0.46999998093E+01 0.  1.
       -5    1    3    3    0  502  0.23206423322E+03 -0.13717382106E+02 -0.14446101398E+04  0.14632028298E+04  0.46999998093E+01 0. -1.
</event>
<event>
 5   0  0.4750125E-08  0.3910202E+04  0.7818609E-02  0.8022911E-01
       -1   -1    0    0    0  501  0.00000000000E+00  0.00000000000E+00  0.22119325141E+04  0.22119325141E+04  0.50400001928E-02 0.  1.
        1   -1    0    0  501    0  0.00000000000E+00  0.00000000000E+00 -0.17280910788E+04  0.17280910788E+04  0.50400001928E-02 0. -1.
    10030    2    1    2    0    0  0.00000000000E+00  0.00000000000E+00  0.48384143529E+03  0.39400235929E+04  0.39102024727E+04 0.  0.
        4    1    3    3  502    0  0.27439939560E+03  0.83654035520E+03 -0.15170512716E+04  0.17540071173E+04  0.12699999809E+01 0. -1.
       -4    1    3    3    0  502 -0.27439939560E+03 -0.83654035520E+03  0.20008927068E+04  0.21860164755E+04  0.12699999809E+01 0.  1.
</event>
<event>
 5   0  0.1501585E-07  0.3887126E+04  0.7818609E-02  0.8027712E-01
        2   -1    0    0  501    0  0.00000000000E+00  0.00000000000E+00  0.20357458419E+04  0.20357458419E+04  0.25500000920E-02 0.  1.
       -2   -1    0    0    0  501  0.00000000000E+00  0.00000000000E+00 -0.18555544029E+04  0.18555544029E+04  0.25500000920E-02 0. -1.
    10030    2    1    2    0    0  0.00000000000E+00  0.00000000000E+00  0.18019143899E+03  0.38913002448E+04  0.38871260129E+04 0.  0.
        5    1    3    3  502    0 -0.43239815296E+03  0.13222332467E+04  0.14488100713E+04  0.20085670599E+04  0.46999998093E+01 0.  1.
       -5    1    3    3    0  502  0.43239815296E+03 -0.13222332467E+04 -0.12686186323E+04  0.18827331849E+04  0.46999998093E+01 0. -1.
</event>
<event>
 5   0  0.1503228E-07  0.3902609E+04  0.7818609E-02  0.8024487E-01
        2   -1    0    0  501    0  0.00000000000E+00  0.00000000000E+00  0.26116773624E+04  0.26116773624E+04  0.25500000920E-02 0.  1.
       -2   -1    0    0    0  501  0.00000000000E+00  0.00000000000E+00 -0.14579092634E+04  0.14579092634E+04  0.25500000920E-02 0. -1.
    10030    2    1    2    0    0  0.00000000000E+00  0.00000000000E+00  0.11537680990E+04  0.40695866258E+04  0.39026086761E+04 0.  0.
        3    1    3    3  502    0 -0.20441561606E+03 -0.24559815490E+03 -0.14304413825E+04  0.14656966796E+04  0.10100000352E+00 0. -1.
       -3    1    3    3    0  502  0.20441561606E+03  0.24559815490E+03  0.25842094814E+04  0.26038899462E+04  0.10100000352E+00 0.  1.
</event>
<event>
 5   0  0.4762788E-08  0.3945124E+04  0.7818609E-02  0.8015709E-01
       -1   -1    0    0    0  501  0.00000000000E+00  0.00000000000E+00  0.14162037845E+04  0.14162037845E+04  0.50400001928E-02 0.  1.
        1   -1    0    0  501    0  0.00000000000E+00  0.00000000000E+00 -0.27474870500E+04  0.27474870500E+04  0.50400001928E-02 0. -1.
    10030    2    1    2    0    0  0.00000000000E+00  0.00000000000E+00 -0.13312832656E+04  0.41636908345E+04  0.39451243621E+04 0.  0.
        2    1    3    3  502    0 -0.99000175485E+03 -0.11822719472E+03  0.11306881006E+04  0.15074935241E+04  0.25500000920E-02 0.  1.
       -2    1    3    3    0  502  0.99000175485E+03  0.11822719472E+03 -0.24619713662E+04  0.26561973105E+04  0.25500000920E-02 0. -1.
</event>
<event>
 5   0  0.4750125E-08  0.3903202E+04  0.7818609E-02  0.8024364E-01
       -1   -1    0    0    0  501  0.00000000000E+00  0.00000000000E+00  0.12563087374E+04  0.12563087374E+04  0.50400001928E-02 0. -1.
        1   -1    0    0  501    0  0.00000000000E+00  0.00000000000E+00 -0.30316960848E+04  0.30316960848E+04  0.50400001928E-02 0.  1.
    10030    2    1    2    0    0  0.00000000000E+00  0.00000000000E+00 -0.17753873474E+04  0.42880048222E+04  0.39032019064E+04 0.  0.
        1    1    3    3  502    0  0.48798462580E+03 -0.12277798632E+04 -0.24656761089E+04  0.27973435723E+04  0.50400001928E-02 0.  1.
       -1    1    3    3    0  502 -0.48798462580E+03  0.12277798632E+04  0.69028876150E+03  0.14906612499E+04  0.50400001928E-02 0. -1.
</event>
<event>
 5   0  0.4750125E-08  0.3933638E+04  0.7818609E-02  0.8018069E-01
        3   -1    0    0  501    0  0.00000000000E+00  0.00000000000E+00  0.17061716719E+04  0.17061716748E+04  0.10100000352E+00 0. -1.
       -3   -1    0    0    0  501  0.00000000000E+00  0.00000000000E+00 -0.22672851716E+04  0.22672851738E+04  0.10100000352E+00 0.  1.
    10030    2    1    2    0    0  0.00000000000E+00  0.00000000000E+00 -0.56111349972E+03  0.39734568487E+04  0.39336383881E+04 0.  0.
        2    1    3    3  502    0 -0.81717571713E+02 -0.16443170090E+04  0.80640343590E+03  0.18332328518E+04  0.25500000920E-02 0. -1.
       -2    1    3    3    0  502  0.81717571713E+02  0.16443170090E+04 -0.13675169356E+04  0.21402239969E+04  0.25500000920E-02 0.  1.
</event>
<event>
 5   0  0.4750125E-08  0.3859121E+04  0.7818609E-02  0.8033585E-01
       -1   -1    0    0    0  501  0.00000000000E+00  0.00000000000E+00  0.29817004997E+04  0.29817004997E+04  0.50400001928E-02 0. -1.
        1   -1    0    0  501    0  0.00000000000E+00  0.00000000000E+00 -0.12486844881E+04  0.12486844881E+04  0.50400001928E-02 0.  1.
    10030    2    1    2    0    0  0.00000000000E+00  0.00000000000E+00  0.17330160116E+04  0.42303849878E+04  0.38591207092E+04 0.  0.
        5    1    3    3  502    0 -0.17392129490E+04 -0.28304335521E+03  0.17284103941E+04  0.24682787127E+04  0.46999998093E+01 0. -1.
       -5    1    3    3    0  502  0.17392129490E+04  0.28304335521E+03  0.46056175162E+01  0.17621062751E+04  0.46999998093E+01 0.  1.
</event>
<event>
 5   0  0.1538018E-07  0.3911028E+04  0.7818609E-02  0.8022740E-01
       -2   -1    0    0    0  501  0.00000000000E+00  0.00000000000E+00  0.20490533566E+04  0.20490533566E+04  0.25500000920E-02 0. -1.
        2   -1    0    0  501    0  0.00000000000E+00  0.00000000000E+00 -0.18662443759E+04  0.18662443759E+04  0.25500000920E-02 0.  1.
    10030    2    1    2    0    0  0.00000000000E+00  0.00000000000E+00  0.18280898071E+03  0.39152977326E+04  0.39110276413E+04 0.  0.
        1    1    3    3  502    0  0.15641119276E+04  0.10336272261E+04 -0.46526281345E+03  0.19316575396E+04  0.50400001928E-02 0. -1.
       -1    1    3    3    0  502 -0.15641119276E+04 -0.10336272261E+04  0.64807179416E+03  0.19836401930E+04  0.50400001928E-02 0.  1.
</event>
<event>
 5   0  0.1538018E-07  0.3899512E+04  0.7818609E-02  0.8025131E-01
       -2   -1    0    0    0  501  0.00000000000E+00  0.00000000000E+00  0.27021387742E+04  0.27021387742E+04  0.25500000920E-02 0. -1.
        2   -1    0    0  501    0  0.00000000000E+00  0.00000000000E+00 -0.14068663941E+04  0.14068663941E+04  0.25500000920E-02 0.  1.
    10030    2    1    2    0    0  0.00000000000E+00  0.00000000000E+00  0.12952723801E+04  0.41090051683E+04  0.38995118841E+04 0.  0.
        1    1    3    3  502    0  0.93406716490E+03  0.13641614968E+04 -0.44139051966E+03  0.17112111643E+04  0.50400001928E-02 0.  1.
       -1    1    3    3    0  502 -0.93406716490E+03 -0.13641614968E+04  0.17366628998E+04  0.23977940040E+04  0.50400001928E-02 0. -1.
</event>
<event>
 5   0  0.4750125E-08  0.3916175E+04  0.7818609E-02  0.8021673E-01
        1   -1    0    0  501    0  0.00000000000E+00  0.00000000000E+00  0.20300639392E+04  0.20300639392E+04  0.50400001928E-02 0. -1.
       -1   -1    0    0    0  501  0.00000000000E+00  0.00000000000E+00 -0.18886632456E+04  0.18886632457E+04  0.50400001928E-02 0.  1.
    10030    2    1    2    0    0  0.00000000000E+00  0.00000000000E+00  0.14140069356E+03  0.39187271849E+04  0.39161752506E+04 0.  0.
        1    1    3    3  502    0  0.21576196436E+01 -0.17061396434E+04 -0.89075353995E+03  0.19246711426E+04  0.50400001928E-02 0.  1.
       -1    1    3    3    0  502 -0.21576196436E+01  0.17061396434E+04  0.10321542335E+04  0.19940560423E+04  0.50400001928E-02 0. -1.
</event>
<event>
 5   0  0.1546846E-07  0.3941384E+04  0.7818609E-02  0.8016477E-01
        2   -1    0    0  501    0  0.00000000000E+00  0.00000000000E+00  0.19036026112E+04  0.19036026112E+04  0.25500000920E-02 0. -1.
       -2   -1    0    0    0  501  0.00000000000E+00  0.00000000000E+00 -0.20401461211E+04  0.20401461211E+04  0.25500000920E-02 0.  1.
    10030    2    1    2    0    0  0.00000000000E+00  0.00000000000E+00 -0.13654350990E+03  0.39437487322E+04  0.39413842661E+04 0.  0.
        2    1    3    3  502    0 -0.58109042602E+03 -0.17484079387E+04  0.63145533660E+03  0.19476478751E+04  0.25500000920E-02 0. -1.
       -2    1    3    3    0  502  0.58109042602E+03  0.17484079387E+04 -0.76799884651E+03  0.19961008571E+04  0.25500000920E-02 0.  1.
</event>
<event>
 5   0  0.1501585E-07  0.3903245E+04  0.7818609E-02  0.8024355E-01
        2   -1    0    0  501    0  0.00000000000E+00  0.00000000000E+00  0.19576958007E+04  0.19576958007E+04  0.25500000920E-02 0.  1.
       -2   -1    0    0    0  501  0.00000000000E+00  0.00000000000E+00 -0.19455678597E+04  0.19455678597E+04  0.25500000920E-02 0. -1.
    10030    2    1    2    0    0  0.00000000000E+00  0.00000000000E+00  0.12127941043E+02  0.39032636604E+04  0.39032448188E+04 0.  0.
        5    1    3    3  502    0  0.12686530975E+04  0.14087563458E+04 -0.45733098893E+03  0.19501920026E+04  0.46999998093E+01 0. -1.
       -5    1    3    3    0  502 -0.12686530975E+04 -0.14087563458E+04  0.46945892998E+03  0.19530716578E+04  0.46999998093E+01 0.  1.
</event>
<event>
 5   0  0.1501585E-07  0.3900780E+04  0.7818609E-02  0.8024867E-01
       -2   -1    0    0    0  501  0.00000000000E+00  0.00000000000E+00  0.18226274685E+04  0.18226274685E+04  0.25500000920E-02 0.  1.
        2   -1    0    0  501    0  0.00000000000E+00  0.00000000000E+00 -0.20871089028E+04  0.20871089028E+04  0.25500000920E-02 0. -1.
    10030    2    1    2    0    0  0.00000000000E+00  0.00000000000E+00 -0.26448143427E+03  0.39097363713E+04  0.39007804429E+04 0.  0.
        5    1    3    3  502    0 -0.41695934313E+02 -0.66938684381E+03 -0.19678883583E+04  0.20790440059E+04  0.46999998093E+01 0. -1.
       -5    1    3    3    0  502  0.41695934313E+02  0.66938684381E+03  0.17034069241E+04  0.18306923654E+04  0.46999998093E+01 0.  1.
</event>
<event>
 5   0  0.4750125E-08  0.3784003E+04  0.7818609E-02  0.8049597E-01
        1   -1    0    0  501    0  0.00000000000E+00  0.00000000000E+00  0.19570444955E+04  0.19570444956E+04  0.50400001928E-02 0. -1.
       -1   -1    0    0    0  501  0.00000000000E+00  0.00000000000E+00 -0.18291203184E+04  0.18291203184E+04  0.50400001928E-02 0.  1.
    10030    2    1    2    0    0  0.00000000000E+00  0.00000000000E+00  0.12792417713E+03  0.37861648140E+04  0.37840030924E+04 0.  0.
        1    1    3    3  502    0  0.17196740554E+04  0.76379333964E+03  0.26158625964E+03  0.18997595884E+04  0.50400001928E-02 0.  1.
       -1    1    3    3    0  502 -0.17196740554E+04 -0.76379333964E+03 -0.13366208251E+03  0.18864052255E+04  0.50400001928E-02 0. -1.
</event>
<event>
 5   0  0.4750125E-08  0.3893432E+04  0.7818609E-02  0.8026397E-01
       -1   -1    0    0    0  501  0.00000000000E+00  0.00000000000E+00  0.17329001182E+04  0.17329001182E+04  0.50400001928E-02 0. -1.
        1   -1    0    0  501    0  0.00000000000E+00  0.00000000000E+00 -0.21869139805E+04  0.21869139805E+04  0.50400001928E-02 0.  1.
    10030    2    1    2    0    0  0.00000000000E+00  0.00000000000E+00 -0.45401386223E+03  0.39198140987E+04  0.38934321596E+04 0.  0.
        4    1    3    3  502    0  0.85631211593E+03  0.10870992120E+04 -0.16054618897E+04  0.21195670852E+04  0.12699999809E+01 0.  1.
       -4    1    3    3    0  502 -0.85631211593E+03 -0.10870992120E+04  0.11514480275E+04  0.18002470135E+04  0.12699999809E+01 0. -1.
</event>
<event>
 5   0  0.1503228E-07  0.3936586E+04  0.7818609E-02  0.8017463E-01
       -2   -1    0    0    0  501  0.00000000000E+00  0.00000000000E+00  0.13031757045E+04  0.13031757045E+04  0.25500000920E-02 0. -1.
        2   -1    0    0  501    0  0.00000000000E+00  0.00000000000E+00 -0.29728747656E+04  0.29728747656E+04  0.25500000920E-02 0.  1.
    10030    2    1    2    0    0  0.00000000000E+00  0.00000000000E+00 -0.16696990611E+04  0.42760504701E+04  0.39365864233E+04 0.  0.
        3    1    3    3  502    0  0.21718478415E+03  0.53267381383E+03 -0.28795279097E+04  0.29364249719E+04  0.10100000352E+00 0.  1.
       -3    1    3    3    0  502 -0.21718478415E+03 -0.53267381383E+03  0.12098288486E+04  0.13396254982E+04  0.10100000352E+00 0. -1.
</event>
<event>
 5   0  0.1538018E-07  0.3781439E+04  0.7818609E-02  0.8050150E-01
        2   -1    0    0  501    0  0.00000000000E+00  0.00000000000E+00  0.18196065820E+04  0.18196065820E+04  0.25500000920E-02 0.  1.
       -2   -1    0    0    0  501  0.00000000000E+00  0.00000000000E+00 -0.19646115482E+04  0.19646115482E+04  0.25500000920E-02 0. -1.
    10030    2    1    2    0    0  0.00000000000E+00  0.00000000000E+00 -0.14500496625E+03  0.37842181302E+04  0.37814389347E+04 0.  0.
        1    1    3    3  502    0 -0.15736181161E+03  0.18433331082E+04 -0.46289227676E+03  0.19070681549E+04  0.50400001928E-02 0. -1.
       -1    1    3    3    0  502  0.15736181161E+03 -0.18433331082E+04  0.31788731052E+03  0.18771499753E+04  0.50400001928E-02 0.  1.
</event>
<event>
 5   0  0.1501585E-07  0.3971109E+04  0.7818609E-02  0.8010400E-01
       -2   -1    0    0    0  501  0.00000000000E+00  0.00000000000E+00  0.20688842341E+04  0.20688842341E+04  0.25500000920E-02 0.  1.
        2   -1    0    0  501    0  0.00000000000E+00  0.00000000000E+00 -0.19055814038E+04  0.19055814038E+04  0.25500000920E-02 0. -1.
    10030    2    1    2    0    0  0.00000000000E+00  0.00000000000E+00  0.16330283026E+03  0.39744656379E+04  0.39711093277E+04 0.  0.
        5    1    3    3  502    0 -0.90692237117E+03 -0.14024629301E+04 -0.99303206382E+03  0.19430762279E+04  0.46999998093E+01 0. -1.
       -5    1    3    3    0  502  0.90692237117E+03  0.14024629301E+04  0.11563348941E+04  0.20313894100E+04  0.46999998093E+01 0.  1.
</event>
<event>
 5   0  0.4762788E-08  0.3905238E+04  0.7818609E-02  0.8023941E-01
       -1   -1    0    0    0  501  0.00000000000E+00  0.00000000000E+00  0.17483809081E+04  0.17483809081E+04  0.50400001928E-02 0.  1.
        1   -1    0    0  501    0  0.00000000000E+00  0.00000000000E+00 -0.21807157401E+04  0.21807157401E+04  0.50400001928E-02 0. -1.
    10030    2    1    2    0    0  0.00000000000E+00  0.00000000000E+00 -0.43233483199E+03  0.39290966483E+04  0.39052384133E+04 0.  0.
        2    1    3    3  502    0  0.12143048235E+04  0.32104842856E+03 -0.17203305735E+04  0.21300576471E+04  0.25500000920E-02 0. -1.
       -2    1    3    3    0  502 -0.12143048235E+04 -0.32104842856E+03  0.12879957415E+04  0.17990390012E+04  0.25500000920E-02 0.  1.
</event>
<event>
 5   0  0.1503228E-07  0.3896392E+04  0.7818609E-02  0.8025780E-01
       -2   -1    0    0    0  501  0.00000000000E+00  0.00000000000E+00  0.12491040060E+04  0.12491040060E+04  0.25500000920E-02 0.  1.
        2   -1    0    0  501    0  0.00000000000E+00  0.00000000000E+00 -0.30385528514E+04  0.30385528514E+04  0.25500000920E-02 0. -1.
    10030    2    1    2    0    0  0.00000000000E+00  0.00000000000E+00 -0.17894488455E+04  0.42876568574E+04  0.38963924541E+04 0.  0.
        3    1    3    3  502    0 -0.78394946788E+03 -0.60963296556E+03 -0.27391099419E+04  0.29135806844E+04  0.10100000352E+00 0. -1.
       -3    1    3    3    0  502  0.78394946788E+03  0.60963296556E+03  0.94966109640E+03  0.13740761730E+04  0.10100000352E+00 0.  1.
</event>
<event>
 5   0  0.1520986E-07  0.3859214E+04  0.7818609E-02  0.8033566E-01
        2   -1    0    0  501    0  0.00000000000E+00  0.00000000000E+00  0.17578372058E+04  0.17578372058E+04  0.25500000920E-02 0. -1.
       -2   -1    0    0    0  501  0.00000000000E+00  0.00000000000E+00 -0.21181619440E+04  0.21181619440E+04  0.25500000920E-02 0.  1.
    10030    2    1    2    0    0  0.00000000000E+00  0.00000000000E+00 -0.36032473823E+03  0.38759991498E+04  0.38592143620E+04 0.  0.
        4    1    3    3  502    0 -0.11443584004E+03 -0.18238298064E+04  0.44215462944E+03  0.18801470829E+04  0.12699999809E+01 0. -1.
       -4    1    3    3    0  502  0.11443584004E+03  0.18238298064E+04 -0.80247936767E+03  0.19958520668E+04  0.12699999809E+01 0.  1.
</event>
<event>
 5   0  0.1503228E-07  0.3930892E+04  0.7818609E-02  0.8018635E-01
        2   -1    0    0  501    0  0.00000000000E+00  0.00000000000E+00  0.20452055997E+04  0.20452055997E+04  0.25500000920E-02 0. -1.
       -2   -1    0    0    0  501  0.00000000000E+00  0.00000000000E+00 -0.18887970494E+04  0.18887970494E+04  0.25500000920E-02 0.  1.
    10030    2    1    2    0    0  0.00000000000E+00  0.00000000000E+00  0.15640855031E+03  0.39340026491E+04  0.39308921645E+04 0.  0.
        3    1    3    3  502    0 -0.52166512690E+03 -0.18941085150E+04  0.21619984339E+02  0.19647516395E+04  0.10100000352E+00 0. -1.
       -3    1    3    3    0  502  0.52166512690E+03  0.18941085150E+04  0.13478856597E+03  0.19692510096E+04  0.10100000352E+00 0.  1.
</event>
<event>
 5   0  0.1520986E-07  0.3893217E+04  0.7818609E-02  0.8026441E-01
        2   -1    0    0  501    0  0.00000000000E+00  0.00000000000E+00  0.21005723671E+04  0.21005723671E+04  0.25500000920E-02 0.  1.
       -2   -1    0    0    0  501  0.00000000000E+00  0.00000000000E+00 -0.18039292590E+04  0.18039292590E+04  0.25500000920E-02 0. -1.
    10030    2    1    2    0    0  0.00000000000E+00  0.00000000000E+00  0.29664310815E+03  0.39045016261E+04  0.38932166411E+04 0.  0.
        4    1    3    3  502    0  0.74212706215E+03 -0.17762073512E+04  0.43832614505E+03  0.19742838076E+04  0.12699999809E+01 0. -1.
       -4    1    3    3    0  502 -0.74212706215E+03  0.17762073512E+04 -0.14168303690E+03  0.19302178184E+04  0.12699999809E+01 0.  1.
</event>
<event>
 5   0  0.1538018E-07  0.3896135E+04  0.7818609E-02  0.8025834E-01
       -2   -1    0    0    0  501  0.00000000000E+00  0.00000000000E+00  0.17796607285E+04  0.17796607285E+04  0.25500000920E-02 0.  1.
        2   -1    0    0  501    0  0.00000000000E+00  0.00000000000E+00 -0.21324104931E+04  0.21324104931E+04  0.25500000920E-02 0. -1.
    10030    2    1    2    0    0  0.00000000000E+00  0.00000000000E+00 -0.35274976461E+03  0.39120712215E+04  0.38961351165E+04 0.  0.
        1    1    3    3  502    0 -0.26220469726E+03  0.63642702612E+03 -0.20062385088E+04  0.21210336200E+04  0.50400001928E-02 0. -1.
       -1    1    3    3    0  502  0.26220469726E+03 -0.63642702612E+03  0.16534887442E+04  0.17910376015E+04  0.50400001928E-02 0.  1.
</event>
<event>
 5   0  0.4750125E-08  0.3897239E+04  0.7818609E-02  0.8025604E-01
        1   -1    0    0  501    0  0.00000000000E+00  0.00000000000E+00  0.31501801223E+04  0.31501801223E+04  0.50400001928E-02 0. -1.
       -1   -1    0    0    0  501  0.00000000000E+00  0.00000000000E+00 -0.12053656544E+04  0.12053656544E+04  0.50400001928E-02 0.  1.
    10030    2    1    2    0    0  0.00000000000E+00  0.00000000000E+00  0.19448144678E+04  0.43555457767E+04  0.38972394972E+04 0.  0.
        4    1    3    3  502    0  0.11131413059E+04 -0.51384663762E+02 -0.81413944645E+03  0.13800538402E+04  0.12699999809E+01 0.  1.
       -4    1    3    3    0  502 -0.11131413059E+04  0.51384663762E+02  0.27589539143E+04  0.29754919366E+04  0.12699999809E+01 0. -1.
</event>
<event>
 5   0  0.1503228E-07  0.3900314E+04  0.7818609E-02  0.8024964E-01
       -2   -1    0    0    0  501  0.00000000000E+00  0.00000000000E+00  0.25805870492E+04  0.25805870492E+04  0.25500000920E-02 0.  1.
        2   -1    0    0  501    0  0.00000000000E+00  0.00000000000E+00 -0.14737390667E+04  0.14737390667E+04  0.25500000920E-02 0. -1.
    10030    2    1    2    0    0  0.00000000000E+00  0.00000000000E+00  0.11068479825E+04  0.40543261159E+04  0.39003138075E+04 0.  0.
        3    1    3    3  502    0  0.55498427890E+03 -0.18419676444E+04  0.88583174374E+03  0.21179117643E+04  0.10100000352E+00 0.  1.
       -3    1    3    3    0  502 -0.55498427890E+03  0.18419676444E+04  0.22101623880E+03  0.19364143516E+04  0.10100000352E+00 0. -1.
</event>
<event>
 5   0  0.1501585E-07  0.3801244E+04  0.7818609E-02  0.8045888E-01
        2   -1    0    0  501    0  0.00000000000E+00  0.00000000000E+00  0.23878483735E+04  0.23878483735E+04  0.25500000920E-02 0. -1.
       -2   -1    0    0    0  501  0.00000000000E+00  0.00000000000E+00 -0.15128109613E+04  0.15128109613E+04  0.25500000920E-02 0.  1.
    10030    2    1    2    0    0  0.00000000000E+00  0.00000000000E+00  0.87503741214E+03  0.39006593348E+04  0.38012435825E+04 0.  0.
        5    1    3    3  502    0  0.76115337709E+03 -0.93017826848E+03  0.19483550518E+04  0.22892565545E+04  0.46999998093E+01 0. -1.
       -5    1    3    3    0  502 -0.76115337709E+03  0.93017826848E+03 -0.10733176397E+04  0.16114027803E+04  0.46999998093E+01 0.  1.
</event>
<event>
 5   0  0.4750125E-08  0.3905846E+04  0.7818609E-02  0.8023814E-01
        1   -1    0    0  501    0  0.00000000000E+00  0.00000000000E+00  0.30272162671E+04  0.30272162671E+04  0.50400001928E-02 0. -1.
       -1   -1    0    0    0  501  0.00000000000E+00  0.00000000000E+00 -0.12598732684E+04  0.12598732685E+04  0.50400001928E-02 0.  1.
    10030    2    1    2    0    0  0.00000000000E+00  0.00000000000E+00  0.17673429986E+04  0.42870895355E+04  0.39058463117E+04 0.  0.
        3    1    3    3  502    0  0.13898092195E+04  0.83988043031E+03  0.20744324168E+04  0.26344332722E+04  0.10100000352E+00 0. -1.
       -3    1    3    3    0  502 -0.13898092195E+04 -0.83988043031E+03 -0.30708941817E+03  0.16526562633E+04  0.10100000352E+00 0.  1.
</event>
<event>
 5   0  0.4750125E-08  0.3892464E+04  0.7818609E-02  0.8026598E-01
       -1   -1    0    0    0  501  0.00000000000E+00  0.00000000000E+00  0.18523693745E+04  0.18523693745E+04  0.50400001928E-02 0. -1.
        1   -1    0    0  501    0  0.00000000000E+00  0.00000000000E+00 -0.20448503058E+04  0.20448503058E+04  0.50400001928E-02 0.  1.
    10030    2    1    2    0    0  0.00000000000E+00  0.00000000000E+00 -0.19248093125E+03  0.38972196803E+04  0.38924635294E+04 0.  0.
        4    1    3    3  502    0 -0.10187426237E+04 -0.12187429129E+04  0.10296982736E+04  0.18930005200E+04  0.12699999809E+01 0. -1.
       -4    1    3    3    0  502  0.10187426237E+04  0.12187429129E+04 -0.12221792048E+04  0.20042191604E+04  0.12699999809E+01 0.  1.
</event>
<event>
 5   0  0.1520986E-07  0.3687248E+04  0.7818609E-02  0.8070794E-01
       -2   -1    0    0    0  501  0.00000000000E+00  0.00000000000E+00  0.27880272513E+04  0.27880272513E+04  0.25500000920E-02 0. -1.
        2   -1    0    0  501    0  0.00000000000E+00  0.00000000000E+00 -0.12191232046E+04  0.12191232046E+04  0.25500000920E-02 0.  1.
    10030    2    1    2    0    0  0.00000000000E+00  0.00000000000E+00  0.15689040467E+04  0.40071504559E+04  0.36872476007E+04 0.  0.
        4    1    3    3  502    0 -0.13481118240E+03 -0.11357442974E+04 -0.78698004169E+03  0.13883185380E+04  0.12699999809E+01 0.  1.
       -4    1    3    3    0  502  0.13481118240E+03  0.11357442974E+04  0.23558840883E+04  0.26188319180E+04  0.12699999809E+01 0. -1.
</event>
<event>
 5   0  0.4750125E-08  0.3897359E+04  0.7818609E-02  0.8025579E-01
       -1   -1    0    0    0  501  0.00000000000E+00  0.00000000000E+00  0.15239787951E+04  0.15239787951E+04  0.50400001928E-02 0.  1.
        1   -1    0    0  501    0  0.00000000000E+00  0.00000000000E+00 -0.24917355011E+04  0.24917355011E+04  0.50400001928E-02 0. -1.
    10030    2    1    2    0    0  0.00000000000E+00  0.00000000000E+00 -0.96775670600E+03  0.40157142962E+04  0.38973591401E+04 0.  0.
        3    1    3    3  502    0 -0.18835574507E+04 -0.28674469590E+03 -0.62382423461E+02  0.19062798241E+04  0.10100000352E+00 0. -1.
       -3    1    3    3    0  502  0.18835574507E+04  0.28674469590E+03 -0.90537428254E+03  0.21094344722E+04  0.10100000352E+00 0.  1.
</event>
<event>
 5   0  0.1501585E-07  0.3884522E+04  0.7818609E-02  0.8028256E-01
       -2   -1    0    0    0  501  0.00000000000E+00  0.00000000000E+00  0.33114852715E+04  0.33114852715E+04  0.25500000920E-02 0. -1.
        2   -1    0    0  501    0  0.00000000000E+00  0.00000000000E+00 -0.11391802721E+04  0.11391802721E+04  0.25500000920E-02 0.  1.
    10030    2    1    2    0    0  0.00000000000E+00  0.00000000000E+00  0.21723049994E+04  0.44506655436E+04  0.38845224636E+04 0.  0.
        5    1    3    3  502    0  0.21830252965E+02 -0.10556589229E+04  0.29539123696E+04  0.31369591484E+04  0.46999998093E+01 0. -1.
       -5    1    3    3    0  502 -0.21830252965E+02  0.10556589229E+04 -0.78160737019E+03  0.13137063951E+04  0.46999998093E+01 0.  1.
</event>
<event>
 5   0  0.1546846E-07  0.3900656E+04  0.7818609E-02  0.8024893E-01
        2   -1    0    0  501    0  0.00000000000E+00  0.00000000000E+00  0.16322331070E+04  0.16322331070E+04  0.25500000920E-02 0.  1.
       -2   -1    0    0    0  501  0.00000000000E+00  0.00000000000E+00 -0.23304144141E+04  0.23304144141E+04  0.25500000920E-02 0. -1.
    10030    2    1    2    0    0  0.00000000000E+00  0.00000000000E+00 -0.69818130701E+03  0.39626475211E+04  0.39006561293E+04 0.  0.
        2    1    3    3  502    0  0.85753257032E+01 -0.49720921034E+02 -0.23297512957E+04  0.23302975788E+04  0.25500000920E-02 0. -1.
       -2    1    3    3    0  502 -0.85753257032E+01  0.49720921034E+02  0.16315699886E+04  0.16323499423E+04  0.25500000920E-02 0.  1.
</event>
<event>
 5   0  0.1501585E-07  0.3869417E+04  0.7818609E-02  0.8031420E-01
        2   -1    0    0  501    0  0.00000000000E+00  0.00000000000E+00  0.17882703614E+04  0.17882703614E+04  0.25500000920E-02 0. -1.
       -2   -1    0    0    0  501  0.00000000000E+00  0.00000000000E+00 -0.20931384003E+04  0.20931384003E+04  0.25500000920E-02 0.  1.
    10030    2    1    2    0    0  0.00000000000E+00  0.00000000000E+00 -0.30486803883E+03  0.38814087617E+04  0.38694171983E+04 0.  0.
        5    1    3    3  502    0  0.13591565639E+04  0.10269037632E+04  0.76759834006E+03  0.18684397784E+04  0.46999998093E+01 0. -1.
       -5    1    3    3    0  502 -0.13591565639E+04 -0.10269037632E+04 -0.10724663789E+04  0.20129689833E+04  0.46999998093E+01 0.  1.
</event>
<event>
 5   0  0.4750125E-08  0.3621904E+04  0.7818609E-02  0.8085493E-01
       -1   -1    0    0    0  501  0.00000000000E+00  0.00000000000E+00  0.21283793303E+04  0.21283793303E+04  0.50400001928E-02 0. -1.
        1   -1    0    0  501    0  0.00000000000E+00  0.00000000000E+00 -0.15408658807E+04  0.15408658807E+04  0.50400001928E-02 0.  1.
    10030    2    1    2    0    0  0.00000000000E+00  0.00000000000E+00  0.58751344966E+03  0.36692452110E+04  0.36219039696E+04 0.  0.
        5    1    3    3  502    0 -0.14484178132E+04 -0.10692080131E+03 -0.80213062633E+03  0.16591509428E+04  0.46999998093E+01 0.  1.
       -5    1    3    3    0  502  0.14484178132E+04  0.10692080131E+03  0.13896440760E+04  0.20100942682E+04  0.46999998093E+01 0. -1.
</event>
<event>
 5   0  0.4750125E-08  0.3891149E+04  0.7818609E-02  0.8026873E-01
       -1   -1    0    0    0  501  0.00000000000E+00  0.00000000000E+00  0.16782310087E+04  0.16782310087E+04  0.50400001928E-02 0.  1.
        1   -1    0    0  501    0  0.00000000000E+00  0.00000000000E+00 -0.22555059125E+04  0.22555059125E+04  0.50400001928E-02 0. -1.
    10030    2    1    2    0    0  0.00000000000E+00  0.00000000000E+00 -0.57727490380E+03  0.39337369212E+04  0.38911489114E+04 0.  0.
        4    1    3    3  502    0 -0.16687203300E+04  0.58851890598E+02 -0.12981494089E+04  0.21150140864E+04  0.12699999809E+01 0. -1.
       -4    1    3    3    0  502  0.16687203300E+04 -0.58851890598E+02  0.72087450511E+03  0.18187228348E+04  0.12699999809E+01 0.  1.
</event>
<event>
 5   0  0.1503228E-07  0.3540647E+04  0.7818609E-02  0.8104224E-01
        2   -1    0    0  501    0  0.00000000000E+00  0.00000000000E+00  0.22341482014E+04  0.22341482014E+04  0.25500000920E-02 0.  1.
       -2   -1    0    0    0  501  0.00000000000E+00  0.00000000000E+00 -0.14027922984E+04  0.14027922984E+04  0.25500000920E-02 0. -1.
    10030    2    1    2    0    0  0.00000000000E+00  0.00000000000E+00  0.83135590309E+03  0.36369404998E+04  0.35406473365E+04 0.  0.
        3    1    3    3  502    0 -0.42576255533E+03 -0.98952643208E+02  0.21778455727E+04  0.22212781744E+04  0.10100000352E+00 0.  1.
       -3    1    3    3    0  502  0.42576255533E+03  0.98952643208E+02 -0.13464896696E+04  0.14156623255E+04  0.10100000352E+00 0. -1.
</event>
<event>
 5   0  0.4762788E-08  0.3884478E+04  0.7818609E-02  0.8028265E-01
       -1   -1    0    0    0  501  0.00000000000E+00  0.00000000000E+00  0.17581581737E+04  0.17581581737E+04  0.50400001928E-02 0.  1.
        1   -1    0    0  501    0  0.00000000000E+00  0.00000000000E+00 -0.21455929987E+04  0.21455929987E+04  0.50400001928E-02 0. -1.
    10030    2    1    2    0    0  0.00000000000E+00  0.00000000000E+00 -0.38743482507E+03  0.39037511724E+04  0.38844777606E+04 0.  0.
        2    1    3    3  502    0  0.71002593615E+03 -0.12603479525E+04 -0.14961717765E+04  0.20811400184E+04  0.25500000920E-02 0. -1.
       -2    1    3    3    0  502 -0.71002593615E+03  0.12603479525E+04  0.11087369514E+04  0.18226111540E+04  0.25500000920E-02 0.  1.
</event>
<event>
 5   0  0.1520986E-07  0.3894000E+04  0.7818609E-02  0.8026278E-01
       -2   -1    0    0    0  501  0.00000000000E+00  0.00000000000E+00  0.16928081529E+04  0.16928081529E+04  0.25500000920E-02 0.  1.
        2   -1    0    0  501    0  0.00000000000E+00  0.00000000000E+00 -0.22393612906E+04  0.22393612906E+04  0.25500000920E-02 0. -1.
    10030    2    1    2    0    0  0.00000000000E+00  0.00000000000E+00 -0.54655313772E+03  0.39321694435E+04  0.38940000257E+04 0.  0.
        4    1    3    3  502    0  0.57534193887E+03  0.16940341367E+04  0.50239175574E+03  0.18582704572E+04  0.12699999809E+01 0.  1.
       -4    1    3    3    0  502 -0.57534193887E+03 -0.16940341367E+04 -0.10489448935E+04  0.20738989863E+04  0.12699999809E+01 0. -1.
</event>
<event>
 5   0  0.4750125E-08  0.3897674E+04  0.7818609E-02  0.8025513E-01
        1   -1    0    0  501    0  0.00000000000E+00  0.00000000000E+00  0.33258333350E+04  0.33258333350E+04  0.50400001928E-02 0.  1.
       -1   -1    0    0    0  501  0.00000000000E+00  0.00000000000E+00 -0.11419593309E+04  0.11419593309E+04  0.50400001928E-02 0. -1.
    10030    2    1    2    0    0  0.00000000000E+00  0.00000000000E+00  0.21838740040E+04  0.44677926659E+04  0.38976743887E+04 0.  0.
        4    1    3    3  502    0  0.26500266001E+03 -0.18730151292E+04  0.55483489047E+03  0.19713587833E+04  0.12699999809E+01 0. -1.
       -4    1    3    3    0  502 -0.26500266001E+03  0.18730151292E+04  0.16290391136E+04  0.24964338826E+04  0.12699999809E+01 0.  1.
</event>
<event>
 5   0  0.4750125E-08  0.3923464E+04  0.7818609E-02  0.8020167E-01
       -1   -1    0    0    0  501  0.00000000000E+00  0.00000000000E+00  0.16602741663E+04  0.16602741663E+04  0.50400001928E-02 0. -1.
        1   -1    0    0  501    0  0.00000000000E+00  0.00000000000E+00 -0.23179253253E+04  0.23179253253E+04  0.50400001928E-02 0.  1.
    10030    2    1    2    0    0  0.00000000000E+00  0.00000000000E+00 -0.65765115894E+03  0.39781994916E+04  0.39234635398E+04 0.  0.
        1    1    3    3  502    0 -0.19593368658E+04  0.63737137635E+02 -0.25481299152E+03  0.19768644458E+04  0.50400001928E-02 0.  1.
       -1    1    3    3    0  502  0.19593368658E+04 -0.63737137635E+02 -0.40283816742E+03  0.20013350458E+04  0.50400001928E-02 0. -1.
</event>
<event>
 5   0  0.4750125E-08  0.3902885E+04  0.7818609E-02  0.8024429E-01
        1   -1    0    0  501    0  0.00000000000E+00  0.00000000000E+00  0.14393052517E+04  0.14393052517E+04  0.50400001928E-02 0.  1.
       -1   -1    0    0    0  501  0.00000000000E+00  0.00000000000E+00 -0.26458094468E+04  0.26458094468E+04  0.50400001928E-02 0. -1.
    10030    2    1    2    0    0  0.00000000000E+00  0.00000000000E+00 -0.12065041951E+04  0.40851146985E+04  0.39028847955E+04 0.  0.
        5    1    3    3  502    0  0.70342233274E+03  0.12541376711E+04 -0.19841074373E+04  0.24503813354E+04  0.46999998093E+01 0. -1.
       -5    1    3    3    0  502 -0.70342233274E+03 -0.12541376711E+04  0.77760324213E+03  0.16347333631E+04  0.46999998093E+01 0.  1.
</event>
<event>
 5   0  0.4750125E-08  0.3886889E+04  0.7818609E-02  0.8027762E-01
        1   -1    0    0  501    0  0.00000000000E+00  0.00000000000E+00  0.14050172502E+04  0.14050172502E+04  0.50400001928E-02 0.  1.
       -1   -1    0    0    0  501  0.00000000000E+00  0.00000000000E+00 -0.26882061934E+04  0.26882061934E+04  0.50400001928E-02 0. -1.
    10030    2    1    2    0    0  0.00000000000E+00  0.00000000000E+00 -0.12831889432E+04  0.40932234436E+04  0.38868887681E+04 0.  0.
        3    1    3    3  502    0 -0.63638979366E+03 -0.10918460465E+03  0.12887598785E+04  0.14414628965E+04  0.10100000352E+00 0.  1.
       -3    1    3    3    0  502  0.63638979366E+03  0.10918460465E+03 -0.25719488217E+04  0.26517605471E+04  0.10100000352E+00 0. -1.
</event>
<event>
 5   0  0.1546846E-07  0.3914272E+04  0.7818609E-02  0.8022067E-01
       -2   -1    0    0    0  501  0.00000000000E+00  0.00000000000E+00  0.19755521608E+04  0.19755521608E+04  0.25500000920E-02 0.  1.
        2   -1    0    0  501    0  0.00000000000E+00  0.00000000000E+00 -0.19388914877E+04  0.19388914877E+04  0.25500000920E-02 0. -1.
    10030    2    1    2    0    0  0.00000000000E+00  0.00000000000E+00  0.36660673099E+02  0.39144436485E+04  0.39142719721E+04 0.  0.
        2    1    3    3  502    0 -0.13470518815E+04  0.14126120028E+04  0.16102445705E+03  0.19585582242E+04  0.25500000920E-02 0.  1.
       -2    1    3    3    0  502  0.13470518815E+04 -0.14126120028E+04 -0.12436378395E+03  0.19558854242E+04  0.25500000920E-02 0. -1.
</event>
<event>
 5   0  0.4750125E-08  0.3894214E+04  0.7818609E-02  0.8026234E-01
       -1   -1    0    0    0  501  0.00000000000E+00  0.00000000000E+00  0.15706619531E+04  0.15706619531E+04  0.50400001928E-02 0. -1.
        1   -1    0    0  501    0  0.00000000000E+00  0.00000000000E+00 -0.24137762095E+04  0.24137762095E+04  0.50400001928E-02 0.  1.
    10030    2    1    2    0    0  0.00000000000E+00  0.00000000000E+00 -0.84311425644E+03  0.39844381626E+04  0.38942144037E+04 0.  0.
        4    1    3    3  502    0  0.18649277932E+04  0.60202539454E+02  0.14779263468E+03  0.18717436510E+04  0.12699999809E+01 0. -1.
       -4    1    3    3    0  502 -0.18649277932E+04 -0.60202539454E+02 -0.99090689111E+03  0.21126945116E+04  0.12699999809E+01 0.  1.
</event>
<event>
 5   0  0.1501585E-07  0.3879400E+04  0.7818609E-02  0.8029327E-01
        2   -1    0    0  501    0  0.00000000000E+00  0.00000000000E+00  0.15405396963E+04  0.15405396963E+04  0.25500000920E-02 0.  1.
       -2   -1    0    0    0  501  0.00000000000E+00  0.00000000000E+00 -0.24422849272E+04  0.24422849272E+04  0.25500000920E-02 0. -1.
    10030    2    1    2    0    0  0.00000000000E+00  0.00000000000E+00 -0.90174523093E+03  0.39828246235E+04  0.38794004072E+04 0.  0.
        5    1    3    3  502    0 -0.62187385733E+03  0.19978869744E+03 -0.23259740543E+04  0.24159511604E+04  0.46999998093E+01 0. -1.
       -5    1    3    3    0  502  0.62187385733E+03 -0.19978869744E+03  0.14242288234E+04  0.15668734631E+04  0.46999998093E+01 0.  1.
</event>
<event>
 5   0  0.1520986E-07  0.3915359E+04  0.7818609E-02  0.8021842E-01
        2   -1    0    0  501    0  0.00000000000E+00  0.00000000000E+00  0.21040070746E+04  0.21040070746E+04  0.25500000920E-02 0. -1.
       -2   -1    0    0    0  501  0.00000000000E+00  0.00000000000E+00 -0.18215285086E+04  0.18215285086E+04  0.25500000920E-02 0.  1.
    10030    2    1    2    0    0  0.00000000000E+00  0.00000000000E+00  0.28247856599E+03  0.39255355832E+04  0.39153589203E+04 0.  0.
        4    1    3    3  502    0 -0.13598334096E+04  0.12864663178E+04  0.71575989511E+03  0.20041098595E+04  0.12699999809E+01 0.  1.
       -4    1    3    3    0  502  0.13598334096E+04 -0.12864663178E+04 -0.43328132911E+03  0.19214257237E+04  0.12699999809E+01 0. -1.
</event>
<event>
 5   0  0.4750125E-08  0.3910368E+04  0.7818609E-02  0.8022876E-01
        1   -1    0    0  501    0  0.00000000000E+00  0.00000000000E+00  0.14480354917E+04  0.14480354917E+04  0.50400001928E-02 0.  1.
       -1   -1    0    0    0  501  0.00000000000E+00  0.00000000000E+00 -0.26399525737E+04  0.26399525737E+04  0.50400001928E-02 0. -1.
    10030    2    1    2    0    0  0.00000000000E+00  0.00000000000E+00 -0.11919170820E+04  0.40879880654E+04  0.39103682809E+04 0.  0.
        3    1    3    3  502    0  0.27957409652E+03 -0.18077355793E+04  0.12581894866E+03  0.18335484772E+04  0.10100000352E+00 0.  1.
       -3    1    3    3    0  502 -0.27957409652E+03  0.18077355793E+04 -0.13177360307E+04  0.22544395882E+04  0.10100000352E+00 0. -1.
</event>
<event>
 5   0  0.1501585E-07  0.3898136E+04  0.7818609E-02  0.8025417E-01
       -2   -1    0    0    0  501  0.00000000000E+00  0.00000000000E+00  0.13339412395E+04  0.13339412395E+04  0.25500000920E-02 0. -1.
        2   -1    0    0  501    0  0.00000000000E+00  0.00000000000E+00 -0.28478506641E+04  0.28478506641E+04  0.25500000920E-02 0.  1.
    10030    2    1    2    0    0  0.00000000000E+00  0.00000000000E+00 -0.15139094246E+04  0.41817919035E+04  0.38981356798E+04 0.  0.
        5    1    3    3  502    0  0.50276428717E+03 -0.45303142867E+03  0.12038435412E+04  0.13810397408E+04  0.46999998093E+01 0. -1.
       -5    1    3    3    0  502 -0.50276428717E+03  0.45303142867E+03 -0.27177529658E+04  0.28007521628E+04  0.46999998093E+01 0.  1.
</event>
<event>
 5   0  0.1538018E-07  0.3904229E+04  0.7818609E-02  0.8024150E-01
       -2   -1    0    0    0  501  0.00000000000E+00  0.00000000000E+00  0.17181599335E+04  0.17181599335E+04  0.25500000920E-02 0.  1.
        2   -1    0    0  501    0  0.00000000000E+00  0.00000000000E+00 -0.22179253331E+04  0.22179253331E+04  0.25500000920E-02 0. -1.
    10030    2    1    2    0    0  0.00000000000E+00  0.00000000000E+00 -0.49976539958E+03  0.39360852666E+04  0.39042287038E+04 0.  0.
        1    1    3    3  502    0  0.94597733015E+03 -0.19164968768E+02  0.14715360076E+04  0.17494738143E+04  0.50400001928E-02 0.  1.
       -1    1    3    3    0  502 -0.94597733015E+03  0.19164968768E+02 -0.19713014072E+04  0.21866114523E+04  0.50400001928E-02 0. -1.
</event>
<event>
 5   0  0.1503228E-07  0.3906389E+04  0.7818609E-02  0.8023702E-01
        2   -1    0    0  501    0  0.00000000000E+00  0.00000000000E+00  0.19982184076E+04  0.19982184076E+04  0.25500000920E-02 0.  1.
       -2   -1    0    0    0  501  0.00000000000E+00  0.00000000000E+00 -0.19091847686E+04  0.19091847686E+04  0.25500000920E-02 0. -1.
    10030    2    1    2    0    0  0.00000000000E+00  0.00000000000E+00  0.89033639073E+02  0.39074031762E+04  0.39063886894E+04 0.  0.
        3    1    3    3  502    0  0.18178415730E+04 -0.60119326786E+03 -0.34157151437E+03  0.19449042238E+04  0.10100000352E+00 0. -1.
       -3    1    3    3    0  502 -0.18178415730E+04  0.60119326786E+03  0.43060515344E+03  0.19624989524E+04  0.10100000352E+00 0.  1.
</event>
<event>
 5   0  0.4750125E-08  0.3929792E+04  0.7818609E-02  0.8018861E-01
       -1   -1    0    0    0  501  0.00000000000E+00  0.00000000000E+00  0.26764186310E+04  0.26764186310E+04  0.50400001928E-02 0.  1.
        1   -1    0    0  501    0  0.00000000000E+00  0.00000000000E+00 -0.14425306954E+04  0.14425306954E+04  0.50400001928E-02 0. -1.
    10030    2    1    2    0    0  0.00000000000E+00  0.00000000000E+00  0.12338879356E+04  0.41189493264E+04  0.39297918668E+04 0.  0.
        1    1    3    3  502    0  0.14080886141E+04 -0.12065687905E+04 -0.64177356409E+02  0.18554354003E+04  0.50400001928E-02 0. -1.
       -1    1    3    3    0  502 -0.14080886141E+04  0.12065687905E+04  0.12980652920E+04  0.22635139262E+04  0.50400001928E-02 0.  1.
</event>
<event>
 5   0  0.4762788E-08  0.3941622E+04  0.7818609E-02  0.8016428E-01
       -1   -1    0    0    0  501  0.00000000000E+00  0.00000000000E+00  0.18237580455E+04  0.18237580455E+04  0.50400001928E-02 0. -1.
        1   -1    0    0  501    0  0.00000000000E+00  0.00000000000E+00 -0.21297212258E+04  0.21297212258E+04  0.50400001928E-02 0.  1.
    10030    2    1    2    0    0  0.00000000000E+00  0.00000000000E+00 -0.30596318027E+03  0.39534792713E+04  0.39416221129E+04 0.  0.
        2    1    3    3  502    0  0.16092270004E+04  0.26472026966E+02  0.98788629142E+03  0.18884468835E+04  0.25500000920E-02 0. -1.
       -2    1    3    3    0  502 -0.16092270004E+04 -0.26472026966E+02 -0.12938494717E+04  0.20650323878E+04  0.25500000920E-02 0.  1.
</event>
<event>
 5   0  0.1538018E-07  0.3906817E+04  0.7818609E-02  0.8023613E-01
        2   -1    0    0  501    0  0.00000000000E+00  0.00000000000E+00  0.22474803492E+04  0.22474803492E+04  0.25500000920E-02 0. -1.
       -2   -1    0    0    0  501  0.00000000000E+00  0.00000000000E+00 -0.16978147768E+04  0.16978147768E+04  0.25500000920E-02 0.  1.
    10030    2    1    2    0    0  0.00000000000E+00  0.00000000000E+00  0.54966557244E+03  0.39452951260E+04  0.39068172967E+04 0.  0.
        1    1    3    3  502    0  0.18157170594E+04  0.18805860140E+03 -0.42743770667E+03  0.18748059820E+04  0.50400001928E-02 0.  1.
       -1    1    3    3    0  502 -0.18157170594E+04 -0.18805860140E+03  0.97710327911E+03  0.20704891440E+04  0.50400001928E-02 0. -1.
</event>
<event>
 5   0  0.1503228E-07  0.3903244E+04  0.7818609E-02  0.8024355E-01
        2   -1    0    0  501    0  0.00000000000E+00  0.00000000000E+00  0.23051612150E+04  0.23051612150E+04  0.25500000920E-02 0. -1.
       -2   -1    0    0    0  501  0.00000000000E+00  0.00000000000E+00 -0.16523042057E+04  0.16523042057E+04  0.25500000920E-02 0.  1.
    10030    2    1    2    0    0  0.00000000000E+00  0.00000000000E+00  0.65285700933E+03  0.39574654207E+04  0.39032435591E+04 0.  0.
        3    1    3    3  502    0 -0.15465923474E+03 -0.15863124542E+04  0.14683606197E+04  0.21671155024E+04  0.10100000352E+00 0. -1.
       -3    1    3    3    0  502  0.15465923474E+03  0.15863124542E+04 -0.81550361037E+03  0.17903499183E+04  0.10100000352E+00 0.  1.
</event>
<event>
 5   0  0.4750125E-08  0.3864414E+04  0.7818609E-02  0.8032471E-01
        1   -1    0    0  501    0  0.00000000000E+00  0.00000000000E+00  0.22651097326E+04  0.22651097326E+04  0.50400001928E-02 0. -1.
       -1   -1    0    0    0  501  0.00000000000E+00  0.00000000000E+00 -0.16482308415E+04  0.16482308415E+04  0.50400001928E-02 0.  1.
    10030    2    1    2    0    0  0.00000000000E+00  0.00000000000E+00  0.61687889110E+03  0.39133405741E+04  0.38644139119E+04 0.  0.
        5    1    3    3  502    0 -0.13491777974E+04 -0.97837325157E+03  0.12985227967E+04  0.21127419369E+04  0.46999998093E+01 0.  1.
       -5    1    3    3    0  502  0.13491777974E+04  0.97837325157E+03 -0.68164390560E+03  0.18005986372E+04  0.46999998093E+01 0. -1.
</event>
<event>
 5   0  0.1503228E-07  0.3913871E+04  0.7818609E-02  0.8022150E-01
       -2   -1    0    0    0  501  0.00000000000E+00  0.00000000000E+00  0.14686313489E+04  0.14686313489E+04  0.25500000920E-02 0.  1.
        2   -1    0    0  501    0  0.00000000000E+00  0.00000000000E+00 -0.26075958986E+04  0.26075958986E+04  0.25500000920E-02 0. -1.
    10030    2    1    2    0    0  0.00000000000E+00  0.00000000000E+00 -0.11389645497E+04  0.40762272475E+04  0.39138712713E+04 0.  0.
        3    1    3    3  502    0  0.18878976427E+04  0.49935297787E+03 -0.70157476421E+03  0.20750224253E+04  0.10100000352E+00 0. -1.
       -3    1    3    3    0  502 -0.18878976427E+04 -0.49935297787E+03 -0.43738978551E+03  0.20012048222E+04  0.10100000352E+00 0.  1.
</event>
<event>
 5   0  0.4750125E-08  0.3891889E+04  0.7818609E-02  0.8026718E-01
       -1   -1    0    0    0  501  0.00000000000E+00  0.00000000000E+00  0.23736301689E+04  0.23736301689E+04  0.50400001928E-02 0. -1.
        1   -1    0    0  501    0  0.00000000000E+00  0.00000000000E+00 -0.15953200199E+04  0.15953200199E+04  0.50400001928E-02 0.  1.
    10030    2    1    2    0    0  0.00000000000E+00  0.00000000000E+00  0.77831014896E+03  0.39689501888E+04  0.38918888619E+04 0.  0.
        4    1    3    3  502    0  0.78139896698E+03 -0.15891271331E+04  0.12118431993E+04  0.21458040319E+04  0.12699999809E+01 0. -1.
       -4    1    3    3    0  502 -0.78139896698E+03  0.15891271331E+04 -0.43353305033E+03  0.18231461569E+04  0.12699999809E+01 0.  1.
</event>
<event>
 5   0  0.4750125E-08  0.3914199E+04  0.7818609E-02  0.8022083E-01
        1   -1    0    0  501    0  0.00000000000E+00  0.00000000000E+00  0.14085101601E+04  0.14085101601E+04  0.50400001928E-02 0. -1.
       -1   -1    0    0    0  501  0.00000000000E+00  0.00000000000E+00 -0.27193547605E+04  0.27193547605E+04  0.50400001928E-02 0.  1.
    10030    2    1    2    0    0  0.00000000000E+00  0.00000000000E+00 -0.13108446005E+04  0.41278649206E+04  0.39141991820E+04 0.  0.
        4    1    3    3  502    0 -0.14481207305E+03 -0.11282313550E+04 -0.23349534395E+04  0.25972842942E+04  0.12699999809E+01 0.  1.
       -4    1    3    3    0  502  0.14481207305E+03  0.11282313550E+04  0.10241088391E+04  0.15305806265E+04  0.12699999809E+01 0. -1.
</event>
<event>
 5   0  0.1503228E-07  0.3935667E+04  0.7818609E-02  0.8017652E-01
        2   -1    0    0  501    0  0.00000000000E+00  0.00000000000E+00  0.16802979195E+04  0.16802979195E+04  0.25500000920E-02 0.  1.
       -2   -1    0    0    0  501  0.00000000000E+00  0.00000000000E+00 -0.23045731109E+04  0.23045731109E+04  0.25500000920E-02 0. -1.
    10030    2    1    2    0    0  0.00000000000E+00  0.00000000000E+00 -0.62427519133E+03  0.39848710304E+04  0.39356673658E+04 0.  0.
        3    1    3    3  502    0  0.17822645851E+03 -0.12216336351E+04 -0.18636844832E+04  0.22355029125E+04  0.10100000352E+00 0. -1.
       -3    1    3    3    0  502 -0.17822645851E+03  0.12216336351E+04  0.12394092918E+04  0.17493681179E+04  0.10100000352E+00 0.  1.
</event>
<event>
 5   0  0.4750125E-08  0.3907832E+04  0.7818609E-02  0.8023402E-01
        1   -1    0    0  501    0  0.00000000000E+00  0.00000000000E+00  0.28409771937E+04  0.28409771937E+04  0.50400001928E-02 0. -1.
       -1   -1    0    0    0  501  0.00000000000E+00  0.00000000000E+00 -0.13438292900E+04  0.13438292900E+04  0.50400001928E-02 0.  1.
    10030    2    1    2    0    0  0.00000000000E+00  0.00000000000E+00  0.14971479037E+04  0.41848064837E+04  0.39078323225E+04 0.  0.
        5    1    3    3  502    0  0.70077108145E+03 -0.28349695186E+03  0.26780297401E+04  0.27826814423E+04  0.46999998093E+01 0. -1.
       -5    1    3    3    0  502 -0.70077108145E+03  0.28349695186E+03 -0.11808818364E+04  0.14021250415E+04  0.46999998093E+01 0.  1.
</event>
<event>
 5   0  0.4750125E-08  0.4112295E+04  0.7818609E-02  0.7982268E-01
        1   -1    0    0  501    0  0.00000000000E+00  0.00000000000E+00  0.13850349800E+04  0.13850349800E+04  0.50400001928E-02 0. -1.
       -1   -1    0    0    0  501  0.00000000000E+00  0.00000000000E+00 -0.30524449868E+04  0.30524449868E+04  0.50400001928E-02 0.  1.
    10030    2    1    2    0    0  0.00000000000E+00  0.00000000000E+00 -0.16674100068E+04  0.44374799667E+04  0.41122952623E+04 0.  0.
        1    1    3    3  502    0  0.99428456885E+03 -0.53652006255E+03 -0.26874836497E+04  0.29153085512E+04  0.50400001928E-02 0.  1.
       -1    1    3    3    0  502 -0.99428456885E+03  0.53652006255E+03  0.10200736429E+04  0.15221714155E+04  0.50400001928E-02 0. -1.
</event>
<event>
 5   0  0.4750125E-08  0.3933634E+04  0.7818609E-02  0.8018070E-01
       -1   -1    0    0    0  501  0.00000000000E+00  0.00000000000E+00  0.31615980366E+04  0.31615980366E+04  0.50400001928E-02 0.  1.
        1   -1    0    0  501    0  0.00000000000E+00  0.00000000000E+00 -0.12235484451E+04  0.12235484451E+04  0.50400001928E-02 0. -1.
    10030    2    1    2    0    0  0.00000000000E+00  0.00000000000E+00  0.19380495915E+04  0.43851464816E+04  0.39336336187E+04 0.  0.
        4    1    3    3  502    0 -0.88682681363E+03  0.15015112670E+04  0.19830290694E+04  0.26407203156E+04  0.12699999809E+01 0.  1.
       -4    1    3    3    0  502  0.88682681363E+03 -0.15015112670E+04 -0.44979477939E+02  0.17444261660E+04  0.12699999809E+01 0. -1.
</event>
<event>
 5   0  0.1546846E-07  0.3896651E+04  0.7818609E-02  0.8025726E-01
       -2   -1    0    0    0  501  0.00000000000E+00  0.00000000000E+00  0.23773363985E+04  0.23773363985E+04  0.25500000920E-02 0. -1.
        2   -1    0    0  501    0  0.00000000000E+00  0.00000000000E+00 -0.15967333276E+04  0.15967333276E+04  0.25500000920E-02 0.  1.
    10030    2    1    2    0    0  0.00000000000E+00  0.00000000000E+00  0.78060307085E+03  0.39740697261E+04  0.38966510023E+04 0.  0.
        2    1    3    3  502    0  0.11832600441E+04 -0.95680820212E+03  0.16311863086E+04  0.22307745383E+04  0.25500000920E-02 0. -1.
       -2    1    3    3    0  502 -0.11832600441E+04  0.95680820212E+03 -0.85058323772E+03  0.17432951878E+04  0.25500000920E-02 0.  1.
</event>
<event>
 5   0  0.1546846E-07  0.3890750E+04  0.7818609E-02  0.8026956E-01
       -2   -1    0    0    0  501  0.00000000000E+00  0.00000000000E+00  0.17852362319E+04  0.17852362319E+04  0.25500000920E-02 0.  1.
        2   -1    0    0  501    0  0.00000000000E+00  0.00000000000E+00 -0.21198784610E+04  0.21198784610E+04  0.25500000920E-02 0. -1.
    10030    2    1    2    0    0  0.00000000000E+00  0.00000000000E+00 -0.33464222913E+03  0.39051146929E+04  0.38907499718E+04 0.  0.
        2    1    3    3  502    0  0.79507445179E+03 -0.11563384949E+04  0.11849547985E+04  0.18366763387E+04  0.25500000920E-02 0.  1.
       -2    1    3    3    0  502 -0.79507445179E+03  0.11563384949E+04 -0.15195970276E+04  0.20684383542E+04  0.25500000920E-02 0. -1.
</event>
<event>
 5   0  0.1546846E-07  0.3900860E+04  0.7818609E-02  0.8024850E-01
        2   -1    0    0  501    0  0.00000000000E+00  0.00000000000E+00  0.15914502192E+04  0.15914502192E+04  0.25500000920E-02 0.  1.
       -2   -1    0    0    0  501  0.00000000000E+00  0.00000000000E+00 -0.23903845132E+04  0.23903845132E+04  0.25500000920E-02 0. -1.
    10030    2    1    2    0    0  0.00000000000E+00  0.00000000000E+00 -0.79893429397E+03  0.39818347324E+04  0.39008603961E+04 0.  0.
        2    1    3    3  502    0  0.23052512037E+03  0.10106753656E+04 -0.20859038850E+04  0.23292920691E+04  0.25500000920E-02 0. -1.
       -2    1    3    3    0  502 -0.23052512037E+03 -0.10106753656E+04  0.12869695910E+04  0.16525426633E+04  0.25500000920E-02 0.  1.
</event>
<event>
 5   0  0.4762788E-08  0.3896871E+04  0.7818609E-02  0.8025680E-01
        1   -1    0    0  501    0  0.00000000000E+00  0.00000000000E+00  0.14864383404E+04  0.14864383404E+04  0.50400001928E-02 0. -1.
       -1   -1    0    0    0  501  0.00000000000E+00  0.00000000000E+00 -0.25540256335E+04  0.25540256335E+04  0.50400001928E-02 0.  1.
    10030    2    1    2    0    0  0.00000000000E+00  0.00000000000E+00 -0.10675872931E+04  0.40404639740E+04  0.38968713729E+04 0.  0.
        2    1    3    3  502    0  0.15479730910E+04 -0.16280703388E+03  0.68143258088E+03  0.16991401305E+04  0.25500000920E-02 0. -1.
       -2    1    3    3    0  502 -0.15479730910E+04  0.16280703388E+03 -0.17490198740E+04  0.23413238435E+04  0.25500000920E-02 0.  1.
</event>
<event>
 5   0  0.4750125E-08  0.3879425E+04  0.7818609E-02  0.8029322E-01
       -1   -1    0    0    0  501  0.00000000000E+00  0.00000000000E+00  0.18057490891E+04  0.18057490891E+04  0.50400001928E-02 0. -1.
        1   -1    0    0  501    0  0.00000000000E+00  0.00000000000E+00 -0.20836145774E+04  0.20836145774E+04  0.50400001928E-02 0.  1.
    10030    2    1    2    0    0  0.00000000000E+00  0.00000000000E+00 -0.27786548834E+03  0.38893636665E+04  0.38794252797E+04 0.  0.
        4    1    3    3  502    0  0.47945586066E+03 -0.80231170154E+03  0.15650984090E+04  0.18229417521E+04  0.12699999809E+01 0. -1.
       -4    1    3    3    0  502 -0.47945586066E+03  0.80231170154E+03 -0.18429638973E+04  0.20664219144E+04  0.12699999809E+01 0.  1.
</event>
<event>
 5   0  0.4750125E-08  0.3892863E+04  0.7818609E-02  0.8026515E-01
       -1   -1    0    0    0  501  0.00000000000E+00  0.00000000000E+00  0.21347340480E+04  0.21347340480E+04  0.50400001928E-02 0. -1.
        1   -1    0    0  501    0  0.00000000000E+00  0.00000000000E+00 -0.17747386961E+04  0.17747386961E+04  0.50400001928E-02 0.  1.
    10030    2    1    2    0    0  0.00000000000E+00  0.00000000000E+00  0.35999535197E+03  0.39094727441E+04  0.38928627620E+04 0.  0.
        3    1    3    3  502    0  0.80690425840E+03 -0.10877839800E+04  0.15838989268E+04  0.20840115859E+04  0.10100000352E+00 0. -1.
       -3    1    3    3    0  502 -0.80690425840E+03  0.10877839800E+04 -0.12239035749E+04  0.18254611582E+04  0.10100000352E+00 0.  1.
</event>
<event>
 5   0  0.1501585E-07  0.3943443E+04  0.7818609E-02  0.8016054E-01
        2   -1    0    0  501    0  0.00000000000E+00  0.00000000000E+00  0.25560091656E+04  0.25560091656E+04  0.25500000920E-02 0.  1.
       -2   -1    0    0    0  501  0.00000000000E+00  0.00000000000E+00 -0.15209983844E+04  0.15209983844E+04  0.25500000920E-02 0. -1.
    10030    2    1    2    0    0  0.00000000000E+00  0.00000000000E+00  0.10350107812E+04  0.40770075500E+04  0.39434430699E+04 0.  0.
        5    1    3    3  502    0 -0.16664323495E+04  0.82351365587E+03 -0.16241032895E+03  0.18658967608E+04  0.46999998093E+01 0. -1.
       -5    1    3    3    0  502  0.16664323495E+04 -0.82351365587E+03  0.11974211101E+04  0.22111107892E+04  0.46999998093E+01 0.  1.
</event>
<event>
 5   0  0.4750125E-08  0.3862112E+04  0.7818609E-02  0.8032956E-01
       -1   -1    0    0    0  501  0.00000000000E+00  0.00000000000E+00  0.27268052258E+04  0.27268052258E+04  0.50400001928E-02 0. -1.
        1   -1    0    0  501    0  0.00000000000E+00  0.00000000000E+00 -0.13675261325E+04  0.13675261325E+04  0.50400001928E-02 0.  1.
    10030    2    1    2    0    0  0.00000000000E+00  0.00000000000E+00  0.13592790932E+04  0.40943313583E+04  0.38621120670E+04 0.  0.
        4    1    3    3  502    0 -0.80396358414E+02  0.81802681706E+03  0.25320874734E+04  0.26621607828E+04  0.12699999809E+01 0. -1.
       -4    1    3    3    0  502  0.80396358414E+02 -0.81802681706E+03 -0.11728083801E+04  0.14321705755E+04  0.12699999809E+01 0.  1.
</event>
<event>
 5   0  0.1501585E-07  0.3874653E+04  0.7818609E-02  0.8030322E-01
        2   -1    0    0  501    0  0.00000000000E+00  0.00000000000E+00  0.20147527007E+04  0.20147527007E+04  0.25500000920E-02 0. -1.
       -2   -1    0    0    0  501  0.00000000000E+00  0.00000000000E+00 -0.18628758041E+04  0.18628758041E+04  0.25500000920E-02 0.  1.
    10030    2    1    2    0    0  0.00000000000E+00  0.00000000000E+00  0.15187689664E+03  0.38776285048E+04  0.38746530463E+04 0.  0.
        5    1    3    3  502    0 -0.12132207294E+04  0.70758676573E+03 -0.12594881654E+04  0.18865089711E+04  0.46999998093E+01 0.  1.
       -5    1    3    3    0  502  0.12132207294E+04 -0.70758676573E+03  0.14113650620E+04  0.19911195337E+04  0.46999998093E+01 0. -1.
</event>
<event>
 5   0  0.4750125E-08  0.3722535E+04  0.7818609E-02  0.8062986E-01
        1   -1    0    0  501    0  0.00000000000E+00  0.00000000000E+00  0.20421901105E+04  0.20421901105E+04  0.50400001928E-02 0. -1.
       -1   -1    0    0    0  501  0.00000000000E+00  0.00000000000E+00 -0.16963730955E+04  0.16963730955E+04  0.50400001928E-02 0.  1.
    10030    2    1    2    0    0  0.00000000000E+00  0.00000000000E+00  0.34581701501E+03  0.37385632060E+04  0.37225348135E+04 0.  0.
        4    1    3    3  502    0  0.47048027758E+03  0.17258385766E+04  0.68936415856E+03  0.19170537395E+04  0.12699999809E+01 0.  1.
       -4    1    3    3    0  502 -0.47048027758E+03 -0.17258385766E+04 -0.34354714355E+03  0.18215094666E+04  0.12699999809E+01 0. -1.
</event>
<event>
 5   0  0.4750125E-08  0.3915481E+04  0.7818609E-02  0.8021817E-01
       -1   -1    0    0    0  501  0.00000000000E+00  0.00000000000E+00  0.26493436061E+04  0.26493436061E+04  0.50400001928E-02 0. -1.
        1   -1    0    0  501    0  0.00000000000E+00  0.00000000000E+00 -0.14466781221E+04  0.14466781221E+04  0.50400001928E-02 0.  1.
    10030    2    1    2    0    0  0.00000000000E+00  0.00000000000E+00  0.12026654840E+04  0.40960217282E+04  0.39154807791E+04 0.  0.
        3    1    3    3  502    0 -0.13836535340E+04  0.76536367793E+02  0.20479900720E+04  0.24727754170E+04  0.10100000352E+00 0. -1.
       -3    1    3    3    0  502  0.13836535340E+04 -0.76536367793E+02 -0.84532458794E+03  0.16232463112E+04  0.10100000352E+00 0.  1.
</event>
<event>
 5   0  0.4750125E-08  0.3841971E+04  0.7818609E-02  0.8037207E-01
        1   -1    0    0  501    0  0.00000000000E+00  0.00000000000E+00  0.17123317326E+04  0.17123317326E+04  0.50400001928E-02 0. -1.
       -1   -1    0    0    0  501  0.00000000000E+00  0.00000000000E+00 -0.21550648716E+04  0.21550648717E+04  0.50400001928E-02 0.  1.
    10030    2    1    2    0    0  0.00000000000E+00  0.00000000000E+00 -0.44273313907E+03  0.38673966042E+04  0.38419713510E+04 0.  0.
        3    1    3    3  502    0 -0.12959468977E+04  0.46735378812E+03  0.11262566699E+04  0.17794246322E+04  0.10100000352E+00 0. -1.
       -3    1    3    3    0  502  0.12959468977E+04 -0.46735378812E+03 -0.15689898090E+04  0.20879719720E+04  0.10100000352E+00 0.  1.
</event>
<event>
 5   0  0.1520986E-07  0.3921600E+04  0.7818609E-02  0.8020552E-01
       -2   -1    0    0    0  501  0.00000000000E+00  0.00000000000E+00  0.17081993124E+04  0.17081993124E+04  0.25500000920E-02 0.  1.
        2   -1    0    0  501    0  0.00000000000E+00  0.00000000000E+00 -0.22507546516E+04  0.22507546516E+04  0.25500000920E-02 0. -1.
    10030    2    1    2    0    0  0.00000000000E+00  0.00000000000E+00 -0.54255533918E+03  0.39589539641E+04  0.39216004633E+04 0.  0.
        4    1    3    3  502    0  0.10212453208E+04  0.88144491987E+03  0.11652480440E+04  0.17826081367E+04  0.12699999809E+01 0.  1.
       -4    1    3    3    0  502 -0.10212453208E+04 -0.88144491987E+03 -0.17078033832E+04  0.21763458274E+04  0.12699999809E+01 0. -1.
</event>
<event>
 5   0  0.1546846E-07  0.3929961E+04  0.7818609E-02  0.8018826E-01
        2   -1    0    0  501    0  0.00000000000E+00  0.00000000000E+00  0.19576324579E+04  0.19576324579E+04  0.25500000920E-02 0.  1.
       -2   -1    0    0    0  501  0.00000000000E+00  0.00000000000E+00 -0.19723565946E+04  0.19723565946E+04  0.25500000920E-02 0. -1.
    10030    2    1    2    0    0  0.00000000000E+00  0.00000000000E+00 -0.14724136639E+02  0.39299890525E+04  0.39299614696E+04 0.  0.
        2    1    3    3  502    0  0.17233085044E+03 -0.18583825745E+04  0.60734995937E+03  0.19626914400E+04  0.25500000920E-02 0. -1.
       -2    1    3    3    0  502 -0.17233085044E+03  0.18583825745E+04 -0.62207409601E+03  0.19672976125E+04  0.25500000920E-02 0.  1.
</event>
<event>
 5   0  0.4750125E-08  0.3892336E+04  0.7818609E-02  0.8026625E-01
        1   -1    0    0  501    0  0.00000000000E+00  0.00000000000E+00  0.28807627806E+04  0.28807627806E+04  0.50400001928E-02 0. -1.
       -1   -1    0    0    0  501  0.00000000000E+00  0.00000000000E+00 -0.13147805388E+04  0.13147805388E+04  0.50400001928E-02 0.  1.
    10030    2    1    2    0    0  0.00000000000E+00  0.00000000000E+00  0.15659822418E+04  0.41955433193E+04  0.38923364915E+04 0.  0.
        3    1    3    3  502    0 -0.14102722453E+04  0.95371644504E+03 -0.23339790489E+03  0.17184054980E+04  0.10100000352E+00 0.  1.
       -3    1    3    3    0  502  0.14102722453E+04 -0.95371644504E+03  0.17993801467E+04  0.24771378213E+04  0.10100000352E+00 0. -1.
</event>
<event>
 5   0  0.1503228E-07  0.3900210E+04  0.7818609E-02  0.8024986E-01
        2   -1    0    0  501    0  0.00000000000E+00  0.00000000000E+00  0.17793209943E+04  0.17793209943E+04  0.25500000920E-02 0.  1.
       -2   -1    0    0    0  501  0.00000000000E+00  0.00000000000E+00 -0.21372814415E+04  0.21372814415E+04  0.25500000920E-02 0. -1.
    10030    2    1    2    0    0  0.00000000000E+00  0.00000000000E+00 -0.35796044724E+03  0.39166024358E+04  0.39002101172E+04 0.  0.
        3    1    3    3  502    0  0.13148160471E+04  0.14056487207E+04 -0.49385856290E+03  0.19870797302E+04  0.10100000352E+00 0. -1.
       -3    1    3    3    0  502 -0.13148160471E+04 -0.14056487207E+04  0.13589811566E+03  0.19295227057E+04  0.10100000352E+00 0.  1.
</event>
<event>
 5   0  0.4750125E-08  0.3985499E+04  0.7818609E-02  0.8007478E-01
       -1   -1    0    0    0  501  0.00000000000E+00  0.00000000000E+00  0.19467388278E+04  0.19467388278E+04  0.50400001928E-02 0. -1.
        1   -1    0    0  501    0  0.00000000000E+00  0.00000000000E+00 -0.20398471412E+04  0.20398471412E+04  0.50400001928E-02 0.  1.
    10030    2    1    2    0    0  0.00000000000E+00  0.00000000000E+00 -0.93108313331E+02  0.39865859690E+04  0.39854985297E+04 0.  0.
        1    1    3    3  502    0 -0.15803514593E+04  0.63088804034E+03 -0.10839095282E+04  0.20175208350E+04  0.50400001928E-02 0.  1.
       -1    1    3    3    0  502  0.15803514593E+04 -0.63088804034E+03  0.99080121489E+03  0.19690651340E+04  0.50400001928E-02 0. -1.
</event>
<event>
 5   0  0.4750125E-08  0.4048501E+04  0.7818609E-02  0.7994833E-01
        1   -1    0    0  501    0  0.00000000000E+00  0.00000000000E+00  0.30899022382E+04  0.30899022382E+04  0.50400001928E-02 0.  1.
       -1   -1    0    0    0  501  0.00000000000E+00  0.00000000000E+00 -0.13261229000E+04  0.13261229001E+04  0.50400001928E-02 0. -1.
    10030    2    1    2    0    0  0.00000000000E+00  0.00000000000E+00  0.17637793382E+04  0.44160251383E+04  0.40485010150E+04 0.  0.
        4    1    3    3  502    0  0.75416064445E+03 -0.88457786316E+02 -0.11648878249E+04  0.13905208791E+04  0.12699999809E+01 0. -1.
       -4    1    3    3    0  502 -0.75416064445E+03  0.88457786316E+02  0.29286671631E+04  0.30255042592E+04  0.12699999809E+01 0.  1.
</event>
<event>
 5   0  0.4750125E-08  0.3911415E+04  0.7818609E-02  0.8022659E-01
        1   -1    0    0  501    0  0.00000000000E+00  0.00000000000E+00  0.17546077926E+04  0.17546077926E+04  0.50400001928E-02 0.  1.
       -1   -1    0    0    0  501  0.00000000000E+00  0.00000000000E+00 -0.21798561744E+04  0.21798561744E+04  0.50400001928E-02 0. -1.
    10030    2    1    2    0    0  0.00000000000E+00  0.00000000000E+00 -0.42524838180E+03  0.39344639671E+04  0.39114154116E+04 0.  0.
        5    1    3    3  502    0 -0.64389033451E+03 -0.14222382403E+03 -0.20646547918E+04  0.21674048718E+04  0.46999998093E+01 0. -1.
       -5    1    3    3    0  502  0.64389033451E+03  0.14222382403E+03  0.16394064100E+04  0.17670590953E+04  0.46999998093E+01 0.  1.
</event>
<event>
 5   0  0.1503228E-07  0.3888433E+04  0.7818609E-02  0.8027439E-01
        2   -1    0    0  501    0  0.00000000000E+00  0.00000000000E+00  0.19757818761E+04  0.19757818761E+04  0.25500000920E-02 0. -1.
       -2   -1    0    0    0  501  0.00000000000E+00  0.00000000000E+00 -0.19131555839E+04  0.19131555839E+04  0.25500000920E-02 0.  1.
    10030    2    1    2    0    0  0.00000000000E+00  0.00000000000E+00  0.62626292231E+02  0.38889374600E+04  0.38884331697E+04 0.  0.
        3    1    3    3  502    0  0.12875216137E+04  0.13367124800E+03 -0.14195293966E+04  0.19211047932E+04  0.10100000352E+00 0.  1.
       -3    1    3    3    0  502 -0.12875216137E+04 -0.13367124800E+03  0.14821556889E+04  0.19678326668E+04  0.10100000352E+00 0. -1.
</event>
<event>
 5   0  0.4750125E-08  0.3950696E+04  0.7818609E-02  0.8014567E-01
       -1   -1    0    0    0  501  0.00000000000E+00  0.00000000000E+00  0.11896005530E+04  0.11896005530E+04  0.50400001928E-02 0. -1.
        1   -1    0    0  501    0  0.00000000000E+00  0.00000000000E+00 -0.32800917323E+04  0.32800917323E+04  0.50400001928E-02 0.  1.
    10030    2    1    2    0    0  0.00000000000E+00  0.00000000000E+00 -0.20904911793E+04  0.44696922853E+04  0.39506956039E+04 0.  0.
        1    1    3    3  502    0  0.10298771366E+04 -0.30860431312E+03  0.82959111773E+03  0.13579782624E+04  0.50400001928E-02 0. -1.
       -1    1    3    3    0  502 -0.10298771366E+04  0.30860431312E+03 -0.29200822970E+04  0.31117140229E+04  0.50400001928E-02 0.  1.
</event>
<event>
 5   0  0.1538018E-07  0.3891400E+04  0.7818609E-02  0.8026820E-01
        2   -1    0    0  501    0  0.00000000000E+00  0.00000000000E+00  0.22523464848E+04  0.22523464848E+04  0.25500000920E-02 0. -1.
       -2   -1    0    0    0  501  0.00000000000E+00  0.00000000000E+00 -0.16808020940E+04  0.16808020940E+04  0.25500000920E-02 0.  1.
    10030    2    1    2    0    0  0.00000000000E+00  0.00000000000E+00  0.57154439083E+03  0.39331485788E+04  0.38914001018E+04 0.  0.
        1    1    3    3  502    0  0.95360481347E+03  0.76577081498E+03 -0.12437312646E+04  0.17443149199E+04  0.50400001928E-02 0.  1.
       -1    1    3    3    0  502 -0.95360481347E+03 -0.76577081498E+03  0.18152756554E+04  0.21888336589E+04  0.50400001928E-02 0. -1.
</event>
<event>
 5   0  0.4750125E-08  0.3853552E+04  0.7818609E-02  0.8034759E-01
        1   -1    0    0  501    0  0.00000000000E+00  0.00000000000E+00  0.15826093787E+04  0.15826093788E+04  0.50400001928E-02 0.  1.
       -1   -1    0    0    0  501  0.00000000000E+00  0.00000000000E+00 -0.23457880528E+04  0.23457880528E+04  0.50400001928E-02 0. -1.
    10030    2    1    2    0    0  0.00000000000E+00  0.00000000000E+00 -0.76317867405E+03  0.39283974316E+04  0.38535522173E+04 0.  0.
        1    1    3    3  502    0  0.10661602999E+03 -0.40216713383E+03 -0.22994479530E+04  0.23367854566E+04  0.50400001928E-02 0. -1.
       -1    1    3    3    0  502 -0.10661602999E+03  0.40216713383E+03  0.15362692790E+04  0.15916119750E+04  0.50400001928E-02 0.  1.
</event>
<event>
 5   0  0.4750125E-08  0.3895281E+04  0.7818609E-02  0.8026011E-01
        1   -1    0    0  501    0  0.00000000000E+00  0.00000000000E+00  0.24189225790E+04  0.24189225790E+04  0.50400001928E-02 0.  1.
       -1   -1    0    0    0  501  0.00000000000E+00  0.00000000000E+00 -0.15681790619E+04  0.15681790619E+04  0.50400001928E-02 0. -1.
    10030    2    1    2    0    0  0.00000000000E+00  0.00000000000E+00  0.85074351707E+03  0.39871016410E+04  0.38952811148E+04 0.  0.
        5    1    3    3  502    0 -0.77871716227E+03 -0.15712191406E+04 -0.44204254894E+03  0.18084672271E+04  0.46999998093E+01 0. -1.
       -5    1    3    3    0  502  0.77871716227E+03  0.15712191406E+04  0.12927860660E+04  0.21786344138E+04  0.46999998093E+01 0.  1.
</event>
<event>
 5   0  0.4762788E-08  0.3903593E+04  0.7818609E-02  0.8024282E-01
       -1   -1    0    0    0  501  0.00000000000E+00  0.00000000000E+00  0.33204595976E+04  0.33204595977E+04  0.50400001928E-02 0. -1.
        1   -1    0    0  501    0  0.00000000000E+00  0.00000000000E+00 -0.11472840067E+04  0.11472840067E+04  0.50400001928E-02 0.  1.
    10030    2    1    2    0    0  0.00000000000E+00  0.00000000000E+00  0.21731755910E+04  0.44677436044E+04  0.39035933145E+04 0.  0.
        2    1    3    3  502    0  0.66901084338E+03  0.16705859627E+04  0.19514981495E+04  0.26545768014E+04  0.25500000920E-02 0. -1.
       -2    1    3    3    0  502 -0.66901084338E+03 -0.16705859627E+04  0.22167744149E+03  0.18131668029E+04  0.25500000920E-02 0.  1.
</event>
<event>
 5   0  0.4750125E-08  0.3931616E+04  0.7818609E-02  0.8018486E-01
        1   -1    0    0  501    0  0.00000000000E+00  0.00000000000E+00  0.18789529098E+04  0.18789529098E+04  0.50400001928E-02 0. -1.
       -1   -1    0    0    0  501  0.00000000000E+00  0.00000000000E+00 -0.20566779790E+04  0.20566779790E+04  0.50400001928E-02 0.  1.
    10030    2    1    2    0    0  0.00000000000E+00  0.00000000000E+00 -0.17772506916E+03  0.39356308888E+04  0.39316159900E+04 0.  0.
        4    1    3    3  502    0 -0.25377053849E+03  0.12216883245E+04  0.14317270653E+04  0.18991487174E+04  0.12699999809E+01 0. -1.
       -4    1    3    3    0  502  0.25377053849E+03 -0.12216883245E+04 -0.16094521344E+04  0.20364821714E+04  0.12699999809E+01 0.  1.
</event>
<event>
 5   0  0.4750125E-08  0.3896175E+04  0.7818609E-02  0.8025825E-01
       -1   -1    0    0    0  501  0.00000000000E+00  0.00000000000E+00  0.14993950835E+04  0.14993950835E+04  0.50400001928E-02 0. -1.
        1   -1    0    0  501    0  0.00000000000E+00  0.00000000000E+00 -0.25310505208E+04  0.25310505208E+04  0.50400001928E-02 0.  1.
    10030    2    1    2    0    0  0.00000000000E+00  0.00000000000E+00 -0.10316554372E+04  0.40304456043E+04  0.38961748970E+04 0.  0.
        5    1    3    3  502    0 -0.87889266784E+02 -0.16600633089E+04  0.53479476389E+03  0.17462995855E+04  0.46999998093E+01 0. -1.
       -5    1    3    3    0  502  0.87889266784E+02  0.16600633089E+04 -0.15664502011E+04  0.22841460188E+04  0.46999998093E+01 0.  1.
</event>
<event>
 5   0  0.1546846E-07  0.3900640E+04  0.7818609E-02  0.8024896E-01
       -2   -1    0    0    0  501  0.00000000000E+00  0.00000000000E+00  0.20484237776E+04  0.20484237776E+04  0.25500000920E-02 0. -1.
        2   -1    0    0  501    0  0.00000000000E+00  0.00000000000E+00 -0.18569147494E+04  0.18569147494E+04  0.25500000920E-02 0.  1.
    10030    2    1    2    0    0  0.00000000000E+00  0.00000000000E+00  0.19150902822E+03  0.39053385269E+04  0.39006401144E+04 0.  0.
        2    1    3    3  502    0 -0.18910279640E+04  0.44263697187E+03  0.27439048985E+03  0.19614291704E+04  0.25500000920E-02 0. -1.
       -2    1    3    3    0  502  0.18910279640E+04 -0.44263697187E+03 -0.82881461624E+02  0.19439093565E+04  0.25500000920E-02 0.  1.
</event>
<event>
 5   0  0.4750125E-08  0.3616357E+04  0.7818609E-02  0.8086755E-01
        1   -1    0    0  501    0  0.00000000000E+00  0.00000000000E+00  0.13502894605E+04  0.13502894605E+04  0.50400001928E-02 0.  1.
       -1   -1    0    0    0  501  0.00000000000E+00  0.00000000000E+00 -0.24213393006E+04  0.24213393006E+04  0.50400001928E-02 0. -1.
    10030    2    1    2    0    0  0.00000000000E+00  0.00000000000E+00 -0.10710498401E+04  0.37716287612E+04  0.36163566959E+04 0.  0.
        1    1    3    3  502    0 -0.16688926503E+04 -0.59931132612E+03 -0.90445342218E+03  0.19905810048E+04  0.50400001928E-02 0.  1.
       -1    1    3    3    0  502  0.16688926503E+04  0.59931132612E+03 -0.16659641791E+03  0.17810477563E+04  0.50400001928E-02 0. -1.
</event>
<event>
 5   0  0.4750125E-08  0.3903140E+04  0.7818609E-02  0.8024377E-01
        1   -1    0    0  501    0  0.00000000000E+00  0.00000000000E+00  0.23407593914E+04  0.23407593914E+04  0.50400001928E-02 0. -1.
       -1   -1    0    0    0  501  0.00000000000E+00  0.00000000000E+00 -0.16270895230E+04  0.16270895230E+04  0.50400001928E-02 0.  1.
    10030    2    1    2    0    0  0.00000000000E+00  0.00000000000E+00  0.71366986847E+03  0.39678489144E+04  0.39031398036E+04 0.  0.
        1    1    3    3  502    0  0.60001645659E+03 -0.51175020452E+03  0.21715680838E+04  0.23103281072E+04  0.50400001928E-02 0. -1.
       -1    1    3    3    0  502 -0.60001645659E+03  0.51175020452E+03 -0.14578982154E+04  0.16575208072E+04  0.50400001928E-02 0.  1.
</event>
<event>
 5   0  0.4750125E-08  0.3935109E+04  0.7818609E-02  0.8017767E-01
        1   -1    0    0  501    0  0.00000000000E+00  0.00000000000E+00  0.12655166032E+04  0.12655166032E+04  0.50400001928E-02 0.  1.
       -1   -1    0    0    0  501  0.00000000000E+00  0.00000000000E+00 -0.30590430775E+04  0.30590430775E+04  0.50400001928E-02 0. -1.
    10030    2    1    2    0    0  0.00000000000E+00  0.00000000000E+00 -0.17935264744E+04  0.43245596807E+04  0.39351085395E+04 0.  0.
        3    1    3    3  502    0  0.25146016643E+02  0.97208806374E+03 -0.27765074611E+04  0.29418669613E+04  0.10100000352E+00 0. -1.
       -3    1    3    3    0  502 -0.25146016643E+02 -0.97208806374E+03  0.98298098678E+03  0.13826927194E+04  0.10100000352E+00 0.  1.
</event>
<event>
 5   0  0.1520986E-07  0.3931960E+04  0.7818609E-02  0.8018415E-01
       -2   -1    0    0    0  501  0.00000000000E+00  0.00000000000E+00  0.23178310194E+04  0.23178310194E+04  0.25500000920E-02 0. -1.
        2   -1    0    0  501    0  0.00000000000E+00  0.00000000000E+00 -0.16675408305E+04  0.16675408305E+04  0.25500000920E-02 0.  1.
    10030    2    1    2    0    0  0.00000000000E+00  0.00000000000E+00  0.65029018895E+03  0.39853718499E+04  0.39319602556E+04 0.  0.
        4    1    3    3  502    0  0.18862291752E+03  0.95646977151E+03  0.20555746333E+04  0.22750388381E+04  0.12699999809E+01 0. -1.
       -4    1    3    3    0  502 -0.18862291752E+03 -0.95646977151E+03 -0.14052844443E+04  0.17103330118E+04  0.12699999809E+01 0.  1.
</event>
<event>
 5   0  0.4750125E-08  0.3833530E+04  0.7818609E-02  0.8038998E-01
        1   -1    0    0  501    0  0.00000000000E+00  0.00000000000E+00  0.11566224865E+04  0.11566224865E+04  0.50400001928E-02 0. -1.
       -1   -1    0    0    0  501  0.00000000000E+00  0.00000000000E+00 -0.31764796000E+04  0.31764796000E+04  0.50400001928E-02 0.  1.
    10030    2    1    2    0    0  0.00000000000E+00  0.00000000000E+00 -0.20198571135E+04  0.43331020865E+04  0.38335298268E+04 0.  0.
        3    1    3    3  502    0 -0.45810536441E+03 -0.13726715289E+03  0.10881060446E+04  0.11885611346E+04  0.10100000352E+00 0. -1.
       -3    1    3    3    0  502  0.45810536441E+03  0.13726715289E+03 -0.31079631581E+04  0.31445409519E+04  0.10100000352E+00 0.  1.
</event>
<event>
 5   0  0.1520986E-07  0.3915606E+04  0.7818609E-02  0.8021791E-01
        2   -1    0    0  501    0  0.00000000000E+00  0.00000000000E+00  0.18858250298E+04  0.18858250298E+04  0.25500000920E-02 0.  1.
       -2   -1    0    0    0  501  0.00000000000E+00  0.00000000000E+00 -0.20325283348E+04  0.20325283348E+04  0.25500000920E-02 0. -1.
    10030    2    1    2    0    0  0.00000000000E+00  0.00000000000E+00 -0.14670330499E+03  0.39183533647E+04  0.39156061128E+04 0.  0.
        4    1    3    3  502    0 -0.35076216430E+03  0.10661617600E+04  0.15319110495E+04  0.18990755833E+04  0.12699999809E+01 0.  1.
       -4    1    3    3    0  502  0.35076216430E+03 -0.10661617600E+04 -0.16786143545E+04  0.20192777814E+04  0.12699999809E+01 0. -1.
</event>
<event>
 5   0  0.1503228E-07  0.3888301E+04  0.7818609E-02  0.8027467E-01
       -2   -1    0    0    0  501  0.00000000000E+00  0.00000000000E+00  0.18192853656E+04  0.18192853656E+04  0.25500000920E-02 0. -1.
        2   -1    0    0  501    0  0.00000000000E+00  0.00000000000E+00 -0.20775856444E+04  0.20775856444E+04  0.25500000920E-02 0.  1.
    10030    2    1    2    0    0  0.00000000000E+00  0.00000000000E+00 -0.25830027886E+03  0.38968710100E+04  0.38883009958E+04 0.  0.
        3    1    3    3  502    0  0.18036603082E+04 -0.50316615309E+03  0.39483532375E+03  0.19137036417E+04  0.10100000352E+00 0. -1.
       -3    1    3    3    0  502 -0.18036603082E+04  0.50316615309E+03 -0.65313560261E+03  0.19831673683E+04  0.10100000352E+00 0.  1.
</event>
<event>
 5   0  0.1538018E-07  0.3897544E+04  0.7818609E-02  0.8025540E-01
       -2   -1    0    0    0  501  0.00000000000E+00  0.00000000000E+00  0.26298446344E+04  0.26298446344E+04  0.25500000920E-02 0. -1.
        2   -1    0    0  501    0  0.00000000000E+00  0.00000000000E+00 -0.14440823642E+04  0.14440823642E+04  0.25500000920E-02 0.  1.
    10030    2    1    2    0    0  0.00000000000E+00  0.00000000000E+00  0.11857622702E+04  0.40739269985E+04  0.38975439738E+04 0.  0.
        1    1    3    3  502    0 -0.13448508997E+04  0.44348836630E+03  0.19922765922E+04  0.24442732853E+04  0.50400001928E-02 0. -1.
       -1    1    3    3    0  502  0.13448508997E+04 -0.44348836630E+03 -0.80651432201E+03  0.16296537132E+04  0.50400001928E-02 0.  1.
</event>
<event>
 5   0  0.1520986E-07  0.3902028E+04  0.7818609E-02  0.8024608E-01
       -2   -1    0    0    0  501  0.00000000000E+00  0.00000000000E+00  0.14312957740E+04  0.14312957740E+04  0.25500000920E-02 0.  1.
        2   -1    0    0  501    0  0.00000000000E+00  0.00000000000E+00 -0.26594469254E+04  0.26594469254E+04  0.25500000920E-02 0. -1.
    10030    2    1    2    0    0  0.00000000000E+00  0.00000000000E+00 -0.12281511515E+04  0.40907426994E+04  0.39020277526E+04 0.  0.
        4    1    3    3  502    0  0.15142832975E+04  0.12543380310E+03 -0.18970538249E+04  0.24305559799E+04  0.12699999809E+01 0. -1.
       -4    1    3    3    0  502 -0.15142832975E+04 -0.12543380310E+03  0.66890267347E+03  0.16601867195E+04  0.12699999809E+01 0.  1.
</event>
<event>
 5   0  0.4750125E-08  0.3908895E+04  0.7818609E-02  0.8023182E-01
        1   -1    0    0  501    0  0.00000000000E+00  0.00000000000E+00  0.23212738330E+04  0.23212738330E+04  0.50400001928E-02 0.  1.
       -1   -1    0    0    0  501  0.00000000000E+00  0.00000000000E+00 -0.16455898143E+04  0.16455898143E+04  0.50400001928E-02 0. -1.
    10030    2    1    2    0    0  0.00000000000E+00  0.00000000000E+00  0.67568401866E+03  0.39668636473E+04  0.39088947674E+04 0.  0.
        3    1    3    3  502    0  0.10425181202E+03  0.18788183024E+04 -0.19823218382E+03  0.18921212071E+04  0.10100000352E+00 0. -1.
       -3    1    3    3    0  502 -0.10425181202E+03 -0.18788183024E+04  0.87391620248E+03  0.20747424401E+04  0.10100000352E+00 0.  1.
</event>
<event>
 5   0  0.1503228E-07  0.3877630E+04  0.7818609E-02  0.8029698E-01
       -2   -1    0    0    0  501  0.00000000000E+00  0.00000000000E+00  0.27464172657E+04  0.27464172657E+04  0.25500000920E-02 0. -1.
        2   -1    0    0  501    0  0.00000000000E+00  0.00000000000E+00 -0.13686932414E+04  0.13686932414E+04  0.25500000920E-02 0.  1.
    10030    2    1    2    0    0  0.00000000000E+00  0.00000000000E+00  0.13777240243E+04  0.41151105070E+04  0.38776295592E+04 0.  0.
        3    1    3    3  502    0 -0.30358277166E+03 -0.51819322891E+03 -0.12674902918E+04  0.14025756207E+04  0.10100000352E+00 0.  1.
       -3    1    3    3    0  502  0.30358277166E+03  0.51819322891E+03  0.26452143161E+04  0.27125348864E+04  0.10100000352E+00 0. -1.
</event>
<event>
 5   0  0.4750125E-08  0.3899341E+04  0.7818609E-02  0.8025166E-01
       -1   -1    0    0    0  501  0.00000000000E+00  0.00000000000E+00  0.23514028372E+04  0.23514028372E+04  0.50400001928E-02 0.  1.
        1   -1    0    0  501    0  0.00000000000E+00  0.00000000000E+00 -0.16165733205E+04  0.16165733205E+04  0.50400001928E-02 0. -1.
    10030    2    1    2    0    0  0.00000000000E+00  0.00000000000E+00  0.73482951665E+03  0.39679761577E+04  0.38993410174E+04 0.  0.
        3    1    3    3  502    0 -0.94653408383E+03  0.21134451125E+03 -0.13536929846E+04  0.16652561307E+04  0.10100000352E+00 0. -1.
       -3    1    3    3    0  502  0.94653408383E+03 -0.21134451125E+03  0.20885225012E+04  0.23027200270E+04  0.10100000352E+00 0.  1.
</event>
<event>
 5   0  0.1520986E-07  0.3867463E+04  0.7818609E-02  0.8031830E-01
       -2   -1    0    0    0  501  0.00000000000E+00  0.00000000000E+00  0.32860758502E+04  0.32860758502E+04  0.25500000920E-02 0. -1.
        2   -1    0    0  501    0  0.00000000000E+00  0.00000000000E+00 -0.11379281021E+04  0.11379281021E+04  0.25500000920E-02 0.  1.
    10030    2    1    2    0    0  0.00000000000E+00  0.00000000000E+00  0.21481477482E+04  0.44240039523E+04  0.38674632800E+04 0.  0.
        4    1    3    3  502    0  0.23803867886E+02  0.17751492938E+04  0.19721786921E+03  0.17862301476E+04  0.12699999809E+01 0.  1.
       -4    1    3    3    0  502 -0.23803867886E+02 -0.17751492938E+04  0.19509298790E+04  0.26377738047E+04  0.12699999809E+01 0. -1.
</event>
<event>
 5   0  0.1546846E-07  0.3870384E+04  0.7818609E-02  0.8031217E-01
        2   -1    0    0  501    0  0.00000000000E+00  0.00000000000E+00  0.18812557296E+04  0.18812557296E+04  0.25500000920E-02 0.  1.
       -2   -1    0    0    0  501  0.00000000000E+00  0.00000000000E+00 -0.19906743659E+04  0.19906743659E+04  0.25500000920E-02 0. -1.
    10030    2    1    2    0    0  0.00000000000E+00  0.00000000000E+00 -0.10941863627E+03  0.38719300955E+04  0.38703837312E+04 0.  0.
        2    1    3    3  502    0  0.12795595834E+04 -0.31578524020E+03 -0.14723056482E+04  0.19760255482E+04  0.25500000920E-02 0.  1.
       -2    1    3    3    0  502 -0.12795595834E+04  0.31578524020E+03  0.13628870119E+04  0.18959045473E+04  0.25500000920E-02 0. -1.
</event>
<event>
 5   0  0.1538018E-07  0.3909600E+04  0.7818609E-02  0.8023036E-01
        2   -1    0    0  501    0  0.00000000000E+00  0.00000000000E+00  0.22145342682E+04  0.22145342682E+04  0.25500000920E-02 0.  1.
       -2   -1    0    0    0  501  0.00000000000E+00  0.00000000000E+00 -0.17255291464E+04  0.17255291464E+04  0.25500000920E-02 0. -1.
    10030    2    1    2    0    0  0.00000000000E+00  0.00000000000E+00  0.48900512184E+03  0.39400634146E+04  0.39096001972E+04 0.  0.
        1    1    3    3  502    0 -0.93869802376E+03 -0.16837342392E+04  0.57126415761E+03  0.20105864085E+04  0.50400001928E-02 0.  1.
       -1    1    3    3    0  502  0.93869802376E+03  0.16837342392E+04 -0.82259035767E+02  0.19294770061E+04  0.50400001928E-02 0. -1.
</event>
<event>
 5   0  0.1503228E-07  0.3947311E+04  0.7818609E-02  0.8015261E-01
       -2   -1    0    0    0  501  0.00000000000E+00  0.00000000000E+00  0.23571523305E+04  0.23571523305E+04  0.25500000920E-02 0.  1.
        2   -1    0    0  501    0  0.00000000000E+00  0.00000000000E+00 -0.16525520240E+04  0.16525520240E+04  0.25500000920E-02 0. -1.
    10030    2    1    2    0    0  0.00000000000E+00  0.00000000000E+00  0.70460030650E+03  0.40097043545E+04  0.39473114165E+04 0.  0.
        3    1    3    3  502    0 -0.95545996692E+03  0.14963153310E+04 -0.52356626305E+03  0.18509416415E+04  0.10100000352E+00 0. -1.
       -3    1    3    3    0  502  0.95545996692E+03 -0.14963153310E+04  0.12281665695E+04  0.21587627130E+04  0.10100000352E+00 0.  1.
</event>
<event>
 5   0  0.1546846E-07  0.3898133E+04  0.7818609E-02  0.8025418E-01
       -2   -1    0    0    0  501  0.00000000000E+00  0.00000000000E+00  0.12899404039E+04  0.12899404039E+04  0.25500000920E-02 0.  1.
        2   -1    0    0  501    0  0.00000000000E+00  0.00000000000E+00 -0.29449883740E+04  0.29449883740E+04  0.25500000920E-02 0. -1.
    10030    2    1    2    0    0  0.00000000000E+00  0.00000000000E+00 -0.16550479701E+04  0.42349287779E+04  0.38981326261E+04 0.  0.
        2    1    3    3  502    0 -0.18598514118E+04  0.33876536073E+03 -0.13429059879E+04  0.23188802763E+04  0.25500000920E-02 0.  1.
       -2    1    3    3    0  502  0.18598514118E+04 -0.33876536073E+03 -0.31214198225E+03  0.19160485016E+04  0.25500000920E-02 0. -1.
</event>
<event>
 5   0  0.4750125E-08  0.3892428E+04  0.7818609E-02  0.8026606E-01
       -1   -1    0    0    0  501  0.00000000000E+00  0.00000000000E+00  0.13797793429E+04  0.13797793429E+04  0.50400001928E-02 0. -1.
        1   -1    0    0  501    0  0.00000000000E+00  0.00000000000E+00 -0.27451845941E+04  0.27451845941E+04  0.50400001928E-02 0.  1.
    10030    2    1    2    0    0  0.00000000000E+00  0.00000000000E+00 -0.13654052512E+04  0.41249639370E+04  0.38924280316E+04 0.  0.
        4    1    3    3  502    0  0.42066133974E+03  0.13868994297E+04  0.69385975538E+03  0.16068257416E+04  0.12699999809E+01 0. -1.
       -4    1    3    3    0  502 -0.42066133974E+03 -0.13868994297E+04 -0.20592650066E+04  0.25181381954E+04  0.12699999809E+01 0.  1.
</event>
<event>
 5   0  0.4762788E-08  0.3932264E+04  0.7818609E-02  0.8018352E-01
        1   -1    0    0  501    0  0.00000000000E+00  0.00000000000E+00  0.23096343218E+04  0.23096343218E+04  0.50400001928E-02 0.  1.
       -1   -1    0    0    0  501  0.00000000000E+00  0.00000000000E+00 -0.16737172413E+04  0.16737172413E+04  0.50400001928E-02 0. -1.
    10030    2    1    2    0    0  0.00000000000E+00  0.00000000000E+00  0.63591708045E+03  0.39833515631E+04  0.39322638698E+04 0.  0.
        2    1    3    3  502    0 -0.98764610596E+03  0.82006708919E+02  0.20381085753E+04  0.22662869402E+04  0.25500000920E-02 0.  1.
       -2    1    3    3    0  502  0.98764610596E+03 -0.82006708919E+02 -0.14021914948E+04  0.17170646229E+04  0.25500000920E-02 0. -1.
</event>
<event>
 5   0  0.4750125E-08  0.3913547E+04  0.7818609E-02  0.8022218E-01
        1   -1    0    0  501    0  0.00000000000E+00  0.00000000000E+00  0.23517371598E+04  0.23517371598E+04  0.50400001928E-02 0. -1.
       -1   -1    0    0    0  501  0.00000000000E+00  0.00000000000E+00 -0.16281420631E+04  0.16281420632E+04  0.50400001928E-02 0.  1.
    10030    2    1    2    0    0  0.00000000000E+00  0.00000000000E+00  0.72359509663E+03  0.39798792229E+04  0.39135468268E+04 0.  0.
        4    1    3    3  502    0 -0.23596459849E+03  0.15072580221E+04  0.16079048824E+04  0.22164985361E+04  0.12699999809E+01 0. -1.
       -4    1    3    3    0  502  0.23596459849E+03 -0.15072580221E+04 -0.88430978572E+03  0.17633806869E+04  0.12699999809E+01 0.  1.
</event>
<event>
 5   0  0.4750125E-08  0.3895584E+04  0.7818609E-02  0.8025948E-01
       -1   -1    0    0    0  501  0.00000000000E+00  0.00000000000E+00  0.13011467297E+04  0.13011467298E+04  0.50400001928E-02 0.  1.
        1   -1    0    0  501    0  0.00000000000E+00  0.00000000000E+00 -0.29158072075E+04  0.29158072075E+04  0.50400001928E-02 0. -1.
    10030    2    1    2    0    0  0.00000000000E+00  0.00000000000E+00 -0.16146604777E+04  0.42169539372E+04  0.38955836598E+04 0.  0.
        5    1    3    3  502    0  0.17677337715E+04  0.31374088513E+03  0.10334065199E+02  0.17953954753E+04  0.46999998093E+01 0. -1.
       -5    1    3    3    0  502 -0.17677337715E+04 -0.31374088513E+03 -0.16249945429E+04  0.24215584619E+04  0.46999998093E+01 0.  1.
</event>
<event>
 5   0  0.4750125E-08  0.3876764E+04  0.7818609E-02  0.8029879E-01
       -1   -1    0    0    0  501  0.00000000000E+00  0.00000000000E+00  0.10473063470E+04  0.10473063470E+04  0.50400001928E-02 0.  1.
        1   -1    0    0  501    0  0.00000000000E+00  0.00000000000E+00 -0.35876082271E+04  0.35876082271E+04  0.50400001928E-02 0. -1.
    10030    2    1    2    0    0  0.00000000000E+00  0.00000000000E+00 -0.25403018801E+04  0.46349145742E+04  0.38767640460E+04 0.  0.
        5    1    3    3  502    0  0.39958531095E+02  0.38715948468E+03 -0.35404026049E+04  0.35617357911E+04  0.46999998093E+01 0. -1.
       -5    1    3    3    0  502 -0.39958531095E+02 -0.38715948468E+03  0.10001007248E+04  0.10731787831E+04  0.46999998093E+01 0.  1.
</event>
<event>
 5   0  0.1503228E-07  0.3908427E+04  0.7818609E-02  0.8023279E-01
       -2   -1    0    0    0  501  0.00000000000E+00  0.00000000000E+00  0.17203237010E+04  0.17203237010E+04  0.25500000920E-02 0.  1.
        2   -1    0    0  501    0  0.00000000000E+00  0.00000000000E+00 -0.22199027180E+04  0.22199027180E+04  0.25500000920E-02 0. -1.
    10030    2    1    2    0    0  0.00000000000E+00  0.00000000000E+00 -0.49957901704E+03  0.39402264191E+04  0.39084274381E+04 0.  0.
        3    1    3    3  502    0 -0.86712635175E+03  0.11392857656E+04 -0.15906752327E+04  0.21401233310E+04  0.10100000352E+00 0. -1.
       -3    1    3    3    0  502  0.86712635175E+03 -0.11392857656E+04  0.10910962157E+04  0.18001030881E+04  0.10100000352E+00 0.  1.
</event>
<event>
 5   0  0.1503228E-07  0.3851647E+04  0.7818609E-02  0.8035162E-01
       -2   -1    0    0    0  501  0.00000000000E+00  0.00000000000E+00  0.23518684129E+04  0.23518684129E+04  0.25500000920E-02 0. -1.
        2   -1    0    0  501    0  0.00000000000E+00  0.00000000000E+00 -0.15769569830E+04  0.15769569830E+04  0.25500000920E-02 0.  1.
    10030    2    1    2    0    0  0.00000000000E+00  0.00000000000E+00  0.77491142991E+03  0.39288253959E+04  0.38516465657E+04 0.  0.
        3    1    3    3  502    0  0.64723194209E+03 -0.10524586714E+04 -0.11193777393E+04  0.16672087377E+04  0.10100000352E+00 0.  1.
       -3    1    3    3    0  502 -0.64723194209E+03  0.10524586714E+04  0.18942891692E+04  0.22616166581E+04  0.10100000352E+00 0. -1.
</event>
<event>
 5   0  0.1538018E-07  0.3891213E+04  0.7818609E-02  0.8026859E-01
        2   -1    0    0  501    0  0.00000000000E+00  0.00000000000E+00  0.25932472696E+04  0.25932472696E+04  0.25500000920E-02 0.  1.
       -2   -1    0    0    0  501  0.00000000000E+00  0.00000000000E+00 -0.14597083678E+04  0.14597083678E+04  0.25500000920E-02 0. -1.
    10030    2    1    2    0    0  0.00000000000E+00  0.00000000000E+00  0.11335389018E+04  0.40529556374E+04  0.38912130443E+04 0.  0.
        1    1    3    3  502    0  0.41029795996E+02  0.74218722509E+03  0.24395213698E+04  0.25502528963E+04  0.50400001928E-02 0.  1.
       -1    1    3    3    0  502 -0.41029795996E+02 -0.74218722509E+03 -0.13059824680E+04  0.15027027411E+04  0.50400001928E-02 0. -1.
</event>
<event>
 5   0  0.4762788E-08  0.3899980E+04  0.7818609E-02  0.8025033E-01
       -1   -1    0    0    0  501  0.00000000000E+00  0.00000000000E+00  0.17676714819E+04  0.17676714819E+04  0.50400001928E-02 0.  1.
        1   -1    0    0  501    0  0.00000000000E+00  0.00000000000E+00 -0.21511131698E+04  0.21511131698E+04  0.50400001928E-02 0. -1.
    10030    2    1    2    0    0  0.00000000000E+00  0.00000000000E+00 -0.38344168790E+03  0.39187846517E+04  0.38999802074E+04 0.  0.
        2    1    3    3  502    0  0.13331342631E+04  0.11992409681E+04  0.57815588678E+03  0.18840621255E+04  0.25500000920E-02 0. -1.
       -2    1    3    3    0  502 -0.13331342631E+04 -0.11992409681E+04 -0.96159757469E+03  0.20347225262E+04  0.25500000920E-02 0.  1.
</event>
<event>
 5   0  0.1503228E-07  0.3968397E+04  0.7818609E-02  0.8010952E-01
       -2   -1    0    0    0  501  0.00000000000E+00  0.00000000000E+00  0.15884863140E+04  0.15884863140E+04  0.25500000920E-02 0. -1.
        2   -1    0    0  501    0  0.00000000000E+00  0.00000000000E+00 -0.24784872102E+04  0.24784872102E+04  0.25500000920E-02 0.  1.
    10030    2    1    2    0    0  0.00000000000E+00  0.00000000000E+00 -0.89000089620E+03  0.40669735241E+04  0.39683966600E+04 0.  0.
        3    1    3    3  502    0  0.58950454903E+03  0.19153133955E+03  0.14867200409E+04  0.16107564551E+04  0.10100000352E+00 0. -1.
       -3    1    3    3    0  502 -0.58950454903E+03 -0.19153133955E+03 -0.23767209371E+04  0.24562170691E+04  0.10100000352E+00 0.  1.
</event>
<event>
 5   0  0.1520986E-07  0.3789841E+04  0.7818609E-02  0.8048339E-01
       -2   -1    0    0    0  501  0.00000000000E+00  0.00000000000E+00  0.13959020929E+04  0.13959020929E+04  0.25500000920E-02 0. -1.
        2   -1    0    0  501    0  0.00000000000E+00  0.00000000000E+00 -0.25723318966E+04  0.25723318966E+04  0.25500000920E-02 0.  1.
    10030    2    1    2    0    0  0.00000000000E+00  0.00000000000E+00 -0.11764298037E+04  0.39682339895E+04  0.37898408822E+04 0.  0.
        4    1    3    3  502    0  0.13668875147E+04  0.11073795312E+03 -0.19574694492E+04  0.23900486668E+04  0.12699999809E+01 0.  1.
       -4    1    3    3    0  502 -0.13668875147E+04 -0.11073795312E+03  0.78103964547E+03  0.15781853227E+04  0.12699999809E+01 0. -1.
</event>
<event>
 5   0  0.1501585E-07  0.3910779E+04  0.7818609E-02  0.8022791E-01
        2   -1    0    0  501    0  0.00000000000E+00  0.00000000000E+00  0.15659456036E+04  0.15659456036E+04  0.25500000920E-02 0.  1.
       -2   -1    0    0    0  501  0.00000000000E+00  0.00000000000E+00 -0.24416861059E+04  0.24416861059E+04  0.25500000920E-02 0. -1.
    10030    2    1    2    0    0  0.00000000000E+00  0.00000000000E+00 -0.87574050237E+03  0.40076317095E+04  0.39107787577E+04 0.  0.
        5    1    3    3  502    0 -0.46228535657E+03 -0.82934440722E+01 -0.23848572841E+04  0.24292679736E+04  0.46999998093E+01 0. -1.
       -5    1    3    3    0  502  0.46228535657E+03  0.82934440722E+01  0.15091167817E+04  0.15783637359E+04  0.46999998093E+01 0.  1.
</event>
<event>
 5   0  0.4750125E-08  0.3817817E+04  0.7818609E-02  0.8042342E-01
        1   -1    0    0  501    0  0.00000000000E+00  0.00000000000E+00  0.15157854746E+04  0.15157854746E+04  0.50400001928E-02 0. -1.
       -1   -1    0    0    0  501  0.00000000000E+00  0.00000000000E+00 -0.24039895009E+04  0.24039895009E+04  0.50400001928E-02 0.  1.
    10030    2    1    2    0    0  0.00000000000E+00  0.00000000000E+00 -0.88820402628E+03  0.39197749755E+04  0.38178173694E+04 0.  0.
        1    1    3    3  502    0  0.10124435149E+04 -0.62718001901E+03 -0.19757651883E+04  0.23069557270E+04  0.50400001928E-02 0.  1.
       -1    1    3    3    0  502 -0.10124435149E+04  0.62718001901E+03  0.10875611620E+04  0.16128192485E+04  0.50400001928E-02 0. -1.
</event>
<event>
 5   0  0.4750125E-08  0.3922492E+04  0.7818609E-02  0.8020367E-01
        1   -1    0    0  501    0  0.00000000000E+00  0.00000000000E+00  0.12749965500E+04  0.12749965500E+04  0.50400001928E-02 0. -1.
       -1   -1    0    0    0  501  0.00000000000E+00  0.00000000000E+00 -0.30168601075E+04  0.30168601075E+04  0.50400001928E-02 0.  1.
    10030    2    1    2    0    0  0.00000000000E+00  0.00000000000E+00 -0.17418635575E+04  0.42918566575E+04  0.39224921817E+04 0.  0.
        3    1    3    3  502    0  0.67476217566E+03  0.74801993467E+03 -0.27121394923E+04  0.28931882850E+04  0.10100000352E+00 0.  1.
       -3    1    3    3    0  502 -0.67476217566E+03 -0.74801993467E+03  0.97027593478E+03  0.13986683725E+04  0.10100000352E+00 0. -1.
</event>
<event>
 5   0  0.4750125E-08  0.3897287E+04  0.7818609E-02  0.8025594E-01
       -1   -1    0    0    0  501  0.00000000000E+00  0.00000000000E+00  0.16963929501E+04  0.16963929501E+04  0.50400001928E-02 0.  1.
        1   -1    0    0  501    0  0.00000000000E+00  0.00000000000E+00 -0.22384026932E+04  0.22384026932E+04  0.50400001928E-02 0. -1.
    10030    2    1    2    0    0  0.00000000000E+00  0.00000000000E+00 -0.54200974310E+03  0.39347956432E+04  0.38972865166E+04 0.  0.
        4    1    3    3  502    0  0.11125560083E+04 -0.47088194621E+03  0.12726637396E+04  0.17547607489E+04  0.12699999809E+01 0.  1.
       -4    1    3    3    0  502 -0.11125560083E+04  0.47088194621E+03 -0.18146734827E+04  0.21800348943E+04  0.12699999809E+01 0. -1.
</event>
<event>
 5   0  0.4750125E-08  0.3665257E+04  0.7818609E-02  0.8075705E-01
       -1   -1    0    0    0  501  0.00000000000E+00  0.00000000000E+00  0.24041917825E+04  0.24041917825E+04  0.50400001928E-02 0.  1.
        1   -1    0    0  501    0  0.00000000000E+00  0.00000000000E+00 -0.13969463260E+04  0.13969463260E+04  0.50400001928E-02 0. -1.
    10030    2    1    2    0    0  0.00000000000E+00  0.00000000000E+00  0.10072454565E+04  0.38011381085E+04  0.36652568136E+04 0.  0.
        5    1    3    3  502    0 -0.17021129089E+03  0.24152583213E+03 -0.13720742003E+04  0.14035370719E+04  0.46999998093E+01 0. -1.
       -5    1    3    3    0  502  0.17021129089E+03 -0.24152583213E+03  0.23793196568E+04  0.23976010365E+04  0.46999998093E+01 0.  1.
</event>
<event>
 5   0  0.1503228E-07  0.3881096E+04  0.7818609E-02  0.8028972E-01
        2   -1    0    0  501    0  0.00000000000E+00  0.00000000000E+00  0.22217253964E+04  0.22217253964E+04  0.25500000920E-02 0.  1.
       -2   -1    0    0    0  501  0.00000000000E+00  0.00000000000E+00 -0.16949559404E+04  0.16949559404E+04  0.25500000920E-02 0. -1.
    10030    2    1    2    0    0  0.00000000000E+00  0.00000000000E+00  0.52676945600E+03  0.39166813369E+04  0.38810960610E+04 0.  0.
        3    1    3    3  502    0 -0.15936090678E+04 -0.10345033445E+04 -0.13512789206E+03  0.19047431817E+04  0.10100000352E+00 0. -1.
       -3    1    3    3    0  502  0.15936090678E+04  0.10345033445E+04  0.66189734806E+03  0.20119381552E+04  0.10100000352E+00 0.  1.
</event>
<event>
 5   0  0.4762788E-08  0.4027250E+04  0.7818609E-02  0.7999072E-01
       -1   -1    0    0    0  501  0.00000000000E+00  0.00000000000E+00  0.23721969632E+04  0.23721969632E+04  0.50400001928E-02 0. -1.
        1   -1    0    0  501    0  0.00000000000E+00  0.00000000000E+00 -0.17092534291E+04  0.17092534291E+04  0.50400001928E-02 0.  1.
    10030    2    1    2    0    0  0.00000000000E+00  0.00000000000E+00  0.66294353406E+03  0.40814503923E+04  0.40272500761E+04 0.  0.
        2    1    3    3  502    0  0.11970278748E+04  0.99137592448E+02  0.19693853973E+04  0.23067689174E+04  0.25500000920E-02 0. -1.
       -2    1    3    3    0  502 -0.11970278748E+04 -0.99137592448E+02 -0.13064418633E+04  0.17746814749E+04  0.25500000920E-02 0.  1.
</event>
<event>
 5   0  0.4750125E-08  0.3928650E+04  0.7818609E-02  0.8019097E-01
       -1   -1    0    0    0  501  0.00000000000E+00  0.00000000000E+00  0.21492924590E+04  0.21492924590E+04  0.50400001928E-02 0.  1.
        1   -1    0    0  501    0  0.00000000000E+00  0.00000000000E+00 -0.17952754658E+04  0.17952754658E+04  0.50400001928E-02 0. -1.
    10030    2    1    2    0    0  0.00000000000E+00  0.00000000000E+00  0.35401699323E+03  0.39445679248E+04  0.39286496512E+04 0.  0.
        4    1    3    3  502    0 -0.13108423210E+04 -0.13251398216E+04 -0.44539616308E+03  0.19164244030E+04  0.12699999809E+01 0. -1.
       -4    1    3    3    0  502  0.13108423210E+04  0.13251398216E+04  0.79941315631E+03  0.20281435218E+04  0.12699999809E+01 0.  1.
</event>
<event>
 5   0  0.4750125E-08  0.3948370E+04  0.7818609E-02  0.8015044E-01
        1   -1    0    0  501    0  0.00000000000E+00  0.00000000000E+00  0.30144448048E+04  0.30144448048E+04  0.50400001928E-02 0.  1.
       -1   -1    0    0    0  501  0.00000000000E+00  0.00000000000E+00 -0.12929101211E+04  0.12929101211E+04  0.50400001928E-02 0. -1.
    10030    2    1    2    0    0  0.00000000000E+00  0.00000000000E+00  0.17215346837E+04  0.43073549258E+04  0.39483698902E+04 0.  0.
        3    1    3    3  502    0 -0.12614634262E+04 -0.57154899704E+03 -0.67407888723E+03  0.15402404319E+04  0.10100000352E+00 0. -1.
       -3    1    3    3    0  502  0.12614634262E+04  0.57154899704E+03  0.23956135709E+04  0.27671144940E+04  0.10100000352E+00 0.  1.
</event>
<event>
 5   0  0.4750125E-08  0.3902085E+04  0.7818609E-02  0.8024596E-01
        1   -1    0    0  501    0  0.00000000000E+00  0.00000000000E+00  0.13508426116E+04  0.13508426116E+04  0.50400001928E-02 0.  1.
       -1   -1    0    0    0  501  0.00000000000E+00  0.00000000000E+00 -0.28179208284E+04  0.28179208284E+04  0.50400001928E-02 0. -1.
    10030    2    1    2    0    0  0.00000000000E+00  0.00000000000E+00 -0.14670782167E+04  0.41687634400E+04  0.39020853559E+04 0.  0.
        4    1    3    3  502    0 -0.18179649574E+04 -0.67499322220E+03 -0.96255715050E+03  0.21649781332E+04  0.12699999809E+01 0. -1.
       -4    1    3    3    0  502  0.18179649574E+04  0.67499322220E+03 -0.50452106624E+03  0.20037853068E+04  0.12699999809E+01 0.  1.
</event>
<event>
 5   0  0.1546846E-07  0.3917402E+04  0.7818609E-02  0.8021420E-01
       -2   -1    0    0    0  501  0.00000000000E+00  0.00000000000E+00  0.20571727533E+04  0.20571727533E+04  0.25500000920E-02 0.  1.
        2   -1    0    0  501    0  0.00000000000E+00  0.00000000000E+00 -0.18649430785E+04  0.18649430785E+04  0.25500000920E-02 0. -1.
    10030    2    1    2    0    0  0.00000000000E+00  0.00000000000E+00  0.19222967478E+03  0.39221158318E+04  0.39174022451E+04 0.  0.
        2    1    3    3  502    0 -0.55197926477E+03 -0.26171094806E+03 -0.17671285291E+04  0.18697371386E+04  0.25500000920E-02 0. -1.
       -2    1    3    3    0  502  0.55197926477E+03  0.26171094806E+03  0.19593582039E+04  0.20523786932E+04  0.25500000920E-02 0.  1.
</event>
<event>
 5   0  0.1501585E-07  0.3854500E+04  0.7818609E-02  0.8034559E-01
       -2   -1    0    0    0  501  0.00000000000E+00  0.00000000000E+00  0.13107864192E+04  0.13107864192E+04  0.25500000920E-02 0. -1.
        2   -1    0    0  501    0  0.00000000000E+00  0.00000000000E+00 -0.28336363625E+04  0.28336363625E+04  0.25500000920E-02 0.  1.
    10030    2    1    2    0    0  0.00000000000E+00  0.00000000000E+00 -0.15228499433E+04  0.41444227817E+04  0.38544997398E+04 0.  0.
        5    1    3    3  502    0  0.10300880196E+04 -0.16008833203E+04 -0.10846367042E+04  0.21909741220E+04  0.46999998093E+01 0.  1.
       -5    1    3    3    0  502 -0.10300880196E+04  0.16008833203E+04 -0.43821323909E+03  0.19534486597E+04  0.46999998093E+01 0. -1.
</event>
<event>
 5   0  0.1503228E-07  0.4013234E+04  0.7818609E-02  0.8001882E-01
        2   -1    0    0  501    0  0.00000000000E+00  0.00000000000E+00  0.28345566368E+04  0.28345566368E+04  0.25500000920E-02 0.  1.
       -2   -1    0    0    0  501  0.00000000000E+00  0.00000000000E+00 -0.14205087636E+04  0.14205087636E+04  0.25500000920E-02 0. -1.
    10030    2    1    2    0    0  0.00000000000E+00  0.00000000000E+00  0.14140478732E+04  0.42550654004E+04  0.40132343782E+04 0.  0.
        3    1    3    3  502    0  0.92999365930E+03 -0.17724988809E+04  0.85648669290E+03  0.21772023228E+04  0.10100000352E+00 0.  1.
       -3    1    3    3    0  502 -0.92999365930E+03  0.17724988809E+04  0.55756118029E+03  0.20778630776E+04  0.10100000352E+00 0. -1.
</event>
<event>
 5   0  0.1501585E-07  0.3927542E+04  0.7818609E-02  0.8019325E-01
        2   -1    0    0  501    0  0.00000000000E+00  0.00000000000E+00  0.22423417425E+04  0.22423417425E+04  0.25500000920E-02 0. -1.
       -2   -1    0    0    0  501  0.00000000000E+00  0.00000000000E+00 -0.17198078603E+04  0.17198078603E+04  0.25500000920E-02 0.  1.
    10030    2    1    2    0    0  0.00000000000E+00  0.00000000000E+00  0.52253388222E+03  0.39621496028E+04  0.39275422107E+04 0.  0.
        5    1    3    3  502    0 -0.67355834241E+03  0.72849416269E+03 -0.14483605435E+04  0.17556067156E+04  0.46999998093E+01 0.  1.
       -5    1    3    3    0  502  0.67355834241E+03 -0.72849416269E+03  0.19708944257E+04  0.22065428872E+04  0.46999998093E+01 0. -1.
</event>
<event>
 5   0  0.4750125E-08  0.3887215E+04  0.7818609E-02  0.8027693E-01
       -1   -1    0    0    0  501  0.00000000000E+00  0.00000000000E+00  0.19343772045E+04  0.19343772045E+04  0.50400001928E-02 0.  1.
        1   -1    0    0  501    0  0.00000000000E+00  0.00000000000E+00 -0.19528821309E+04  0.19528821309E+04  0.50400001928E-02 0. -1.
    10030    2    1    2    0    0  0.00000000000E+00  0.00000000000E+00 -0.18504926401E+02  0.38872593354E+04  0.38872152897E+04 0.  0.
        4    1    3    3  502    0 -0.17123014046E+04 -0.58360285935E+03  0.70141772175E+03  0.19402465902E+04  0.12699999809E+01 0.  1.
       -4    1    3    3    0  502  0.17123014046E+04  0.58360285935E+03 -0.71992264815E+03  0.19470127452E+04  0.12699999809E+01 0. -1.
</event>
<event>
 5   0  0.4750125E-08  0.3912951E+04  0.7818609E-02  0.8022341E-01
       -1   -1    0    0    0  501  0.00000000000E+00  0.00000000000E+00  0.12683448173E+04  0.12683448173E+04  0.50400001928E-02 0.  1.
        1   -1    0    0  501    0  0.00000000000E+00  0.00000000000E+00 -0.30179455806E+04  0.30179455806E+04  0.50400001928E-02 0. -1.
    10030    2    1    2    0    0  0.00000000000E+00  0.00000000000E+00 -0.17496007633E+04  0.42862903979E+04  0.39129506186E+04 0.  0.
        5    1    3    3  502    0  0.29737700254E+02 -0.16472381318E+04 -0.20307036894E+04  0.26149679458E+04  0.46999998093E+01 0. -1.
       -5    1    3    3    0  502 -0.29737700254E+02  0.16472381318E+04  0.28110292607E+03  0.16713224520E+04  0.46999998093E+01 0.  1.
</event>
<event>
 5   0  0.4750125E-08  0.3878252E+04  0.7818609E-02  0.8029568E-01
       -1   -1    0    0    0  501  0.00000000000E+00  0.00000000000E+00  0.14793340940E+04  0.14793340940E+04  0.50400001928E-02 0.  1.
        1   -1    0    0  501    0  0.00000000000E+00  0.00000000000E+00 -0.25418256639E+04  0.25418256639E+04  0.50400001928E-02 0. -1.
    10030    2    1    2    0    0  0.00000000000E+00  0.00000000000E+00 -0.10624915700E+04  0.40211597579E+04  0.38782518565E+04 0.  0.
        3    1    3    3  502    0 -0.40782442986E+03 -0.20218794171E+03 -0.24856457651E+04  0.25269815213E+04  0.10100000352E+00 0. -1.
       -3    1    3    3    0  502  0.40782442986E+03  0.20218794171E+03  0.14231541951E+04  0.14941782366E+04  0.10100000352E+00 0.  1.
</event>
<event>
 5   0  0.4750125E-08  0.3900602E+04  0.7818609E-02  0.8024904E-01
       -1   -1    0    0    0  501  0.00000000000E+00  0.00000000000E+00  0.24174636028E+04  0.24174636028E+04  0.50400001928E-02 0. -1.
        1   -1    0    0  501    0  0.00000000000E+00  0.00000000000E+00 -0.15734150860E+04  0.15734150861E+04  0.50400001928E-02 0.  1.
    10030    2    1    2    0    0  0.00000000000E+00  0.00000000000E+00  0.84404851675E+03  0.39908786889E+04  0.39006018523E+04 0.  0.
        5    1    3    3  502    0  0.61779059596E+02  0.11693524222E+04  0.20177522145E+04  0.23329268803E+04  0.46999998093E+01 0. -1.
       -5    1    3    3    0  502 -0.61779059596E+02 -0.11693524222E+04 -0.11737036978E+04  0.16579518086E+04  0.46999998093E+01 0.  1.
</event>
<event>
 5   0  0.1546846E-07  0.3896107E+04  0.7818609E-02  0.8025839E-01
       -2   -1    0    0    0  501  0.00000000000E+00  0.00000000000E+00  0.18218225830E+04  0.18218225830E+04  0.25500000920E-02 0.  1.
        2   -1    0    0  501    0  0.00000000000E+00  0.00000000000E+00 -0.20830311535E+04  0.20830311535E+04  0.25500000920E-02 0. -1.
    10030    2    1    2    0    0  0.00000000000E+00  0.00000000000E+00 -0.26120857055E+03  0.39048537365E+04  0.38961073890E+04 0.  0.
        2    1    3    3  502    0  0.12454307557E+04  0.79953917092E+03  0.11389486794E+04  0.18675022751E+04  0.25500000920E-02 0.  1.
       -2    1    3    3    0  502 -0.12454307557E+04 -0.79953917092E+03 -0.14001572500E+04  0.20373514615E+04  0.25500000920E-02 0. -1.
</event>
<event>
 5   0  0.1503228E-07  0.3642377E+04  0.7818609E-02  0.8080853E-01
       -2   -1    0    0    0  501  0.00000000000E+00  0.00000000000E+00  0.15146442271E+04  0.15146442271E+04  0.25500000920E-02 0.  1.
        2   -1    0    0  501    0  0.00000000000E+00  0.00000000000E+00 -0.21897727673E+04  0.21897727673E+04  0.25500000920E-02 0. -1.
    10030    2    1    2    0    0  0.00000000000E+00  0.00000000000E+00 -0.67512854014E+03  0.37044169944E+04  0.36423765212E+04 0.  0.
        3    1    3    3  502    0  0.93411994253E+03  0.13120570387E+04 -0.12021337772E+04  0.20097759498E+04  0.10100000352E+00 0. -1.
       -3    1    3    3    0  502 -0.93411994253E+03 -0.13120570387E+04  0.52700523710E+03  0.16946410446E+04  0.10100000352E+00 0.  1.
</event>
<event>
 5   0  0.1503228E-07  0.3891334E+04  0.7818609E-02  0.8026834E-01
       -2   -1    0    0    0  501  0.00000000000E+00  0.00000000000E+00  0.20050435919E+04  0.20050435919E+04  0.25500000920E-02 0.  1.
        2   -1    0    0  501    0  0.00000000000E+00  0.00000000000E+00 -0.18880484045E+04  0.18880484045E+04  0.25500000920E-02 0. -1.
    10030    2    1    2    0    0  0.00000000000E+00  0.00000000000E+00  0.11699518740E+03  0.38930919963E+04  0.38913336297E+04 0.  0.
        3    1    3    3  502    0  0.16363147634E+04 -0.52604994890E+03  0.97070167914E+03  0.19739595522E+04  0.10100000352E+00 0.  1.
       -3    1    3    3    0  502 -0.16363147634E+04  0.52604994890E+03 -0.85370649174E+03  0.19191324441E+04  0.10100000352E+00 0. -1.
</event>
<event>
 5   0  0.4762788E-08  0.3790424E+04  0.7818609E-02  0.8048213E-01
       -1   -1    0    0    0  501  0.00000000000E+00  0.00000000000E+00  0.19724239574E+04  0.19724239574E+04  0.50400001928E-02 0.  1.
        1   -1    0    0  501    0  0.00000000000E+00  0.00000000000E+00 -0.18210223730E+04  0.18210223730E+04  0.50400001928E-02 0. -1.
    10030    2    1    2    0    0  0.00000000000E+00  0.00000000000E+00  0.15140158444E+03  0.37934463304E+04  0.37904238050E+04 0.  0.
        2    1    3    3  502    0 -0.70360081744E+03 -0.56126068694E+03 -0.15934902297E+04  0.18301034892E+04  0.25500000920E-02 0. -1.
       -2    1    3    3    0  502  0.70360081744E+03  0.56126068694E+03  0.17448918141E+04  0.19633428412E+04  0.25500000920E-02 0.  1.
</event>
<event>
 5   0  0.1520986E-07  0.3895825E+04  0.7818609E-02  0.8025898E-01
       -2   -1    0    0    0  501  0.00000000000E+00  0.00000000000E+00  0.17567203311E+04  0.17567203311E+04  0.25500000920E-02 0.  1.
        2   -1    0    0  501    0  0.00000000000E+00  0.00000000000E+00 -0.21599132950E+04  0.21599132950E+04  0.25500000920E-02 0. -1.
    10030    2    1    2    0    0  0.00000000000E+00  0.00000000000E+00 -0.40319296392E+03  0.39166336261E+04  0.38958252521E+04 0.  0.
        4    1    3    3  502    0  0.53583761196E+03 -0.48262795374E+03 -0.20207669489E+04  0.21455890479E+04  0.12699999809E+01 0. -1.
       -4    1    3    3    0  502 -0.53583761196E+03  0.48262795374E+03  0.16175739849E+04  0.17710445781E+04  0.12699999809E+01 0.  1.
</event>
<event>
 5   0  0.1503228E-07  0.4047185E+04  0.7818609E-02  0.7995095E-01
        2   -1    0    0  501    0  0.00000000000E+00  0.00000000000E+00  0.15221191128E+04  0.15221191128E+04  0.25500000920E-02 0. -1.
       -2   -1    0    0    0  501  0.00000000000E+00  0.00000000000E+00 -0.26902795596E+04  0.26902795596E+04  0.25500000920E-02 0.  1.
    10030    2    1    2    0    0  0.00000000000E+00  0.00000000000E+00 -0.11681604469E+04  0.42123986724E+04  0.40471846691E+04 0.  0.
        3    1    3    3  502    0 -0.63603812857E+03 -0.48593321678E+02 -0.25828974627E+04  0.26605009161E+04  0.10100000352E+00 0.  1.
       -3    1    3    3    0  502  0.63603812857E+03  0.48593321678E+02  0.14147370158E+04  0.15518977563E+04  0.10100000352E+00 0. -1.
</event>
<event>
 5   0  0.1503228E-07  0.3812743E+04  0.7818609E-02  0.8043426E-01
        2   -1    0    0  501    0  0.00000000000E+00  0.00000000000E+00  0.19660528176E+04  0.19660528176E+04  0.25500000920E-02 0. -1.
       -2   -1    0    0    0  501  0.00000000000E+00  0.00000000000E+00 -0.18485017544E+04  0.18485017544E+04  0.25500000920E-02 0.  1.
    10030    2    1    2    0    0  0.00000000000E+00  0.00000000000E+00  0.11755106319E+03  0.38145545720E+04  0.38127428881E+04 0.  0.
        3    1    3    3  502    0  0.36786859248E+03 -0.75953052435E+03 -0.16514337296E+04  0.18545746931E+04  0.10100000352E+00 0.  1.
       -3    1    3    3    0  502 -0.36786859248E+03  0.75953052435E+03  0.17689847928E+04  0.19599798790E+04  0.10100000352E+00 0. -1.
</event>
<event>
 5   0  0.1503228E-07  0.3954480E+04  0.7818609E-02  0.8013793E-01
        2   -1    0    0  501    0  0.00000000000E+00  0.00000000000E+00  0.25845201769E+04  0.25845201769E+04  0.25500000920E-02 0. -1.
       -2   -1    0    0    0  501  0.00000000000E+00  0.00000000000E+00 -0.15126513445E+04  0.15126513445E+04  0.25500000920E-02 0.  1.
    10030    2    1    2    0    0  0.00000000000E+00  0.00000000000E+00  0.10718688324E+04  0.40971715214E+04  0.39544799509E+04 0.  0.
        3    1    3    3  502    0  0.11493112578E+04 -0.24834082707E+03 -0.11110435770E+04  0.16177167162E+04  0.10100000352E+00 0.  1.
       -3    1    3    3    0  502 -0.11493112578E+04  0.24834082707E+03  0.21829124094E+04  0.24794548052E+04  0.10100000352E+00 0. -1.
</event>
<event>
 5   0  0.1501585E-07  0.3888373E+04  0.7818609E-02  0.8027452E-01
       -2   -1    0    0    0  501  0.00000000000E+00  0.00000000000E+00  0.16672697064E+04  0.16672697064E+04  0.25500000920E-02 0. -1.
        2   -1    0    0  501    0  0.00000000000E+00  0.00000000000E+00 -0.22670965560E+04  0.22670965560E+04  0.25500000920E-02 0.  1.
    10030    2    1    2    0    0  0.00000000000E+00  0.00000000000E+00 -0.59982684954E+03  0.39343662624E+04  0.38883731351E+04 0.  0.
        5    1    3    3  502    0  0.57013752657E+01  0.17114013452E+04  0.63344669634E+03  0.18248846202E+04  0.46999998093E+01 0.  1.
       -5    1    3    3    0  502 -0.57013752657E+01 -0.17114013452E+04 -0.12332735459E+04  0.21094816422E+04  0.46999998093E+01 0. -1.
</event>
<event>
 5   0  0.4750125E-08  0.3822643E+04  0.7818609E-02  0.8041313E-01
       -1   -1    0    0    0  501  0.00000000000E+00  0.00000000000E+00  0.19652276452E+04  0.19652276452E+04  0.50400001928E-02 0.  1.
        1   -1    0    0  501    0  0.00000000000E+00  0.00000000000E+00 -0.18588936999E+04  0.18588936999E+04  0.50400001928E-02 0. -1.
    10030    2    1    2    0    0  0.00000000000E+00  0.00000000000E+00  0.10633394537E+03  0.38241213451E+04  0.38226426925E+04 0.  0.
        5    1    3    3  502    0 -0.32129660315E+03 -0.18464539906E+04 -0.32181578730E+03  0.19016338600E+04  0.46999998093E+01 0. -1.
       -5    1    3    3    0  502  0.32129660315E+03  0.18464539906E+04  0.42814973268E+03  0.19224874851E+04  0.46999998093E+01 0.  1.
</event>
<event>
 5   0  0.4762788E-08  0.3891239E+04  0.7818609E-02  0.8026854E-01
        1   -1    0    0  501    0  0.00000000000E+00  0.00000000000E+00  0.18408588305E+04  0.18408588305E+04  0.50400001928E-02 0.  1.
       -1   -1    0    0    0  501  0.00000000000E+00  0.00000000000E+00 -0.20563418364E+04  0.20563418364E+04  0.50400001928E-02 0. -1.
    10030    2    1    2    0    0  0.00000000000E+00  0.00000000000E+00 -0.21548300590E+03  0.38972006670E+04  0.38912388918E+04 0.  0.
        2    1    3    3  502    0  0.14313634096E+04  0.67616474183E+03 -0.12405956477E+04  0.20112378103E+04  0.25500000920E-02 0. -1.
       -2    1    3    3    0  502 -0.14313634096E+04 -0.67616474183E+03  0.10251126418E+04  0.18859628567E+04  0.25500000920E-02 0.  1.
</event>
<event>
 5   0  0.4750125E-08  0.3903537E+04  0.7818609E-02  0.8024294E-01
       -1   -1    0    0    0  501  0.00000000000E+00  0.00000000000E+00  0.22626489598E+04  0.22626489598E+04  0.50400001928E-02 0. -1.
        1   -1    0    0  501    0  0.00000000000E+00  0.00000000000E+00 -0.16836022437E+04  0.16836022437E+04  0.50400001928E-02 0.  1.
    10030    2    1    2    0    0  0.00000000000E+00  0.00000000000E+00  0.57904671606E+03  0.39462512035E+04  0.39035373012E+04 0.  0.
        4    1    3    3  502    0  0.29885214771E+03  0.18905946394E+04 -0.96411160713E+02  0.19164961314E+04  0.12699999809E+01 0.  1.
       -4    1    3    3    0  502 -0.29885214771E+03 -0.18905946394E+04  0.67545787677E+03  0.20297550722E+04  0.12699999809E+01 0. -1.
</event>
<event>
 5   0  0.1503228E-07  0.3572455E+04  0.7818609E-02  0.8096830E-01
        2   -1    0    0  501    0  0.00000000000E+00  0.00000000000E+00  0.18342151290E+04  0.18342151290E+04  0.25500000920E-02 0. -1.
       -2   -1    0    0    0  501  0.00000000000E+00  0.00000000000E+00 -0.17394953242E+04  0.17394953243E+04  0.25500000920E-02 0.  1.
    10030    2    1    2    0    0  0.00000000000E+00  0.00000000000E+00  0.94719804780E+02  0.35737104533E+04  0.35724549770E+04 0.  0.
        3    1    3    3  502    0 -0.11771594687E+03  0.15515476137E+04  0.92485206995E+03  0.18101128150E+04  0.10100000352E+00 0. -1.
       -3    1    3    3    0  502  0.11771594687E+03 -0.15515476137E+04 -0.83013226517E+03  0.17635976382E+04  0.10100000352E+00 0.  1.
</event>
<event>
 5   0  0.1503228E-07  0.3895083E+04  0.7818609E-02  0.8026053E-01
       -2   -1    0    0    0  501  0.00000000000E+00  0.00000000000E+00  0.16543221783E+04  0.16543221783E+04  0.25500000920E-02 0.  1.
        2   -1    0    0  501    0  0.00000000000E+00  0.00000000000E+00 -0.22927322707E+04  0.22927322707E+04  0.25500000920E-02 0. -1.
    10030    2    1    2    0    0  0.00000000000E+00  0.00000000000E+00 -0.63841009237E+03  0.39470544490E+04  0.38950829744E+04 0.  0.
        3    1    3    3  502    0 -0.10987945025E+04 -0.94351570576E+03 -0.16386329126E+04  0.21869360024E+04  0.10100000352E+00 0. -1.
       -3    1    3    3    0  502  0.10987945025E+04  0.94351570576E+03  0.10002228203E+04  0.17601184466E+04  0.10100000352E+00 0.  1.
</event>
<event>
 5   0  0.1538018E-07  0.3897013E+04  0.7818609E-02  0.8025651E-01
        2   -1    0    0  501    0  0.00000000000E+00  0.00000000000E+00  0.19650716351E+04  0.19650716351E+04  0.25500000920E-02 0.  1.
       -2   -1    0    0    0  501  0.00000000000E+00  0.00000000000E+00 -0.19320807955E+04  0.19320807955E+04  0.25500000920E-02 0. -1.
    10030    2    1    2    0    0  0.00000000000E+00  0.00000000000E+00  0.32990839626E+02  0.38971524306E+04  0.38970127882E+04 0.  0.
        1    1    3    3  502    0  0.69418504466E+03 -0.17792120698E+04  0.40275879421E+03  0.19518460779E+04  0.50400001928E-02 0.  1.
       -1    1    3    3    0  502 -0.69418504466E+03  0.17792120698E+04 -0.36976795459E+03  0.19453063527E+04  0.50400001928E-02 0. -1.
</event>
<event>
 5   0  0.4750125E-08  0.3916370E+04  0.7818609E-02  0.8021633E-01
        1   -1    0    0  501    0  0.00000000000E+00  0.00000000000E+00  0.23137629264E+04  0.23137629264E+04  0.50400001928E-02 0.  1.
       -1   -1    0    0    0  501  0.00000000000E+00  0.00000000000E+00 -0.16572520592E+04  0.16572520592E+04  0.50400001928E-02 0. -1.
    10030    2    1    2    0    0  0.00000000000E+00  0.00000000000E+00  0.65651086727E+03  0.39710149856E+04  0.39163699388E+04 0.  0.
        1    1    3    3  502    0  0.14017524750E+04 -0.28559115859E+03  0.16840800843E+04  0.22096601642E+04  0.50400001928E-02 0.  1.
       -1    1    3    3    0  502 -0.14017524750E+04  0.28559115859E+03 -0.10275692170E+04  0.17613548214E+04  0.50400001928E-02 0. -1.
</event>
<event>
 5   0  0.1546846E-07  0.3882376E+04  0.7818609E-02  0.8028705E-01
        2   -1    0    0  501    0  0.00000000000E+00  0.00000000000E+00  0.17932431867E+04  0.17932431867E+04  0.25500000920E-02 0. -1.
       -2   -1    0    0    0  501  0.00000000000E+00  0.00000000000E+00 -0.21013380279E+04  0.21013380279E+04  0.25500000920E-02 0.  1.
    10030    2    1    2    0    0  0.00000000000E+00  0.00000000000E+00 -0.30809484119E+03  0.38945812146E+04  0.38823756137E+04 0.  0.
        2    1    3    3  502    0 -0.91565527065E+03  0.13105878878E+04 -0.12584832475E+04  0.20346609719E+04  0.25500000920E-02 0.  1.
       -2    1    3    3    0  502  0.91565527065E+03 -0.13105878878E+04  0.95038840632E+03  0.18599202427E+04  0.25500000920E-02 0. -1.
</event>
<event>
 5   0  0.1503228E-07  0.3913514E+04  0.7818609E-02  0.8022224E-01
       -2   -1    0    0    0  501  0.00000000000E+00  0.00000000000E+00  0.29436571165E+04  0.29436571165E+04  0.25500000920E-02 0.  1.
        2   -1    0    0  501    0  0.00000000000E+00  0.00000000000E+00 -0.13007279748E+04  0.13007279748E+04  0.25500000920E-02 0. -1.
    10030    2    1    2    0    0  0.00000000000E+00  0.00000000000E+00  0.16429291417E+04  0.42443850913E+04  0.39135135926E+04 0.  0.
        3    1    3    3  502    0 -0.11806528665E+04 -0.59910604086E+03  0.23841246869E+04  0.27270716478E+04  0.10100000352E+00 0.  1.
       -3    1    3    3    0  502  0.11806528665E+04  0.59910604086E+03 -0.74119554525E+03  0.15173134435E+04  0.10100000352E+00 0. -1.
</event>
<event>
 5   0  0.4750125E-08  0.3933102E+04  0.7818609E-02  0.8018180E-01
       -1   -1    0    0    0  501  0.00000000000E+00  0.00000000000E+00  0.18288564153E+04  0.18288564153E+04  0.50400001928E-02 0.  1.
        1   -1    0    0  501    0  0.00000000000E+00  0.00000000000E+00 -0.21146124076E+04  0.21146124076E+04  0.50400001928E-02 0. -1.
    10030    2    1    2    0    0  0.00000000000E+00  0.00000000000E+00 -0.28575599235E+03  0.39434688229E+04  0.39331018129E+04 0.  0.
        1    1    3    3  502    0  0.11490560117E+03  0.13705254504E+04  0.12664511157E+04  0.18696100491E+04  0.50400001928E-02 0.  1.
       -1    1    3    3    0  502 -0.11490560117E+03 -0.13705254504E+04 -0.15522071081E+04  0.20738587738E+04  0.50400001928E-02 0. -1.
</event>
<event>
 5   0  0.1520986E-07  0.3942292E+04  0.7818609E-02  0.8016290E-01
       -2   -1    0    0    0  501  0.00000000000E+00  0.00000000000E+00  0.19259844193E+04  0.19259844193E+04  0.25500000920E-02 0.  1.
        2   -1    0    0  501    0  0.00000000000E+00  0.00000000000E+00 -0.20173667075E+04  0.20173667075E+04  0.25500000920E-02 0. -1.
    10030    2    1    2    0    0  0.00000000000E+00  0.00000000000E+00 -0.91382288209E+02  0.39433511267E+04  0.39422921487E+04 0.  0.
        4    1    3    3  502    0  0.83343698948E+03 -0.87941531943E+02  0.17389025361E+04  0.19303198107E+04  0.12699999809E+01 0.  1.
       -4    1    3    3    0  502 -0.83343698948E+03  0.87941531943E+02 -0.18302848243E+04  0.20130313161E+04  0.12699999809E+01 0. -1.
</event>
<event>
 5   0  0.1501585E-07  0.3898378E+04  0.7818609E-02  0.8025367E-01
        2   -1    0    0  501    0  0.00000000000E+00  0.00000000000E+00  0.26190940527E+04  0.26190940527E+04  0.25500000920E-02 0. -1.
       -2   -1    0    0    0  501  0.00000000000E+00  0.00000000000E+00 -0.14506304904E+04  0.14506304904E+04  0.25500000920E-02 0.  1.
    10030    2    1    2    0    0  0.00000000000E+00  0.00000000000E+00  0.11684635623E+04  0.40697245431E+04  0.38983779654E+04 0.  0.
        5    1    3    3  502    0 -0.20929266463E+03 -0.67146331357E+03  0.24820025535E+04  0.25797335457E+04  0.46999998093E+01 0. -1.
       -5    1    3    3    0  502  0.20929266463E+03  0.67146331357E+03 -0.13135389913E+04  0.14899909975E+04  0.46999998093E+01 0.  1.
</event>
<event>
 5   0  0.1520986E-07  0.3918484E+04  0.7818609E-02  0.8021196E-01
        2   -1    0    0  501    0  0.00000000000E+00  0.00000000000E+00  0.22122962037E+04  0.22122962037E+04  0.25500000920E-02 0. -1.
       -2   -1    0    0    0  501  0.00000000000E+00  0.00000000000E+00 -0.17351331666E+04  0.17351331666E+04  0.25500000920E-02 0.  1.
    10030    2    1    2    0    0  0.00000000000E+00  0.00000000000E+00  0.47716303710E+03  0.39474293703E+04  0.39184836442E+04 0.  0.
        4    1    3    3  502    0  0.17226508184E+04  0.90058307483E+03  0.48544515945E+03  0.20035554229E+04  0.12699999809E+01 0.  1.
       -4    1    3    3    0  502 -0.17226508184E+04 -0.90058307483E+03 -0.82821223479E+01  0.19438739474E+04  0.12699999809E+01 0. -1.
</event>
<event>
 5   0  0.1503228E-07  0.3877006E+04  0.7818609E-02  0.8029829E-01
       -2   -1    0    0    0  501  0.00000000000E+00  0.00000000000E+00  0.12336625508E+04  0.12336625508E+04  0.25500000920E-02 0.  1.
        2   -1    0    0  501    0  0.00000000000E+00  0.00000000000E+00 -0.30460464516E+04  0.30460464517E+04  0.25500000920E-02 0. -1.
    10030    2    1    2    0    0  0.00000000000E+00  0.00000000000E+00 -0.18123839009E+04  0.42797090024E+04  0.38770057701E+04 0.  0.
        3    1    3    3  502    0 -0.64784665834E+03  0.43788380349E+03 -0.28642295465E+04  0.29690500878E+04  0.10100000352E+00 0. -1.
       -3    1    3    3    0  502  0.64784665834E+03 -0.43788380349E+03  0.10518456457E+04  0.13106589147E+04  0.10100000352E+00 0.  1.
</event>
<event>
 5   0  0.1503228E-07  0.3917366E+04  0.7818609E-02  0.8021427E-01
        2   -1    0    0  501    0  0.00000000000E+00  0.00000000000E+00  0.29300838971E+04  0.29300838971E+04  0.25500000920E-02 0. -1.
       -2   -1    0    0    0  501  0.00000000000E+00  0.00000000000E+00 -0.13093271321E+04  0.13093271321E+04  0.25500000920E-02 0.  1.
    10030    2    1    2    0    0  0.00000000000E+00  0.00000000000E+00  0.16207567650E+04  0.42394110293E+04  0.39173656178E+04 0.  0.
        3    1    3    3  502    0  0.12901254335E+04  0.60494041186E+03  0.22647578060E+04  0.26757250356E+04  0.10100000352E+00 0. -1.
       -3    1    3    3    0  502 -0.12901254335E+04 -0.60494041186E+03 -0.64400104098E+03  0.15636859937E+04  0.10100000352E+00 0.  1.
</event>
<event>
 5   0  0.1520986E-07  0.3873820E+04  0.7818609E-02  0.8030496E-01
       -2   -1    0    0    0  501  0.00000000000E+00  0.00000000000E+00  0.27021818750E+04  0.27021818750E+04  0.25500000920E-02 0.  1.
        2   -1    0    0  501    0  0.00000000000E+00  0.00000000000E+00 -0.13883667890E+04  0.13883667890E+04  0.25500000920E-02 0. -1.
    10030    2    1    2    0    0  0.00000000000E+00  0.00000000000E+00  0.13138150860E+04  0.40905486640E+04  0.38738195999E+04 0.  0.
        4    1    3    3  502    0 -0.10112146748E+04  0.41773708417E+03  0.23446264037E+04  0.25873411016E+04  0.12699999809E+01 0.  1.
       -4    1    3    3    0  502  0.10112146748E+04 -0.41773708417E+03 -0.10308113178E+04  0.15032075624E+04  0.12699999809E+01 0. -1.
</event>
<event>
 5   0  0.1503228E-07  0.3889722E+04  0.7818609E-02  0.8027170E-01
       -2   -1    0    0    0  501  0.00000000000E+00  0.00000000000E+00  0.14283441872E+04  0.14283441872E+04  0.25500000920E-02 0. -1.
        2   -1    0    0  501    0  0.00000000000E+00  0.00000000000E+00 -0.26481596602E+04  0.26481596602E+04  0.25500000920E-02 0.  1.
    10030    2    1    2    0    0  0.00000000000E+00  0.00000000000E+00 -0.12198154730E+04  0.40765038474E+04  0.38897215619E+04 0.  0.
        3    1    3    3  502    0 -0.31691475239E+03  0.35149441992E+03 -0.25868902913E+04  0.26298259784E+04  0.10100000352E+00 0.  1.
       -3    1    3    3    0  502  0.31691475239E+03 -0.35149441992E+03  0.13670748183E+04  0.14466778689E+04  0.10100000352E+00 0. -1.
</event>
<event>
 5   0  0.4750125E-08  0.3914146E+04  0.7818609E-02  0.8022093E-01
        1   -1    0    0  501    0  0.00000000000E+00  0.00000000000E+00  0.14862719317E+04  0.14862719317E+04  0.50400001928E-02 0. -1.
       -1   -1    0    0    0  501  0.00000000000E+00  0.00000000000E+00 -0.25770084432E+04  0.25770084432E+04  0.50400001928E-02 0.  1.
    10030    2    1    2    0    0  0.00000000000E+00  0.00000000000E+00 -0.10907365115E+04  0.40632803749E+04  0.39141463013E+04 0.  0.
        5    1    3    3  502    0 -0.43047973252E+03  0.14699892575E+03  0.14306247138E+04  0.15012097275E+04  0.46999998093E+01 0. -1.
       -5    1    3    3    0  502  0.43047973252E+03 -0.14699892575E+03 -0.25213612252E+04  0.25620706474E+04  0.46999998093E+01 0.  1.
</event>
<event>
 5   0  0.1538018E-07  0.3910838E+04  0.7818609E-02  0.8022779E-01
       -2   -1    0    0    0  501  0.00000000000E+00  0.00000000000E+00  0.24036081615E+04  0.24036081615E+04  0.25500000920E-02 0.  1.
        2   -1    0    0  501    0  0.00000000000E+00  0.00000000000E+00 -0.15908014078E+04  0.15908014078E+04  0.25500000920E-02 0. -1.
    10030    2    1    2    0    0  0.00000000000E+00  0.00000000000E+00  0.81280675371E+03  0.39944095693E+04  0.39108378883E+04 0.  0.
        1    1    3    3  502    0 -0.13071808588E+04  0.71640291712E+03 -0.88622740543E+03  0.17341724111E+04  0.50400001928E-02 0. -1.
       -1    1    3    3    0  502  0.13071808588E+04 -0.71640291712E+03  0.16990341591E+04  0.22602371582E+04  0.50400001928E-02 0.  1.
</event>
<event>
 5   0  0.4750125E-08  0.3903459E+04  0.7818609E-02  0.8024310E-01
       -1   -1    0    0    0  501  0.00000000000E+00  0.00000000000E+00  0.32929987607E+04  0.32929987608E+04  0.50400001928E-02 0.  1.
        1   -1    0    0  501    0  0.00000000000E+00  0.00000000000E+00 -0.11567716839E+04  0.11567716839E+04  0.50400001928E-02 0. -1.
    10030    2    1    2    0    0  0.00000000000E+00  0.00000000000E+00  0.21362270768E+04  0.44497704447E+04  0.39034588363E+04 0.  0.
        3    1    3    3  502    0 -0.23903967464E+03  0.16309290060E+03 -0.11321807919E+04  0.11685771759E+04  0.10100000352E+00 0. -1.
       -3    1    3    3    0  502  0.23903967464E+03 -0.16309290060E+03  0.32684078687E+04  0.32811932688E+04  0.10100000352E+00 0.  1.
</event>
<event>
 5   0  0.1520986E-07  0.3888124E+04  0.7818609E-02  0.8027504E-01
        2   -1    0    0  501    0  0.00000000000E+00  0.00000000000E+00  0.25567211455E+04  0.25567211455E+04  0.25500000920E-02 0. -1.
       -2   -1    0    0    0  501  0.00000000000E+00  0.00000000000E+00 -0.14782125176E+04  0.14782125176E+04  0.25500000920E-02 0.  1.
    10030    2    1    2    0    0  0.00000000000E+00  0.00000000000E+00  0.10785086279E+04  0.40349336631E+04  0.38881240728E+04 0.  0.
        4    1    3    3  502    0 -0.18353801548E+04  0.32899738522E+03  0.11100365600E+04  0.21700328037E+04  0.12699999809E+01 0.  1.
       -4    1    3    3    0  502  0.18353801548E+04 -0.32899738522E+03 -0.31527932114E+02  0.18649008594E+04  0.12699999809E+01 0. -1.
</event>
<event>
 5   0  0.1520986E-07  0.3878200E+04  0.7818609E-02  0.8029578E-01
       -2   -1    0    0    0  501  0.00000000000E+00  0.00000000000E+00  0.24380935262E+04  0.24380935262E+04  0.25500000920E-02 0.  1.
        2   -1    0    0  501    0  0.00000000000E+00  0.00000000000E+00 -0.15422334025E+04  0.15422334025E+04  0.25500000920E-02 0. -1.
    10030    2    1    2    0    0  0.00000000000E+00  0.00000000000E+00  0.89586012371E+03  0.39803269288E+04  0.38782002396E+04 0.  0.
        4    1    3    3  502    0 -0.18157212841E+04 -0.48677478652E+03  0.93618248371E+03  0.21000554112E+04  0.12699999809E+01 0. -1.
       -4    1    3    3    0  502  0.18157212841E+04  0.48677478652E+03 -0.40322359993E+02  0.18802715176E+04  0.12699999809E+01 0.  1.
</event>
<event>
 5   0  0.1520986E-07  0.3886550E+04  0.7818609E-02  0.8027832E-01
       -2   -1    0    0    0  501  0.00000000000E+00  0.00000000000E+00  0.22947851075E+04  0.22947851075E+04  0.25500000920E-02 0.  1.
        2   -1    0    0  501    0  0.00000000000E+00  0.00000000000E+00 -0.16456084630E+04  0.16456084630E+04  0.25500000920E-02 0. -1.
    10030    2    1    2    0    0  0.00000000000E+00  0.00000000000E+00  0.64917664446E+03  0.39403935705E+04  0.38865500350E+04 0.  0.
        4    1    3    3  502    0  0.53921110200E+02 -0.95000748639E+02  0.22916694521E+04  0.22942718058E+04  0.12699999809E+01 0.  1.
       -4    1    3    3    0  502 -0.53921110200E+02  0.95000748639E+02 -0.16424928076E+04  0.16461217647E+04  0.12699999809E+01 0. -1.
</event>
<event>
 5   0  0.1538018E-07  0.3940639E+04  0.7818609E-02  0.8016630E-01
       -2   -1    0    0    0  501  0.00000000000E+00  0.00000000000E+00  0.11908709206E+04  0.11908709206E+04  0.25500000920E-02 0. -1.
        2   -1    0    0  501    0  0.00000000000E+00  0.00000000000E+00 -0.32599331484E+04  0.32599331484E+04  0.25500000920E-02 0.  1.
    10030    2    1    2    0    0  0.00000000000E+00  0.00000000000E+00 -0.20690622278E+04  0.44508040690E+04  0.39406393336E+04 0.  0.
        1    1    3    3  502    0  0.10151040020E+04  0.86351427391E+03 -0.26736401104E+04  0.29873808723E+04  0.50400001928E-02 0.  1.
       -1    1    3    3    0  502 -0.10151040020E+04 -0.86351427391E+03  0.60457788265E+03  0.14634231966E+04  0.50400001928E-02 0. -1.
</event>
<event>
 5   0  0.4750125E-08  0.3887216E+04  0.7818609E-02  0.8027693E-01
       -1   -1    0    0    0  501  0.00000000000E+00  0.00000000000E+00  0.17332828884E+04  0.17332828884E+04  0.50400001928E-02 0.  1.
        1   -1    0    0  501    0  0.00000000000E+00  0.00000000000E+00 -0.21794548739E+04  0.21794548739E+04  0.50400001928E-02 0. -1.
    10030    2    1    2    0    0  0.00000000000E+00  0.00000000000E+00 -0.44617198549E+03  0.39127377622E+04  0.38872158874E+04 0.  0.
        1    1    3    3  502    0  0.14478064006E+04  0.85047925672E+03 -0.12083658986E+04  0.20687209779E+04  0.50400001928E-02 0. -1.
       -1    1    3    3    0  502 -0.14478064006E+04 -0.85047925672E+03  0.76219391308E+03  0.18440167843E+04  0.50400001928E-02 0.  1.
</event>
<event>
 5   0  0.4750125E-08  0.3897346E+04  0.7818609E-02  0.8025581E-01
       -1   -1    0    0    0  501  0.00000000000E+00  0.00000000000E+00  0.28475715741E+04  0.28475715741E+04  0.50400001928E-02 0. -1.
        1   -1    0    0  501    0  0.00000000000E+00  0.00000000000E+00 -0.13335313402E+04  0.13335313402E+04  0.50400001928E-02 0.  1.
    10030    2    1    2    0    0  0.00000000000E+00  0.00000000000E+00  0.15140402339E+04  0.41811029144E+04  0.38973457315E+04 0.  0.
        5    1    3    3  502    0  0.14587753628E+04 -0.81431531845E+02  0.21403379504E+04  0.25914716448E+04  0.46999998093E+01 0. -1.
       -5    1    3    3    0  502 -0.14587753628E+04  0.81431531845E+02 -0.62629771652E+03  0.15896312696E+04  0.46999998093E+01 0.  1.
</event>
<event>
 5   0  0.1520986E-07  0.3731186E+04  0.7818609E-02  0.8061085E-01
       -2   -1    0    0    0  501  0.00000000000E+00  0.00000000000E+00  0.22287744231E+04  0.22287744231E+04  0.25500000920E-02 0.  1.
        2   -1    0    0  501    0  0.00000000000E+00  0.00000000000E+00 -0.15615927865E+04  0.15615927865E+04  0.25500000920E-02 0. -1.
    10030    2    1    2    0    0  0.00000000000E+00  0.00000000000E+00  0.66718163660E+03  0.37903672096E+04  0.37311864397E+04 0.  0.
        4    1    3    3  502    0  0.53145977029E+02  0.49057198850E+03  0.21612802634E+04  0.22168940797E+04  0.12699999809E+01 0.  1.
       -4    1    3    3    0  502 -0.53145977029E+02 -0.49057198850E+03 -0.14940986268E+04  0.15734731299E+04  0.12699999809E+01 0. -1.
</event>
<event>
 5   0  0.1538018E-07  0.3900551E+04  0.7818609E-02  0.8024915E-01
       -2   -1    0    0    0  501  0.00000000000E+00  0.00000000000E+00  0.12980035800E+04  0.12980035800E+04  0.25500000920E-02 0.  1.
        2   -1    0    0  501    0  0.00000000000E+00  0.00000000000E+00 -0.29303269824E+04  0.29303269824E+04  0.25500000920E-02 0. -1.
    10030    2    1    2    0    0  0.00000000000E+00  0.00000000000E+00 -0.16323234024E+04  0.42283305624E+04  0.39005511988E+04 0.  0.
        1    1    3    3  502    0 -0.69204525557E+03 -0.48552926210E+03  0.10890601312E+04  0.13786650317E+04  0.50400001928E-02 0.  1.
       -1    1    3    3    0  502  0.69204525557E+03  0.48552926210E+03 -0.27213835336E+04  0.28496655307E+04  0.50400001928E-02 0. -1.
</event>
<event>
 5   0  0.1546846E-07  0.3883490E+04  0.7818609E-02  0.8028472E-01
       -2   -1    0    0    0  501  0.00000000000E+00  0.00000000000E+00  0.18079745951E+04  0.18079745951E+04  0.25500000920E-02 0. -1.
        2   -1    0    0  501    0  0.00000000000E+00  0.00000000000E+00 -0.20854125736E+04  0.20854125736E+04  0.25500000920E-02 0.  1.
    10030    2    1    2    0    0  0.00000000000E+00  0.00000000000E+00 -0.27743797846E+03  0.38933871687E+04  0.38834896438E+04 0.  0.
        2    1    3    3  502    0 -0.15257813127E+04 -0.32834916265E+03 -0.12968909768E+04  0.20292234950E+04  0.25500000920E-02 0.  1.
       -2    1    3    3    0  502  0.15257813127E+04  0.32834916265E+03  0.10194529984E+04  0.18641636738E+04  0.25500000920E-02 0. -1.
</event>
<event>
 5   0  0.1501585E-07  0.4026439E+04  0.7818609E-02  0.7999234E-01
       -2   -1    0    0    0  501  0.00000000000E+00  0.00000000000E+00  0.15910013837E+04  0.15910013837E+04  0.25500000920E-02 0. -1.
        2   -1    0    0  501    0  0.00000000000E+00  0.00000000000E+00 -0.25474854119E+04  0.25474854119E+04  0.25500000920E-02 0.  1.
    10030    2    1    2    0    0  0.00000000000E+00  0.00000000000E+00 -0.95648402819E+03  0.41384867957E+04  0.40264390299E+04 0.  0.
        5    1    3    3  502    0  0.12898426017E+04  0.89949507080E+03  0.81381808470E+03  0.17706234169E+04  0.46999998093E+01 0. -1.
       -5    1    3    3    0  502 -0.12898426017E+04 -0.89949507080E+03 -0.17703021129E+04  0.23678633787E+04  0.46999998093E+01 0.  1.
</event>
<event>
 5   0  0.1546846E-07  0.4026498E+04  0.7818609E-02  0.7999222E-01
        2   -1    0    0  501    0  0.00000000000E+00  0.00000000000E+00  0.23878925006E+04  0.23878925006E+04  0.25500000920E-02 0. -1.
       -2   -1    0    0    0  501  0.00000000000E+00  0.00000000000E+00 -0.16973846415E+04  0.16973846415E+04  0.25500000920E-02 0.  1.
    10030    2    1    2    0    0  0.00000000000E+00  0.00000000000E+00  0.69050785915E+03  0.40852771421E+04  0.40264982583E+04 0.  0.
        2    1    3    3  502    0 -0.33921066655E+03 -0.18790340257E+04  0.99280223358E+03  0.21520894547E+04  0.25500000920E-02 0. -1.
       -2    1    3    3    0  502  0.33921066655E+03  0.18790340257E+04 -0.30229437443E+03  0.19331876874E+04  0.25500000920E-02 0.  1.
</event>
<event>
 5   0  0.4750125E-08  0.3897304E+04  0.7818609E-02  0.8025590E-01
       -1   -1    0    0    0  501  0.00000000000E+00  0.00000000000E+00  0.21867251490E+04  0.21867251490E+04  0.50400001928E-02 0. -1.
        1   -1    0    0  501    0  0.00000000000E+00  0.00000000000E+00 -0.17364985450E+04  0.17364985450E+04  0.50400001928E-02 0.  1.
    10030    2    1    2    0    0  0.00000000000E+00  0.00000000000E+00  0.45022660399E+03  0.39232236941E+04  0.38973042168E+04 0.  0.
        3    1    3    3  502    0 -0.11315833827E+04 -0.16715358485E+03 -0.13629793481E+04  0.17793633656E+04  0.10100000352E+00 0.  1.
       -3    1    3    3    0  502  0.11315833827E+04  0.16715358485E+03  0.18132059521E+04  0.21438603285E+04  0.10100000352E+00 0. -1.
</event>
<event>
 5   0  0.1538018E-07  0.3882427E+04  0.7818609E-02  0.8028694E-01
       -2   -1    0    0    0  501  0.00000000000E+00  0.00000000000E+00  0.21675271010E+04  0.21675271010E+04  0.25500000920E-02 0.  1.
        2   -1    0    0  501    0  0.00000000000E+00  0.00000000000E+00 -0.17385294101E+04  0.17385294101E+04  0.25500000920E-02 0. -1.
    10030    2    1    2    0    0  0.00000000000E+00  0.00000000000E+00  0.42899769087E+03  0.39060565111E+04  0.38824268762E+04 0.  0.
        1    1    3    3  502    0  0.17588591004E+04  0.21916563166E+03 -0.58195729242E+03  0.18655543946E+04  0.50400001928E-02 0. -1.
       -1    1    3    3    0  502 -0.17588591004E+04 -0.21916563166E+03  0.10109549833E+04  0.20405021165E+04  0.50400001928E-02 0.  1.
</event>
<event>
 5   0  0.4750125E-08  0.3961324E+04  0.7818609E-02  0.8012395E-01
       -1   -1    0    0    0  501  0.00000000000E+00  0.00000000000E+00  0.22862855347E+04  0.22862855347E+04  0.50400001928E-02 0.  1.
        1   -1    0    0  501    0  0.00000000000E+00  0.00000000000E+00 -0.17158929806E+04  0.17158929806E+04  0.50400001928E-02 0. -1.
    10030    2    1    2    0    0  0.00000000000E+00  0.00000000000E+00  0.57039255405E+03  0.40021785153E+04  0.39613236680E+04 0.  0.
        4    1    3    3  502    0  0.19179398842E+03  0.18721786196E+04  0.90896314445E+03  0.20899888345E+04  0.12699999809E+01 0. -1.
       -4    1    3    3    0  502 -0.19179398842E+03 -0.18721786196E+04 -0.33857059039E+03  0.19121896808E+04  0.12699999809E+01 0.  1.
</event>
<event>
 5   0  0.4750125E-08  0.3702026E+04  0.7818609E-02  0.8067513E-01
       -1   -1    0    0    0  501  0.00000000000E+00  0.00000000000E+00  0.14210851388E+04  0.14210851388E+04  0.50400001928E-02 0. -1.
        1   -1    0    0  501    0  0.00000000000E+00  0.00000000000E+00 -0.24110089229E+04  0.24110089229E+04  0.50400001928E-02 0.  1.
    10030    2    1    2    0    0  0.00000000000E+00  0.00000000000E+00 -0.98992378409E+03  0.38320940617E+04  0.37020259047E+04 0.  0.
        4    1    3    3  502    0 -0.10343452688E+04 -0.11169730789E+04  0.59500473080E+03  0.16344819475E+04  0.12699999809E+01 0. -1.
       -4    1    3    3    0  502  0.10343452688E+04  0.11169730789E+04 -0.15849285149E+04  0.21976121142E+04  0.12699999809E+01 0.  1.
</event>
<event>
 5   0  0.1503228E-07  0.3890193E+04  0.7818609E-02  0.8027072E-01
        2   -1    0    0  501    0  0.00000000000E+00  0.00000000000E+00  0.21825117213E+04  0.21825117213E+04  0.25500000920E-02 0. -1.
       -2   -1    0    0    0  501  0.00000000000E+00  0.00000000000E+00 -0.17335075070E+04  0.17335075070E+04  0.25500000920E-02 0.  1.
    10030    2    1    2    0    0  0.00000000000E+00  0.00000000000E+00  0.44900421436E+03  0.39160192283E+04  0.38901930301E+04 0.  0.
        3    1    3    3  502    0  0.99871426349E+03  0.13471546648E+03  0.18992241752E+04  0.21500304451E+04  0.10100000352E+00 0. -1.
       -3    1    3    3    0  502 -0.99871426349E+03 -0.13471546648E+03 -0.14502199609E+04  0.17659887831E+04  0.10100000352E+00 0.  1.
</event>
<event>
 5   0  0.1501585E-07  0.3890716E+04  0.7818609E-02  0.8026963E-01
        2   -1    0    0  501    0  0.00000000000E+00  0.00000000000E+00  0.23178933249E+04  0.23178933249E+04  0.25500000920E-02 0. -1.
       -2   -1    0    0    0  501  0.00000000000E+00  0.00000000000E+00 -0.16326970328E+04  0.16326970328E+04  0.25500000920E-02 0.  1.
    10030    2    1    2    0    0  0.00000000000E+00  0.00000000000E+00  0.68519629211E+03  0.39505903577E+04  0.38907159001E+04 0.  0.
        5    1    3    3  502    0 -0.11957483187E+04  0.11906228396E+04  0.13254814734E+04  0.21457679311E+04  0.46999998093E+01 0. -1.
       -5    1    3    3    0  502  0.11957483187E+04 -0.11906228396E+04 -0.64028518131E+03  0.18048224265E+04  0.46999998093E+01 0.  1.
</event>
<event>
 5   0  0.1501585E-07  0.3883949E+04  0.7818609E-02  0.8028376E-01
        2   -1    0    0  501    0  0.00000000000E+00  0.00000000000E+00  0.17260244278E+04  0.17260244278E+04  0.25500000920E-02 0. -1.
       -2   -1    0    0    0  501  0.00000000000E+00  0.00000000000E+00 -0.21849430355E+04  0.21849430355E+04  0.25500000920E-02 0.  1.
    10030    2    1    2    0    0  0.00000000000E+00  0.00000000000E+00 -0.45891860769E+03  0.39109674633E+04  0.38839490484E+04 0.  0.
        5    1    3    3  502    0 -0.27067027930E+03  0.12112113897E+04 -0.17334853498E+04  0.21319683344E+04  0.46999998093E+01 0. -1.
       -5    1    3    3    0  502  0.27067027930E+03 -0.12112113897E+04  0.12745667421E+04  0.17789991289E+04  0.46999998093E+01 0.  1.
</event>
<event>
 5   0  0.1538018E-07  0.3926602E+04  0.7818609E-02  0.8019519E-01
        2   -1    0    0  501    0  0.00000000000E+00  0.00000000000E+00  0.19968513238E+04  0.19968513238E+04  0.25500000920E-02 0.  1.
       -2   -1    0    0    0  501  0.00000000000E+00  0.00000000000E+00 -0.19303139685E+04  0.19303139685E+04  0.25500000920E-02 0. -1.
    10030    2    1    2    0    0  0.00000000000E+00  0.00000000000E+00  0.66537355327E+02  0.39271652923E+04  0.39266015857E+04 0.  0.
        1    1    3    3  502    0  0.13121861651E+04 -0.14619802787E+03 -0.14199862430E+04  0.19389603723E+04  0.50400001928E-02 0. -1.
       -1    1    3    3    0  502 -0.13121861651E+04  0.14619802787E+03  0.14865235983E+04  0.19882049199E+04  0.50400001928E-02 0.  1.
</event>
<event>
 5   0  0.4750125E-08  0.3890192E+04  0.7818609E-02  0.8027072E-01
       -1   -1    0    0    0  501  0.00000000000E+00  0.00000000000E+00  0.14494236753E+04  0.14494236753E+04  0.50400001928E-02 0.  1.
        1   -1    0    0  501    0  0.00000000000E+00  0.00000000000E+00 -0.26102784221E+04  0.26102784222E+04  0.50400001928E-02 0. -1.
    10030    2    1    2    0    0  0.00000000000E+00  0.00000000000E+00 -0.11608547468E+04  0.40597020975E+04  0.38901924602E+04 0.  0.
        1    1    3    3  502    0  0.11270217242E+04 -0.56280380583E+03 -0.21270559772E+04  0.24721029956E+04  0.50400001928E-02 0. -1.
       -1    1    3    3    0  502 -0.11270217242E+04  0.56280380583E+03  0.96620123037E+03  0.15875991019E+04  0.50400001928E-02 0.  1.
</event>
<event>
 5   0  0.1501585E-07  0.3955001E+04  0.7818609E-02  0.8013686E-01
        2   -1    0    0  501    0  0.00000000000E+00  0.00000000000E+00  0.30444814203E+04  0.30444814203E+04  0.25500000920E-02 0.  1.
       -2   -1    0    0    0  501  0.00000000000E+00  0.00000000000E+00 -0.12844580144E+04  0.12844580144E+04  0.25500000920E-02 0. -1.
    10030    2    1    2    0    0  0.00000000000E+00  0.00000000000E+00  0.17600234059E+04  0.43289394346E+04  0.39550011681E+04 0.  0.
        5    1    3    3  502    0 -0.47271867379E+03 -0.54883112335E+03 -0.11340188387E+04  0.13456222959E+04  0.46999998093E+01 0. -1.
       -5    1    3    3    0  502  0.47271867379E+03  0.54883112335E+03  0.28940422447E+04  0.29833171388E+04  0.46999998093E+01 0.  1.
</event>
<event>
 5   0  0.1546846E-07  0.3908120E+04  0.7818609E-02  0.8023342E-01
       -2   -1    0    0    0  501  0.00000000000E+00  0.00000000000E+00  0.15177380497E+04  0.15177380497E+04  0.25500000920E-02 0. -1.
        2   -1    0    0  501    0  0.00000000000E+00  0.00000000000E+00 -0.25158167252E+04  0.25158167252E+04  0.25500000920E-02 0.  1.
    10030    2    1    2    0    0  0.00000000000E+00  0.00000000000E+00 -0.99807867554E+03  0.40335547749E+04  0.39081201465E+04 0.  0.
        2    1    3    3  502    0  0.15313973774E+04 -0.12124272192E+04 -0.55736034207E+03  0.20312085664E+04  0.25500000920E-02 0. -1.
       -2    1    3    3    0  502 -0.15313973774E+04  0.12124272192E+04 -0.44071833347E+03  0.20023462085E+04  0.25500000920E-02 0.  1.
</event>
<event>
 5   0  0.1503228E-07  0.3898360E+04  0.7818609E-02  0.8025370E-01
       -2   -1    0    0    0  501  0.00000000000E+00  0.00000000000E+00  0.14089844312E+04  0.14089844312E+04  0.25500000920E-02 0.  1.
        2   -1    0    0  501    0  0.00000000000E+00  0.00000000000E+00 -0.26964836555E+04  0.26964836555E+04  0.25500000920E-02 0. -1.
    10030    2    1    2    0    0  0.00000000000E+00  0.00000000000E+00 -0.12874992243E+04  0.41054680868E+04  0.38983604193E+04 0.  0.
        3    1    3    3  502    0  0.11658063025E+04  0.12965216120E+04  0.27388041458E+03  0.17649598060E+04  0.10100000352E+00 0.  1.
       -3    1    3    3    0  502 -0.11658063025E+04 -0.12965216120E+04 -0.15613796389E+04  0.23405082807E+04  0.10100000352E+00 0. -1.
</event>
<event>
 5   0  0.4750125E-08  0.4045818E+04  0.7818609E-02  0.7995367E-01
        1   -1    0    0  501    0  0.00000000000E+00  0.00000000000E+00  0.25956483871E+04  0.25956483871E+04  0.50400001928E-02 0.  1.
       -1   -1    0    0    0  501  0.00000000000E+00  0.00000000000E+00 -0.15765464226E+04  0.15765464226E+04  0.50400001928E-02 0. -1.
    10030    2    1    2    0    0  0.00000000000E+00  0.00000000000E+00  0.10191019646E+04  0.41721948097E+04  0.40458176820E+04 0.  0.
        1    1    3    3  502    0 -0.18645844736E+03 -0.70409583753E+03 -0.14366309281E+04  0.16107222369E+04  0.50400001928E-02 0. -1.
       -1    1    3    3    0  502  0.18645844736E+03  0.70409583753E+03  0.24557328926E+04  0.25614725728E+04  0.50400001928E-02 0.  1.
</event>
<event>
 5   0  0.1503228E-07  0.3876487E+04  0.7818609E-02  0.8029937E-01
       -2   -1    0    0    0  501  0.00000000000E+00  0.00000000000E+00  0.14450232918E+04  0.14450232918E+04  0.25500000920E-02 0. -1.
        2   -1    0    0  501    0  0.00000000000E+00  0.00000000000E+00 -0.25998110724E+04  0.25998110724E+04  0.25500000920E-02 0.  1.
    10030    2    1    2    0    0  0.00000000000E+00  0.00000000000E+00 -0.11547877806E+04  0.40448343643E+04  0.38764868394E+04 0.  0.
        3    1    3    3  502    0  0.19364058773E+04  0.82223994957E+02 -0.55762274011E+03  0.20167725795E+04  0.10100000352E+00 0.  1.
       -3    1    3    3    0  502 -0.19364058773E+04 -0.82223994957E+02 -0.59716504052E+03  0.20280617847E+04  0.10100000352E+00 0. -1.
</event>
<event>
 5   0  0.1501585E-07  0.3900165E+04  0.7818609E-02  0.8024995E-01
       -2   -1    0    0    0  501  0.00000000000E+00  0.00000000000E+00  0.14405061690E+04  0.14405061690E+04  0.25500000920E-02 0.  1.
        2   -1    0    0  501    0  0.00000000000E+00  0.00000000000E+00 -0.26399211004E+04  0.26399211004E+04  0.25500000920E-02 0. -1.
    10030    2    1    2    0    0  0.00000000000E+00  0.00000000000E+00 -0.11994149315E+04  0.40804272694E+04  0.39001654482E+04 0.  0.
        5    1    3    3  502    0  0.47842559443E+03  0.12191848696E+04 -0.21113030629E+04  0.24845372827E+04  0.46999998093E+01 0. -1.
       -5    1    3    3    0  502 -0.47842559443E+03 -0.12191848696E+04  0.91188813137E+03  0.15958899867E+04  0.46999998093E+01 0.  1.
</event>
<event>
 5   0  0.4750125E-08  0.3874542E+04  0.7818609E-02  0.8030345E-01
        1   -1    0    0  501    0  0.00000000000E+00  0.00000000000E+00  0.24058534728E+04  0.24058534729E+04  0.50400001928E-02 0.  1.
       -1   -1    0    0    0  501  0.00000000000E+00  0.00000000000E+00 -0.15599536122E+04  0.15599536122E+04  0.50400001928E-02 0. -1.
    10030    2    1    2    0    0  0.00000000000E+00  0.00000000000E+00  0.84589986068E+03  0.39658070850E+04  0.38745424583E+04 0.  0.
        1    1    3    3  502    0  0.94450291252E+03  0.58864805259E+03 -0.12000956702E+04  0.16367106950E+04  0.50400001928E-02 0. -1.
       -1    1    3    3    0  502 -0.94450291252E+03 -0.58864805259E+03  0.20459955309E+04  0.23290963900E+04  0.50400001928E-02 0.  1.
</event>
<event>
 5   0  0.4762788E-08  0.3775499E+04  0.7818609E-02  0.8051433E-01
       -1   -1    0    0    0  501  0.00000000000E+00  0.00000000000E+00  0.15694238226E+04  0.15694238226E+04  0.50400001928E-02 0.  1.
        1   -1    0    0  501    0  0.00000000000E+00  0.00000000000E+00 -0.22706407014E+04  0.22706407014E+04  0.50400001928E-02 0. -1.
    10030    2    1    2    0    0  0.00000000000E+00  0.00000000000E+00 -0.70121687884E+03  0.38400645240E+04  0.37754987005E+04 0.  0.
        2    1    3    3  502    0  0.45803658400E+03 -0.16758058918E+04 -0.11018013954E+04  0.20572042227E+04  0.25500000920E-02 0.  1.
       -2    1    3    3    0  502 -0.45803658400E+03  0.16758058918E+04  0.40058451651E+03  0.17828603013E+04  0.25500000920E-02 0. -1.
</event>
<event>
 5   0  0.1520986E-07  0.3912716E+04  0.7818609E-02  0.8022390E-01
        2   -1    0    0  501    0  0.00000000000E+00  0.00000000000E+00  0.19694158316E+04  0.19694158316E+04  0.25500000920E-02 0. -1.
       -2   -1    0    0    0  501  0.00000000000E+00  0.00000000000E+00 -0.19433871498E+04  0.19433871498E+04  0.25500000920E-02 0.  1.
    10030    2    1    2    0    0  0.00000000000E+00  0.00000000000E+00  0.26028681713E+02  0.39128029814E+04  0.39127164067E+04 0.  0.
        4    1    3    3  502    0  0.67539164672E+03 -0.16138339201E+04 -0.86263167142E+03  0.19505765331E+04  0.12699999809E+01 0.  1.
       -4    1    3    3    0  502 -0.67539164672E+03  0.16138339201E+04  0.88866035313E+03  0.19622264483E+04  0.12699999809E+01 0. -1.
</event>
<event>
 5   0  0.1520986E-07  0.3905929E+04  0.7818609E-02  0.8023797E-01
        2   -1    0    0  501    0  0.00000000000E+00  0.00000000000E+00  0.22694378405E+04  0.22694378405E+04  0.25500000920E-02 0.  1.
       -2   -1    0    0    0  501  0.00000000000E+00  0.00000000000E+00 -0.16806233790E+04  0.16806233790E+04  0.25500000920E-02 0. -1.
    10030    2    1    2    0    0  0.00000000000E+00  0.00000000000E+00  0.58881446151E+03  0.39500612195E+04  0.39059289763E+04 0.  0.
        4    1    3    3  502    0  0.18116978705E+02 -0.14372094282E+04 -0.10427154504E+04  0.17757128960E+04  0.12699999809E+01 0. -1.
       -4    1    3    3    0  502 -0.18116978705E+02  0.14372094282E+04  0.16315299119E+04  0.21743483235E+04  0.12699999809E+01 0.  1.
</event>
<event>
 5   0  0.1546846E-07  0.3896485E+04  0.7818609E-02  0.8025761E-01
       -2   -1    0    0    0  501  0.00000000000E+00  0.00000000000E+00  0.16414486107E+04  0.16414486107E+04  0.25500000920E-02 0. -1.
        2   -1    0    0  501    0  0.00000000000E+00  0.00000000000E+00 -0.23123770273E+04  0.23123770273E+04  0.25500000920E-02 0.  1.
    10030    2    1    2    0    0  0.00000000000E+00  0.00000000000E+00 -0.67092841660E+03  0.39538256380E+04  0.38964845997E+04 0.  0.
        2    1    3    3  502    0  0.13767795398E+04 -0.10647723948E+04 -0.12237818836E+04  0.21276522865E+04  0.25500000920E-02 0.  1.
       -2    1    3    3    0  502 -0.13767795398E+04  0.10647723948E+04  0.55285346696E+03  0.18261733515E+04  0.25500000920E-02 0. -1.
</event>
<event>
 5   0  0.1538018E-07  0.3878306E+04  0.7818609E-02  0.8029556E-01
        2   -1    0    0  501    0  0.00000000000E+00  0.00000000000E+00  0.16218387257E+04  0.16218387257E+04  0.25500000920E-02 0.  1.
       -2   -1    0    0    0  501  0.00000000000E+00  0.00000000000E+00 -0.23185501423E+04  0.23185501423E+04  0.25500000920E-02 0. -1.
    10030    2    1    2    0    0  0.00000000000E+00  0.00000000000E+00 -0.69671141656E+03  0.39403888680E+04  0.38783060263E+04 0.  0.
        1    1    3    3  502    0 -0.14996827712E+03  0.11188239104E+04  0.12536075375E+04  0.16869467345E+04  0.50400001928E-02 0.  1.
       -1    1    3    3    0  502  0.14996827712E+03 -0.11188239104E+04 -0.19503189541E+04  0.22534421336E+04  0.50400001928E-02 0. -1.
</event>
<event>
 5   0  0.1520986E-07  0.3876674E+04  0.7818609E-02  0.8029898E-01
       -2   -1    0    0    0  501  0.00000000000E+00  0.00000000000E+00  0.24480435448E+04  0.24480435448E+04  0.25500000920E-02 0. -1.
        2   -1    0    0  501    0  0.00000000000E+00  0.00000000000E+00 -0.15347562558E+04  0.15347562558E+04  0.25500000920E-02 0.  1.
    10030    2    1    2    0    0  0.00000000000E+00  0.00000000000E+00  0.91328728907E+03  0.39827998006E+04  0.38766739067E+04 0.  0.
        4    1    3    3  502    0  0.11535641817E+04 -0.90391613871E+03  0.17599834893E+04  0.22902659677E+04  0.12699999809E+01 0. -1.
       -4    1    3    3    0  502 -0.11535641817E+04  0.90391613871E+03 -0.84669620026E+03  0.16925338329E+04  0.12699999809E+01 0.  1.
</event>
<event>
 5   0  0.1503228E-07  0.3511699E+04  0.7818609E-02  0.8111023E-01
        2   -1    0    0  501    0  0.00000000000E+00  0.00000000000E+00  0.24422908314E+04  0.24422908314E+04  0.25500000920E-02 0.  1.
       -2   -1    0    0    0  501  0.00000000000E+00  0.00000000000E+00 -0.12623421640E+04  0.12623421640E+04  0.25500000920E-02 0. -1.
    10030    2    1    2    0    0  0.00000000000E+00  0.00000000000E+00  0.11799486674E+04  0.37046329954E+04  0.35116985595E+04 0.  0.
        3    1    3    3  502    0 -0.64928587341E+03 -0.89216536380E+03  0.20308374888E+04  0.23112403808E+04  0.10100000352E+00 0.  1.
       -3    1    3    3    0  502  0.64928587341E+03  0.89216536380E+03 -0.85088882141E+03  0.13933926146E+04  0.10100000352E+00 0. -1.
</event>
<event>
 5   0  0.4750125E-08  0.3810371E+04  0.7818609E-02  0.8043933E-01
        1   -1    0    0  501    0  0.00000000000E+00  0.00000000000E+00  0.16076848535E+04  0.16076848535E+04  0.50400001928E-02 0. -1.
       -1   -1    0    0    0  501  0.00000000000E+00  0.00000000000E+00 -0.22577381912E+04  0.22577381912E+04  0.50400001928E-02 0.  1.
    10030    2    1    2    0    0  0.00000000000E+00  0.00000000000E+00 -0.65005333766E+03  0.38654230447E+04  0.38103708445E+04 0.  0.
        3    1    3    3  502    0 -0.13559686605E+04 -0.24787810713E+03 -0.16591846523E+04  0.21570786460E+04  0.10100000352E+00 0.  1.
       -3    1    3    3    0  502  0.13559686605E+04  0.24787810713E+03  0.10091313146E+04  0.17083443987E+04  0.10100000352E+00 0. -1.
</event>
<event>
 5   0  0.4750125E-08  0.3830373E+04  0.7818609E-02  0.8039668E-01
       -1   -1    0    0    0  501  0.00000000000E+00  0.00000000000E+00  0.21930456433E+04  0.21930456433E+04  0.50400001928E-02 0.  1.
        1   -1    0    0  501    0  0.00000000000E+00  0.00000000000E+00 -0.16725321406E+04  0.16725321406E+04  0.50400001928E-02 0. -1.
    10030    2    1    2    0    0  0.00000000000E+00  0.00000000000E+00  0.52051350269E+03  0.38655777839E+04  0.38303729971E+04 0.  0.
        3    1    3    3  502    0  0.84530522856E+03  0.11992720011E+04  0.15024822954E+04  0.21000588850E+04  0.10100000352E+00 0.  1.
       -3    1    3    3    0  502 -0.84530522856E+03 -0.11992720011E+04 -0.98196879275E+03  0.17655188989E+04  0.10100000352E+00 0. -1.
</event>
<event>
 5   0  0.4750125E-08  0.3889445E+04  0.7818609E-02  0.8027228E-01
        1   -1    0    0  501    0  0.00000000000E+00  0.00000000000E+00  0.19297791378E+04  0.19297791378E+04  0.50400001928E-02 0.  1.
       -1   -1    0    0    0  501  0.00000000000E+00  0.00000000000E+00 -0.19597816234E+04  0.19597816234E+04  0.50400001928E-02 0. -1.
    10030    2    1    2    0    0  0.00000000000E+00  0.00000000000E+00 -0.30002485637E+02  0.38895607612E+04  0.38894450460E+04 0.  0.
        4    1    3    3  502    0  0.17933301418E+04 -0.75173821584E+03 -0.43299359800E+02  0.19449986607E+04  0.12699999809E+01 0. -1.
       -4    1    3    3    0  502 -0.17933301418E+04  0.75173821584E+03  0.13296874163E+02  0.19445621004E+04  0.12699999809E+01 0.  1.
</event>
<event>
 5   0  0.4750125E-08  0.3895788E+04  0.7818609E-02  0.8025906E-01
       -1   -1    0    0    0  501  0.00000000000E+00  0.00000000000E+00  0.17993484930E+04  0.17993484930E+04  0.50400001928E-02 0.  1.
        1   -1    0    0  501    0  0.00000000000E+00  0.00000000000E+00 -0.21087027500E+04  0.21087027500E+04  0.50400001928E-02 0. -1.
    10030    2    1    2    0    0  0.00000000000E+00  0.00000000000E+00 -0.30935425700E+03  0.39080512430E+04  0.38957880411E+04 0.  0.
        3    1    3    3  502    0 -0.13558600347E+04  0.11113341739E+04  0.69703673121E+03  0.18866054952E+04  0.10100000352E+00 0.  1.
       -3    1    3    3    0  502  0.13558600347E+04 -0.11113341739E+04 -0.10063909882E+04  0.20214457478E+04  0.10100000352E+00 0. -1.
</event>
<event>
 5   0  0.1538018E-07  0.3914958E+04  0.7818609E-02  0.8021925E-01
        2   -1    0    0  501    0  0.00000000000E+00  0.00000000000E+00  0.17980046836E+04  0.17980046836E+04  0.25500000920E-02 0. -1.
       -2   -1    0    0    0  501  0.00000000000E+00  0.00000000000E+00 -0.21310976524E+04  0.21310976524E+04  0.25500000920E-02 0.  1.
    10030    2    1    2    0    0  0.00000000000E+00  0.00000000000E+00 -0.33309296876E+03  0.39291023360E+04  0.39149577572E+04 0.  0.
        1    1    3    3  502    0 -0.16532825541E+04 -0.10445375011E+04 -0.80670020018E+02  0.19572709182E+04  0.50400001928E-02 0. -1.
       -1    1    3    3    0  502  0.16532825541E+04  0.10445375011E+04 -0.25242294874E+03  0.19718314178E+04  0.50400001928E-02 0.  1.
</event>
<event>
 5   0  0.1520986E-07  0.3897678E+04  0.7818609E-02  0.8025512E-01
       -2   -1    0    0    0  501  0.00000000000E+00  0.00000000000E+00  0.13494289831E+04  0.13494289831E+04  0.25500000920E-02 0.  1.
        2   -1    0    0  501    0  0.00000000000E+00  0.00000000000E+00 -0.28145042687E+04  0.28145042687E+04  0.25500000920E-02 0. -1.
    10030    2    1    2    0    0  0.00000000000E+00  0.00000000000E+00 -0.14650752856E+04  0.41639332519E+04  0.38976780952E+04 0.  0.
        4    1    3    3  502    0  0.16799964463E+04  0.70654768317E+03  0.48094415081E+01  0.18225318740E+04  0.12699999809E+01 0.  1.
       -4    1    3    3    0  502 -0.16799964463E+04 -0.70654768317E+03 -0.14698847271E+04  0.23414013778E+04  0.12699999809E+01 0. -1.
</event>
<event>
 5   0  0.1546846E-07  0.3899541E+04  0.7818609E-02  0.8025125E-01
        2   -1    0    0  501    0  0.00000000000E+00  0.00000000000E+00  0.18770969214E+04  0.18770969214E+04  0.25500000920E-02 0.  1.
       -2   -1    0    0    0  501  0.00000000000E+00  0.00000000000E+00 -0.20252580909E+04  0.20252580909E+04  0.25500000920E-02 0. -1.
    10030    2    1    2    0    0  0.00000000000E+00  0.00000000000E+00 -0.14816116954E+03  0.39023550124E+04  0.38995413718E+04 0.  0.
        2    1    3    3  502    0  0.16857124983E+04  0.40199535139E+03 -0.96824576204E+03  0.19851263801E+04  0.25500000920E-02 0. -1.
       -2    1    3    3    0  502 -0.16857124983E+04 -0.40199535139E+03  0.82008459250E+03  0.19172286322E+04  0.25500000920E-02 0.  1.
</event>
<event>
 5   0  0.4750125E-08  0.3850221E+04  0.7818609E-02  0.8035463E-01
        3   -1    0    0  501    0  0.00000000000E+00  0.00000000000E+00  0.24898853703E+04  0.24898853724E+04  0.10100000352E+00 0. -1.
       -3   -1    0    0    0  501  0.00000000000E+00  0.00000000000E+00 -0.14884419942E+04  0.14884419976E+04  0.10100000352E+00 0.  1.
    10030    2    1    2    0    0  0.00000000000E+00  0.00000000000E+00  0.10014433761E+04  0.39783273699E+04  0.38502207504E+04 0.  0.
        5    1    3    3  502    0  0.11225146777E+04 -0.14636111183E+04  0.10702706215E+04  0.21325332355E+04  0.46999998093E+01 0. -1.
       -5    1    3    3    0  502 -0.11225146777E+04  0.14636111183E+04 -0.68827245316E+02  0.18457941345E+04  0.46999998093E+01 0.  1.
</event>
<event>
 5   0  0.4750125E-08  0.3918481E+04  0.7818609E-02  0.8021196E-01
        1   -1    0    0  501    0  0.00000000000E+00  0.00000000000E+00  0.21286415542E+04  0.21286415542E+04  0.50400001928E-02 0. -1.
       -1   -1    0    0    0  501  0.00000000000E+00  0.00000000000E+00 -0.18033211327E+04  0.18033211327E+04  0.50400001928E-02 0.  1.
    10030    2    1    2    0    0  0.00000000000E+00  0.00000000000E+00  0.32532042155E+03  0.39319626869E+04  0.39184814909E+04 0.  0.
        3    1    3    3  502    0  0.91522040000E+03 -0.11178595841E+04  0.14906126086E+04  0.20758526897E+04  0.10100000352E+00 0. -1.
       -3    1    3    3    0  502 -0.91522040000E+03  0.11178595841E+04 -0.11652921870E+04  0.18561099972E+04  0.10100000352E+00 0.  1.
</event>
<event>
 5   0  0.1538018E-07  0.3908640E+04  0.7818609E-02  0.8023235E-01
       -2   -1    0    0    0  501  0.00000000000E+00  0.00000000000E+00  0.14239213110E+04  0.14239213110E+04  0.25500000920E-02 0.  1.
        2   -1    0    0  501    0  0.00000000000E+00  0.00000000000E+00 -0.26822873388E+04  0.26822873388E+04  0.25500000920E-02 0. -1.
    10030    2    1    2    0    0  0.00000000000E+00  0.00000000000E+00 -0.12583660279E+04  0.41062086498E+04  0.39086397143E+04 0.  0.
        1    1    3    3  502    0  0.83247953365E+03  0.17465619512E+04 -0.33982407194E+03  0.19644289814E+04  0.50400001928E-02 0.  1.
       -1    1    3    3    0  502 -0.83247953365E+03 -0.17465619512E+04 -0.91854195592E+03  0.21417796684E+04  0.50400001928E-02 0. -1.
</event>
<event>
 5   0  0.4750125E-08  0.3911922E+04  0.7818609E-02  0.8022554E-01
       -1   -1    0    0    0  501  0.00000000000E+00  0.00000000000E+00  0.14742247593E+04  0.14742247593E+04  0.50400001928E-02 0.  1.
        1   -1    0    0  501    0  0.00000000000E+00  0.00000000000E+00 -0.25951153900E+04  0.25951153900E+04  0.50400001928E-02 0. -1.
    10030    2    1    2    0    0  0.00000000000E+00  0.00000000000E+00 -0.11208906307E+04  0.40693401492E+04  0.39119219630E+04 0.  0.
        4    1    3    3  502    0 -0.17162058008E+04 -0.85726127855E+03 -0.16362044689E+03  0.19253655533E+04  0.12699999809E+01 0.  1.
       -4    1    3    3    0  502  0.17162058008E+04  0.85726127855E+03 -0.95727018380E+03  0.21439745959E+04  0.12699999809E+01 0. -1.
</event>
<event>
 5   0  0.4750125E-08  0.3930453E+04  0.7818609E-02  0.8018725E-01
       -1   -1    0    0    0  501  0.00000000000E+00  0.00000000000E+00  0.19286600054E+04  0.19286600054E+04  0.50400001928E-02 0.  1.
        1   -1    0    0  501    0  0.00000000000E+00  0.00000000000E+00 -0.20024863005E+04  0.20024863005E+04  0.50400001928E-02 0. -1.
    10030    2    1    2    0    0  0.00000000000E+00  0.00000000000E+00 -0.73826295039E+02  0.39311463059E+04  0.39304530218E+04 0.  0.
        3    1    3    3  502    0 -0.17744704709E+04 -0.83687774952E+03 -0.15097452423E+03  0.19677152072E+04  0.10100000352E+00 0. -1.
       -3    1    3    3    0  502  0.17744704709E+04  0.83687774952E+03  0.77148229191E+02  0.19634310986E+04  0.10100000352E+00 0.  1.
</event>
<event>
 5   0  0.4750125E-08  0.3811765E+04  0.7818609E-02  0.8043635E-01
       -1   -1    0    0    0  501  0.00000000000E+00  0.00000000000E+00  0.29085423478E+04  0.29085423478E+04  0.50400001928E-02 0. -1.
        1   -1    0    0  501    0  0.00000000000E+00  0.00000000000E+00 -0.12488691628E+04  0.12488691628E+04  0.50400001928E-02 0.  1.
    10030    2    1    2    0    0  0.00000000000E+00  0.00000000000E+00  0.16596731851E+04  0.41574115106E+04  0.38117653899E+04 0.  0.
        1    1    3    3  502    0 -0.18697849938E+04  0.36730793642E+03  0.78935193199E+03  0.20625439428E+04  0.50400001928E-02 0. -1.
       -1    1    3    3    0  502  0.18697849938E+04 -0.36730793642E+03  0.87032125308E+03  0.20948675679E+04  0.50400001928E-02 0.  1.
</event>
<event>
 5   0  0.4750125E-08  0.3902437E+04  0.7818609E-02  0.8024523E-01
       -3   -1    0    0    0  501  0.00000000000E+00  0.00000000000E+00  0.13425332773E+04  0.13425332811E+04  0.10100000352E+00 0.  1.
        3   -1    0    0  501    0  0.00000000000E+00  0.00000000000E+00 -0.28358723607E+04  0.28358723625E+04  0.10100000352E+00 0. -1.
    10030    2    1    2    0    0  0.00000000000E+00  0.00000000000E+00 -0.14933390835E+04  0.41784056436E+04  0.39024366880E+04 0.  0.
        5    1    3    3  502    0  0.11961812271E+04  0.84468281307E+03  0.63405422842E+03  0.15957397774E+04  0.46999998093E+01 0.  1.
       -5    1    3    3    0  502 -0.11961812271E+04 -0.84468281307E+03 -0.21273933119E+04  0.25826658661E+04  0.46999998093E+01 0. -1.
</event>
<event>
 5   0  0.4750125E-08  0.3897732E+04  0.7818609E-02  0.8025501E-01
        1   -1    0    0  501    0  0.00000000000E+00  0.00000000000E+00  0.12459253980E+04  0.12459253980E+04  0.50400001928E-02 0. -1.
       -1   -1    0    0    0  501  0.00000000000E+00  0.00000000000E+00 -0.30484003052E+04  0.30484003052E+04  0.50400001928E-02 0.  1.
    10030    2    1    2    0    0  0.00000000000E+00  0.00000000000E+00 -0.18024749073E+04  0.42943257032E+04  0.38977323476E+04 0.  0.
        3    1    3    3  502    0 -0.86471057849E+02 -0.37081003917E+03 -0.30070216778E+04  0.30310322845E+04  0.10100000352E+00 0.  1.
       -3    1    3    3    0  502  0.86471057849E+02  0.37081003917E+03  0.12045467705E+04  0.12632934187E+04  0.10100000352E+00 0. -1.
</event>
<event>
 5   0  0.1520986E-07  0.3862019E+04  0.7818609E-02  0.8032975E-01
        2   -1    0    0  501    0  0.00000000000E+00  0.00000000000E+00  0.30717728144E+04  0.30717728144E+04  0.25500000920E-02 0. -1.
       -2   -1    0    0    0  501  0.00000000000E+00  0.00000000000E+00 -0.12138907964E+04  0.12138907964E+04  0.25500000920E-02 0.  1.
    10030    2    1    2    0    0  0.00000000000E+00  0.00000000000E+00  0.18578820180E+04  0.42856636108E+04  0.38620185126E+04 0.  0.
        4    1    3    3  502    0  0.10621394743E+04  0.15471277631E+04  0.14338835133E+04  0.23617299001E+04  0.12699999809E+01 0.  1.
       -4    1    3    3    0  502 -0.10621394743E+04 -0.15471277631E+04  0.42399850470E+03  0.19239337107E+04  0.12699999809E+01 0. -1.
</event>
<event>
 5   0  0.1538018E-07  0.3907268E+04  0.7818609E-02  0.8023519E-01
        2   -1    0    0  501    0  0.00000000000E+00  0.00000000000E+00  0.19325445351E+04  0.19325445351E+04  0.25500000920E-02 0.  1.
       -2   -1    0    0    0  501  0.00000000000E+00  0.00000000000E+00 -0.19749537086E+04  0.19749537086E+04  0.25500000920E-02 0. -1.
    10030    2    1    2    0    0  0.00000000000E+00  0.00000000000E+00 -0.42409173411E+02  0.39074982437E+04  0.39072680976E+04 0.  0.
        1    1    3    3  502    0 -0.19207284761E+04 -0.34080326419E+03 -0.12770617719E+03  0.19549050135E+04  0.50400001928E-02 0.  1.
       -1    1    3    3    0  502  0.19207284761E+04  0.34080326419E+03  0.85297003775E+02  0.19525932302E+04  0.50400001928E-02 0. -1.
</event>
<event>
 5   0  0.4750125E-08  0.3911676E+04  0.7818609E-02  0.8022605E-01
       -1   -1    0    0    0  501  0.00000000000E+00  0.00000000000E+00  0.27686779871E+04  0.27686779871E+04  0.50400001928E-02 0.  1.
        1   -1    0    0  501    0  0.00000000000E+00  0.00000000000E+00 -0.13816350900E+04  0.13816350900E+04  0.50400001928E-02 0. -1.
    10030    2    1    2    0    0  0.00000000000E+00  0.00000000000E+00  0.13870428971E+04  0.41503130771E+04  0.39116761930E+04 0.  0.
        4    1    3    3  502    0  0.71243369571E+03 -0.17460421699E+04  0.12438923410E+04  0.22590915870E+04  0.12699999809E+01 0. -1.
       -4    1    3    3    0  502 -0.71243369571E+03  0.17460421699E+04  0.14315055606E+03  0.18912214900E+04  0.12699999809E+01 0.  1.
</event>
<event>
 5   0  0.1501585E-07  0.3922210E+04  0.7818609E-02  0.8020426E-01
       -2   -1    0    0    0  501  0.00000000000E+00  0.00000000000E+00  0.20348620833E+04  0.20348620833E+04  0.25500000920E-02 0. -1.
        2   -1    0    0  501    0  0.00000000000E+00  0.00000000000E+00 -0.18900214375E+04  0.18900214375E+04  0.25500000920E-02 0.  1.
    10030    2    1    2    0    0  0.00000000000E+00  0.00000000000E+00  0.14484064580E+03  0.39248835208E+04  0.39222100708E+04 0.  0.
        5    1    3    3  502    0 -0.84457355480E+03 -0.12615614115E+04  0.13146645594E+04  0.20082845113E+04  0.46999998093E+01 0. -1.
       -5    1    3    3    0  502  0.84457355480E+03  0.12615614115E+04 -0.11698239136E+04  0.19165990095E+04  0.46999998093E+01 0.  1.
</event>
<event>
 5   0  0.4750125E-08  0.3889333E+04  0.7818609E-02  0.8027251E-01
        1   -1    0    0  501    0  0.00000000000E+00  0.00000000000E+00  0.15685005224E+04  0.15685005224E+04  0.50400001928E-02 0. -1.
       -1   -1    0    0    0  501  0.00000000000E+00  0.00000000000E+00 -0.24110464159E+04  0.24110464159E+04  0.50400001928E-02 0.  1.
    10030    2    1    2    0    0  0.00000000000E+00  0.00000000000E+00 -0.84254589352E+03  0.39795469384E+04  0.38893328801E+04 0.  0.
        4    1    3    3  502    0  0.19121175342E+04 -0.29645226223E+03 -0.22273999701E+03  0.19477402618E+04  0.12699999809E+01 0. -1.
       -4    1    3    3    0  502 -0.19121175342E+04  0.29645226223E+03 -0.61980589651E+03  0.20318066765E+04  0.12699999809E+01 0.  1.
</event>
<event>
 5   0  0.4750125E-08  0.3903472E+04  0.7818609E-02  0.8024307E-01
       -1   -1    0    0    0  501  0.00000000000E+00  0.00000000000E+00  0.15536633830E+04  0.15536633830E+04  0.50400001928E-02 0.  1.
        1   -1    0    0  501    0  0.00000000000E+00  0.00000000000E+00 -0.24518014015E+04  0.24518014015E+04  0.50400001928E-02 0. -1.
    10030    2    1    2    0    0  0.00000000000E+00  0.00000000000E+00 -0.89813801857E+03  0.40054647845E+04  0.39034723311E+04 0.  0.
        1    1    3    3  502    0 -0.12798307503E+04 -0.79408020369E+03 -0.17227687099E+04  0.22883317389E+04  0.50400001928E-02 0. -1.
       -1    1    3    3    0  502  0.12798307503E+04  0.79408020369E+03  0.82463069135E+03  0.17171330456E+04  0.50400001928E-02 0.  1.
</event>
<event>
 5   0  0.4750125E-08  0.3921878E+04  0.7818609E-02  0.8020494E-01
       -1   -1    0    0    0  501  0.00000000000E+00  0.00000000000E+00  0.25324396471E+04  0.25324396471E+04  0.50400001928E-02 0. -1.
        1   -1    0    0  501    0  0.00000000000E+00  0.00000000000E+00 -0.15184098129E+04  0.15184098129E+04  0.50400001928E-02 0.  1.
    10030    2    1    2    0    0  0.00000000000E+00  0.00000000000E+00  0.10140298342E+04  0.40508494600E+04  0.39218777191E+04 0.  0.
        3    1    3    3  502    0 -0.50532626804E+03 -0.18188104516E+04  0.10553739573E+04  0.21626928344E+04  0.10100000352E+00 0. -1.
       -3    1    3    3    0  502  0.50532626804E+03  0.18188104516E+04 -0.41344123129E+02  0.18881566256E+04  0.10100000352E+00 0.  1.
</event>
<event>
 5   0  0.4750125E-08  0.3746200E+04  0.7818609E-02  0.8057800E-01
        1   -1    0    0  501    0  0.00000000000E+00  0.00000000000E+00  0.23771782737E+04  0.23771782737E+04  0.50400001928E-02 0. -1.
       -1   -1    0    0    0  501  0.00000000000E+00  0.00000000000E+00 -0.14759113176E+04  0.14759113176E+04  0.50400001928E-02 0.  1.
    10030    2    1    2    0    0  0.00000000000E+00  0.00000000000E+00  0.90126695612E+03  0.38530895913E+04  0.37462003780E+04 0.  0.
        3    1    3    3  502    0 -0.12760643761E+04 -0.60367495779E+03  0.17169157891E+04  0.22227378576E+04  0.10100000352E+00 0. -1.
       -3    1    3    3    0  502  0.12760643761E+04  0.60367495779E+03 -0.81564883300E+03  0.16303517337E+04  0.10100000352E+00 0.  1.
</event>
<event>
 5   0  0.1501585E-07  0.3901811E+04  0.7818609E-02  0.8024653E-01
        2   -1    0    0  501    0  0.00000000000E+00  0.00000000000E+00  0.24554519040E+04  0.24554519040E+04  0.25500000920E-02 0. -1.
       -2   -1    0    0    0  501  0.00000000000E+00  0.00000000000E+00 -0.15500332528E+04  0.15500332528E+04  0.25500000920E-02 0.  1.
    10030    2    1    2    0    0  0.00000000000E+00  0.00000000000E+00  0.90541865117E+03  0.40054851568E+04  0.39018109138E+04 0.  0.
        5    1    3    3  502    0  0.96210751945E+03  0.23765692921E+03  0.21777998786E+04  0.23926901379E+04  0.46999998093E+01 0. -1.
       -5    1    3    3    0  502 -0.96210751945E+03 -0.23765692921E+03 -0.12723812274E+04  0.16127950189E+04  0.46999998093E+01 0.  1.
</event>
<event>
 5   0  0.1538018E-07  0.3899356E+04  0.7818609E-02  0.8025163E-01
       -2   -1    0    0    0  501  0.00000000000E+00  0.00000000000E+00  0.16095333248E+04  0.16095333248E+04  0.25500000920E-02 0.  1.
        2   -1    0    0  501    0  0.00000000000E+00  0.00000000000E+00 -0.23617053847E+04  0.23617053847E+04  0.25500000920E-02 0. -1.
    10030    2    1    2    0    0  0.00000000000E+00  0.00000000000E+00 -0.75217205991E+03  0.39712387096E+04  0.38993555981E+04 0.  0.
        1    1    3    3  502    0  0.18750997774E+04 -0.28926053069E+03  0.81159003806E+02  0.18990149061E+04  0.50400001928E-02 0.  1.
       -1    1    3    3    0  502 -0.18750997774E+04  0.28926053069E+03 -0.83333106372E+03  0.20722238034E+04  0.50400001928E-02 0. -1.
</event>
<event>
 5   0  0.4750125E-08  0.3905036E+04  0.7818609E-02  0.8023983E-01
       -1   -1    0    0    0  501  0.00000000000E+00  0.00000000000E+00  0.12992517170E+04  0.12992517170E+04  0.50400001928E-02 0. -1.
        1   -1    0    0  501    0  0.00000000000E+00  0.00000000000E+00 -0.29342480989E+04  0.29342480989E+04  0.50400001928E-02 0.  1.
    10030    2    1    2    0    0  0.00000000000E+00  0.00000000000E+00 -0.16349963819E+04  0.42334998160E+04  0.39050361743E+04 0.  0.
        4    1    3    3  502    0  0.58461371839E+03 -0.80701199086E+03 -0.26378019891E+04  0.28197592981E+04  0.12699999809E+01 0.  1.
       -4    1    3    3    0  502 -0.58461371839E+03  0.80701199086E+03  0.10028056071E+04  0.14137405178E+04  0.12699999809E+01 0. -1.
</event>
<event>
 5   0  0.4750125E-08  0.3891841E+04  0.7818609E-02  0.8026728E-01
       -1   -1    0    0    0  501  0.00000000000E+00  0.00000000000E+00  0.30651188357E+04  0.30651188357E+04  0.50400001928E-02 0. -1.
        1   -1    0    0  501    0  0.00000000000E+00  0.00000000000E+00 -0.12353865681E+04  0.12353865681E+04  0.50400001928E-02 0.  1.
    10030    2    1    2    0    0  0.00000000000E+00  0.00000000000E+00  0.18297322677E+04  0.43005054038E+04  0.38918410241E+04 0.  0.
        3    1    3    3  502    0  0.18073376309E+04 -0.14775772930E+03  0.16948974084E+04  0.24821319251E+04  0.10100000352E+00 0. -1.
       -3    1    3    3    0  502 -0.18073376309E+04  0.14775772930E+03  0.13483485923E+03  0.18183734787E+04  0.10100000352E+00 0.  1.
</event>
<event>
 5   0  0.1501585E-07  0.3890727E+04  0.7818609E-02  0.8026961E-01
        2   -1    0    0  501    0  0.00000000000E+00  0.00000000000E+00  0.13791251950E+04  0.13791251950E+04  0.25500000920E-02 0. -1.
       -2   -1    0    0    0  501  0.00000000000E+00  0.00000000000E+00 -0.27440866806E+04  0.27440866806E+04  0.25500000920E-02 0.  1.
    10030    2    1    2    0    0  0.00000000000E+00  0.00000000000E+00 -0.13649614857E+04  0.41232118756E+04  0.38907269647E+04 0.  0.
        5    1    3    3  502    0  0.14100855503E+04  0.71332515354E+02 -0.21007254211E+04  0.25311062743E+04  0.46999998093E+01 0.  1.
       -5    1    3    3    0  502 -0.14100855503E+04 -0.71332515354E+02  0.73576393540E+03  0.15921056013E+04  0.46999998093E+01 0. -1.
</event>
<event>
 5   0  0.4750125E-08  0.3906204E+04  0.7818609E-02  0.8023740E-01
       -1   -1    0    0    0  501  0.00000000000E+00  0.00000000000E+00  0.14233705356E+04  0.14233705356E+04  0.50400001928E-02 0.  1.
        1   -1    0    0  501    0  0.00000000000E+00  0.00000000000E+00 -0.26799815321E+04  0.26799815321E+04  0.50400001928E-02 0. -1.
    10030    2    1    2    0    0  0.00000000000E+00  0.00000000000E+00 -0.12566109964E+04  0.41033520677E+04  0.39062036551E+04 0.  0.
        5    1    3    3  502    0 -0.40734252612E+02  0.17193701983E+04 -0.16005961902E+04  0.23494304442E+04  0.46999998093E+01 0. -1.
       -5    1    3    3    0  502  0.40734252612E+02 -0.17193701983E+04  0.34398519372E+03  0.17539216235E+04  0.46999998093E+01 0.  1.
</event>
<event>
 5   0  0.4750125E-08  0.3876032E+04  0.7818609E-02  0.8030033E-01
        1   -1    0    0  501    0  0.00000000000E+00  0.00000000000E+00  0.17428517411E+04  0.17428517411E+04  0.50400001928E-02 0.  1.
       -1   -1    0    0    0  501  0.00000000000E+00  0.00000000000E+00 -0.21550344448E+04  0.21550344448E+04  0.50400001928E-02 0. -1.
    10030    2    1    2    0    0  0.00000000000E+00  0.00000000000E+00 -0.41218270375E+03  0.38978861859E+04  0.38760317513E+04 0.  0.
        3    1    3    3  502    0  0.73064452982E+03 -0.67531059683E+03 -0.18786041971E+04  0.21258032766E+04  0.10100000352E+00 0. -1.
       -3    1    3    3    0  502 -0.73064452982E+03  0.67531059683E+03  0.14664214934E+04  0.17720829093E+04  0.10100000352E+00 0.  1.
</event>
<event>
 5   0  0.1520986E-07  0.3887847E+04  0.7818609E-02  0.8027562E-01
       -2   -1    0    0    0  501  0.00000000000E+00  0.00000000000E+00  0.27794330653E+04  0.27794330653E+04  0.25500000920E-02 0. -1.
        2   -1    0    0  501    0  0.00000000000E+00  0.00000000000E+00 -0.13595713886E+04  0.13595713886E+04  0.25500000920E-02 0.  1.
    10030    2    1    2    0    0  0.00000000000E+00  0.00000000000E+00  0.14198616768E+04  0.41390044539E+04  0.38878465361E+04 0.  0.
        4    1    3    3  502    0  0.10774016112E+04  0.12220679279E+04 -0.41904393416E+03  0.16822139234E+04  0.12699999809E+01 0.  1.
       -4    1    3    3    0  502 -0.10774016112E+04 -0.12220679279E+04  0.18389056109E+04  0.24567905306E+04  0.12699999809E+01 0. -1.
</event>
<event>
 5   0  0.1546846E-07  0.3908651E+04  0.7818609E-02  0.8023232E-01
        2   -1    0    0  501    0  0.00000000000E+00  0.00000000000E+00  0.19046317944E+04  0.19046317944E+04  0.25500000920E-02 0. -1.
       -2   -1    0    0    0  501  0.00000000000E+00  0.00000000000E+00 -0.20053154787E+04  0.20053154787E+04  0.25500000920E-02 0.  1.
    10030    2    1    2    0    0  0.00000000000E+00  0.00000000000E+00 -0.10068368424E+03  0.39099472731E+04  0.39086507230E+04 0.  0.
        2    1    3    3  502    0  0.34870101744E+03 -0.16739031671E+04 -0.99714585059E+03  0.19793544553E+04  0.25500000920E-02 0.  1.
       -2    1    3    3    0  502 -0.34870101744E+03  0.16739031671E+04  0.89646216635E+03  0.19305928178E+04  0.25500000920E-02 0. -1.
</event>
<event>
 5   0  0.4762788E-08  0.3927217E+04  0.7818609E-02  0.8019392E-01
       -1   -1    0    0    0  501  0.00000000000E+00  0.00000000000E+00  0.24353970713E+04  0.24353970713E+04  0.50400001928E-02 0.  1.
        1   -1    0    0  501    0  0.00000000000E+00  0.00000000000E+00 -0.15832158095E+04  0.15832158095E+04  0.50400001928E-02 0. -1.
    10030    2    1    2    0    0  0.00000000000E+00  0.00000000000E+00  0.85218126179E+03  0.40186128808E+04  0.39272174096E+04 0.  0.
        2    1    3    3  502    0 -0.58666350657E+03  0.98176023812E+03  0.20593986372E+04  0.23556633847E+04  0.25500000920E-02 0.  1.
       -2    1    3    3    0  502  0.58666350657E+03 -0.98176023812E+03 -0.12072173754E+04  0.16629494961E+04  0.25500000920E-02 0. -1.
</event>
<event>
 5   0  0.1546846E-07  0.3574625E+04  0.7818609E-02  0.8096329E-01
        2   -1    0    0  501    0  0.00000000000E+00  0.00000000000E+00  0.18458530005E+04  0.18458530005E+04  0.25500000920E-02 0.  1.
       -2   -1    0    0    0  501  0.00000000000E+00  0.00000000000E+00 -0.17306284391E+04  0.17306284392E+04  0.25500000920E-02 0. -1.
    10030    2    1    2    0    0  0.00000000000E+00  0.00000000000E+00  0.11522456131E+03  0.35764814396E+04  0.35746248458E+04 0.  0.
        2    1    3    3  502    0 -0.58674566319E+03  0.15542709843E+04 -0.60186353102E+03  0.17669941924E+04  0.25500000920E-02 0. -1.
       -2    1    3    3    0  502  0.58674566319E+03 -0.15542709843E+04  0.71708809233E+03  0.18094872473E+04  0.25500000920E-02 0.  1.
</event>
<event>
 5   0  0.4762788E-08  0.3930250E+04  0.7818609E-02  0.8018767E-01
        1   -1    0    0  501    0  0.00000000000E+00  0.00000000000E+00  0.20744457258E+04  0.20744457258E+04  0.50400001928E-02 0. -1.
       -1   -1    0    0    0  501  0.00000000000E+00  0.00000000000E+00 -0.18615656702E+04  0.18615656702E+04  0.50400001928E-02 0.  1.
    10030    2    1    2    0    0  0.00000000000E+00  0.00000000000E+00  0.21288005556E+03  0.39360113960E+04  0.39302503471E+04 0.  0.
        2    1    3    3  502    0 -0.65165068471E+03 -0.16851428551E+04 -0.66758479564E+03  0.19261423925E+04  0.25500000920E-02 0.  1.
       -2    1    3    3    0  502  0.65165068471E+03  0.16851428551E+04  0.88046485120E+03  0.20098690035E+04  0.25500000920E-02 0. -1.
</event>
<event>
 5   0  0.4750125E-08  0.3854013E+04  0.7818609E-02  0.8034662E-01
        1   -1    0    0  501    0  0.00000000000E+00  0.00000000000E+00  0.17173552123E+04  0.17173552123E+04  0.50400001928E-02 0. -1.
       -1   -1    0    0    0  501  0.00000000000E+00  0.00000000000E+00 -0.21622513214E+04  0.21622513214E+04  0.50400001928E-02 0.  1.
    10030    2    1    2    0    0  0.00000000000E+00  0.00000000000E+00 -0.44489610909E+03  0.38796065337E+04  0.38540127541E+04 0.  0.
        3    1    3    3  502    0 -0.16958792453E+04 -0.80392803439E+03 -0.66243976633E+03  0.19902595693E+04  0.10100000352E+00 0.  1.
       -3    1    3    3    0  502  0.16958792453E+04  0.80392803439E+03  0.21754365724E+03  0.18893469644E+04  0.10100000352E+00 0. -1.
</event>
<event>
 5   0  0.1546846E-07  0.3887279E+04  0.7818609E-02  0.8027680E-01
       -2   -1    0    0    0  501  0.00000000000E+00  0.00000000000E+00  0.16969335966E+04  0.16969335966E+04  0.25500000920E-02 0. -1.
        2   -1    0    0  501    0  0.00000000000E+00  0.00000000000E+00 -0.22262119653E+04  0.22262119653E+04  0.25500000920E-02 0.  1.
    10030    2    1    2    0    0  0.00000000000E+00  0.00000000000E+00 -0.52927836867E+03  0.39231455619E+04  0.38872786764E+04 0.  0.
        2    1    3    3  502    0 -0.30470899157E+03  0.87899575803E+03 -0.19869172846E+04  0.21939283051E+04  0.25500000920E-02 0.  1.
       -2    1    3    3    0  502  0.30470899157E+03 -0.87899575803E+03  0.14576389159E+04  0.17292172568E+04  0.25500000920E-02 0. -1.
</event>
<event>
 5   0  0.1520986E-07  0.3898364E+04  0.7818609E-02  0.8025369E-01
       -2   -1    0    0    0  501  0.00000000000E+00  0.00000000000E+00  0.22752879589E+04  0.22752879589E+04  0.25500000920E-02 0.  1.
        2   -1    0    0  501    0  0.00000000000E+00  0.00000000000E+00 -0.16698155744E+04  0.16698155744E+04  0.25500000920E-02 0. -1.
    10030    2    1    2    0    0  0.00000000000E+00  0.00000000000E+00  0.60547238448E+03  0.39451035333E+04  0.38983644109E+04 0.  0.
        4    1    3    3  502    0  0.11779789205E+04  0.11120764707E+04 -0.79421610549E+03  0.18041976746E+04  0.12699999809E+01 0. -1.
       -4    1    3    3    0  502 -0.11779789205E+04 -0.11120764707E+04  0.13996884900E+04  0.21409058587E+04  0.12699999809E+01 0.  1.
</event>
<event>
 5   0  0.1538018E-07  0.3886097E+04  0.7818609E-02  0.8027927E-01
       -2   -1    0    0    0  501  0.00000000000E+00  0.00000000000E+00  0.17201271044E+04  0.17201271044E+04  0.25500000920E-02 0. -1.
        2   -1    0    0  501    0  0.00000000000E+00  0.00000000000E+00 -0.21948596803E+04  0.21948596803E+04  0.25500000920E-02 0.  1.
    10030    2    1    2    0    0  0.00000000000E+00  0.00000000000E+00 -0.47473257593E+03  0.39149867847E+04  0.38860970787E+04 0.  0.
        1    1    3    3  502    0 -0.18006582346E+04 -0.49311170727E+03  0.30506789375E+03  0.18917176463E+04  0.50400001928E-02 0.  1.
       -1    1    3    3    0  502  0.18006582346E+04  0.49311170727E+03 -0.77980046968E+03  0.20232691383E+04  0.50400001928E-02 0. -1.
</event>
<event>
 5   0  0.1538018E-07  0.3891924E+04  0.7818609E-02  0.8026711E-01
       -2   -1    0    0    0  501  0.00000000000E+00  0.00000000000E+00  0.13162273697E+04  0.13162273697E+04  0.25500000920E-02 0. -1.
        2   -1    0    0  501    0  0.00000000000E+00  0.00000000000E+00 -0.28769862443E+04  0.28769862443E+04  0.25500000920E-02 0.  1.
    10030    2    1    2    0    0  0.00000000000E+00  0.00000000000E+00 -0.15607588746E+04  0.41932136140E+04  0.38919239648E+04 0.  0.
        1    1    3    3  502    0  0.13283240238E+04 -0.38276938945E+03 -0.22560083973E+04  0.26458516600E+04  0.50400001928E-02 0.  1.
       -1    1    3    3    0  502 -0.13283240238E+04  0.38276938945E+03  0.69524952272E+03  0.15473619540E+04  0.50400001928E-02 0. -1.
</event>
<event>
 5   0  0.4762788E-08  0.3947512E+04  0.7818609E-02  0.8015219E-01
        1   -1    0    0  501    0  0.00000000000E+00  0.00000000000E+00  0.15391427060E+04  0.15391427060E+04  0.50400001928E-02 0.  1.
       -1   -1    0    0    0  501  0.00000000000E+00  0.00000000000E+00 -0.25310929125E+04  0.25310929125E+04  0.50400001928E-02 0. -1.
    10030    2    1    2    0    0  0.00000000000E+00  0.00000000000E+00 -0.99195020650E+03  0.40702356186E+04  0.39475122265E+04 0.  0.
        2    1    3    3  502    0  0.28950677723E+03  0.18105840600E+04  0.25727346288E+03  0.18515448812E+04  0.25500000920E-02 0. -1.
       -2    1    3    3    0  502 -0.28950677723E+03 -0.18105840600E+04 -0.12492236694E+04  0.22186907374E+04  0.25500000920E-02 0.  1.
</event>
<event>
 5   0  0.4762788E-08  0.3876535E+04  0.7818609E-02  0.8029927E-01
        1   -1    0    0  501    0  0.00000000000E+00  0.00000000000E+00  0.16807900241E+04  0.16807900241E+04  0.50400001928E-02 0. -1.
       -1   -1    0    0    0  501  0.00000000000E+00  0.00000000000E+00 -0.22351877316E+04  0.22351877316E+04  0.50400001928E-02 0.  1.
    10030    2    1    2    0    0  0.00000000000E+00  0.00000000000E+00 -0.55439770750E+03  0.39159777557E+04  0.38765351753E+04 0.  0.
        2    1    3    3  502    0  0.71852834047E+03  0.17385828520E+04 -0.74877620197E+03  0.20247516168E+04  0.25500000920E-02 0.  1.
       -2    1    3    3    0  502 -0.71852834047E+03 -0.17385828520E+04  0.19437849448E+03  0.18912261389E+04  0.25500000920E-02 0. -1.
</event>
<event>
 5   0  0.1538018E-07  0.3859308E+04  0.7818609E-02  0.8033546E-01
        2   -1    0    0  501    0  0.00000000000E+00  0.00000000000E+00  0.19312510819E+04  0.19312510819E+04  0.25500000920E-02 0.  1.
       -2   -1    0    0    0  501  0.00000000000E+00  0.00000000000E+00 -0.19280586060E+04  0.19280586060E+04  0.25500000920E-02 0. -1.
    10030    2    1    2    0    0  0.00000000000E+00  0.00000000000E+00  0.31924758332E+01  0.38593096879E+04  0.38593083675E+04 0.  0.
        1    1    3    3  502    0  0.70105648468E+03 -0.13437650802E+04 -0.11927158901E+04  0.19286668920E+04  0.50400001928E-02 0. -1.
       -1    1    3    3    0  502 -0.70105648468E+03  0.13437650802E+04  0.11959083660E+04  0.19306427959E+04  0.50400001928E-02 0.  1.
</event>
<event>
 5   0  0.1501585E-07  0.3817703E+04  0.7818609E-02  0.8042366E-01
       -2   -1    0    0    0  501  0.00000000000E+00  0.00000000000E+00  0.15958657210E+04  0.15958657210E+04  0.25500000920E-02 0. -1.
        2   -1    0    0  501    0  0.00000000000E+00  0.00000000000E+00 -0.22832211421E+04  0.22832211421E+04  0.25500000920E-02 0.  1.
    10030    2    1    2    0    0  0.00000000000E+00  0.00000000000E+00 -0.68735542104E+03  0.38790868631E+04  0.38177031598E+04 0.  0.
        5    1    3    3  502    0  0.10220078064E+04  0.43680619519E+03 -0.19205299324E+04  0.22189540148E+04  0.46999998093E+01 0.  1.
       -5    1    3    3    0  502 -0.10220078064E+04 -0.43680619519E+03  0.12331745114E+04  0.16601328483E+04  0.46999998093E+01 0. -1.
</event>
<event>
 5   0  0.1520986E-07  0.3899200E+04  0.7818609E-02  0.8025196E-01
       -2   -1    0    0    0  501  0.00000000000E+00  0.00000000000E+00  0.23292876735E+04  0.23292876735E+04  0.25500000920E-02 0.  1.
        2   -1    0    0  501    0  0.00000000000E+00  0.00000000000E+00 -0.16318040174E+04  0.16318040174E+04  0.25500000920E-02 0. -1.
    10030    2    1    2    0    0  0.00000000000E+00  0.00000000000E+00  0.69748365608E+03  0.39610916909E+04  0.38992004223E+04 0.  0.
        4    1    3    3  502    0 -0.49245818547E+03  0.17779455178E+04  0.98909154817E+03  0.20933009894E+04  0.12699999809E+01 0. -1.
       -4    1    3    3    0  502  0.49245818547E+03 -0.17779455178E+04 -0.29160789209E+03  0.18677907014E+04  0.12699999809E+01 0.  1.
</event>
<event>
 5   0  0.4750125E-08  0.3890368E+04  0.7818609E-02  0.8027036E-01
        1   -1    0    0  501    0  0.00000000000E+00  0.00000000000E+00  0.16898412986E+04  0.16898412986E+04  0.50400001928E-02 0. -1.
       -1   -1    0    0    0  501  0.00000000000E+00  0.00000000000E+00 -0.22391096176E+04  0.22391096176E+04  0.50400001928E-02 0.  1.
    10030    2    1    2    0    0  0.00000000000E+00  0.00000000000E+00 -0.54926831897E+03  0.39289509162E+04  0.38903675425E+04 0.  0.
        1    1    3    3  502    0  0.57771250202E+03 -0.18291629724E+04  0.51290837071E+02  0.19189110622E+04  0.50400001928E-02 0. -1.
       -1    1    3    3    0  502 -0.57771250202E+03  0.18291629724E+04 -0.60055915604E+03  0.20100398540E+04  0.50400001928E-02 0.  1.
</event>
<event>
 5   0  0.1503228E-07  0.3963732E+04  0.7818609E-02  0.8011903E-01
       -2   -1    0    0    0  501  0.00000000000E+00  0.00000000000E+00  0.13652795366E+04  0.13652795366E+04  0.25500000920E-02 0. -1.
        2   -1    0    0  501    0  0.00000000000E+00  0.00000000000E+00 -0.28769150378E+04  0.28769150378E+04  0.25500000920E-02 0.  1.
    10030    2    1    2    0    0  0.00000000000E+00  0.00000000000E+00 -0.15116355012E+04  0.42421945745E+04  0.39637321957E+04 0.  0.
        3    1    3    3  502    0  0.16478994511E+03 -0.14590861665E+04  0.66874633660E+03  0.16134775611E+04  0.10100000352E+00 0. -1.
       -3    1    3    3    0  502 -0.16478994511E+03  0.14590861665E+04 -0.21803818378E+04  0.26287170133E+04  0.10100000352E+00 0.  1.
</event>
<event>
 5   0  0.1538018E-07  0.3895312E+04  0.7818609E-02  0.8026005E-01
        2   -1    0    0  501    0  0.00000000000E+00  0.00000000000E+00  0.19506861787E+04  0.19506861787E+04  0.25500000920E-02 0. -1.
       -2   -1    0    0    0  501  0.00000000000E+00  0.00000000000E+00 -0.19446305712E+04  0.19446305712E+04  0.25500000920E-02 0.  1.
    10030    2    1    2    0    0  0.00000000000E+00  0.00000000000E+00  0.60556074429E+01  0.38953167499E+04  0.38953120429E+04 0.  0.
        1    1    3    3  502    0 -0.33740854926E+03 -0.28983998079E+03 -0.18931580848E+04  0.19447105897E+04  0.50400001928E-02 0.  1.
       -1    1    3    3    0  502  0.33740854926E+03  0.28983998079E+03  0.18992136922E+04  0.19506061602E+04  0.50400001928E-02 0. -1.
</event>
<event>
 5   0  0.4750125E-08  0.3902833E+04  0.7818609E-02  0.8024440E-01
        1   -1    0    0  501    0  0.00000000000E+00  0.00000000000E+00  0.22636010204E+04  0.22636010204E+04  0.50400001928E-02 0.  1.
       -1   -1    0    0    0  501  0.00000000000E+00  0.00000000000E+00 -0.16822866717E+04  0.16822866717E+04  0.50400001928E-02 0. -1.
    10030    2    1    2    0    0  0.00000000000E+00  0.00000000000E+00  0.58131434867E+03  0.39458876922E+04  0.39028327286E+04 0.  0.
        4    1    3    3  502    0  0.15734440135E+04  0.32110379041E+03 -0.83026221247E+03  0.18078082482E+04  0.12699999809E+01 0. -1.
       -4    1    3    3    0  502 -0.15734440135E+04 -0.32110379041E+03  0.14115765611E+04  0.21380794440E+04  0.12699999809E+01 0.  1.
</event>
<event>
 5   0  0.1503228E-07  0.3900371E+04  0.7818609E-02  0.8024952E-01
       -2   -1    0    0    0  501  0.00000000000E+00  0.00000000000E+00  0.25488037061E+04  0.25488037061E+04  0.25500000920E-02 0. -1.
        2   -1    0    0  501    0  0.00000000000E+00  0.00000000000E+00 -0.14921605252E+04  0.14921605252E+04  0.25500000920E-02 0.  1.
    10030    2    1    2    0    0  0.00000000000E+00  0.00000000000E+00  0.10566431809E+04  0.40409642313E+04  0.39003714063E+04 0.  0.
        3    1    3    3  502    0 -0.18895944219E+04  0.47293269133E+03  0.62656506915E+03  0.20461711087E+04  0.10100000352E+00 0. -1.
       -3    1    3    3    0  502  0.18895944219E+04 -0.47293269133E+03  0.43007811174E+03  0.19947931227E+04  0.10100000352E+00 0.  1.
</event>
<event>
 5   0  0.1538018E-07  0.4023183E+04  0.7818609E-02  0.7999886E-01
       -2   -1    0    0    0  501  0.00000000000E+00  0.00000000000E+00  0.25236470815E+04  0.25236470815E+04  0.25500000920E-02 0.  1.
        2   -1    0    0  501    0  0.00000000000E+00  0.00000000000E+00 -0.16034335397E+04  0.16034335397E+04  0.25500000920E-02 0. -1.
    10030    2    1    2    0    0  0.00000000000E+00  0.00000000000E+00  0.92021354181E+03  0.41270806211E+04  0.40231830049E+04 0.  0.
        1    1    3    3  502    0  0.34377938293E+03  0.17810565060E+04 -0.43192072866E+03  0.18646452901E+04  0.50400001928E-02 0. -1.
       -1    1    3    3    0  502 -0.34377938293E+03 -0.17810565060E+04  0.13521342705E+04  0.22624353311E+04  0.50400001928E-02 0.  1.
</event>
<event>
 5   0  0.4762788E-08  0.3873085E+04  0.7818609E-02  0.8030650E-01
       -1   -1    0    0    0  501  0.00000000000E+00  0.00000000000E+00  0.10706339284E+04  0.10706339284E+04  0.50400001928E-02 0. -1.
        1   -1    0    0  501    0  0.00000000000E+00  0.00000000000E+00 -0.35027819298E+04  0.35027819298E+04  0.50400001928E-02 0.  1.
    10030    2    1    2    0    0  0.00000000000E+00  0.00000000000E+00 -0.24321480014E+04  0.45734158582E+04  0.38730851671E+04 0.  0.
        2    1    3    3  502    0 -0.16692783959E+04  0.65115555553E+03 -0.34859061467E+03  0.18253792310E+04  0.25500000920E-02 0. -1.
       -2    1    3    3    0  502  0.16692783959E+04 -0.65115555553E+03 -0.20835573867E+04  0.27480366271E+04  0.25500000920E-02 0.  1.
</event>
<event>
 5   0  0.1501585E-07  0.3894544E+04  0.7818609E-02  0.8026165E-01
       -2   -1    0    0    0  501  0.00000000000E+00  0.00000000000E+00  0.25322594088E+04  0.25322594088E+04  0.25500000920E-02 0.  1.
        2   -1    0    0  501    0  0.00000000000E+00  0.00000000000E+00 -0.14974247526E+04  0.14974247526E+04  0.25500000920E-02 0. -1.
    10030    2    1    2    0    0  0.00000000000E+00  0.00000000000E+00  0.10348346562E+04  0.40296841614E+04  0.38945438339E+04 0.  0.
        5    1    3    3  502    0 -0.46424426720E+03 -0.46807741349E+03  0.24132706826E+04  0.25017027566E+04  0.46999998093E+01 0.  1.
       -5    1    3    3    0  502  0.46424426720E+03  0.46807741349E+03 -0.13784360264E+04  0.15279814048E+04  0.46999998093E+01 0. -1.
</event>
<event>
 5   0  0.4750125E-08  0.3622789E+04  0.7818609E-02  0.8085292E-01
        1   -1    0    0  501    0  0.00000000000E+00  0.00000000000E+00  0.23696408285E+04  0.23696408285E+04  0.50400001928E-02 0.  1.
       -1   -1    0    0    0  501  0.00000000000E+00  0.00000000000E+00 -0.13846611072E+04  0.13846611072E+04  0.50400001928E-02 0. -1.
    10030    2    1    2    0    0  0.00000000000E+00  0.00000000000E+00  0.98497972128E+03  0.37543019358E+04  0.36227887012E+04 0.  0.
        1    1    3    3  502    0 -0.11052529219E+04 -0.49176232510E+02  0.19788322855E+04  0.22671081883E+04  0.50400001928E-02 0.  1.
       -1    1    3    3    0  502  0.11052529219E+04  0.49176232510E+02 -0.99385256424E+03  0.14871937475E+04  0.50400001928E-02 0. -1.
</event>
<event>
 5   0  0.1538018E-07  0.3911297E+04  0.7818609E-02  0.8022684E-01
        2   -1    0    0  501    0  0.00000000000E+00  0.00000000000E+00  0.12253368184E+04  0.12253368184E+04  0.25500000920E-02 0.  1.
       -2   -1    0    0    0  501  0.00000000000E+00  0.00000000000E+00 -0.31212332498E+04  0.31212332498E+04  0.25500000920E-02 0. -1.
    10030    2    1    2    0    0  0.00000000000E+00  0.00000000000E+00 -0.18958964313E+04  0.43465700682E+04  0.39112974931E+04 0.  0.
        1    1    3    3  502    0 -0.86510855529E+03  0.15102608311E+03  0.99389178221E+03  0.13262890202E+04  0.50400001928E-02 0.  1.
       -1    1    3    3    0  502  0.86510855529E+03 -0.15102608311E+03 -0.28897882135E+04  0.30202810481E+04  0.50400001928E-02 0. -1.
</event>
<event>
 5   0  0.1546846E-07  0.3917990E+04  0.7818609E-02  0.8021298E-01
       -2   -1    0    0    0  501  0.00000000000E+00  0.00000000000E+00  0.17691097077E+04  0.17691097077E+04  0.25500000920E-02 0. -1.
        2   -1    0    0  501    0  0.00000000000E+00  0.00000000000E+00 -0.21692618102E+04  0.21692618102E+04  0.25500000920E-02 0.  1.
    10030    2    1    2    0    0  0.00000000000E+00  0.00000000000E+00 -0.40015210253E+03  0.39383715179E+04  0.39179903660E+04 0.  0.
        2    1    3    3  502    0 -0.28540441449E+03 -0.19218176728E+04  0.51873518503E+02  0.19435868154E+04  0.25500000920E-02 0. -1.
       -2    1    3    3    0  502  0.28540441449E+03  0.19218176728E+04 -0.45202562104E+03  0.19947847025E+04  0.25500000920E-02 0.  1.
</event>
<event>
 5   0  0.4750125E-08  0.3879713E+04  0.7818609E-02  0.8029262E-01
       -3   -1    0    0    0  501  0.00000000000E+00  0.00000000000E+00  0.12421159759E+04  0.12421159800E+04  0.10100000352E+00 0.  1.
        3   -1    0    0  501    0  0.00000000000E+00  0.00000000000E+00 -0.30295422580E+04  0.30295422597E+04  0.10100000352E+00 0. -1.
    10030    2    1    2    0    0  0.00000000000E+00  0.00000000000E+00 -0.17874262820E+04  0.42716582397E+04  0.38797127991E+04 0.  0.
        5    1    3    3  502    0  0.48112648261E+03  0.64598940198E+03 -0.28367125353E+04  0.29488548790E+04  0.46999998093E+01 0. -1.
       -5    1    3    3    0  502 -0.48112648261E+03 -0.64598940198E+03  0.10492862533E+04  0.13228033607E+04  0.46999998093E+01 0.  1.
</event>
<event>
 5   0  0.4750125E-08  0.3900929E+04  0.7818609E-02  0.8024836E-01
        1   -1    0    0  501    0  0.00000000000E+00  0.00000000000E+00  0.21934854951E+04  0.21934854951E+04  0.50400001928E-02 0. -1.
       -1   -1    0    0    0  501  0.00000000000E+00  0.00000000000E+00 -0.17343682088E+04  0.17343682088E+04  0.50400001928E-02 0.  1.
    10030    2    1    2    0    0  0.00000000000E+00  0.00000000000E+00  0.45911728626E+03  0.39278537039E+04  0.39009288684E+04 0.  0.
        3    1    3    3  502    0 -0.73810566623E+03  0.15699463572E+04  0.11272162728E+04  0.20688518736E+04  0.10100000352E+00 0. -1.
       -3    1    3    3    0  502  0.73810566623E+03 -0.15699463572E+04 -0.66809898657E+03  0.18590018303E+04  0.10100000352E+00 0.  1.
</event>
<event>
 5   0  0.1503228E-07  0.3894579E+04  0.7818609E-02  0.8026158E-01
       -2   -1    0    0    0  501  0.00000000000E+00  0.00000000000E+00  0.14380738892E+04  0.14380738892E+04  0.25500000920E-02 0. -1.
        2   -1    0    0  501    0  0.00000000000E+00  0.00000000000E+00 -0.26368159371E+04  0.26368159371E+04  0.25500000920E-02 0.  1.
    10030    2    1    2    0    0  0.00000000000E+00  0.00000000000E+00 -0.11987420480E+04  0.40748898263E+04  0.38945788731E+04 0.  0.
        3    1    3    3  502    0  0.71265154336E+03  0.15680419868E+04  0.35115379118E+03  0.17578216320E+04  0.10100000352E+00 0. -1.
       -3    1    3    3    0  502 -0.71265154336E+03 -0.15680419868E+04 -0.15498958391E+04  0.23170681943E+04  0.10100000352E+00 0.  1.
</event>
<event>
 5   0  0.1501585E-07  0.3828440E+04  0.7818609E-02  0.8040079E-01
        2   -1    0    0  501    0  0.00000000000E+00  0.00000000000E+00  0.14961675562E+04  0.14961675562E+04  0.25500000920E-02 0. -1.
       -2   -1    0    0    0  501  0.00000000000E+00  0.00000000000E+00 -0.24490823282E+04  0.24490823282E+04  0.25500000920E-02 0.  1.
    10030    2    1    2    0    0  0.00000000000E+00  0.00000000000E+00 -0.95291477206E+03  0.39452498844E+04  0.38284396414E+04 0.  0.
        5    1    3    3  502    0 -0.90088027886E+02 -0.16457741284E+04 -0.14795673187E+04  0.22149108052E+04  0.46999998093E+01 0.  1.
       -5    1    3    3    0  502  0.90088027886E+02  0.16457741284E+04  0.52665254662E+03  0.17303390793E+04  0.46999998093E+01 0. -1.
</event>
<event>
 5   0  0.4750125E-08  0.3903020E+04  0.7818609E-02  0.8024401E-01
       -3   -1    0    0    0  501  0.00000000000E+00  0.00000000000E+00  0.29719258564E+04  0.29719258581E+04  0.10100000352E+00 0.  1.
        3   -1    0    0  501    0  0.00000000000E+00  0.00000000000E+00 -0.12814554295E+04  0.12814554334E+04  0.10100000352E+00 0. -1.
    10030    2    1    2    0    0  0.00000000000E+00  0.00000000000E+00  0.16904704269E+04  0.42533812915E+04  0.39030196191E+04 0.  0.
        5    1    3    3  502    0 -0.80893552977E+03 -0.16988921820E+04  0.14091378011E+04  0.23508089607E+04  0.46999998093E+01 0. -1.
       -5    1    3    3    0  502  0.80893552977E+03  0.16988921820E+04  0.28133262586E+03  0.19025723308E+04  0.46999998093E+01 0.  1.
</event>
<event>
 5   0  0.1538018E-07  0.3863879E+04  0.7818609E-02  0.8032584E-01
        2   -1    0    0  501    0  0.00000000000E+00  0.00000000000E+00  0.13689231617E+04  0.13689231617E+04  0.25500000920E-02 0. -1.
       -2   -1    0    0    0  501  0.00000000000E+00  0.00000000000E+00 -0.27265155726E+04  0.27265155726E+04  0.25500000920E-02 0.  1.
    10030    2    1    2    0    0  0.00000000000E+00  0.00000000000E+00 -0.13575924110E+04  0.40954387343E+04  0.38638790447E+04 0.  0.
        1    1    3    3  502    0 -0.15937604020E+03  0.18154804850E+04 -0.13583259887E+04  0.22729759359E+04  0.50400001928E-02 0. -1.
       -1    1    3    3    0  502  0.15937604020E+03 -0.18154804850E+04  0.73357766534E+00  0.18224627984E+04  0.50400001928E-02 0.  1.
</event>
<event>
 5   0  0.4750125E-08  0.3888484E+04  0.7818609E-02  0.8027429E-01
       -1   -1    0    0    0  501  0.00000000000E+00  0.00000000000E+00  0.28850751243E+04  0.28850751243E+04  0.50400001928E-02 0.  1.
        1   -1    0    0  501    0  0.00000000000E+00  0.00000000000E+00 -0.13102177863E+04  0.13102177864E+04  0.50400001928E-02 0. -1.
    10030    2    1    2    0    0  0.00000000000E+00  0.00000000000E+00  0.15748573380E+04  0.41952929107E+04  0.38884838911E+04 0.  0.
        1    1    3    3  502    0  0.28293208843E+03 -0.14101652052E+04 -0.62402099599E+03  0.15678069639E+04  0.50400001928E-02 0. -1.
       -1    1    3    3    0  502 -0.28293208843E+03  0.14101652052E+04  0.21988783340E+04  0.26274859468E+04  0.50400001928E-02 0.  1.
</event>
<event>
 5   0  0.1503228E-07  0.3851959E+04  0.7818609E-02  0.8035096E-01
        2   -1    0    0  501    0  0.00000000000E+00  0.00000000000E+00  0.21006621929E+04  0.21006621929E+04  0.25500000920E-02 0. -1.
       -2   -1    0    0    0  501  0.00000000000E+00  0.00000000000E+00 -0.17658230366E+04  0.17658230366E+04  0.25500000920E-02 0.  1.
    10030    2    1    2    0    0  0.00000000000E+00  0.00000000000E+00  0.33483915631E+03  0.38664852295E+04  0.38519593416E+04 0.  0.
        3    1    3    3  502    0  0.57557955751E+03 -0.15660055729E+04  0.11331977673E+04  0.20168793894E+04  0.10100000352E+00 0. -1.
       -3    1    3    3    0  502 -0.57557955751E+03  0.15660055729E+04 -0.79835861099E+03  0.18496058400E+04  0.10100000352E+00 0.  1.
</event>
<event>
 5   0  0.1520986E-07  0.3899415E+04  0.7818609E-02  0.8025151E-01
        2   -1    0    0  501    0  0.00000000000E+00  0.00000000000E+00  0.16226306956E+04  0.16226306956E+04  0.25500000920E-02 0. -1.
       -2   -1    0    0    0  501  0.00000000000E+00  0.00000000000E+00 -0.23427140618E+04  0.23427140618E+04  0.25500000920E-02 0.  1.
    10030    2    1    2    0    0  0.00000000000E+00  0.00000000000E+00 -0.72008336620E+03  0.39653447574E+04  0.38994152114E+04 0.  0.
        4    1    3    3  502    0 -0.75438233180E+03  0.15306029320E+04  0.59904829463E+03  0.18085072602E+04  0.12699999809E+01 0. -1.
       -4    1    3    3    0  502  0.75438233180E+03 -0.15306029320E+04 -0.13191316608E+04  0.21568374972E+04  0.12699999809E+01 0.  1.
</event>
<event>
 5   0  0.1546846E-07  0.3893748E+04  0.7818609E-02  0.8026331E-01
       -2   -1    0    0    0  501  0.00000000000E+00  0.00000000000E+00  0.17690508330E+04  0.17690508330E+04  0.25500000920E-02 0.  1.
        2   -1    0    0  501    0  0.00000000000E+00  0.00000000000E+00 -0.21425717764E+04  0.21425717764E+04  0.25500000920E-02 0. -1.
    10030    2    1    2    0    0  0.00000000000E+00  0.00000000000E+00 -0.37352094336E+03  0.39116226094E+04  0.38937480071E+04 0.  0.
        2    1    3    3  502    0 -0.36672316368E+03 -0.47643790747E+03 -0.20469734917E+04  0.21334430937E+04  0.25500000920E-02 0. -1.
       -2    1    3    3    0  502  0.36672316368E+03  0.47643790747E+03  0.16734525483E+04  0.17781795157E+04  0.25500000920E-02 0.  1.
</event>
<event>
 5   0  0.1546846E-07  0.3922055E+04  0.7818609E-02  0.8020458E-01
        2   -1    0    0  501    0  0.00000000000E+00  0.00000000000E+00  0.18817688007E+04  0.18817688007E+04  0.25500000920E-02 0. -1.
       -2   -1    0    0    0  501  0.00000000000E+00  0.00000000000E+00 -0.20436245740E+04  0.20436245740E+04  0.25500000920E-02 0.  1.
    10030    2    1    2    0    0  0.00000000000E+00  0.00000000000E+00 -0.16185577329E+03  0.39253933747E+04  0.39220550550E+04 0.  0.
        2    1    3    3  502    0  0.12646898817E+04 -0.63373321946E+03  0.12783778483E+04  0.19066484242E+04  0.25500000920E-02 0. -1.
       -2    1    3    3    0  502 -0.12646898817E+04  0.63373321946E+03 -0.14402336216E+04  0.20187449505E+04  0.25500000920E-02 0.  1.
</event>
<event>
 5   0  0.1538018E-07  0.3987157E+04  0.7818609E-02  0.8007142E-01
       -2   -1    0    0    0  501  0.00000000000E+00  0.00000000000E+00  0.18057556839E+04  0.18057556839E+04  0.25500000920E-02 0. -1.
        2   -1    0    0  501    0  0.00000000000E+00  0.00000000000E+00 -0.22009376046E+04  0.22009376046E+04  0.25500000920E-02 0.  1.
    10030    2    1    2    0    0  0.00000000000E+00  0.00000000000E+00 -0.39518192069E+03  0.40066932886E+04  0.39871571775E+04 0.  0.
        1    1    3    3  502    0  0.38415994205E+03 -0.11281143848E+04  0.14084057000E+04  0.18449464876E+04  0.50400001928E-02 0. -1.
       -1    1    3    3    0  502 -0.38415994205E+03  0.11281143848E+04 -0.18035876207E+04  0.21617468010E+04  0.50400001928E-02 0.  1.
</event>
<event>
 5   0  0.4750125E-08  0.3924142E+04  0.7818609E-02  0.8020027E-01
       -3   -1    0    0    0  501  0.00000000000E+00  0.00000000000E+00  0.17026602726E+04  0.17026602756E+04  0.10100000352E+00 0.  1.
        3   -1    0    0  501    0  0.00000000000E+00  0.00000000000E+00 -0.22610049192E+04  0.22610049215E+04  0.10100000352E+00 0. -1.
    10030    2    1    2    0    0  0.00000000000E+00  0.00000000000E+00 -0.55834464662E+03  0.39636651971E+04  0.39241423331E+04 0.  0.
        5    1    3    3  502    0  0.63870553376E+03 -0.15535588324E+03 -0.21464725911E+04  0.22448712399E+04  0.46999998093E+01 0. -1.
       -5    1    3    3    0  502 -0.63870553376E+03  0.15535588324E+03  0.15881279445E+04  0.17187939572E+04  0.46999998093E+01 0.  1.
</event>
<event>
 5   0  0.4750125E-08  0.3906850E+04  0.7818609E-02  0.8023606E-01
        1   -1    0    0  501    0  0.00000000000E+00  0.00000000000E+00  0.17585312003E+04  0.17585312003E+04  0.50400001928E-02 0. -1.
       -1   -1    0    0    0  501  0.00000000000E+00  0.00000000000E+00 -0.21699185120E+04  0.21699185120E+04  0.50400001928E-02 0.  1.
    10030    2    1    2    0    0  0.00000000000E+00  0.00000000000E+00 -0.41138731162E+03  0.39284497123E+04  0.39068500895E+04 0.  0.
        1    1    3    3  502    0  0.35728949642E+03 -0.11867545156E+04 -0.17239511372E+04  0.21232168019E+04  0.50400001928E-02 0.  1.
       -1    1    3    3    0  502 -0.35728949642E+03  0.11867545156E+04  0.13125638256E+04  0.18052329104E+04  0.50400001928E-02 0. -1.
</event>
<event>
 5   0  0.1538018E-07  0.3515630E+04  0.7818609E-02  0.8110096E-01
        2   -1    0    0  501    0  0.00000000000E+00  0.00000000000E+00  0.24636693252E+04  0.24636693252E+04  0.25500000920E-02 0.  1.
       -2   -1    0    0    0  501  0.00000000000E+00  0.00000000000E+00 -0.12541917322E+04  0.12541917322E+04  0.25500000920E-02 0. -1.
    10030    2    1    2    0    0  0.00000000000E+00  0.00000000000E+00  0.12094775929E+04  0.37178610574E+04  0.35156300708E+04 0.  0.
        1    1    3    3  502    0 -0.79060779716E+03 -0.15699346809E+04  0.59144142013E+03  0.18546046869E+04  0.50400001928E-02 0. -1.
       -1    1    3    3    0  502  0.79060779716E+03  0.15699346809E+04  0.61803617280E+03  0.18632563705E+04  0.50400001928E-02 0.  1.
</event>
<event>
 5   0  0.4762788E-08  0.3902010E+04  0.7818609E-02  0.8024611E-01
       -1   -1    0    0    0  501  0.00000000000E+00  0.00000000000E+00  0.12025858798E+04  0.12025858798E+04  0.50400001928E-02 0.  1.
        1   -1    0    0  501    0  0.00000000000E+00  0.00000000000E+00 -0.31651965806E+04  0.31651965806E+04  0.50400001928E-02 0. -1.
    10030    2    1    2    0    0  0.00000000000E+00  0.00000000000E+00 -0.19626107008E+04  0.43677824604E+04  0.39020101049E+04 0.  0.
        2    1    3    3  502    0  0.17286629971E+04  0.22295804209E+03 -0.63449113250E-01  0.17429819420E+04  0.25500000920E-02 0.  1.
       -2    1    3    3    0  502 -0.17286629971E+04 -0.22295804209E+03 -0.19625472517E+04  0.26248005184E+04  0.25500000920E-02 0. -1.
</event>
<event>
 5   0  0.4750125E-08  0.3880130E+04  0.7818609E-02  0.8029175E-01
        1   -1    0    0  501    0  0.00000000000E+00  0.00000000000E+00  0.16968192889E+04  0.16968192889E+04  0.50400001928E-02 0.  1.
       -1   -1    0    0    0  501  0.00000000000E+00  0.00000000000E+00 -0.22181808246E+04  0.22181808246E+04  0.50400001928E-02 0. -1.
    10030    2    1    2    0    0  0.00000000000E+00  0.00000000000E+00 -0.52136153569E+03  0.39150001135E+04  0.38801298996E+04 0.  0.
        5    1    3    3  502    0 -0.32426365975E+03  0.72224638010E+03 -0.20477680371E+04  0.21954869115E+04  0.46999998093E+01 0. -1.
       -5    1    3    3    0  502  0.32426365975E+03 -0.72224638010E+03  0.15264065014E+04  0.17195132021E+04  0.46999998093E+01 0.  1.
</event>
<event>
 5   0  0.4750125E-08  0.3935844E+04  0.7818609E-02  0.8017615E-01
        1   -1    0    0  501    0  0.00000000000E+00  0.00000000000E+00  0.23080640871E+04  0.23080640871E+04  0.50400001928E-02 0.  1.
       -1   -1    0    0    0  501  0.00000000000E+00  0.00000000000E+00 -0.16779070540E+04  0.16779070540E+04  0.50400001928E-02 0. -1.
    10030    2    1    2    0    0  0.00000000000E+00  0.00000000000E+00  0.63015703307E+03  0.39859711411E+04  0.39358440075E+04 0.  0.
        4    1    3    3  502    0 -0.91432887262E+03 -0.13792009183E+04 -0.76362703415E+03  0.18224489898E+04  0.12699999809E+01 0. -1.
       -4    1    3    3    0  502  0.91432887262E+03  0.13792009183E+04  0.13937840672E+04  0.21635221513E+04  0.12699999809E+01 0.  1.
</event>
<event>
 5   0  0.1538018E-07  0.3861459E+04  0.7818609E-02  0.8033093E-01
        2   -1    0    0  501    0  0.00000000000E+00  0.00000000000E+00  0.20219272670E+04  0.20219272670E+04  0.25500000920E-02 0.  1.
       -2   -1    0    0    0  501  0.00000000000E+00  0.00000000000E+00 -0.18436452361E+04  0.18436452361E+04  0.25500000920E-02 0. -1.
    10030    2    1    2    0    0  0.00000000000E+00  0.00000000000E+00  0.17828203095E+03  0.38655725031E+04  0.38614590888E+04 0.  0.
        1    1    3    3  502    0 -0.28316436590E+02  0.83035129103E+03 -0.16555383743E+04  0.18523208135E+04  0.50400001928E-02 0. -1.
       -1    1    3    3    0  502  0.28316436590E+02 -0.83035129103E+03  0.18338204053E+04  0.20132516897E+04  0.50400001928E-02 0.  1.
</event>
<event>
 5   0  0.4762788E-08  0.3907066E+04  0.7818609E-02  0.8023561E-01
        1   -1    0    0  501    0  0.00000000000E+00  0.00000000000E+00  0.13959142706E+04  0.13959142706E+04  0.50400001928E-02 0.  1.
       -1   -1    0    0    0  501  0.00000000000E+00  0.00000000000E+00 -0.27339010856E+04  0.27339010856E+04  0.50400001928E-02 0. -1.
    10030    2    1    2    0    0  0.00000000000E+00  0.00000000000E+00 -0.13379868150E+04  0.41298153563E+04  0.39070661832E+04 0.  0.
        2    1    3    3  502    0  0.26906554601E+03 -0.40855661837E+03 -0.26681090905E+04  0.27125856479E+04  0.25500000920E-02 0. -1.
       -2    1    3    3    0  502 -0.26906554601E+03  0.40855661837E+03  0.13301222755E+04  0.14172297084E+04  0.25500000920E-02 0.  1.
</event>
<event>
 5   0  0.4750125E-08  0.3912525E+04  0.7818609E-02  0.8022429E-01
       -1   -1    0    0    0  501  0.00000000000E+00  0.00000000000E+00  0.29291150791E+04  0.29291150791E+04  0.50400001928E-02 0.  1.
        1   -1    0    0  501    0  0.00000000000E+00  0.00000000000E+00 -0.13065250311E+04  0.13065250312E+04  0.50400001928E-02 0. -1.
    10030    2    1    2    0    0  0.00000000000E+00  0.00000000000E+00  0.16225900479E+04  0.42356401102E+04  0.39125245916E+04 0.  0.
        5    1    3    3  502    0  0.62346658159E+03  0.10879651617E+04  0.24368175674E+04  0.27405256281E+04  0.46999998093E+01 0.  1.
       -5    1    3    3    0  502 -0.62346658159E+03 -0.10879651617E+04 -0.81422751941E+03  0.14951144822E+04  0.46999998093E+01 0. -1.
</event>
<event>
 5   0  0.4750125E-08  0.4110465E+04  0.7818609E-02  0.7982626E-01
        1   -1    0    0  501    0  0.00000000000E+00  0.00000000000E+00  0.22723683895E+04  0.22723683895E+04  0.50400001928E-02 0.  1.
       -1   -1    0    0    0  501  0.00000000000E+00  0.00000000000E+00 -0.18588447453E+04  0.18588447453E+04  0.50400001928E-02 0. -1.
    10030    2    1    2    0    0  0.00000000000E+00  0.00000000000E+00  0.41352364420E+03  0.41312131349E+04  0.41104647135E+04 0.  0.
        5    1    3    3  502    0 -0.13352713041E+04  0.13323362432E+04 -0.61337720124E+03  0.19835127934E+04  0.46999998093E+01 0.  1.
       -5    1    3    3    0  502  0.13352713041E+04 -0.13323362432E+04  0.10269008454E+04  0.21477003415E+04  0.46999998093E+01 0. -1.
</event>
<event>
 5   0  0.1538018E-07  0.3898424E+04  0.7818609E-02  0.8025357E-01
       -2   -1    0    0    0  501  0.00000000000E+00  0.00000000000E+00  0.17550506589E+04  0.17550506589E+04  0.25500000920E-02 0.  1.
        2   -1    0    0  501    0  0.00000000000E+00  0.00000000000E+00 -0.21648530559E+04  0.21648530559E+04  0.25500000920E-02 0. -1.
    10030    2    1    2    0    0  0.00000000000E+00  0.00000000000E+00 -0.40980239699E+03  0.39199037148E+04  0.38984236723E+04 0.  0.
        1    1    3    3  502    0 -0.50152497505E+02 -0.18843517448E+04 -0.70374967441E+03  0.20121034703E+04  0.50400001928E-02 0. -1.
       -1    1    3    3    0  502  0.50152497505E+02  0.18843517448E+04  0.29394727742E+03  0.19078002445E+04  0.50400001928E-02 0.  1.
</event>
<event>
 5   0  0.4750125E-08  0.3893761E+04  0.7818609E-02  0.8026328E-01
       -1   -1    0    0    0  501  0.00000000000E+00  0.00000000000E+00  0.19986060192E+04  0.19986060192E+04  0.50400001928E-02 0.  1.
        1   -1    0    0  501    0  0.00000000000E+00  0.00000000000E+00 -0.18964935597E+04  0.18964935597E+04  0.50400001928E-02 0. -1.
    10030    2    1    2    0    0  0.00000000000E+00  0.00000000000E+00  0.10211245945E+03  0.38950995789E+04  0.38937608780E+04 0.  0.
        5    1    3    3  502    0  0.89068613964E+03  0.14428064780E+04 -0.90599053415E+03  0.19224602129E+04  0.46999998093E+01 0. -1.
       -5    1    3    3    0  502 -0.89068613964E+03 -0.14428064780E+04  0.10081029936E+04  0.19726393659E+04  0.46999998093E+01 0.  1.
</event>
<event>
 5   0  0.1546846E-07  0.3888683E+04  0.7818609E-02  0.8027387E-01
       -2   -1    0    0    0  501  0.00000000000E+00  0.00000000000E+00  0.23234646767E+04  0.23234646767E+04  0.25500000920E-02 0.  1.
        2   -1    0    0  501    0  0.00000000000E+00  0.00000000000E+00 -0.16270806163E+04  0.16270806163E+04  0.25500000920E-02 0. -1.
    10030    2    1    2    0    0  0.00000000000E+00  0.00000000000E+00  0.69638406037E+03  0.39505452930E+04  0.38886832415E+04 0.  0.
        2    1    3    3  502    0 -0.65770800463E+03  0.78995441491E+03 -0.13284741031E+04  0.16797176071E+04  0.25500000920E-02 0. -1.
       -2    1    3    3    0  502  0.65770800463E+03 -0.78995441491E+03  0.20248581635E+04  0.22708276859E+04  0.25500000920E-02 0.  1.
</event>
<event>
 5   0  0.4762788E-08  0.3904961E+04  0.7818609E-02  0.8023998E-01
       -1   -1    0    0    0  501  0.00000000000E+00  0.00000000000E+00  0.16832932088E+04  0.16832932088E+04  0.50400001928E-02 0.  1.
        1   -1    0    0  501    0  0.00000000000E+00  0.00000000000E+00 -0.22647155299E+04  0.22647155299E+04  0.50400001928E-02 0. -1.
    10030    2    1    2    0    0  0.00000000000E+00  0.00000000000E+00 -0.58142232108E+03  0.39480087388E+04  0.39049610863E+04 0.  0.
        2    1    3    3  502    0  0.48355177242E+03  0.16016880891E+04  0.72683961486E+03  0.18241499053E+04  0.25500000920E-02 0.  1.
       -2    1    3    3    0  502 -0.48355177242E+03 -0.16016880891E+04 -0.13082619359E+04  0.21238588334E+04  0.25500000920E-02 0. -1.
</event>
<event>
 5   0  0.1501585E-07  0.3862800E+04  0.7818609E-02  0.8032811E-01
       -2   -1    0    0    0  501  0.00000000000E+00  0.00000000000E+00  0.12812533212E+04  0.12812533212E+04  0.25500000920E-02 0. -1.
        2   -1    0    0  501    0  0.00000000000E+00  0.00000000000E+00 -0.29114503464E+04  0.29114503464E+04  0.25500000920E-02 0.  1.
    10030    2    1    2    0    0  0.00000000000E+00  0.00000000000E+00 -0.16301970252E+04  0.41927036676E+04  0.38627997235E+04 0.  0.
        5    1    3    3  502    0 -0.17345445463E+04 -0.57416675723E+03 -0.14946447212E+04  0.23605713674E+04  0.46999998093E+01 0.  1.
       -5    1    3    3    0  502  0.17345445463E+04  0.57416675723E+03 -0.13555230398E+03  0.18321323002E+04  0.46999998093E+01 0. -1.
</event>
<event>
 5   0  0.1520986E-07  0.3902682E+04  0.7818609E-02  0.8024472E-01
        2   -1    0    0  501    0  0.00000000000E+00  0.00000000000E+00  0.21117269452E+04  0.21117269452E+04  0.25500000920E-02 0.  1.
       -2   -1    0    0    0  501  0.00000000000E+00  0.00000000000E+00 -0.18031363366E+04  0.18031363366E+04  0.25500000920E-02 0. -1.
    10030    2    1    2    0    0  0.00000000000E+00  0.00000000000E+00  0.30859060861E+03  0.39148632818E+04  0.39026819434E+04 0.  0.
        4    1    3    3  502    0  0.14654958100E+04 -0.29909777545E+03  0.14114398171E+04  0.20565265421E+04  0.12699999809E+01 0.  1.
       -4    1    3    3    0  502 -0.14654958100E+04  0.29909777545E+03 -0.11028492085E+04  0.18583367396E+04  0.12699999809E+01 0. -1.
</event>
<event>
 5   0  0.1520986E-07  0.3906101E+04  0.7818609E-02  0.8023761E-01
       -2   -1    0    0    0  501  0.00000000000E+00  0.00000000000E+00  0.15204607142E+04  0.15204607142E+04  0.25500000920E-02 0.  1.
        2   -1    0    0  501    0  0.00000000000E+00  0.00000000000E+00 -0.25087178033E+04  0.25087178033E+04  0.25500000920E-02 0. -1.
    10030    2    1    2    0    0  0.00000000000E+00  0.00000000000E+00 -0.98825708904E+03  0.40291785175E+04  0.39061013110E+04 0.  0.
        4    1    3    3  502    0 -0.16569923783E+04  0.74408113318E+03 -0.12344651540E+04  0.21961753809E+04  0.12699999809E+01 0. -1.
       -4    1    3    3    0  502  0.16569923783E+04 -0.74408113318E+03  0.24620806497E+03  0.18330031366E+04  0.12699999809E+01 0.  1.
</event>
<event>
 5   0  0.4750125E-08  0.3916620E+04  0.7818609E-02  0.8021581E-01
       -3   -1    0    0    0  501  0.00000000000E+00  0.00000000000E+00  0.16939408861E+04  0.16939408891E+04  0.10100000352E+00 0. -1.
        3   -1    0    0  501    0  0.00000000000E+00  0.00000000000E+00 -0.22639385857E+04  0.22639385880E+04  0.10100000352E+00 0.  1.
    10030    2    1    2    0    0  0.00000000000E+00  0.00000000000E+00 -0.56999769965E+03  0.39578794771E+04  0.39166200451E+04 0.  0.
        1    1    3    3  502    0  0.12092196010E+04 -0.96341295603E+03 -0.14995761643E+04  0.21538582219E+04  0.50400001928E-02 0.  1.
       -1    1    3    3    0  502 -0.12092196010E+04  0.96341295603E+03  0.92957846463E+03  0.18040212552E+04  0.50400001928E-02 0. -1.
</event>
<event>
 5   0  0.1520986E-07  0.3891030E+04  0.7818609E-02  0.8026897E-01
        2   -1    0    0  501    0  0.00000000000E+00  0.00000000000E+00  0.27177713679E+04  0.27177713679E+04  0.25500000920E-02 0. -1.
       -2   -1    0    0    0  501  0.00000000000E+00  0.00000000000E+00 -0.13926958802E+04  0.13926958802E+04  0.25500000920E-02 0.  1.
    10030    2    1    2    0    0  0.00000000000E+00  0.00000000000E+00  0.13250754877E+04  0.41104672482E+04  0.38910301914E+04 0.  0.
        4    1    3    3  502    0  0.17364219697E+04 -0.87236826125E+03  0.76185991537E+03  0.20872517298E+04  0.12699999809E+01 0. -1.
       -4    1    3    3    0  502 -0.17364219697E+04  0.87236826125E+03  0.56321557234E+03  0.20232155184E+04  0.12699999809E+01 0.  1.
</event>
<event>
 5   0  0.1501585E-07  0.3880935E+04  0.7818609E-02  0.8029006E-01
       -2   -1    0    0    0  501  0.00000000000E+00  0.00000000000E+00  0.16159270693E+04  0.16159270693E+04  0.25500000920E-02 0. -1.
        2   -1    0    0  501    0  0.00000000000E+00  0.00000000000E+00 -0.23301882586E+04  0.23301882586E+04  0.25500000920E-02 0.  1.
    10030    2    1    2    0    0  0.00000000000E+00  0.00000000000E+00 -0.71426118930E+03  0.39461153280E+04  0.38809350852E+04 0.  0.
        5    1    3    3  502    0  0.23829748379E+03 -0.14404678564E+04  0.94248250752E+03  0.17378229780E+04  0.46999998093E+01 0. -1.
       -5    1    3    3    0  502 -0.23829748379E+03  0.14404678564E+04 -0.16567436968E+04  0.22082923500E+04  0.46999998093E+01 0.  1.
</event>
<event>
 5   0  0.4750125E-08  0.3959737E+04  0.7818609E-02  0.8012719E-01
        1   -1    0    0  501    0  0.00000000000E+00  0.00000000000E+00  0.19447614558E+04  0.19447614558E+04  0.50400001928E-02 0. -1.
       -1   -1    0    0    0  501  0.00000000000E+00  0.00000000000E+00 -0.20156089787E+04  0.20156089787E+04  0.50400001928E-02 0.  1.
    10030    2    1    2    0    0  0.00000000000E+00  0.00000000000E+00 -0.70847522982E+02  0.39603704345E+04  0.39597366841E+04 0.  0.
        5    1    3    3  502    0  0.68845386209E+03 -0.92602810726E+03  0.15736717544E+04  0.19513999222E+04  0.46999998093E+01 0. -1.
       -5    1    3    3    0  502 -0.68845386209E+03  0.92602810726E+03 -0.16445192774E+04  0.20089705123E+04  0.46999998093E+01 0.  1.
</event>
<event>
 5   0  0.1520986E-07  0.3849365E+04  0.7818609E-02  0.8035643E-01
        2   -1    0    0  501    0  0.00000000000E+00  0.00000000000E+00  0.20033256572E+04  0.20033256572E+04  0.25500000920E-02 0. -1.
       -2   -1    0    0    0  501  0.00000000000E+00  0.00000000000E+00 -0.18491268912E+04  0.18491268912E+04  0.25500000920E-02 0.  1.
    10030    2    1    2    0    0  0.00000000000E+00  0.00000000000E+00  0.15419876597E+03  0.38524525484E+04  0.38493653215E+04 0.  0.
        4    1    3    3  502    0 -0.11169280351E+04  0.81137606044E+03  0.14192724110E+04  0.19799482661E+04  0.12699999809E+01 0. -1.
       -4    1    3    3    0  502  0.11169280351E+04 -0.81137606044E+03 -0.12650736450E+04  0.18725042823E+04  0.12699999809E+01 0.  1.
</event>
<event>
 5   0  0.1538018E-07  0.3887621E+04  0.7818609E-02  0.8027609E-01
       -2   -1    0    0    0  501  0.00000000000E+00  0.00000000000E+00  0.14670531058E+04  0.14670531058E+04  0.25500000920E-02 0. -1.
        2   -1    0    0  501    0  0.00000000000E+00  0.00000000000E+00 -0.25755021127E+04  0.25755021127E+04  0.25500000920E-02 0.  1.
    10030    2    1    2    0    0  0.00000000000E+00  0.00000000000E+00 -0.11084490069E+04  0.40425552184E+04  0.38876205439E+04 0.  0.
        1    1    3    3  502    0 -0.11529439715E+04  0.48979427048E+03  0.99135585362E+03  0.15974869819E+04  0.50400001928E-02 0. -1.
       -1    1    3    3    0  502  0.11529439715E+04 -0.48979427048E+03 -0.20998048605E+04  0.24450682365E+04  0.50400001928E-02 0.  1.
</event>
<event>
 5   0  0.4750125E-08  0.3743865E+04  0.7818609E-02  0.8058310E-01
       -1   -1    0    0    0  501  0.00000000000E+00  0.00000000000E+00  0.22278092017E+04  0.22278092017E+04  0.50400001928E-02 0.  1.
        1   -1    0    0  501    0  0.00000000000E+00  0.00000000000E+00 -0.15729047235E+04  0.15729047235E+04  0.50400001928E-02 0. -1.
    10030    2    1    2    0    0  0.00000000000E+00  0.00000000000E+00  0.65490447820E+03  0.38007139252E+04  0.37438651773E+04 0.  0.
        3    1    3    3  502    0  0.18225170745E+04  0.16684592852E+03  0.72677678499E+03  0.19691649388E+04  0.10100000352E+00 0. -1.
       -3    1    3    3    0  502 -0.18225170745E+04 -0.16684592852E+03 -0.71872306795E+02  0.18315489864E+04  0.10100000352E+00 0.  1.
</event>
<event>
 5   0  0.1503228E-07  0.3900320E+04  0.7818609E-02  0.8024963E-01
       -2   -1    0    0    0  501  0.00000000000E+00  0.00000000000E+00  0.27711901937E+04  0.27711901937E+04  0.25500000920E-02 0. -1.
        2   -1    0    0  501    0  0.00000000000E+00  0.00000000000E+00 -0.13723792538E+04  0.13723792538E+04  0.25500000920E-02 0.  1.
    10030    2    1    2    0    0  0.00000000000E+00  0.00000000000E+00  0.13988109399E+04  0.41435694474E+04  0.39003199510E+04 0.  0.
        3    1    3    3  502    0 -0.18533768577E+04  0.34269429255E+03  0.16750158682E+03  0.18922214317E+04  0.10100000352E+00 0.  1.
       -3    1    3    3    0  502  0.18533768577E+04 -0.34269429255E+03  0.12313093531E+04  0.22513480157E+04  0.10100000352E+00 0. -1.
</event>
<event>
 5   0  0.4750125E-08  0.3914445E+04  0.7818609E-02  0.8022032E-01
        1   -1    0    0  501    0  0.00000000000E+00  0.00000000000E+00  0.22054112680E+04  0.22054112680E+04  0.50400001928E-02 0. -1.
       -1   -1    0    0    0  501  0.00000000000E+00  0.00000000000E+00 -0.17369637900E+04  0.17369637900E+04  0.50400001928E-02 0.  1.
    10030    2    1    2    0    0  0.00000000000E+00  0.00000000000E+00  0.46844747804E+03  0.39423750580E+04  0.39144447956E+04 0.  0.
        3    1    3    3  502    0 -0.16413788609E+03 -0.42771892452E+03  0.21506500289E+04  0.21989043365E+04  0.10100000352E+00 0. -1.
       -3    1    3    3    0  502  0.16413788609E+03  0.42771892452E+03 -0.16822025509E+04  0.17434707214E+04  0.10100000352E+00 0.  1.
</event>
<event>
 5   0  0.4750125E-08  0.3905673E+04  0.7818609E-02  0.8023850E-01
       -1   -1    0    0    0  501  0.00000000000E+00  0.00000000000E+00  0.18543087093E+04  0.18543087093E+04  0.50400001928E-02 0. -1.
        1   -1    0    0  501    0  0.00000000000E+00  0.00000000000E+00 -0.20565997000E+04  0.20565997000E+04  0.50400001928E-02 0.  1.
    10030    2    1    2    0    0  0.00000000000E+00  0.00000000000E+00 -0.20229099064E+03  0.39109084093E+04  0.39056731739E+04 0.  0.
        5    1    3    3  502    0  0.59364334943E+02 -0.11579913982E+04 -0.16745825229E+04  0.20368399344E+04  0.46999998093E+01 0.  1.
       -5    1    3    3    0  502 -0.59364334943E+02  0.11579913982E+04  0.14722915323E+04  0.18740684749E+04  0.46999998093E+01 0. -1.
</event>
<event>
 5   0  0.4750125E-08  0.3828597E+04  0.7818609E-02  0.8040046E-01
       -1   -1    0    0    0  501  0.00000000000E+00  0.00000000000E+00  0.27781654988E+04  0.27781654988E+04  0.50400001928E-02 0.  1.
        1   -1    0    0  501    0  0.00000000000E+00  0.00000000000E+00 -0.13190498723E+04  0.13190498723E+04  0.50400001928E-02 0. -1.
    10030    2    1    2    0    0  0.00000000000E+00  0.00000000000E+00  0.14591156265E+04  0.40972153711E+04  0.38285970519E+04 0.  0.
        1    1    3    3  502    0 -0.35597910774E+03 -0.16825347500E+04  0.16293173225E+04  0.23690333994E+04  0.50400001928E-02 0.  1.
       -1    1    3    3    0  502  0.35597910774E+03  0.16825347500E+04 -0.17020169600E+03  0.17281819717E+04  0.50400001928E-02 0. -1.
</event>
<event>
 5   0  0.4750125E-08  0.3889299E+04  0.7818609E-02  0.8027258E-01
       -1   -1    0    0    0  501  0.00000000000E+00  0.00000000000E+00  0.31070193990E+04  0.31070193991E+04  0.50400001928E-02 0. -1.
        1   -1    0    0  501    0  0.00000000000E+00  0.00000000000E+00 -0.12171348665E+04  0.12171348665E+04  0.50400001928E-02 0.  1.
    10030    2    1    2    0    0  0.00000000000E+00  0.00000000000E+00  0.18898845325E+04  0.43241542656E+04  0.38892989814E+04 0.  0.
        1    1    3    3  502    0 -0.13970292280E+04 -0.83950766192E+03 -0.23441204409E+03  0.16466368102E+04  0.50400001928E-02 0.  1.
       -1    1    3    3    0  502  0.13970292280E+04  0.83950766192E+03  0.21242965766E+04  0.26775174554E+04  0.50400001928E-02 0. -1.
</event>
<event>
 5   0  0.1503228E-07  0.3881435E+04  0.7818609E-02  0.8028901E-01
        2   -1    0    0  501    0  0.00000000000E+00  0.00000000000E+00  0.14400084118E+04  0.14400084118E+04  0.25500000920E-02 0. -1.
       -2   -1    0    0    0  501  0.00000000000E+00  0.00000000000E+00 -0.26155296840E+04  0.26155296840E+04  0.25500000920E-02 0.  1.
    10030    2    1    2    0    0  0.00000000000E+00  0.00000000000E+00 -0.11755212722E+04  0.40555380958E+04  0.38814351707E+04 0.  0.
        3    1    3    3  502    0 -0.85765585639E+03  0.40870647434E+03 -0.23559355725E+04  0.25402848230E+04  0.10100000352E+00 0.  1.
       -3    1    3    3    0  502  0.85765585639E+03 -0.40870647434E+03  0.11804143002E+04  0.15152532727E+04  0.10100000352E+00 0. -1.
</event>
<event>
 5   0  0.4750125E-08  0.3786266E+04  0.7818609E-02  0.8049109E-01
       -1   -1    0    0    0  501  0.00000000000E+00  0.00000000000E+00  0.24505885278E+04  0.24505885278E+04  0.50400001928E-02 0. -1.
        1   -1    0    0  501    0  0.00000000000E+00  0.00000000000E+00 -0.14624866770E+04  0.14624866770E+04  0.50400001928E-02 0.  1.
    10030    2    1    2    0    0  0.00000000000E+00  0.00000000000E+00  0.98810185079E+03  0.39130752049E+04  0.37862662732E+04 0.  0.
        1    1    3    3  502    0  0.35518428636E+03 -0.10999224901E+04  0.20435883726E+04  0.23478157505E+04  0.50400001928E-02 0. -1.
       -1    1    3    3    0  502 -0.35518428636E+03  0.10999224901E+04 -0.10554865218E+04  0.15652594543E+04  0.50400001928E-02 0.  1.
</event>
<event>
 5   0  0.4762788E-08  0.3918305E+04  0.7818609E-02  0.8021233E-01
        1   -1    0    0  501    0  0.00000000000E+00  0.00000000000E+00  0.25387124461E+04  0.25387124461E+04  0.50400001928E-02 0. -1.
       -1   -1    0    0    0  501  0.00000000000E+00  0.00000000000E+00 -0.15118999510E+04  0.15118999511E+04  0.50400001928E-02 0.  1.
    10030    2    1    2    0    0  0.00000000000E+00  0.00000000000E+00  0.10268124950E+04  0.40506123972E+04  0.39183053597E+04 0.  0.
        2    1    3    3  502    0 -0.12686862452E+04 -0.11405880502E+04  0.15091402833E+04  0.22777204139E+04  0.25500000920E-02 0. -1.
       -2    1    3    3    0  502  0.12686862452E+04  0.11405880502E+04 -0.48232778825E+03  0.17728919833E+04  0.25500000920E-02 0.  1.
</event>
<event>
 5   0  0.4750125E-08  0.3825050E+04  0.7818609E-02  0.8040800E-01
       -1   -1    0    0    0  501  0.00000000000E+00  0.00000000000E+00  0.16826677955E+04  0.16826677955E+04  0.50400001928E-02 0. -1.
        1   -1    0    0  501    0  0.00000000000E+00  0.00000000000E+00 -0.21737816744E+04  0.21737816745E+04  0.50400001928E-02 0.  1.
    10030    2    1    2    0    0  0.00000000000E+00  0.00000000000E+00 -0.49111387898E+03  0.38564494699E+04  0.38250502836E+04 0.  0.
        5    1    3    3  502    0 -0.10051406644E+04 -0.14247652555E+04  0.54668387154E+03  0.18273338868E+04  0.46999998093E+01 0. -1.
       -5    1    3    3    0  502  0.10051406644E+04  0.14247652555E+04 -0.10377977505E+04  0.20291155831E+04  0.46999998093E+01 0.  1.
</event>
<event>
 5   0  0.1538018E-07  0.3913687E+04  0.7818609E-02  0.8022189E-01
        2   -1    0    0  501    0  0.00000000000E+00  0.00000000000E+00  0.29857035123E+04  0.29857035123E+04  0.25500000920E-02 0. -1.
       -2   -1    0    0    0  501  0.00000000000E+00  0.00000000000E+00 -0.12825240971E+04  0.12825240971E+04  0.25500000920E-02 0.  1.
    10030    2    1    2    0    0  0.00000000000E+00  0.00000000000E+00  0.17031794152E+04  0.42682276095E+04  0.39136871114E+04 0.  0.
        1    1    3    3  502    0 -0.99438378292E+03  0.14219572586E+04 -0.13506278499E+03  0.17404032604E+04  0.50400001928E-02 0.  1.
       -1    1    3    3    0  502  0.99438378292E+03 -0.14219572586E+04  0.18382422001E+04  0.25278243490E+04  0.50400001928E-02 0. -1.
</event>
<event>
 5   0  0.1503228E-07  0.3942171E+04  0.7818609E-02  0.8016315E-01
        2   -1    0    0  501    0  0.00000000000E+00  0.00000000000E+00  0.28187350199E+04  0.28187350199E+04  0.25500000920E-02 0. -1.
       -2   -1    0    0    0  501  0.00000000000E+00  0.00000000000E+00 -0.13783411705E+04  0.13783411705E+04  0.25500000920E-02 0.  1.
    10030    2    1    2    0    0  0.00000000000E+00  0.00000000000E+00  0.14403938493E+04  0.41970761904E+04  0.39421712427E+04 0.  0.
        3    1    3    3  502    0  0.11277560793E+04 -0.15647662139E+04  0.28792429565E+03  0.19501865267E+04  0.10100000352E+00 0. -1.
       -3    1    3    3    0  502 -0.11277560793E+04  0.15647662139E+04  0.11524695537E+04  0.22468896637E+04  0.10100000352E+00 0.  1.
</event>
<event>
 5   0  0.4750125E-08  0.3912567E+04  0.7818609E-02  0.8022421E-01
        1   -1    0    0  501    0  0.00000000000E+00  0.00000000000E+00  0.19779493702E+04  0.19779493702E+04  0.50400001928E-02 0. -1.
       -1   -1    0    0    0  501  0.00000000000E+00  0.00000000000E+00 -0.19348549780E+04  0.19348549780E+04  0.50400001928E-02 0.  1.
    10030    2    1    2    0    0  0.00000000000E+00  0.00000000000E+00  0.43094392231E+02  0.39128043482E+04  0.39125670270E+04 0.  0.
        1    1    3    3  502    0 -0.16264210329E+03  0.33908350200E+03 -0.18983648420E+04  0.19352568688E+04  0.50400001928E-02 0.  1.
       -1    1    3    3    0  502  0.16264210329E+03 -0.33908350200E+03  0.19414592342E+04  0.19775474794E+04  0.50400001928E-02 0. -1.
</event>
<event>
 5   0  0.4762788E-08  0.3755186E+04  0.7818609E-02  0.8055841E-01
       -1   -1    0    0    0  501  0.00000000000E+00  0.00000000000E+00  0.17279500377E+04  0.17279500377E+04  0.50400001928E-02 0.  1.
        1   -1    0    0  501    0  0.00000000000E+00  0.00000000000E+00 -0.20401952508E+04  0.20401952508E+04  0.50400001928E-02 0. -1.
    10030    2    1    2    0    0  0.00000000000E+00  0.00000000000E+00 -0.31224521311E+03  0.37681452885E+04  0.37551859930E+04 0.  0.
        2    1    3    3  502    0 -0.80938599761E+03  0.85227049052E+03  0.13131314810E+04  0.17623237411E+04  0.25500000920E-02 0.  1.
       -2    1    3    3    0  502  0.80938599761E+03 -0.85227049052E+03 -0.16253766941E+04  0.20058215474E+04  0.25500000920E-02 0. -1.
</event>
<event>
 5   0  0.4750125E-08  0.3877602E+04  0.7818609E-02  0.8029704E-01
        1   -1    0    0  501    0  0.00000000000E+00  0.00000000000E+00  0.23775828756E+04  0.23775828756E+04  0.50400001928E-02 0.  1.
       -1   -1    0    0    0  501  0.00000000000E+00  0.00000000000E+00 -0.15809959364E+04  0.15809959364E+04  0.50400001928E-02 0. -1.
    10030    2    1    2    0    0  0.00000000000E+00  0.00000000000E+00  0.79658693924E+03  0.39585788121E+04  0.38776017665E+04 0.  0.
        4    1    3    3  502    0  0.80481224225E+02 -0.13874846790E+04 -0.98173392472E+03  0.17015857527E+04  0.12699999809E+01 0. -1.
       -4    1    3    3    0  502 -0.80481224225E+02  0.13874846790E+04  0.17783208640E+04  0.22569930594E+04  0.12699999809E+01 0.  1.
</event>
<event>
 5   0  0.4750125E-08  0.3917977E+04  0.7818609E-02  0.8021301E-01
        1   -1    0    0  501    0  0.00000000000E+00  0.00000000000E+00  0.12115257273E+04  0.12115257274E+04  0.50400001928E-02 0. -1.
       -1   -1    0    0    0  501  0.00000000000E+00  0.00000000000E+00 -0.31676064156E+04  0.31676064156E+04  0.50400001928E-02 0.  1.
    10030    2    1    2    0    0  0.00000000000E+00  0.00000000000E+00 -0.19560806883E+04  0.43791321430E+04  0.39179773693E+04 0.  0.
        3    1    3    3  502    0 -0.48432011330E+03 -0.14164045252E+04 -0.23904502652E+04  0.28204645419E+04  0.10100000352E+00 0.  1.
       -3    1    3    3    0  502  0.48432011330E+03  0.14164045252E+04  0.43436957695E+03  0.15586676011E+04  0.10100000352E+00 0. -1.
</event>
<event>
 5   0  0.4750125E-08  0.3945513E+04  0.7818609E-02  0.8015629E-01
        1   -1    0    0  501    0  0.00000000000E+00  0.00000000000E+00  0.18788004391E+04  0.18788004391E+04  0.50400001928E-02 0.  1.
       -1   -1    0    0    0  501  0.00000000000E+00  0.00000000000E+00 -0.20714106891E+04  0.20714106891E+04  0.50400001928E-02 0. -1.
    10030    2    1    2    0    0  0.00000000000E+00  0.00000000000E+00 -0.19261025005E+03  0.39502111282E+04  0.39455125458E+04 0.  0.
        1    1    3    3  502    0  0.13776847306E+04  0.13555829942E+04 -0.49192990061E+03  0.19943960234E+04  0.50400001928E-02 0.  1.
       -1    1    3    3    0  502 -0.13776847306E+04 -0.13555829942E+04  0.29931965056E+03  0.19558151048E+04  0.50400001928E-02 0. -1.
</event>
<event>
 5   0  0.1520986E-07  0.3887354E+04  0.7818609E-02  0.8027665E-01
        2   -1    0    0  501    0  0.00000000000E+00  0.00000000000E+00  0.21689573098E+04  0.21689573098E+04  0.25500000920E-02 0.  1.
       -2   -1    0    0    0  501  0.00000000000E+00  0.00000000000E+00 -0.17417951513E+04  0.17417951513E+04  0.25500000920E-02 0. -1.
    10030    2    1    2    0    0  0.00000000000E+00  0.00000000000E+00  0.42716215847E+03  0.39107524612E+04  0.38873535089E+04 0.  0.
        4    1    3    3  502    0 -0.13737937893E+04  0.68179487172E+03  0.14148051738E+04  0.20865830718E+04  0.12699999809E+01 0.  1.
       -4    1    3    3    0  502  0.13737937893E+04 -0.68179487172E+03 -0.98764301534E+03  0.18241693894E+04  0.12699999809E+01 0. -1.
</event>
<event>
 5   0  0.1520986E-07  0.3890559E+04  0.7818609E-02  0.8026996E-01
        2   -1    0    0  501    0  0.00000000000E+00  0.00000000000E+00  0.23462812747E+04  0.23462812747E+04  0.25500000920E-02 0.  1.
       -2   -1    0    0    0  501  0.00000000000E+00  0.00000000000E+00 -0.16128123552E+04  0.16128123552E+04  0.25500000920E-02 0. -1.
    10030    2    1    2    0    0  0.00000000000E+00  0.00000000000E+00  0.73346891948E+03  0.39590936299E+04  0.38905585350E+04 0.  0.
        4    1    3    3  502    0  0.56082383750E+03  0.17775509248E+04  0.93322675902E+03  0.20844962133E+04  0.12699999809E+01 0.  1.
       -4    1    3    3    0  502 -0.56082383750E+03 -0.17775509248E+04 -0.19975783954E+03  0.18745974166E+04  0.12699999809E+01 0. -1.
</event>
<event>
 5   0  0.4750125E-08  0.3864828E+04  0.7818609E-02  0.8032384E-01
        1   -1    0    0  501    0  0.00000000000E+00  0.00000000000E+00  0.15548528315E+04  0.15548528315E+04  0.50400001928E-02 0.  1.
       -1   -1    0    0    0  501  0.00000000000E+00  0.00000000000E+00 -0.24016577672E+04  0.24016577672E+04  0.50400001928E-02 0. -1.
    10030    2    1    2    0    0  0.00000000000E+00  0.00000000000E+00 -0.84680493579E+03  0.39565105987E+04  0.38648282651E+04 0.  0.
        3    1    3    3  502    0  0.10508787347E+04 -0.47013357180E+03  0.11654634632E+04  0.16381931463E+04  0.10100000352E+00 0.  1.
       -3    1    3    3    0  502 -0.10508787347E+04  0.47013357180E+03 -0.20122683989E+04  0.23183174524E+04  0.10100000352E+00 0. -1.
</event>
<event>
 5   0  0.4750125E-08  0.3915416E+04  0.7818609E-02  0.8021831E-01
       -1   -1    0    0    0  501  0.00000000000E+00  0.00000000000E+00  0.31555867158E+04  0.31555867158E+04  0.50400001928E-02 0.  1.
        1   -1    0    0  501    0  0.00000000000E+00  0.00000000000E+00 -0.12145508631E+04  0.12145508631E+04  0.50400001928E-02 0. -1.
    10030    2    1    2    0    0  0.00000000000E+00  0.00000000000E+00  0.19410358527E+04  0.43701375789E+04  0.39154159775E+04 0.  0.
        4    1    3    3  502    0  0.12933860429E+04 -0.13403220864E+04  0.16432696262E+04  0.24838774987E+04  0.12699999809E+01 0.  1.
       -4    1    3    3    0  502 -0.12933860429E+04  0.13403220864E+04  0.29776622654E+03  0.18862600801E+04  0.12699999809E+01 0. -1.
</event>
<event>
 5   0  0.1520986E-07  0.3885779E+04  0.7818609E-02  0.8027993E-01
       -2   -1    0    0    0  501  0.00000000000E+00  0.00000000000E+00  0.23313834877E+04  0.23313834877E+04  0.25500000920E-02 0. -1.
        2   -1    0    0  501    0  0.00000000000E+00  0.00000000000E+00 -0.16191330215E+04  0.16191330216E+04  0.25500000920E-02 0.  1.
    10030    2    1    2    0    0  0.00000000000E+00  0.00000000000E+00  0.71225046618E+03  0.39505165093E+04  0.38857791964E+04 0.  0.
        4    1    3    3  502    0  0.91803592809E+03  0.83791654856E+03  0.18742966809E+04  0.22489739369E+04  0.12699999809E+01 0. -1.
       -4    1    3    3    0  502 -0.91803592809E+03 -0.83791654856E+03 -0.11620462148E+04  0.17015425724E+04  0.12699999809E+01 0.  1.
</event>
<event>
 5   0  0.1520986E-07  0.3895431E+04  0.7818609E-02  0.8025980E-01
       -2   -1    0    0    0  501  0.00000000000E+00  0.00000000000E+00  0.22598888248E+04  0.22598888248E+04  0.25500000920E-02 0.  1.
        2   -1    0    0  501    0  0.00000000000E+00  0.00000000000E+00 -0.16786649385E+04  0.16786649385E+04  0.25500000920E-02 0. -1.
    10030    2    1    2    0    0  0.00000000000E+00  0.00000000000E+00  0.58122388631E+03  0.39385537632E+04  0.38954312393E+04 0.  0.
        4    1    3    3  502    0  0.14813113397E+03  0.92775759552E+03 -0.14344162064E+04  0.17147094375E+04  0.12699999809E+01 0. -1.
       -4    1    3    3    0  502 -0.14813113397E+03 -0.92775759552E+03  0.20156400927E+04  0.22238443257E+04  0.12699999809E+01 0.  1.
</event>
<event>
 5   0  0.1501585E-07  0.3902212E+04  0.7818609E-02  0.8024569E-01
       -2   -1    0    0    0  501  0.00000000000E+00  0.00000000000E+00  0.15432298603E+04  0.15432298603E+04  0.25500000920E-02 0. -1.
        2   -1    0    0  501    0  0.00000000000E+00  0.00000000000E+00 -0.24667844070E+04  0.24667844070E+04  0.25500000920E-02 0.  1.
    10030    2    1    2    0    0  0.00000000000E+00  0.00000000000E+00 -0.92355454665E+03  0.40100142673E+04  0.39022123754E+04 0.  0.
        5    1    3    3  502    0  0.69257518357E+03  0.82303534054E+03 -0.21345506766E+04  0.23902669804E+04  0.46999998093E+01 0.  1.
       -5    1    3    3    0  502 -0.69257518357E+03 -0.82303534054E+03  0.12109961299E+04  0.16197472869E+04  0.46999998093E+01 0. -1.
</event>
<event>
 5   0  0.1538018E-07  0.3895283E+04  0.7818609E-02  0.8026011E-01
       -2   -1    0    0    0  501  0.00000000000E+00  0.00000000000E+00  0.19417602259E+04  0.19417602259E+04  0.25500000920E-02 0. -1.
        2   -1    0    0  501    0  0.00000000000E+00  0.00000000000E+00 -0.19535404469E+04  0.19535404469E+04  0.25500000920E-02 0.  1.
    10030    2    1    2    0    0  0.00000000000E+00  0.00000000000E+00 -0.11780220999E+02  0.38953006727E+04  0.38952828597E+04 0.  0.
        1    1    3    3  502    0 -0.19385097151E+04 -0.15114901204E+03 -0.11832371587E+03  0.19479903596E+04  0.50400001928E-02 0.  1.
       -1    1    3    3    0  502  0.19385097151E+04  0.15114901204E+03  0.10654349487E+03  0.19473103131E+04  0.50400001928E-02 0. -1.
</event>
<event>
 5   0  0.1501585E-07  0.3814557E+04  0.7818609E-02  0.8043038E-01
        2   -1    0    0  501    0  0.00000000000E+00  0.00000000000E+00  0.18920232289E+04  0.18920232289E+04  0.25500000920E-02 0.  1.
       -2   -1    0    0    0  501  0.00000000000E+00  0.00000000000E+00 -0.19226566982E+04  0.19226566982E+04  0.25500000920E-02 0. -1.
    10030    2    1    2    0    0  0.00000000000E+00  0.00000000000E+00 -0.30633469382E+02  0.38146799271E+04  0.38145569253E+04 0.  0.
        5    1    3    3  502    0 -0.95391297329E+03  0.14794027864E+04  0.71894564823E+03  0.19014435306E+04  0.46999998093E+01 0.  1.
       -5    1    3    3    0  502  0.95391297329E+03 -0.14794027864E+04 -0.74957911761E+03  0.19132363964E+04  0.46999998093E+01 0. -1.
</event>
<event>
 5   0  0.4762788E-08  0.3949032E+04  0.7818609E-02  0.8014908E-01
       -1   -1    0    0    0  501  0.00000000000E+00  0.00000000000E+00  0.12337646593E+04  0.12337646593E+04  0.50400001928E-02 0. -1.
        1   -1    0    0  501    0  0.00000000000E+00  0.00000000000E+00 -0.31600131442E+04  0.31600131442E+04  0.50400001928E-02 0.  1.
    10030    2    1    2    0    0  0.00000000000E+00  0.00000000000E+00 -0.19262484849E+04  0.43937778036E+04  0.39490315473E+04 0.  0.
        2    1    3    3  502    0  0.49887937464E+03  0.18035852043E+04 -0.26216175393E+03  0.18895843471E+04  0.25500000920E-02 0. -1.
       -2    1    3    3    0  502 -0.49887937464E+03 -0.18035852043E+04 -0.16640867310E+04  0.25041934565E+04  0.25500000920E-02 0.  1.
</event>
<event>
 5   0  0.1501585E-07  0.3909772E+04  0.7818609E-02  0.8023000E-01
       -2   -1    0    0    0  501  0.00000000000E+00  0.00000000000E+00  0.17026230844E+04  0.17026230844E+04  0.25500000920E-02 0. -1.
        2   -1    0    0  501    0  0.00000000000E+00  0.00000000000E+00 -0.22445239645E+04  0.22445239645E+04  0.25500000920E-02 0.  1.
    10030    2    1    2    0    0  0.00000000000E+00  0.00000000000E+00 -0.54190088017E+03  0.39471470489E+04  0.39097715102E+04 0.  0.
        5    1    3    3  502    0 -0.45451103607E+03 -0.34054842416E+03  0.16174933746E+04  0.17143104789E+04  0.46999998093E+01 0. -1.
       -5    1    3    3    0  502  0.45451103607E+03  0.34054842416E+03 -0.21593942547E+04  0.22328365700E+04  0.46999998093E+01 0.  1.
</event>
<event>
 5   0  0.4750125E-08  0.3909744E+04  0.7818609E-02  0.8023006E-01
       -1   -1    0    0    0  501  0.00000000000E+00  0.00000000000E+00  0.15391394817E+04  0.15391394817E+04  0.50400001928E-02 0.  1.
        1   -1    0    0  501    0  0.00000000000E+00  0.00000000000E+00 -0.24828972286E+04  0.24828972286E+04  0.50400001928E-02 0. -1.
    10030    2    1    2    0    0  0.00000000000E+00  0.00000000000E+00 -0.94375774691E+03  0.40220367103E+04  0.39097443157E+04 0.  0.
        3    1    3    3  502    0  0.55825521024E+03  0.26397759149E+03  0.14361679149E+04  0.15633014228E+04  0.10100000352E+00 0.  1.
       -3    1    3    3    0  502 -0.55825521024E+03 -0.26397759149E+03 -0.23799256618E+04  0.24587352876E+04  0.10100000352E+00 0. -1.
</event>
<event>
 5   0  0.4750125E-08  0.3872101E+04  0.7818609E-02  0.8030857E-01
       -1   -1    0    0    0  501  0.00000000000E+00  0.00000000000E+00  0.25931897390E+04  0.25931897390E+04  0.50400001928E-02 0.  1.
        1   -1    0    0  501    0  0.00000000000E+00  0.00000000000E+00 -0.14454364634E+04  0.14454364634E+04  0.50400001928E-02 0. -1.
    10030    2    1    2    0    0  0.00000000000E+00  0.00000000000E+00  0.11477532756E+04  0.40386262024E+04  0.38721007245E+04 0.  0.
        4    1    3    3  502    0 -0.13942536367E+04 -0.13241431947E+04  0.80939985729E+03  0.20862473836E+04  0.12699999809E+01 0. -1.
       -4    1    3    3    0  502  0.13942536367E+04  0.13241431947E+04  0.33835341831E+03  0.19523788188E+04  0.12699999809E+01 0.  1.
</event>
<event>
 5   0  0.4750125E-08  0.3873401E+04  0.7818609E-02  0.8030584E-01
        1   -1    0    0  501    0  0.00000000000E+00  0.00000000000E+00  0.22577922915E+04  0.22577922915E+04  0.50400001928E-02 0. -1.
       -1   -1    0    0    0  501  0.00000000000E+00  0.00000000000E+00 -0.16612730572E+04  0.16612730572E+04  0.50400001928E-02 0.  1.
    10030    2    1    2    0    0  0.00000000000E+00  0.00000000000E+00  0.59651923431E+03  0.39190653488E+04  0.38734013491E+04 0.  0.
        5    1    3    3  502    0  0.87384457244E+03  0.16061721299E+04 -0.34753944198E+03  0.18612358801E+04  0.46999998093E+01 0.  1.
       -5    1    3    3    0  502 -0.87384457244E+03 -0.16061721299E+04  0.94405867629E+03  0.20578294687E+04  0.46999998093E+01 0. -1.
</event>
<event>
 5   0  0.4750125E-08  0.3892291E+04  0.7818609E-02  0.8026634E-01
        1   -1    0    0  501    0  0.00000000000E+00  0.00000000000E+00  0.20773006253E+04  0.20773006253E+04  0.50400001928E-02 0. -1.
       -1   -1    0    0    0  501  0.00000000000E+00  0.00000000000E+00 -0.18232709158E+04  0.18232709158E+04  0.50400001928E-02 0.  1.
    10030    2    1    2    0    0  0.00000000000E+00  0.00000000000E+00  0.25402970955E+03  0.39005715411E+04  0.38922907463E+04 0.  0.
        3    1    3    3  502    0 -0.17295449432E+04  0.55118640903E+03  0.83018396518E+03  0.19960805581E+04  0.10100000352E+00 0. -1.
       -3    1    3    3    0  502  0.17295449432E+04 -0.55118640903E+03 -0.57615425563E+03  0.19044909831E+04  0.10100000352E+00 0.  1.
</event>
<event>
 5   0  0.1546846E-07  0.3906108E+04  0.7818609E-02  0.8023760E-01
        2   -1    0    0  501    0  0.00000000000E+00  0.00000000000E+00  0.16282134430E+04  0.16282134430E+04  0.25500000920E-02 0. -1.
       -2   -1    0    0    0  501  0.00000000000E+00  0.00000000000E+00 -0.23427026513E+04  0.23427026513E+04  0.25500000920E-02 0.  1.
    10030    2    1    2    0    0  0.00000000000E+00  0.00000000000E+00 -0.71448920828E+03  0.39709160943E+04  0.39061080117E+04 0.  0.
        2    1    3    3  502    0  0.68394045991E+03  0.13475494925E+04  0.90052013045E+03  0.17591477177E+04  0.25500000920E-02 0. -1.
       -2    1    3    3    0  502 -0.68394045991E+03 -0.13475494925E+04 -0.16150093387E+04  0.22117683766E+04  0.25500000920E-02 0.  1.
</event>
<event>
 5   0  0.4750125E-08  0.3969445E+04  0.7818609E-02  0.8010739E-01
        1   -1    0    0  501    0  0.00000000000E+00  0.00000000000E+00  0.13498540350E+04  0.13498540350E+04  0.50400001928E-02 0.  1.
       -1   -1    0    0    0  501  0.00000000000E+00  0.00000000000E+00 -0.29181853236E+04  0.29181853237E+04  0.50400001928E-02 0. -1.
    10030    2    1    2    0    0  0.00000000000E+00  0.00000000000E+00 -0.15683312886E+04  0.42680393587E+04  0.39694454192E+04 0.  0.
        5    1    3    3  502    0  0.68623620342E+03  0.17276112429E+04 -0.15318450483E+04  0.24087615232E+04  0.46999998093E+01 0. -1.
       -5    1    3    3    0  502 -0.68623620342E+03 -0.17276112429E+04 -0.36486240299E+02  0.18592778354E+04  0.46999998093E+01 0.  1.
</event>
<event>
 5   0  0.4762788E-08  0.3787549E+04  0.7818609E-02  0.8048832E-01
       -1   -1    0    0    0  501  0.00000000000E+00  0.00000000000E+00  0.14041458818E+04  0.14041458818E+04  0.50400001928E-02 0. -1.
        1   -1    0    0  501    0  0.00000000000E+00  0.00000000000E+00 -0.25541374442E+04  0.25541374442E+04  0.50400001928E-02 0.  1.
    10030    2    1    2    0    0  0.00000000000E+00  0.00000000000E+00 -0.11499915624E+04  0.39582833260E+04  0.37875488505E+04 0.  0.
        2    1    3    3  502    0  0.14551453475E+04  0.96436236939E+03  0.19222147840E+03  0.17562436786E+04  0.25500000920E-02 0.  1.
       -2    1    3    3    0  502 -0.14551453475E+04 -0.96436236939E+03 -0.13422130408E+04  0.22020396474E+04  0.25500000920E-02 0. -1.
</event>
<event>
 5   0  0.4750125E-08  0.3899135E+04  0.7818609E-02  0.8025209E-01
       -1   -1    0    0    0  501  0.00000000000E+00  0.00000000000E+00  0.14427889581E+04  0.14427889581E+04  0.50400001928E-02 0.  1.
        1   -1    0    0  501    0  0.00000000000E+00  0.00000000000E+00 -0.26343511543E+04  0.26343511543E+04  0.50400001928E-02 0. -1.
    10030    2    1    2    0    0  0.00000000000E+00  0.00000000000E+00 -0.11915621962E+04  0.40771401124E+04  0.38991346512E+04 0.  0.
        3    1    3    3  502    0 -0.15418983000E+04 -0.11653458703E+04 -0.86304993625E+03  0.21166805540E+04  0.10100000352E+00 0. -1.
       -3    1    3    3    0  502  0.15418983000E+04  0.11653458703E+04 -0.32851225997E+03  0.19604595584E+04  0.10100000352E+00 0.  1.
</event>
<event>
 5   0  0.1538018E-07  0.3879271E+04  0.7818609E-02  0.8029354E-01
       -2   -1    0    0    0  501  0.00000000000E+00  0.00000000000E+00  0.15597473279E+04  0.15597473279E+04  0.25500000920E-02 0.  1.
        2   -1    0    0  501    0  0.00000000000E+00  0.00000000000E+00 -0.24120484756E+04  0.24120484756E+04  0.25500000920E-02 0. -1.
    10030    2    1    2    0    0  0.00000000000E+00  0.00000000000E+00 -0.85230114770E+03  0.39717958035E+04  0.38792711504E+04 0.  0.
        1    1    3    3  502    0  0.68766629788E+03 -0.94050524212E+03  0.11615618513E+04  0.16451932963E+04  0.50400001928E-02 0. -1.
       -1    1    3    3    0  502 -0.68766629788E+03  0.94050524212E+03 -0.20138629990E+04  0.23266025072E+04  0.50400001928E-02 0.  1.
</event>
<event>
 5   0  0.1546846E-07  0.3886529E+04  0.7818609E-02  0.8027837E-01
       -2   -1    0    0    0  501  0.00000000000E+00  0.00000000000E+00  0.13848439453E+04  0.13848439453E+04  0.25500000920E-02 0. -1.
        2   -1    0    0  501    0  0.00000000000E+00  0.00000000000E+00 -0.27268611606E+04  0.27268611606E+04  0.25500000920E-02 0.  1.
    10030    2    1    2    0    0  0.00000000000E+00  0.00000000000E+00 -0.13420172154E+04  0.41117051059E+04  0.38865291291E+04 0.  0.
        2    1    3    3  502    0 -0.10207477135E+03 -0.13043815619E+03  0.13773627981E+04  0.13872857129E+04  0.25500000920E-02 0. -1.
       -2    1    3    3    0  502  0.10207477135E+03  0.13043815619E+03 -0.27193800134E+04  0.27244193930E+04  0.25500000920E-02 0.  1.
</event>
<event>
 5   0  0.4750125E-08  0.3796593E+04  0.7818609E-02  0.8046886E-01
       -1   -1    0    0    0  501  0.00000000000E+00  0.00000000000E+00  0.20380089832E+04  0.20380089832E+04  0.50400001928E-02 0. -1.
        1   -1    0    0  501    0  0.00000000000E+00  0.00000000000E+00 -0.17681618797E+04  0.17681618797E+04  0.50400001928E-02 0.  1.
    10030    2    1    2    0    0  0.00000000000E+00  0.00000000000E+00  0.26984710348E+03  0.38061708629E+04  0.37965931015E+04 0.  0.
        3    1    3    3  502    0 -0.11402166253E+04 -0.52363631496E+03 -0.12931843539E+04  0.18018364871E+04  0.10100000352E+00 0.  1.
       -3    1    3    3    0  502  0.11402166253E+04  0.52363631496E+03  0.15630314574E+04  0.20043343758E+04  0.10100000352E+00 0. -1.
</event>
<event>
 5   0  0.1538018E-07  0.3903476E+04  0.7818609E-02  0.8024307E-01
       -2   -1    0    0    0  501  0.00000000000E+00  0.00000000000E+00  0.12973787559E+04  0.12973787559E+04  0.25500000920E-02 0.  1.
        2   -1    0    0  501    0  0.00000000000E+00  0.00000000000E+00 -0.29361361368E+04  0.29361361368E+04  0.25500000920E-02 0. -1.
    10030    2    1    2    0    0  0.00000000000E+00  0.00000000000E+00 -0.16387573810E+04  0.42335148927E+04  0.39034757067E+04 0.  0.
        1    1    3    3  502    0 -0.33801781949E+03 -0.12371934484E+04  0.77619204919E+03  0.14991256693E+04  0.50400001928E-02 0.  1.
       -1    1    3    3    0  502  0.33801781949E+03  0.12371934484E+04 -0.24149494301E+04  0.27343892234E+04  0.50400001928E-02 0. -1.
</event>
<event>
 5   0  0.4750125E-08  0.3930099E+04  0.7818609E-02  0.8018798E-01
        1   -1    0    0  501    0  0.00000000000E+00  0.00000000000E+00  0.16868289176E+04  0.16868289176E+04  0.50400001928E-02 0.  1.
       -1   -1    0    0    0  501  0.00000000000E+00  0.00000000000E+00 -0.22891594959E+04  0.22891594959E+04  0.50400001928E-02 0. -1.
    10030    2    1    2    0    0  0.00000000000E+00  0.00000000000E+00 -0.60233057831E+03  0.39759884135E+04  0.39300994566E+04 0.  0.
        1    1    3    3  502    0 -0.22720241077E+03 -0.31442018258E+02  0.16732398592E+04  0.16888875517E+04  0.50400001928E-02 0.  1.
       -1    1    3    3    0  502  0.22720241077E+03  0.31442018258E+02 -0.22755704375E+04  0.22871008618E+04  0.50400001928E-02 0. -1.
</event>
<event>
 5   0  0.4750125E-08  0.3877563E+04  0.7818609E-02  0.8029712E-01
        1   -1    0    0  501    0  0.00000000000E+00  0.00000000000E+00  0.18980150867E+04  0.18980150867E+04  0.50400001928E-02 0. -1.
       -1   -1    0    0    0  501  0.00000000000E+00  0.00000000000E+00 -0.19804233144E+04  0.19804233144E+04  0.50400001928E-02 0.  1.
    10030    2    1    2    0    0  0.00000000000E+00  0.00000000000E+00 -0.82408227709E+02  0.38784384011E+04  0.38775628061E+04 0.  0.
        3    1    3    3  502    0 -0.12103246458E+04  0.87662213245E+03 -0.12766029333E+04  0.19654686898E+04  0.10100000352E+00 0.  1.
       -3    1    3    3    0  502  0.12103246458E+04 -0.87662213245E+03  0.11941947056E+04  0.19129697113E+04  0.10100000352E+00 0. -1.
</event>
<event>
 5   0  0.1520986E-07  0.3935454E+04  0.7818609E-02  0.8017696E-01
        2   -1    0    0  501    0  0.00000000000E+00  0.00000000000E+00  0.22260790426E+04  0.22260790426E+04  0.25500000920E-02 0. -1.
       -2   -1    0    0    0  501  0.00000000000E+00  0.00000000000E+00 -0.17393589001E+04  0.17393589001E+04  0.25500000920E-02 0.  1.
    10030    2    1    2    0    0  0.00000000000E+00  0.00000000000E+00  0.48672014243E+03  0.39654379427E+04  0.39354544312E+04 0.  0.
        4    1    3    3  502    0  0.90750044199E+03  0.16282313766E+04 -0.39172306522E+03  0.19047685005E+04  0.12699999809E+01 0. -1.
       -4    1    3    3    0  502 -0.90750044199E+03 -0.16282313766E+04  0.87844320765E+03  0.20606694422E+04  0.12699999809E+01 0.  1.
</event>
<event>
 5   0  0.4750125E-08  0.3860220E+04  0.7818609E-02  0.8033354E-01
       -4   -1    0    0    0  501  0.00000000000E+00  0.00000000000E+00  0.19530584507E+04  0.19530588636E+04  0.12699999809E+01 0. -1.
        4   -1    0    0  501    0  0.00000000000E+00  0.00000000000E+00 -0.19074303820E+04  0.19074308048E+04  0.12699999809E+01 0.  1.
    10030    2    1    2    0    0  0.00000000000E+00  0.00000000000E+00  0.45628068648E+02  0.38604896684E+04  0.38602200144E+04 0.  0.
        3    1    3    3  502    0  0.29529298584E+03 -0.75102210610E+03 -0.17306174506E+04  0.19095206000E+04  0.10100000352E+00 0.  1.
       -3    1    3    3    0  502 -0.29529298584E+03  0.75102210610E+03  0.17762455192E+04  0.19509690685E+04  0.10100000352E+00 0. -1.
</event>
<event>
 5   0  0.1538018E-07  0.3898076E+04  0.7818609E-02  0.8025430E-01
       -2   -1    0    0    0  501  0.00000000000E+00  0.00000000000E+00  0.20180631936E+04  0.20180631936E+04  0.25500000920E-02 0. -1.
        2   -1    0    0  501    0  0.00000000000E+00  0.00000000000E+00 -0.18823735312E+04  0.18823735312E+04  0.25500000920E-02 0.  1.
    10030    2    1    2    0    0  0.00000000000E+00  0.00000000000E+00  0.13568966245E+03  0.39004367248E+04  0.38980758022E+04 0.  0.
        1    1    3    3  502    0 -0.31968694172E+03  0.16922209411E+04 -0.84536190919E+03  0.19184494291E+04  0.50400001928E-02 0.  1.
       -1    1    3    3    0  502  0.31968694172E+03 -0.16922209411E+04  0.98105157165E+03  0.19819872958E+04  0.50400001928E-02 0. -1.
</event>
<event>
 5   0  0.1501585E-07  0.3902962E+04  0.7818609E-02  0.8024413E-01
        2   -1    0    0  501    0  0.00000000000E+00  0.00000000000E+00  0.22601057427E+04  0.22601057427E+04  0.25500000920E-02 0. -1.
       -2   -1    0    0    0  501  0.00000000000E+00  0.00000000000E+00 -0.16850000010E+04  0.16850000010E+04  0.25500000920E-02 0.  1.
    10030    2    1    2    0    0  0.00000000000E+00  0.00000000000E+00  0.57510574167E+03  0.39451057437E+04  0.39029620437E+04 0.  0.
        5    1    3    3  502    0  0.95856591285E+03 -0.83250757736E+03  0.17855603064E+04  0.21909279252E+04  0.46999998093E+01 0. -1.
       -5    1    3    3    0  502 -0.95856591285E+03  0.83250757736E+03 -0.12104545647E+04  0.17541778185E+04  0.46999998093E+01 0.  1.
</event>
<event>
 5   0  0.1520986E-07  0.3879067E+04  0.7818609E-02  0.8029397E-01
       -2   -1    0    0    0  501  0.00000000000E+00  0.00000000000E+00  0.13189574510E+04  0.13189574510E+04  0.25500000920E-02 0.  1.
        2   -1    0    0  501    0  0.00000000000E+00  0.00000000000E+00 -0.28520929464E+04  0.28520929464E+04  0.25500000920E-02 0. -1.
    10030    2    1    2    0    0  0.00000000000E+00  0.00000000000E+00 -0.15331354954E+04  0.41710503974E+04  0.38790665075E+04 0.  0.
        4    1    3    3  502    0 -0.18627045680E+04  0.25711239407E+03 -0.12777602535E+04  0.22734220834E+04  0.12699999809E+01 0. -1.
       -4    1    3    3    0  502  0.18627045680E+04 -0.25711239407E+03 -0.25537524197E+03  0.18976283140E+04  0.12699999809E+01 0.  1.
</event>
<event>
 5   0  0.4750125E-08  0.3908837E+04  0.7818609E-02  0.8023194E-01
        1   -1    0    0  501    0  0.00000000000E+00  0.00000000000E+00  0.20346993136E+04  0.20346993136E+04  0.50400001928E-02 0. -1.
       -1   -1    0    0    0  501  0.00000000000E+00  0.00000000000E+00 -0.18773051083E+04  0.18773051083E+04  0.50400001928E-02 0.  1.
    10030    2    1    2    0    0  0.00000000000E+00  0.00000000000E+00  0.15739420527E+03  0.39120044219E+04  0.39088368680E+04 0.  0.
        3    1    3    3  502    0 -0.90792569067E+03  0.82071622057E+03  0.16036927768E+04  0.20173583487E+04  0.10100000352E+00 0. -1.
       -3    1    3    3    0  502  0.90792569067E+03 -0.82071622057E+03 -0.14462985715E+04  0.18946460732E+04  0.10100000352E+00 0.  1.
</event>
<event>
 5   0  0.4750125E-08  0.3867805E+04  0.7818609E-02  0.8031759E-01
       -1   -1    0    0    0  501  0.00000000000E+00  0.00000000000E+00  0.18815864682E+04  0.18815864682E+04  0.50400001928E-02 0. -1.
        1   -1    0    0  501    0  0.00000000000E+00  0.00000000000E+00 -0.19876735145E+04  0.19876735145E+04  0.50400001928E-02 0.  1.
    10030    2    1    2    0    0  0.00000000000E+00  0.00000000000E+00 -0.10608704629E+03  0.38692599827E+04  0.38678053664E+04 0.  0.
        3    1    3    3  502    0  0.70472490645E+03 -0.17100950487E+04  0.51189650234E+03  0.19191405130E+04  0.10100000352E+00 0. -1.
       -3    1    3    3    0  502 -0.70472490645E+03  0.17100950487E+04 -0.61798354863E+03  0.19501194697E+04  0.10100000352E+00 0.  1.
</event>
<event>
 5   0  0.1503228E-07  0.3852844E+04  0.7818609E-02  0.8034909E-01
        2   -1    0    0  501    0  0.00000000000E+00  0.00000000000E+00  0.14322641813E+04  0.14322641813E+04  0.25500000920E-02 0. -1.
       -2   -1    0    0    0  501  0.00000000000E+00  0.00000000000E+00 -0.25910728506E+04  0.25910728506E+04  0.25500000920E-02 0.  1.
    10030    2    1    2    0    0  0.00000000000E+00  0.00000000000E+00 -0.11588086694E+04  0.40233370319E+04  0.38528435395E+04 0.  0.
        3    1    3    3  502    0 -0.77175363755E+03 -0.96388769440E+03 -0.21234907597E+04  0.24563990273E+04  0.10100000352E+00 0.  1.
       -3    1    3    3    0  502  0.77175363755E+03  0.96388769440E+03  0.96468209039E+03  0.15669380046E+04  0.10100000352E+00 0. -1.
</event>
<event>
 5   0  0.1520986E-07  0.3902516E+04  0.7818609E-02  0.8024506E-01
       -2   -1    0    0    0  501  0.00000000000E+00  0.00000000000E+00  0.33197706564E+04  0.33197706564E+04  0.25500000920E-02 0.  1.
        2   -1    0    0  501    0  0.00000000000E+00  0.00000000000E+00 -0.11468889911E+04  0.11468889911E+04  0.25500000920E-02 0. -1.
    10030    2    1    2    0    0  0.00000000000E+00  0.00000000000E+00  0.21728816653E+04  0.44666596476E+04  0.39025163262E+04 0.  0.
        4    1    3    3  502    0  0.33426455778E+01 -0.16632262919E+04 -0.81387262710E+02  0.16652202169E+04  0.12699999809E+01 0. -1.
       -4    1    3    3    0  502 -0.33426455778E+01  0.16632262919E+04  0.22542689280E+04  0.28014394307E+04  0.12699999809E+01 0.  1.
</event>
<event>
 5   0  0.4750125E-08  0.3928221E+04  0.7818609E-02  0.8019185E-01
        1   -1    0    0  501    0  0.00000000000E+00  0.00000000000E+00  0.16488845325E+04  0.16488845325E+04  0.50400001928E-02 0.  1.
       -1   -1    0    0    0  501  0.00000000000E+00  0.00000000000E+00 -0.23395994866E+04  0.23395994866E+04  0.50400001928E-02 0. -1.
    10030    2    1    2    0    0  0.00000000000E+00  0.00000000000E+00 -0.69071495414E+03  0.39884840191E+04  0.39282206688E+04 0.  0.
        4    1    3    3  502    0  0.11795212212E+04  0.42426987287E+03 -0.18806568658E+04  0.22601210357E+04  0.12699999809E+01 0. -1.
       -4    1    3    3    0  502 -0.11795212212E+04 -0.42426987287E+03  0.11899419117E+04  0.17283629834E+04  0.12699999809E+01 0.  1.
</event>
<event>
 5   0  0.4750125E-08  0.3899694E+04  0.7818609E-02  0.8025093E-01
       -1   -1    0    0    0  501  0.00000000000E+00  0.00000000000E+00  0.20672913817E+04  0.20672913817E+04  0.50400001928E-02 0. -1.
        1   -1    0    0  501    0  0.00000000000E+00  0.00000000000E+00 -0.18390751650E+04  0.18390751650E+04  0.50400001928E-02 0.  1.
    10030    2    1    2    0    0  0.00000000000E+00  0.00000000000E+00  0.22821621665E+03  0.39063665467E+04  0.38996944696E+04 0.  0.
        1    1    3    3  502    0 -0.42991885228E+03 -0.65246921353E+03 -0.16753855694E+04  0.18486381745E+04  0.50400001928E-02 0.  1.
       -1    1    3    3    0  502  0.42991885228E+03  0.65246921353E+03  0.19036017860E+04  0.20577283722E+04  0.50400001928E-02 0. -1.
</event>
<event>
 5   0  0.4762788E-08  0.3927751E+04  0.7818609E-02  0.8019282E-01
        1   -1    0    0  501    0  0.00000000000E+00  0.00000000000E+00  0.20135383001E+04  0.20135383001E+04  0.50400001928E-02 0.  1.
       -1   -1    0    0    0  501  0.00000000000E+00  0.00000000000E+00 -0.19154378602E+04  0.19154378602E+04  0.50400001928E-02 0. -1.
    10030    2    1    2    0    0  0.00000000000E+00  0.00000000000E+00  0.98100439911E+02  0.39289761604E+04  0.39277512615E+04 0.  0.
        2    1    3    3  502    0  0.75378971423E+03 -0.93649390889E+02 -0.17625469635E+04  0.19192553088E+04  0.25500000920E-02 0. -1.
       -2    1    3    3    0  502 -0.75378971423E+03  0.93649390889E+02  0.18606474034E+04  0.20097208516E+04  0.25500000920E-02 0.  1.
</event>
<event>
 5   0  0.1520986E-07  0.3894206E+04  0.7818609E-02  0.8026235E-01
       -2   -1    0    0    0  501  0.00000000000E+00  0.00000000000E+00  0.14019901608E+04  0.14019901608E+04  0.25500000920E-02 0.  1.
        2   -1    0    0  501    0  0.00000000000E+00  0.00000000000E+00 -0.27041631253E+04  0.27041631253E+04  0.25500000920E-02 0. -1.
    10030    2    1    2    0    0  0.00000000000E+00  0.00000000000E+00 -0.13021729645E+04  0.41061532861E+04  0.38942060012E+04 0.  0.
        4    1    3    3  502    0  0.18049588749E+04 -0.49840881819E+03 -0.88255293784E+02  0.18745875546E+04  0.12699999809E+01 0.  1.
       -4    1    3    3    0  502 -0.18049588749E+04  0.49840881819E+03 -0.12139176707E+04  0.22315657315E+04  0.12699999809E+01 0. -1.
</event>
<event>
 5   0  0.1520986E-07  0.3943712E+04  0.7818609E-02  0.8015999E-01
        2   -1    0    0  501    0  0.00000000000E+00  0.00000000000E+00  0.16339946807E+04  0.16339946807E+04  0.25500000920E-02 0.  1.
       -2   -1    0    0    0  501  0.00000000000E+00  0.00000000000E+00 -0.23795765825E+04  0.23795765825E+04  0.25500000920E-02 0. -1.
    10030    2    1    2    0    0  0.00000000000E+00  0.00000000000E+00 -0.74558190175E+03  0.40135712632E+04  0.39437116923E+04 0.  0.
        4    1    3    3  502    0  0.18119808678E+04 -0.41478480098E+03  0.29680988329E+03  0.18823970931E+04  0.12699999809E+01 0.  1.
       -4    1    3    3    0  502 -0.18119808678E+04  0.41478480098E+03 -0.10423917850E+04  0.21311741700E+04  0.12699999809E+01 0. -1.
</event>
<event>
 5   0  0.1501585E-07  0.3891341E+04  0.7818609E-02  0.8026833E-01
       -2   -1    0    0    0  501  0.00000000000E+00  0.00000000000E+00  0.22021368383E+04  0.22021368383E+04  0.25500000920E-02 0. -1.
        2   -1    0    0  501    0  0.00000000000E+00  0.00000000000E+00 -0.17190726105E+04  0.17190726105E+04  0.25500000920E-02 0.  1.
    10030    2    1    2    0    0  0.00000000000E+00  0.00000000000E+00  0.48306422775E+03  0.39212094488E+04  0.38913407064E+04 0.  0.
        5    1    3    3  502    0 -0.49786081409E+03 -0.14401603263E+04 -0.97758219287E+03  0.18104187885E+04  0.46999998093E+01 0.  1.
       -5    1    3    3    0  502  0.49786081409E+03  0.14401603263E+04  0.14606464206E+04  0.21107906604E+04  0.46999998093E+01 0. -1.
</event>
<event>
 5   0  0.4750125E-08  0.3921427E+04  0.7818609E-02  0.8020587E-01
       -1   -1    0    0    0  501  0.00000000000E+00  0.00000000000E+00  0.29480916105E+04  0.29480916105E+04  0.50400001928E-02 0. -1.
        1   -1    0    0  501    0  0.00000000000E+00  0.00000000000E+00 -0.13040293951E+04  0.13040293951E+04  0.50400001928E-02 0.  1.
    10030    2    1    2    0    0  0.00000000000E+00  0.00000000000E+00  0.16440622155E+04  0.42521210056E+04  0.39214273521E+04 0.  0.
        5    1    3    3  502    0 -0.10576100002E+04 -0.85720762833E+03  0.23520633510E+04  0.27176401395E+04  0.46999998093E+01 0. -1.
       -5    1    3    3    0  502  0.10576100002E+04  0.85720762833E+03 -0.70800113555E+03  0.15344808661E+04  0.46999998093E+01 0.  1.
</event>
<event>
 5   0  0.4762788E-08  0.3940238E+04  0.7818609E-02  0.8016712E-01
        1   -1    0    0  501    0  0.00000000000E+00  0.00000000000E+00  0.31783230208E+04  0.31783230208E+04  0.50400001928E-02 0.  1.
       -1   -1    0    0    0  501  0.00000000000E+00  0.00000000000E+00 -0.12212003705E+04  0.12212003705E+04  0.50400001928E-02 0. -1.
    10030    2    1    2    0    0  0.00000000000E+00  0.00000000000E+00  0.19571226503E+04  0.43995233914E+04  0.39402381911E+04 0.  0.
        2    1    3    3  502    0  0.16594806921E+03  0.14813918432E+04  0.24168522811E+04  0.28395836848E+04  0.25500000920E-02 0.  1.
       -2    1    3    3    0  502 -0.16594806921E+03 -0.14813918432E+04 -0.45972963074E+03  0.15599397065E+04  0.25500000920E-02 0. -1.
</event>
<event>
 5   0  0.1538018E-07  0.3909312E+04  0.7818609E-02  0.8023095E-01
        2   -1    0    0  501    0  0.00000000000E+00  0.00000000000E+00  0.18746824473E+04  0.18746824473E+04  0.25500000920E-02 0.  1.
       -2   -1    0    0    0  501  0.00000000000E+00  0.00000000000E+00 -0.20380416664E+04  0.20380416664E+04  0.25500000920E-02 0. -1.
    10030    2    1    2    0    0  0.00000000000E+00  0.00000000000E+00 -0.16335921907E+03  0.39127241137E+04  0.39093124403E+04 0.  0.
        1    1    3    3  502    0 -0.54425212970E+03  0.18039397473E+04 -0.60201016532E+03  0.19780862548E+04  0.50400001928E-02 0. -1.
       -1    1    3    3    0  502  0.54425212970E+03 -0.18039397473E+04  0.43865094625E+03  0.19346378589E+04  0.50400001928E-02 0.  1.
</event>
<event>
 5   0  0.4750125E-08  0.3906416E+04  0.7818609E-02  0.8023696E-01
       -1   -1    0    0    0  501  0.00000000000E+00  0.00000000000E+00  0.16859411203E+04  0.16859411203E+04  0.50400001928E-02 0.  1.
        1   -1    0    0  501    0  0.00000000000E+00  0.00000000000E+00 -0.22628443261E+04  0.22628443262E+04  0.50400001928E-02 0. -1.
    10030    2    1    2    0    0  0.00000000000E+00  0.00000000000E+00 -0.57690320585E+03  0.39487854465E+04  0.39064164132E+04 0.  0.
        4    1    3    3  502    0 -0.11572174433E+03  0.19134594674E+04  0.90180103309E+02  0.19190760067E+04  0.12699999809E+01 0. -1.
       -4    1    3    3    0  502  0.11572174433E+03 -0.19134594674E+04 -0.66708330916E+03  0.20297094398E+04  0.12699999809E+01 0.  1.
</event>
<event>
 5   0  0.1538018E-07  0.3916406E+04  0.7818609E-02  0.8021626E-01
       -2   -1    0    0    0  501  0.00000000000E+00  0.00000000000E+00  0.13873731691E+04  0.13873731691E+04  0.25500000920E-02 0. -1.
        2   -1    0    0  501    0  0.00000000000E+00  0.00000000000E+00 -0.27638980722E+04  0.27638980722E+04  0.25500000920E-02 0.  1.
    10030    2    1    2    0    0  0.00000000000E+00  0.00000000000E+00 -0.13765249031E+04  0.41512712414E+04  0.39164055090E+04 0.  0.
        1    1    3    3  502    0  0.98626254535E+03 -0.16618018088E+04 -0.35263685755E+03  0.19643451361E+04  0.50400001928E-02 0. -1.
       -1    1    3    3    0  502 -0.98626254535E+03  0.16618018088E+04 -0.10238880456E+04  0.21869261053E+04  0.50400001928E-02 0.  1.
</event>
<event>
 5   0  0.1546846E-07  0.3889991E+04  0.7818609E-02  0.8027114E-01
       -2   -1    0    0    0  501  0.00000000000E+00  0.00000000000E+00  0.15550904497E+04  0.15550904497E+04  0.25500000920E-02 0.  1.
        2   -1    0    0  501    0  0.00000000000E+00  0.00000000000E+00 -0.24326604300E+04  0.24326604300E+04  0.25500000920E-02 0. -1.
    10030    2    1    2    0    0  0.00000000000E+00  0.00000000000E+00 -0.87756998037E+03  0.39877508797E+04  0.38899907466E+04 0.  0.
        2    1    3    3  502    0 -0.11329648879E+04  0.13504944015E+04  0.40379705010E+03  0.18084514435E+04  0.25500000920E-02 0.  1.
       -2    1    3    3    0  502  0.11329648879E+04 -0.13504944015E+04 -0.12813670305E+04  0.21792994362E+04  0.25500000920E-02 0. -1.
</event>
<event>
 5   0  0.4750125E-08  0.3894245E+04  0.7818609E-02  0.8026227E-01
       -1   -1    0    0    0  501  0.00000000000E+00  0.00000000000E+00  0.21488075710E+04  0.21488075710E+04  0.50400001928E-02 0. -1.
        1   -1    0    0  501    0  0.00000000000E+00  0.00000000000E+00 -0.17643674472E+04  0.17643674472E+04  0.50400001928E-02 0.  1.
    10030    2    1    2    0    0  0.00000000000E+00  0.00000000000E+00  0.38444012378E+03  0.39131750182E+04  0.38942450506E+04 0.  0.
        1    1    3    3  502    0  0.86440965009E+02  0.71781666620E+03 -0.16244823084E+04  0.17781101139E+04  0.50400001928E-02 0.  1.
       -1    1    3    3    0  502 -0.86440965009E+02 -0.71781666620E+03  0.20089224322E+04  0.21350649043E+04  0.50400001928E-02 0. -1.
</event>
<event>
 5   0  0.1520986E-07  0.3889027E+04  0.7818609E-02  0.8027315E-01
       -2   -1    0    0    0  501  0.00000000000E+00  0.00000000000E+00  0.16106525870E+04  0.16106525870E+04  0.25500000920E-02 0.  1.
        2   -1    0    0  501    0  0.00000000000E+00  0.00000000000E+00 -0.23475781602E+04  0.23475781602E+04  0.25500000920E-02 0. -1.
    10030    2    1    2    0    0  0.00000000000E+00  0.00000000000E+00 -0.73692557318E+03  0.39582307472E+04  0.38890270438E+04 0.  0.
        4    1    3    3  502    0  0.59950934964E+03  0.18367192728E+03  0.15049386330E+04  0.16303339348E+04  0.12699999809E+01 0.  1.
       -4    1    3    3    0  502 -0.59950934964E+03 -0.18367192728E+03 -0.22418642061E+04  0.23278968123E+04  0.12699999809E+01 0. -1.
</event>
<event>
 5   0  0.4750125E-08  0.3875037E+04  0.7818609E-02  0.8030241E-01
       -1   -1    0    0    0  501  0.00000000000E+00  0.00000000000E+00  0.15627159072E+04  0.15627159072E+04  0.50400001928E-02 0.  1.
        1   -1    0    0  501    0  0.00000000000E+00  0.00000000000E+00 -0.24022137132E+04  0.24022137132E+04  0.50400001928E-02 0. -1.
    10030    2    1    2    0    0  0.00000000000E+00  0.00000000000E+00 -0.83949780595E+03  0.39649296204E+04  0.38750368164E+04 0.  0.
        5    1    3    3  502    0  0.45041418302E+03 -0.15754189368E+04 -0.14777265149E+04  0.22064712792E+04  0.46999998093E+01 0. -1.
       -5    1    3    3    0  502 -0.45041418302E+03  0.15754189368E+04  0.63822870898E+03  0.17584583412E+04  0.46999998093E+01 0.  1.
</event>
<event>
 5   0  0.1501585E-07  0.3938908E+04  0.7818609E-02  0.8016985E-01
       -2   -1    0    0    0  501  0.00000000000E+00  0.00000000000E+00  0.16333282676E+04  0.16333282676E+04  0.25500000920E-02 0.  1.
        2   -1    0    0  501    0  0.00000000000E+00  0.00000000000E+00 -0.23747514063E+04  0.23747514063E+04  0.25500000920E-02 0. -1.
    10030    2    1    2    0    0  0.00000000000E+00  0.00000000000E+00 -0.74142313873E+03  0.40080796739E+04  0.39389077676E+04 0.  0.
        5    1    3    3  502    0  0.58386025565E+03  0.75443539952E+03 -0.21239494018E+04  0.23283575158E+04  0.46999998093E+01 0. -1.
       -5    1    3    3    0  502 -0.58386025565E+03 -0.75443539952E+03  0.13825262631E+04  0.16797221580E+04  0.46999998093E+01 0.  1.
</event>
<event>
 5   0  0.1501585E-07  0.3904556E+04  0.7818609E-02  0.8024082E-01
        2   -1    0    0  501    0  0.00000000000E+00  0.00000000000E+00  0.29239275580E+04  0.29239275580E+04  0.25500000920E-02 0. -1.
       -2   -1    0    0    0  501  0.00000000000E+00  0.00000000000E+00 -0.13035167237E+04  0.13035167237E+04  0.25500000920E-02 0.  1.
    10030    2    1    2    0    0  0.00000000000E+00  0.00000000000E+00  0.16204108344E+04  0.42274442817E+04  0.39045555295E+04 0.  0.
        5    1    3    3  502    0 -0.10825391955E+04 -0.12711079164E+04 -0.28527685385E+03  0.16938156388E+04  0.46999998093E+01 0.  1.
       -5    1    3    3    0  502  0.10825391955E+04  0.12711079164E+04  0.19056876882E+04  0.25336286429E+04  0.46999998093E+01 0. -1.
</event>
<event>
 5   0  0.1538018E-07  0.3897373E+04  0.7818609E-02  0.8025576E-01
        2   -1    0    0  501    0  0.00000000000E+00  0.00000000000E+00  0.25330467433E+04  0.25330467433E+04  0.25500000920E-02 0. -1.
       -2   -1    0    0    0  501  0.00000000000E+00  0.00000000000E+00 -0.14991351293E+04  0.14991351293E+04  0.25500000920E-02 0.  1.
    10030    2    1    2    0    0  0.00000000000E+00  0.00000000000E+00  0.10339116140E+04  0.40321818725E+04  0.38973731445E+04 0.  0.
        1    1    3    3  502    0 -0.16008985642E+04  0.94117433292E+03 -0.93972676243E+02  0.18594397548E+04  0.50400001928E-02 0.  1.
       -1    1    3    3    0  502  0.16008985642E+04 -0.94117433292E+03  0.11278842902E+04  0.21727421177E+04  0.50400001928E-02 0. -1.
</event>
<event>
 5   0  0.4750125E-08  0.3907290E+04  0.7818609E-02  0.8023515E-01
        1   -1    0    0  501    0  0.00000000000E+00  0.00000000000E+00  0.21936876784E+04  0.21936876784E+04  0.50400001928E-02 0. -1.
       -1   -1    0    0    0  501  0.00000000000E+00  0.00000000000E+00 -0.17398687453E+04  0.17398687453E+04  0.50400001928E-02 0.  1.
    10030    2    1    2    0    0  0.00000000000E+00  0.00000000000E+00  0.45381893304E+03  0.39335564237E+04  0.39072899195E+04 0.  0.
        4    1    3    3  502    0  0.14148724208E+04  0.97094943074E+03 -0.71324222761E+03  0.18583118286E+04  0.12699999809E+01 0.  1.
       -4    1    3    3    0  502 -0.14148724208E+04 -0.97094943074E+03  0.11670611607E+04  0.20752445951E+04  0.12699999809E+01 0. -1.
</event>
<event>
 5   0  0.4750125E-08  0.3895386E+04  0.7818609E-02  0.8025990E-01
       -1   -1    0    0    0  501  0.00000000000E+00  0.00000000000E+00  0.25648052509E+04  0.25648052509E+04  0.50400001928E-02 0.  1.
        1   -1    0    0  501    0  0.00000000000E+00  0.00000000000E+00 -0.14790626276E+04  0.14790626276E+04  0.50400001928E-02 0. -1.
    10030    2    1    2    0    0  0.00000000000E+00  0.00000000000E+00  0.10857426233E+04  0.40438678786E+04  0.38953857800E+04 0.  0.
        3    1    3    3  502    0  0.84002606576E+03 -0.14034092990E+04 -0.55493781369E+03  0.17271819357E+04  0.10100000352E+00 0. -1.
       -3    1    3    3    0  502 -0.84002606576E+03  0.14034092990E+04  0.16406804370E+04  0.23166859429E+04  0.10100000352E+00 0.  1.
</event>
<event>
 5   0  0.4750125E-08  0.3927209E+04  0.7818609E-02  0.8019394E-01
        1   -1    0    0  501    0  0.00000000000E+00  0.00000000000E+00  0.21744252037E+04  0.21744252037E+04  0.50400001928E-02 0.  1.
       -1   -1    0    0    0  501  0.00000000000E+00  0.00000000000E+00 -0.17732235077E+04  0.17732235077E+04  0.50400001928E-02 0. -1.
    10030    2    1    2    0    0  0.00000000000E+00  0.00000000000E+00  0.40120169603E+03  0.39476487114E+04  0.39272086203E+04 0.  0.
        3    1    3    3  502    0  0.86235567213E+03  0.52618640454E+03  0.18931735400E+04  0.21458414434E+04  0.10100000352E+00 0.  1.
       -3    1    3    3    0  502 -0.86235567213E+03 -0.52618640454E+03 -0.14919718439E+04  0.18018072680E+04  0.10100000352E+00 0. -1.
</event>
<event>
 5   0  0.1520986E-07  0.3918408E+04  0.7818609E-02  0.8021212E-01
        2   -1    0    0  501    0  0.00000000000E+00  0.00000000000E+00  0.26300563499E+04  0.26300563499E+04  0.25500000920E-02 0. -1.
       -2   -1    0    0    0  501  0.00000000000E+00  0.00000000000E+00 -0.14594670008E+04  0.14594670008E+04  0.25500000920E-02 0.  1.
    10030    2    1    2    0    0  0.00000000000E+00  0.00000000000E+00  0.11705893492E+04  0.40895233507E+04  0.39184080711E+04 0.  0.
        4    1    3    3  502    0  0.16466887250E+04 -0.74180779928E+03 -0.20721847502E+03  0.18179119004E+04  0.12699999809E+01 0.  1.
       -4    1    3    3    0  502 -0.16466887250E+04  0.74180779928E+03  0.13778078242E+04  0.22716114504E+04  0.12699999809E+01 0. -1.
</event>
<event>
 5   0  0.4750125E-08  0.3839024E+04  0.7818609E-02  0.8037832E-01
        3   -1    0    0  501    0  0.00000000000E+00  0.00000000000E+00  0.16837392959E+04  0.16837392989E+04  0.10100000352E+00 0.  1.
       -3   -1    0    0    0  501  0.00000000000E+00  0.00000000000E+00 -0.21882998105E+04  0.21882998128E+04  0.10100000352E+00 0. -1.
    10030    2    1    2    0    0  0.00000000000E+00  0.00000000000E+00 -0.50456051466E+03  0.38720391117E+04  0.38390240387E+04 0.  0.
        1    1    3    3  502    0 -0.61141948157E+03  0.10218023611E+04  0.12661943995E+04  0.17381490457E+04  0.50400001928E-02 0.  1.
       -1    1    3    3    0  502  0.61141948157E+03 -0.10218023611E+04 -0.17707549142E+04  0.21338900660E+04  0.50400001928E-02 0. -1.
</event>
<event>
 5   0  0.4750125E-08  0.3955598E+04  0.7818609E-02  0.8013564E-01
       -1   -1    0    0    0  501  0.00000000000E+00  0.00000000000E+00  0.18424670807E+04  0.18424670807E+04  0.50400001928E-02 0.  1.
        1   -1    0    0  501    0  0.00000000000E+00  0.00000000000E+00 -0.21230717669E+04  0.21230717669E+04  0.50400001928E-02 0. -1.
    10030    2    1    2    0    0  0.00000000000E+00  0.00000000000E+00 -0.28060468622E+03  0.39655388476E+04  0.39555984834E+04 0.  0.
        1    1    3    3  502    0  0.43792190109E+03 -0.68494343328E+03  0.16672168227E+04  0.18548679285E+04  0.50400001928E-02 0.  1.
       -1    1    3    3    0  502 -0.43792190109E+03  0.68494343328E+03 -0.19478215089E+04  0.21106709191E+04  0.50400001928E-02 0. -1.
</event>
<event>
 5   0  0.4762788E-08  0.3815725E+04  0.7818609E-02  0.8042789E-01
       -1   -1    0    0    0  501  0.00000000000E+00  0.00000000000E+00  0.30230752670E+04  0.30230752670E+04  0.50400001928E-02 0.  1.
        1   -1    0    0  501    0  0.00000000000E+00  0.00000000000E+00 -0.12040520351E+04  0.12040520351E+04  0.50400001928E-02 0. -1.
    10030    2    1    2    0    0  0.00000000000E+00  0.00000000000E+00  0.18190232319E+04  0.42271273021E+04  0.38157253190E+04 0.  0.
        2    1    3    3  502    0  0.16466380073E+04  0.96110775882E+03  0.83279914208E+03  0.20805526338E+04  0.25500000920E-02 0. -1.
       -2    1    3    3    0  502 -0.16466380073E+04 -0.96110775882E+03  0.98622408985E+03  0.21465746683E+04  0.25500000920E-02 0.  1.
</event>
<event>
 5   0  0.1503228E-07  0.3717387E+04  0.7818609E-02  0.8064120E-01
       -2   -1    0    0    0  501  0.00000000000E+00  0.00000000000E+00  0.11862754399E+04  0.11862754399E+04  0.25500000920E-02 0. -1.
        2   -1    0    0  501    0  0.00000000000E+00  0.00000000000E+00 -0.29122592080E+04  0.29122592080E+04  0.25500000920E-02 0.  1.
    10030    2    1    2    0    0  0.00000000000E+00  0.00000000000E+00 -0.17259837682E+04  0.40985346479E+04  0.37173870248E+04 0.  0.
        3    1    3    3  502    0  0.12608211927E+04  0.44031053724E+03  0.56230324342E+03  0.14490439597E+04  0.10100000352E+00 0. -1.
       -3    1    3    3    0  502 -0.12608211927E+04 -0.44031053724E+03 -0.22882870116E+04  0.26494906882E+04  0.10100000352E+00 0.  1.
</event>
<event>
 5   0  0.1520986E-07  0.3939057E+04  0.7818609E-02  0.8016955E-01
        2   -1    0    0  501    0  0.00000000000E+00  0.00000000000E+00  0.28124158214E+04  0.28124158214E+04  0.25500000920E-02 0. -1.
       -2   -1    0    0    0  501  0.00000000000E+00  0.00000000000E+00 -0.13792566335E+04  0.13792566335E+04  0.25500000920E-02 0.  1.
    10030    2    1    2    0    0  0.00000000000E+00  0.00000000000E+00  0.14331591879E+04  0.41916724549E+04  0.39390573379E+04 0.  0.
        4    1    3    3  502    0 -0.12781588246E+04 -0.13519927885E+04  0.14041325526E+04  0.23309149103E+04  0.12699999809E+01 0. -1.
       -4    1    3    3    0  502  0.12781588246E+04  0.13519927885E+04  0.29026635355E+02  0.18607575446E+04  0.12699999809E+01 0.  1.
</event>
<event>
 5   0  0.1538018E-07  0.3901617E+04  0.7818609E-02  0.8024693E-01
       -2   -1    0    0    0  501  0.00000000000E+00  0.00000000000E+00  0.13138626810E+04  0.13138626810E+04  0.25500000920E-02 0. -1.
        2   -1    0    0  501    0  0.00000000000E+00  0.00000000000E+00 -0.28965389424E+04  0.28965389424E+04  0.25500000920E-02 0.  1.
    10030    2    1    2    0    0  0.00000000000E+00  0.00000000000E+00 -0.15826762614E+04  0.42104016234E+04  0.39016173162E+04 0.  0.
        1    1    3    3  502    0 -0.30000300841E+03  0.70816396643E+03  0.11433561954E+04  0.13779555138E+04  0.50400001928E-02 0. -1.
       -1    1    3    3    0  502  0.30000300841E+03 -0.70816396643E+03 -0.27260324568E+04  0.28324461096E+04  0.50400001928E-02 0.  1.
</event>
<event>
 5   0  0.1503228E-07  0.3895665E+04  0.7818609E-02  0.8025931E-01
        2   -1    0    0  501    0  0.00000000000E+00  0.00000000000E+00  0.26721891294E+04  0.26721891294E+04  0.25500000920E-02 0. -1.
       -2   -1    0    0    0  501  0.00000000000E+00  0.00000000000E+00 -0.14198287959E+04  0.14198287959E+04  0.25500000920E-02 0.  1.
    10030    2    1    2    0    0  0.00000000000E+00  0.00000000000E+00  0.12523603335E+04  0.40920179253E+04  0.38956648080E+04 0.  0.
        3    1    3    3  502    0 -0.74805602380E+03 -0.17525121020E+04  0.20188421201E+03  0.19161533674E+04  0.10100000352E+00 0. -1.
       -3    1    3    3    0  502  0.74805602380E+03  0.17525121020E+04  0.10504761215E+04  0.21758645579E+04  0.10100000352E+00 0.  1.
</event>
<event>
 5   0  0.4750125E-08  0.3880771E+04  0.7818609E-02  0.8029040E-01
       -1   -1    0    0    0  501  0.00000000000E+00  0.00000000000E+00  0.26744481836E+04  0.26744481836E+04  0.50400001928E-02 0.  1.
        1   -1    0    0  501    0  0.00000000000E+00  0.00000000000E+00 -0.14078026321E+04  0.14078026321E+04  0.50400001928E-02 0. -1.
    10030    2    1    2    0    0  0.00000000000E+00  0.00000000000E+00  0.12666455515E+04  0.40822508156E+04  0.38807706411E+04 0.  0.
        5    1    3    3  502    0  0.37575613967E+02  0.57309042080E+03 -0.13163401185E+04  0.14361817276E+04  0.46999998093E+01 0. -1.
       -5    1    3    3    0  502 -0.37575613967E+02 -0.57309042080E+03  0.25829856700E+04  0.26460690880E+04  0.46999998093E+01 0.  1.
</event>
<event>
 5   0  0.4750125E-08  0.3881334E+04  0.7818609E-02  0.8028923E-01
        1   -1    0    0  501    0  0.00000000000E+00  0.00000000000E+00  0.15281160094E+04  0.15281160094E+04  0.50400001928E-02 0.  1.
       -1   -1    0    0    0  501  0.00000000000E+00  0.00000000000E+00 -0.24645962185E+04  0.24645962185E+04  0.50400001928E-02 0. -1.
    10030    2    1    2    0    0  0.00000000000E+00  0.00000000000E+00 -0.93648020914E+03  0.39927122279E+04  0.38813342748E+04 0.  0.
        4    1    3    3  502    0 -0.33200364716E+03  0.15768625531E+04 -0.15806904868E+04  0.22572784412E+04  0.12699999809E+01 0. -1.
       -4    1    3    3    0  502  0.33200364716E+03 -0.15768625531E+04  0.64421027764E+03  0.17354337867E+04  0.12699999809E+01 0.  1.
</event>
<event>
 5   0  0.4750125E-08  0.3991886E+04  0.7818609E-02  0.8006185E-01
       -1   -1    0    0    0  501  0.00000000000E+00  0.00000000000E+00  0.16030805442E+04  0.16030805443E+04  0.50400001928E-02 0.  1.
        1   -1    0    0  501    0  0.00000000000E+00  0.00000000000E+00 -0.24850831836E+04  0.24850831836E+04  0.50400001928E-02 0. -1.
    10030    2    1    2    0    0  0.00000000000E+00  0.00000000000E+00 -0.88200263932E+03  0.40881637278E+04  0.39918860216E+04 0.  0.
        5    1    3    3  502    0  0.15839074542E+04  0.16512322843E+03 -0.16732408055E+04  0.23099319010E+04  0.46999998093E+01 0. -1.
       -5    1    3    3    0  502 -0.15839074542E+04 -0.16512322843E+03  0.79123816622E+03  0.17782318268E+04  0.46999998093E+01 0.  1.
</event>
<event>
 5   0  0.4750125E-08  0.3903914E+04  0.7818609E-02  0.8024216E-01
        1   -1    0    0  501    0  0.00000000000E+00  0.00000000000E+00  0.24389241136E+04  0.24389241136E+04  0.50400001928E-02 0.  1.
       -1   -1    0    0    0  501  0.00000000000E+00  0.00000000000E+00 -0.15622199315E+04  0.15622199316E+04  0.50400001928E-02 0. -1.
    10030    2    1    2    0    0  0.00000000000E+00  0.00000000000E+00  0.87670418209E+03  0.40011440452E+04  0.39039138627E+04 0.  0.
        3    1    3    3  502    0  0.91390661576E+03 -0.11024125216E+04 -0.92118352338E+03  0.17026795835E+04  0.10100000352E+00 0. -1.
       -3    1    3    3    0  502 -0.91390661576E+03  0.11024125216E+04  0.17978877055E+04  0.22984644617E+04  0.10100000352E+00 0.  1.
</event>
<event>
 5   0  0.1520986E-07  0.3916635E+04  0.7818609E-02  0.8021578E-01
        2   -1    0    0  501    0  0.00000000000E+00  0.00000000000E+00  0.27742051045E+04  0.27742051045E+04  0.25500000920E-02 0.  1.
       -2   -1    0    0    0  501  0.00000000000E+00  0.00000000000E+00 -0.13823806104E+04  0.13823806104E+04  0.25500000920E-02 0. -1.
    10030    2    1    2    0    0  0.00000000000E+00  0.00000000000E+00  0.13918244941E+04  0.41565857148E+04  0.39166349565E+04 0.  0.
        4    1    3    3  502    0  0.10341705924E+04  0.16116517665E+04  0.26082550122E+03  0.19326049223E+04  0.12699999809E+01 0. -1.
       -4    1    3    3    0  502 -0.10341705924E+04 -0.16116517665E+04  0.11309989929E+04  0.22239807925E+04  0.12699999809E+01 0.  1.
</event>
<event>
 5   0  0.1538018E-07  0.3951220E+04  0.7818609E-02  0.8014460E-01
        2   -1    0    0  501    0  0.00000000000E+00  0.00000000000E+00  0.25310770718E+04  0.25310770718E+04  0.25500000920E-02 0. -1.
       -2   -1    0    0    0  501  0.00000000000E+00  0.00000000000E+00 -0.15420449218E+04  0.15420449218E+04  0.25500000920E-02 0.  1.
    10030    2    1    2    0    0  0.00000000000E+00  0.00000000000E+00  0.98903215002E+03  0.40731219936E+04  0.39512198345E+04 0.  0.
        1    1    3    3  502    0 -0.18710309031E+04 -0.15124851975E+03  0.11294754098E+04  0.21907413030E+04  0.50400001928E-02 0. -1.
       -1    1    3    3    0  502  0.18710309031E+04  0.15124851975E+03 -0.14044325974E+03  0.18823806906E+04  0.50400001928E-02 0.  1.
</event>
<event>
 5   0  0.1546846E-07  0.3910249E+04  0.7818609E-02  0.8022901E-01
       -2   -1    0    0    0  501  0.00000000000E+00  0.00000000000E+00  0.21134678094E+04  0.21134678094E+04  0.25500000920E-02 0.  1.
        2   -1    0    0  501    0  0.00000000000E+00  0.00000000000E+00 -0.18086442089E+04  0.18086442089E+04  0.25500000920E-02 0. -1.
    10030    2    1    2    0    0  0.00000000000E+00  0.00000000000E+00  0.30482360057E+03  0.39221120183E+04  0.39102487462E+04 0.  0.
        2    1    3    3  502    0 -0.60244926046E+03 -0.17748024287E+04  0.71055536260E+03  0.20044345077E+04  0.25500000920E-02 0.  1.
       -2    1    3    3    0  502  0.60244926046E+03  0.17748024287E+04 -0.40573176203E+03  0.19176775107E+04  0.25500000920E-02 0. -1.
</event>
<event>
 5   0  0.4750125E-08  0.3844052E+04  0.7818609E-02  0.8036767E-01
        1   -1    0    0  501    0  0.00000000000E+00  0.00000000000E+00  0.21316754893E+04  0.21316754893E+04  0.50400001928E-02 0. -1.
       -1   -1    0    0    0  501  0.00000000000E+00  0.00000000000E+00 -0.17329957896E+04  0.17329957896E+04  0.50400001928E-02 0.  1.
    10030    2    1    2    0    0  0.00000000000E+00  0.00000000000E+00  0.39867969969E+03  0.38646712789E+04  0.38440523658E+04 0.  0.
        3    1    3    3  502    0 -0.77128919330E+03  0.60391117621E+03  0.18618690751E+04  0.21038422449E+04  0.10100000352E+00 0. -1.
       -3    1    3    3    0  502  0.77128919330E+03 -0.60391117621E+03 -0.14631893754E+04  0.17608290340E+04  0.10100000352E+00 0.  1.
</event>
<event>
 5   0  0.1503228E-07  0.3917164E+04  0.7818609E-02  0.8021469E-01
       -2   -1    0    0    0  501  0.00000000000E+00  0.00000000000E+00  0.20993873455E+04  0.20993873455E+04  0.25500000920E-02 0. -1.
        2   -1    0    0  501    0  0.00000000000E+00  0.00000000000E+00 -0.18272202646E+04  0.18272202646E+04  0.25500000920E-02 0.  1.
    10030    2    1    2    0    0  0.00000000000E+00  0.00000000000E+00  0.27216708090E+03  0.39266076102E+04  0.39171638215E+04 0.  0.
        3    1    3    3  502    0  0.14706274669E+04 -0.61296808326E+03 -0.10057711621E+04  0.18841578114E+04  0.10100000352E+00 0. -1.
       -3    1    3    3    0  502 -0.14706274669E+04  0.61296808326E+03  0.12779382430E+04  0.20424497988E+04  0.10100000352E+00 0.  1.
</event>
<event>
 5   0  0.1501585E-07  0.3905701E+04  0.7818609E-02  0.8023844E-01
       -2   -1    0    0    0  501  0.00000000000E+00  0.00000000000E+00  0.29192276366E+04  0.29192276366E+04  0.25500000920E-02 0. -1.
        2   -1    0    0  501    0  0.00000000000E+00  0.00000000000E+00 -0.13063817629E+04  0.13063817629E+04  0.25500000920E-02 0.  1.
    10030    2    1    2    0    0  0.00000000000E+00  0.00000000000E+00  0.16128458737E+04  0.42256093995E+04  0.39057013435E+04 0.  0.
        5    1    3    3  502    0 -0.65802664918E+03 -0.96574610113E+03  0.24991643494E+04  0.27588963624E+04  0.46999998093E+01 0. -1.
       -5    1    3    3    0  502  0.65802664918E+03  0.96574610113E+03 -0.88631847569E+03  0.14667130371E+04  0.46999998093E+01 0.  1.
</event>
<event>
 5   0  0.1538018E-07  0.3854152E+04  0.7818609E-02  0.8034633E-01
        2   -1    0    0  501    0  0.00000000000E+00  0.00000000000E+00  0.18520537597E+04  0.18520537597E+04  0.25500000920E-02 0. -1.
       -2   -1    0    0    0  501  0.00000000000E+00  0.00000000000E+00 -0.20051376639E+04  0.20051376639E+04  0.25500000920E-02 0.  1.
    10030    2    1    2    0    0  0.00000000000E+00  0.00000000000E+00 -0.15308390421E+03  0.38571914236E+04  0.38541524355E+04 0.  0.
        1    1    3    3  502    0  0.18116928331E+04 -0.54445252678E+03  0.29112120059E+03  0.19140039260E+04  0.50400001928E-02 0.  1.
       -1    1    3    3    0  502 -0.18116928331E+04  0.54445252678E+03 -0.44420510480E+03  0.19431874975E+04  0.50400001928E-02 0. -1.
</event>
<event>
 5   0  0.4750125E-08  0.3859091E+04  0.7818609E-02  0.8033592E-01
       -1   -1    0    0    0  501  0.00000000000E+00  0.00000000000E+00  0.23882409843E+04  0.23882409843E+04  0.50400001928E-02 0.  1.
        1   -1    0    0  501    0  0.00000000000E+00  0.00000000000E+00 -0.15589490049E+04  0.15589490049E+04  0.50400001928E-02 0. -1.
    10030    2    1    2    0    0  0.00000000000E+00  0.00000000000E+00  0.82929197943E+03  0.39471899893E+04  0.38590910360E+04 0.  0.
        3    1    3    3  502    0  0.16464960691E+04  0.99350863510E+03  0.57681254976E+03  0.20076656697E+04  0.10100000352E+00 0.  1.
       -3    1    3    3    0  502 -0.16464960691E+04 -0.99350863510E+03  0.25247942967E+03  0.19395243196E+04  0.10100000352E+00 0. -1.
</event>
<event>
 5   0  0.4750125E-08  0.3915743E+04  0.7818609E-02  0.8021763E-01
       -1   -1    0    0    0  501  0.00000000000E+00  0.00000000000E+00  0.24296008660E+04  0.24296008660E+04  0.50400001928E-02 0. -1.
        1   -1    0    0  501    0  0.00000000000E+00  0.00000000000E+00 -0.15777330001E+04  0.15777330001E+04  0.50400001928E-02 0.  1.
    10030    2    1    2    0    0  0.00000000000E+00  0.00000000000E+00  0.85186786587E+03  0.40073338661E+04  0.39157433335E+04 0.  0.
        4    1    3    3  502    0  0.77862394279E+03 -0.11696315702E+04 -0.96939661535E+03  0.17070514535E+04  0.12699999809E+01 0.  1.
       -4    1    3    3    0  502 -0.77862394279E+03  0.11696315702E+04  0.18212644812E+04  0.23002824126E+04  0.12699999809E+01 0. -1.
</event>
<event>
 5   0  0.4750125E-08  0.3855882E+04  0.7818609E-02  0.8034268E-01
       -1   -1    0    0    0  501  0.00000000000E+00  0.00000000000E+00  0.12145273298E+04  0.12145273299E+04  0.50400001928E-02 0. -1.
        1   -1    0    0  501    0  0.00000000000E+00  0.00000000000E+00 -0.30604133903E+04  0.30604133903E+04  0.50400001928E-02 0.  1.
    10030    2    1    2    0    0  0.00000000000E+00  0.00000000000E+00 -0.18458860605E+04  0.42749407202E+04  0.38558815870E+04 0.  0.
        5    1    3    3  502    0 -0.88849631147E+03  0.10842341997E+03  0.97019256104E+03  0.13200291773E+04  0.46999998093E+01 0. -1.
       -5    1    3    3    0  502  0.88849631147E+03 -0.10842341997E+03 -0.28160786215E+04  0.29549115428E+04  0.46999998093E+01 0.  1.
</event>
<event>
 5   0  0.1520986E-07  0.3911637E+04  0.7818609E-02  0.8022613E-01
       -2   -1    0    0    0  501  0.00000000000E+00  0.00000000000E+00  0.18083160488E+04  0.18083160488E+04  0.25500000920E-02 0.  1.
        2   -1    0    0  501    0  0.00000000000E+00  0.00000000000E+00 -0.21153520840E+04  0.21153520840E+04  0.25500000920E-02 0. -1.
    10030    2    1    2    0    0  0.00000000000E+00  0.00000000000E+00 -0.30703603526E+03  0.39236681328E+04  0.39116365487E+04 0.  0.
        4    1    3    3  502    0 -0.13654545478E+04 -0.97331953485E+01 -0.15580615687E+04  0.20717428223E+04  0.12699999809E+01 0. -1.
       -4    1    3    3    0  502  0.13654545478E+04  0.97331953485E+01  0.12510255335E+04  0.18519253104E+04  0.12699999809E+01 0.  1.
</event>
<event>
 5   0  0.1501585E-07  0.3787750E+04  0.7818609E-02  0.8048789E-01
       -2   -1    0    0    0  501  0.00000000000E+00  0.00000000000E+00  0.14446183197E+04  0.14446183197E+04  0.25500000920E-02 0.  1.
        2   -1    0    0  501    0  0.00000000000E+00  0.00000000000E+00 -0.24828442027E+04  0.24828442027E+04  0.25500000920E-02 0. -1.
    10030    2    1    2    0    0  0.00000000000E+00  0.00000000000E+00 -0.10382258830E+04  0.39274625224E+04  0.37877498440E+04 0.  0.
        5    1    3    3  502    0  0.14098571048E+04 -0.44728992989E+03 -0.17455230041E+04  0.22879331251E+04  0.46999998093E+01 0. -1.
       -5    1    3    3    0  502 -0.14098571048E+04  0.44728992989E+03  0.70729712105E+03  0.16395293973E+04  0.46999998093E+01 0.  1.
</event>
<event>
 5   0  0.1546846E-07  0.3778182E+04  0.7818609E-02  0.8050853E-01
       -2   -1    0    0    0  501  0.00000000000E+00  0.00000000000E+00  0.17449186443E+04  0.17449186443E+04  0.25500000920E-02 0.  1.
        2   -1    0    0  501    0  0.00000000000E+00  0.00000000000E+00 -0.20451753796E+04  0.20451753796E+04  0.25500000920E-02 0. -1.
    10030    2    1    2    0    0  0.00000000000E+00  0.00000000000E+00 -0.30025673527E+03  0.37900940239E+04  0.37781819177E+04 0.  0.
        2    1    3    3  502    0  0.24862912847E+03  0.62608333361E+03 -0.19205916856E+04  0.20353056790E+04  0.25500000920E-02 0. -1.
       -2    1    3    3    0  502 -0.24862912847E+03 -0.62608333361E+03  0.16203349503E+04  0.17547883449E+04  0.25500000920E-02 0.  1.
</event>
<event>
 5   0  0.1503228E-07  0.3898929E+04  0.7818609E-02  0.8025252E-01
        2   -1    0    0  501    0  0.00000000000E+00  0.00000000000E+00  0.14725820069E+04  0.14725820069E+04  0.25500000920E-02 0.  1.
       -2   -1    0    0    0  501  0.00000000000E+00  0.00000000000E+00 -0.25807809019E+04  0.25807809019E+04  0.25500000920E-02 0. -1.
    10030    2    1    2    0    0  0.00000000000E+00  0.00000000000E+00 -0.11081988949E+04  0.40533629088E+04  0.38989288375E+04 0.  0.
        3    1    3    3  502    0  0.92925716085E+03 -0.96231044571E+03 -0.20283121624E+04  0.24297346570E+04  0.10100000352E+00 0. -1.
       -3    1    3    3    0  502 -0.92925716085E+03  0.96231044571E+03  0.92011326750E+03  0.16236282518E+04  0.10100000352E+00 0.  1.
</event>
<event>
 5   0  0.1546846E-07  0.3905342E+04  0.7818609E-02  0.8023919E-01
        2   -1    0    0  501    0  0.00000000000E+00  0.00000000000E+00  0.21961025998E+04  0.21961025998E+04  0.25500000920E-02 0.  1.
       -2   -1    0    0    0  501  0.00000000000E+00  0.00000000000E+00 -0.17362227316E+04  0.17362227316E+04  0.25500000920E-02 0. -1.
    10030    2    1    2    0    0  0.00000000000E+00  0.00000000000E+00  0.45987986816E+03  0.39323253314E+04  0.39053416008E+04 0.  0.
        2    1    3    3  502    0 -0.72593906022E+03 -0.16518458276E+04 -0.52177113857E+03  0.18782511223E+04  0.25500000920E-02 0. -1.
       -2    1    3    3    0  502  0.72593906022E+03  0.16518458276E+04  0.98165100673E+03  0.20540742091E+04  0.25500000920E-02 0.  1.
</event>
<event>
 5   0  0.1503228E-07  0.3903516E+04  0.7818609E-02  0.8024298E-01
        2   -1    0    0  501    0  0.00000000000E+00  0.00000000000E+00  0.12358119130E+04  0.12358119130E+04  0.25500000920E-02 0.  1.
       -2   -1    0    0    0  501  0.00000000000E+00  0.00000000000E+00 -0.30824755658E+04  0.30824755658E+04  0.25500000920E-02 0. -1.
    10030    2    1    2    0    0  0.00000000000E+00  0.00000000000E+00 -0.18466636528E+04  0.43182874787E+04  0.39035163766E+04 0.  0.
        3    1    3    3  502    0  0.17854698910E+04  0.75026563100E+03 -0.11910337591E+04  0.22736232480E+04  0.10100000352E+00 0. -1.
       -3    1    3    3    0  502 -0.17854698910E+04 -0.75026563100E+03 -0.65562989371E+03  0.20446642307E+04  0.10100000352E+00 0.  1.
</event>
<event>
 5   0  0.1503228E-07  0.3862486E+04  0.7818609E-02  0.8032877E-01
       -2   -1    0    0    0  501  0.00000000000E+00  0.00000000000E+00  0.12998356608E+04  0.12998356608E+04  0.25500000920E-02 0. -1.
        2   -1    0    0  501    0  0.00000000000E+00  0.00000000000E+00 -0.28693617235E+04  0.28693617235E+04  0.25500000920E-02 0.  1.
    10030    2    1    2    0    0  0.00000000000E+00  0.00000000000E+00 -0.15695260627E+04  0.41691973843E+04  0.38624855686E+04 0.  0.
        3    1    3    3  502    0 -0.11128836971E+04 -0.13098640416E+04  0.16575643846E+03  0.17267684089E+04  0.10100000352E+00 0. -1.
       -3    1    3    3    0  502  0.11128836971E+04  0.13098640416E+04 -0.17352825012E+04  0.24424289754E+04  0.10100000352E+00 0.  1.
</event>
<event>
 5   0  0.1520986E-07  0.3486805E+04  0.7818609E-02  0.8116924E-01
       -2   -1    0    0    0  501  0.00000000000E+00  0.00000000000E+00  0.17361171547E+04  0.17361171547E+04  0.25500000920E-02 0.  1.
        2   -1    0    0  501    0  0.00000000000E+00  0.00000000000E+00 -0.17507179309E+04  0.17507179309E+04  0.25500000920E-02 0. -1.
    10030    2    1    2    0    0  0.00000000000E+00  0.00000000000E+00 -0.14600776149E+02  0.34868350856E+04  0.34868045158E+04 0.  0.
        4    1    3    3  502    0 -0.77375315331E+03  0.89910044899E+03 -0.12849556168E+04  0.17487675974E+04  0.12699999809E+01 0. -1.
       -4    1    3    3    0  502  0.77375315331E+03 -0.89910044899E+03  0.12703548406E+04  0.17380674882E+04  0.12699999809E+01 0.  1.
</event>
<event>
 5   0  0.4750125E-08  0.3852593E+04  0.7818609E-02  0.8034962E-01
        1   -1    0    0  501    0  0.00000000000E+00  0.00000000000E+00  0.24691388698E+04  0.24691388698E+04  0.50400001928E-02 0.  1.
       -1   -1    0    0    0  501  0.00000000000E+00  0.00000000000E+00 -0.15027984406E+04  0.15027984406E+04  0.50400001928E-02 0. -1.
    10030    2    1    2    0    0  0.00000000000E+00  0.00000000000E+00  0.96634042922E+03  0.39719373103E+04  0.38525929154E+04 0.  0.
        5    1    3    3  502    0 -0.34754951189E+03  0.14046794168E+04  0.17940456773E+04  0.23048941211E+04  0.46999998093E+01 0.  1.
       -5    1    3    3    0  502  0.34754951189E+03 -0.14046794168E+04 -0.82770524807E+03  0.16670431893E+04  0.46999998093E+01 0. -1.
</event>
<event>
 5   0  0.4762788E-08  0.3903595E+04  0.7818609E-02  0.8024282E-01
       -1   -1    0    0    0  501  0.00000000000E+00  0.00000000000E+00  0.18052980549E+04  0.18052980549E+04  0.50400001928E-02 0.  1.
        1   -1    0    0  501    0  0.00000000000E+00  0.00000000000E+00 -0.21101853125E+04  0.21101853125E+04  0.50400001928E-02 0. -1.
    10030    2    1    2    0    0  0.00000000000E+00  0.00000000000E+00 -0.30488725763E+03  0.39154833674E+04  0.39035949790E+04 0.  0.
        2    1    3    3  502    0 -0.10647897397E+04 -0.23950197317E+03 -0.17755110487E+04  0.20841252047E+04  0.25500000920E-02 0. -1.
       -2    1    3    3    0  502  0.10647897397E+04  0.23950197317E+03  0.14706237911E+04  0.18313581626E+04  0.25500000920E-02 0.  1.
</event>
<event>
 5   0  0.4762788E-08  0.3907701E+04  0.7818609E-02  0.8023429E-01
       -1   -1    0    0    0  501  0.00000000000E+00  0.00000000000E+00  0.20654513291E+04  0.20654513291E+04  0.50400001928E-02 0. -1.
        1   -1    0    0  501    0  0.00000000000E+00  0.00000000000E+00 -0.18482797407E+04  0.18482797407E+04  0.50400001928E-02 0.  1.
    10030    2    1    2    0    0  0.00000000000E+00  0.00000000000E+00  0.21717158839E+03  0.39137310698E+04  0.39077010362E+04 0.  0.
        2    1    3    3  502    0  0.49140971637E+03  0.51243667442E+02  0.20018526374E+04  0.20619222596E+04  0.25500000920E-02 0. -1.
       -2    1    3    3    0  502 -0.49140971637E+03 -0.51243667442E+02 -0.17846810490E+04  0.18518088102E+04  0.25500000920E-02 0.  1.
</event>
<event>
 5   0  0.4750125E-08  0.3901363E+04  0.7818609E-02  0.8024746E-01
       -1   -1    0    0    0  501  0.00000000000E+00  0.00000000000E+00  0.17252259517E+04  0.17252259517E+04  0.50400001928E-02 0.  1.
        1   -1    0    0  501    0  0.00000000000E+00  0.00000000000E+00 -0.22055996834E+04  0.22055996835E+04  0.50400001928E-02 0. -1.
    10030    2    1    2    0    0  0.00000000000E+00  0.00000000000E+00 -0.48037373171E+03  0.39308256352E+04  0.39013627430E+04 0.  0.
        3    1    3    3  502    0  0.15855894145E+04 -0.96285701801E+03  0.36766879425E+03  0.18911287056E+04  0.10100000352E+00 0.  1.
       -3    1    3    3    0  502 -0.15855894145E+04  0.96285701801E+03 -0.84804252596E+03  0.20396969296E+04  0.10100000352E+00 0. -1.
</event>
<event>
 5   0  0.1538018E-07  0.3931149E+04  0.7818609E-02  0.8018582E-01
        2   -1    0    0  501    0  0.00000000000E+00  0.00000000000E+00  0.22692872366E+04  0.22692872366E+04  0.25500000920E-02 0. -1.
       -2   -1    0    0    0  501  0.00000000000E+00  0.00000000000E+00 -0.17025093353E+04  0.17025093353E+04  0.25500000920E-02 0.  1.
    10030    2    1    2    0    0  0.00000000000E+00  0.00000000000E+00  0.56677790135E+03  0.39717965719E+04  0.39311487912E+04 0.  0.
        1    1    3    3  502    0 -0.15214146949E+04  0.10129431938E+04 -0.44708480020E+03  0.18816592163E+04  0.50400001928E-02 0.  1.
       -1    1    3    3    0  502  0.15214146949E+04 -0.10129431938E+04  0.10138627016E+04  0.20901373556E+04  0.50400001928E-02 0. -1.
</event>
<event>
 5   0  0.4750125E-08  0.3781771E+04  0.7818609E-02  0.8050078E-01
        1   -1    0    0  501    0  0.00000000000E+00  0.00000000000E+00  0.12628997299E+04  0.12628997299E+04  0.50400001928E-02 0.  1.
       -1   -1    0    0    0  501  0.00000000000E+00  0.00000000000E+00 -0.28311413970E+04  0.28311413970E+04  0.50400001928E-02 0. -1.
    10030    2    1    2    0    0  0.00000000000E+00  0.00000000000E+00 -0.15682416671E+04  0.40940411269E+04  0.37817708580E+04 0.  0.
        3    1    3    3  502    0  0.13494578609E+04  0.33617070460E+02  0.64932986967E+03  0.14979305443E+04  0.10100000352E+00 0.  1.
       -3    1    3    3    0  502 -0.13494578609E+04 -0.33617070460E+02 -0.22175715368E+04  0.25961105825E+04  0.10100000352E+00 0. -1.
</event>
<event>
 5   0  0.1503228E-07  0.3932676E+04  0.7818609E-02  0.8018267E-01
       -2   -1    0    0    0  501  0.00000000000E+00  0.00000000000E+00  0.15461277271E+04  0.15461277271E+04  0.25500000920E-02 0.  1.
        2   -1    0    0  501    0  0.00000000000E+00  0.00000000000E+00 -0.25007538537E+04  0.25007538537E+04  0.25500000920E-02 0. -1.
    10030    2    1    2    0    0  0.00000000000E+00  0.00000000000E+00 -0.95462612657E+03  0.40468815808E+04  0.39326758686E+04 0.  0.
        3    1    3    3  502    0 -0.88272621765E+03 -0.13099505487E+04 -0.16823489532E+04  0.23076988595E+04  0.10100000352E+00 0. -1.
       -3    1    3    3    0  502  0.88272621765E+03  0.13099505487E+04  0.72772282668E+03  0.17391827213E+04  0.10100000352E+00 0.  1.
</event>
<event>
 5   0  0.4750125E-08  0.3432892E+04  0.7818609E-02  0.8129880E-01
        1   -1    0    0  501    0  0.00000000000E+00  0.00000000000E+00  0.16885325130E+04  0.16885325130E+04  0.50400001928E-02 0. -1.
       -1   -1    0    0    0  501  0.00000000000E+00  0.00000000000E+00 -0.17448206486E+04  0.17448206486E+04  0.50400001928E-02 0.  1.
    10030    2    1    2    0    0  0.00000000000E+00  0.00000000000E+00 -0.56288135613E+02  0.34333531617E+04  0.34328917225E+04 0.  0.
        1    1    3    3  502    0 -0.36260433979E+03 -0.74265360873E+03  0.14764417765E+04  0.16920096363E+04  0.50400001928E-02 0. -1.
       -1    1    3    3    0  502  0.36260433979E+03  0.74265360873E+03 -0.15327299121E+04  0.17413435254E+04  0.50400001928E-02 0.  1.
</event>
<event>
 5   0  0.1520986E-07  0.3477764E+04  0.7818609E-02  0.8119080E-01
       -2   -1    0    0    0  501  0.00000000000E+00  0.00000000000E+00  0.15178838485E+04  0.15178838485E+04  0.25500000920E-02 0.  1.
        2   -1    0    0  501    0  0.00000000000E+00  0.00000000000E+00 -0.19920568942E+04  0.19920568942E+04  0.25500000920E-02 0. -1.
    10030    2    1    2    0    0  0.00000000000E+00  0.00000000000E+00 -0.47417304575E+03  0.35099407427E+04  0.34777642157E+04 0.  0.
        4    1    3    3  502    0  0.41696714313E+03 -0.12710521338E+04 -0.13583443397E+04  0.19064459298E+04  0.12699999809E+01 0. -1.
       -4    1    3    3    0  502 -0.41696714313E+03  0.12710521338E+04  0.88417129390E+03  0.16034948129E+04  0.12699999809E+01 0.  1.
</event>
<event>
 5   0  0.1520986E-07  0.3884306E+04  0.7818609E-02  0.8028301E-01
       -2   -1    0    0    0  501  0.00000000000E+00  0.00000000000E+00  0.33345251730E+04  0.33345251730E+04  0.25500000920E-02 0. -1.
        2   -1    0    0  501    0  0.00000000000E+00  0.00000000000E+00 -0.11311828640E+04  0.11311828640E+04  0.25500000920E-02 0.  1.
    10030    2    1    2    0    0  0.00000000000E+00  0.00000000000E+00  0.22033423090E+04  0.44657080370E+04  0.38843057218E+04 0.  0.
        4    1    3    3  502    0  0.19301522922E+04 -0.20362656569E+03  0.11830021502E+04  0.22729820390E+04  0.12699999809E+01 0. -1.
       -4    1    3    3    0  502 -0.19301522922E+04  0.20362656569E+03  0.10203401588E+04  0.21927259979E+04  0.12699999809E+01 0.  1.
</event>
<event>
 5   0  0.4750125E-08  0.3908032E+04  0.7818609E-02  0.8023361E-01
       -1   -1    0    0    0  501  0.00000000000E+00  0.00000000000E+00  0.18320809053E+04  0.18320809053E+04  0.50400001928E-02 0.  1.
        1   -1    0    0  501    0  0.00000000000E+00  0.00000000000E+00 -0.20840668567E+04  0.20840668567E+04  0.50400001928E-02 0. -1.
    10030    2    1    2    0    0  0.00000000000E+00  0.00000000000E+00 -0.25198595136E+03  0.39161477620E+04  0.39080322893E+04 0.  0.
        5    1    3    3  502    0 -0.44092553342E+01  0.17529595754E+03  0.18241750147E+04  0.18325896127E+04  0.46999998093E+01 0.  1.
       -5    1    3    3    0  502  0.44092553342E+01 -0.17529595754E+03 -0.20761609661E+04  0.20835581493E+04  0.46999998093E+01 0. -1.
</event>
<event>
 5   0  0.4750125E-08  0.3902940E+04  0.7818609E-02  0.8024418E-01
        1   -1    0    0  501    0  0.00000000000E+00  0.00000000000E+00  0.17876703126E+04  0.17876703126E+04  0.50400001928E-02 0.  1.
       -1   -1    0    0    0  501  0.00000000000E+00  0.00000000000E+00 -0.21302784954E+04  0.21302784954E+04  0.50400001928E-02 0. -1.
    10030    2    1    2    0    0  0.00000000000E+00  0.00000000000E+00 -0.34260818283E+03  0.39179488081E+04  0.39029402373E+04 0.  0.
        3    1    3    3  502    0 -0.18236555323E+04  0.53089537875E+03  0.27837633091E+03  0.19196517380E+04  0.10100000352E+00 0.  1.
       -3    1    3    3    0  502  0.18236555323E+04 -0.53089537875E+03 -0.62098451374E+03  0.19982970700E+04  0.10100000352E+00 0. -1.
</event>
<event>
 5   0  0.4762788E-08  0.3880616E+04  0.7818609E-02  0.8029073E-01
        1   -1    0    0  501    0  0.00000000000E+00  0.00000000000E+00  0.14668722498E+04  0.14668722498E+04  0.50400001928E-02 0.  1.
       -1   -1    0    0    0  501  0.00000000000E+00  0.00000000000E+00 -0.25665465004E+04  0.25665465004E+04  0.50400001928E-02 0. -1.
    10030    2    1    2    0    0  0.00000000000E+00  0.00000000000E+00 -0.10996742506E+04  0.40334187502E+04  0.38806163630E+04 0.  0.
        2    1    3    3  502    0 -0.11317706139E+04 -0.81396200291E+03  0.85288012805E+03  0.16342715128E+04  0.25500000920E-02 0.  1.
       -2    1    3    3    0  502  0.11317706139E+04  0.81396200291E+03 -0.19525543787E+04  0.23991472374E+04  0.25500000920E-02 0. -1.
</event>
<event>
 5   0  0.1520986E-07  0.3853774E+04  0.7818609E-02  0.8034713E-01
        2   -1    0    0  501    0  0.00000000000E+00  0.00000000000E+00  0.22194770320E+04  0.22194770320E+04  0.25500000920E-02 0.  1.
       -2   -1    0    0    0  501  0.00000000000E+00  0.00000000000E+00 -0.16728683963E+04  0.16728683963E+04  0.25500000920E-02 0. -1.
    10030    2    1    2    0    0  0.00000000000E+00  0.00000000000E+00  0.54660863564E+03  0.38923454283E+04  0.38537737262E+04 0.  0.
        4    1    3    3  502    0  0.92277142080E+03 -0.13609245733E+04 -0.74137437400E+03  0.18036796735E+04  0.12699999809E+01 0. -1.
       -4    1    3    3    0  502 -0.92277142080E+03  0.13609245733E+04  0.12879830096E+04  0.20886657548E+04  0.12699999809E+01 0.  1.
</event>
<event>
 5   0  0.4750125E-08  0.3912555E+04  0.7818609E-02  0.8022423E-01
        1   -1    0    0  501    0  0.00000000000E+00  0.00000000000E+00  0.17435521931E+04  0.17435521931E+04  0.50400001928E-02 0. -1.
       -1   -1    0    0    0  501  0.00000000000E+00  0.00000000000E+00 -0.21949570207E+04  0.21949570207E+04  0.50400001928E-02 0.  1.
    10030    2    1    2    0    0  0.00000000000E+00  0.00000000000E+00 -0.45140482766E+03  0.39385092138E+04  0.39125552404E+04 0.  0.
        3    1    3    3  502    0  0.73701992454E+02 -0.85874582776E+03 -0.19935256153E+04  0.21718703390E+04  0.10100000352E+00 0.  1.
       -3    1    3    3    0  502 -0.73701992454E+02  0.85874582776E+03  0.15421207876E+04  0.17666388749E+04  0.10100000352E+00 0. -1.
</event>
<event>
 5   0  0.1546846E-07  0.3544973E+04  0.7818609E-02  0.8103214E-01
        2   -1    0    0  501    0  0.00000000000E+00  0.00000000000E+00  0.21803618749E+04  0.21803618749E+04  0.25500000920E-02 0.  1.
       -2   -1    0    0    0  501  0.00000000000E+00  0.00000000000E+00 -0.14409111536E+04  0.14409111536E+04  0.25500000920E-02 0. -1.
    10030    2    1    2    0    0  0.00000000000E+00  0.00000000000E+00  0.73945072132E+03  0.36212730285E+04  0.35449726343E+04 0.  0.
        2    1    3    3  502    0  0.35529808330E+03  0.16313175622E+03 -0.13963169340E+04  0.14500171303E+04  0.25500000920E-02 0. -1.
       -2    1    3    3    0  502 -0.35529808330E+03 -0.16313175622E+03  0.21357676554E+04  0.21712558982E+04  0.25500000920E-02 0.  1.
</event>
<event>
 5   0  0.1520986E-07  0.3894873E+04  0.7818609E-02  0.8026096E-01
        2   -1    0    0  501    0  0.00000000000E+00  0.00000000000E+00  0.24822265215E+04  0.24822265215E+04  0.25500000920E-02 0.  1.
       -2   -1    0    0    0  501  0.00000000000E+00  0.00000000000E+00 -0.15278655358E+04  0.15278655358E+04  0.25500000920E-02 0. -1.
    10030    2    1    2    0    0  0.00000000000E+00  0.00000000000E+00  0.95436098567E+03  0.40100920573E+04  0.38948727087E+04 0.  0.
        4    1    3    3  502    0  0.13228377345E+04 -0.11329614411E+04  0.13741620610E+04  0.22185184880E+04  0.12699999809E+01 0.  1.
       -4    1    3    3    0  502 -0.13228377345E+04  0.11329614411E+04 -0.41980107529E+03  0.17915735694E+04  0.12699999809E+01 0. -1.
</event>
<event>
 5   0  0.4750125E-08  0.3907774E+04  0.7818609E-02  0.8023414E-01
       -1   -1    0    0    0  501  0.00000000000E+00  0.00000000000E+00  0.17374113291E+04  0.17374113291E+04  0.50400001928E-02 0.  1.
        1   -1    0    0  501    0  0.00000000000E+00  0.00000000000E+00 -0.21973346358E+04  0.21973346358E+04  0.50400001928E-02 0. -1.
    10030    2    1    2    0    0  0.00000000000E+00  0.00000000000E+00 -0.45992330669E+03  0.39347459650E+04  0.39077738370E+04 0.  0.
        5    1    3    3  502    0  0.65181799641E+03 -0.14550058121E+04  0.90732237635E+03  0.18344384967E+04  0.46999998093E+01 0.  1.
       -5    1    3    3    0  502 -0.65181799641E+03  0.14550058121E+04 -0.13672456830E+04  0.21003074683E+04  0.46999998093E+01 0. -1.
</event>
<event>
 5   0  0.4762788E-08  0.3932785E+04  0.7818609E-02  0.8018245E-01
        1   -1    0    0  501    0  0.00000000000E+00  0.00000000000E+00  0.16511556148E+04  0.16511556148E+04  0.50400001928E-02 0. -1.
       -1   -1    0    0    0  501  0.00000000000E+00  0.00000000000E+00 -0.23418140569E+04  0.23418140569E+04  0.50400001928E-02 0.  1.
    10030    2    1    2    0    0  0.00000000000E+00  0.00000000000E+00 -0.69065844215E+03  0.39929696717E+04  0.39327849821E+04 0.  0.
        2    1    3    3  502    0  0.74601640558E+03 -0.10460223321E+04 -0.18567323521E+04  0.22579101453E+04  0.25500000920E-02 0.  1.
       -2    1    3    3    0  502 -0.74601640558E+03  0.10460223321E+04  0.11660739100E+04  0.17350595264E+04  0.25500000920E-02 0. -1.
</event>
<event>
 5   0  0.1546846E-07  0.3889021E+04  0.7818609E-02  0.8027317E-01
        2   -1    0    0  501    0  0.00000000000E+00  0.00000000000E+00  0.25485782547E+04  0.25485782547E+04  0.25500000920E-02 0. -1.
       -2   -1    0    0    0  501  0.00000000000E+00  0.00000000000E+00 -0.14836197279E+04  0.14836197279E+04  0.25500000920E-02 0.  1.
    10030    2    1    2    0    0  0.00000000000E+00  0.00000000000E+00  0.10649585268E+04  0.40321979827E+04  0.38890209446E+04 0.  0.
        2    1    3    3  502    0 -0.14633394352E+04 -0.11349257709E+04  0.11473574540E+04  0.21784967146E+04  0.25500000920E-02 0. -1.
       -2    1    3    3    0  502  0.14633394352E+04  0.11349257709E+04 -0.82398927226E+02  0.18537012681E+04  0.25500000920E-02 0.  1.
</event>
<event>
 5   0  0.1503228E-07  0.3910103E+04  0.7818609E-02  0.8022931E-01
       -2   -1    0    0    0  501  0.00000000000E+00  0.00000000000E+00  0.14522040780E+04  0.14522040780E+04  0.25500000920E-02 0.  1.
        2   -1    0    0  501    0  0.00000000000E+00  0.00000000000E+00 -0.26320176898E+04  0.26320176898E+04  0.25500000920E-02 0. -1.
    10030    2    1    2    0    0  0.00000000000E+00  0.00000000000E+00 -0.11798136118E+04  0.40842217678E+04  0.39101032327E+04 0.  0.
        3    1    3    3  502    0  0.13836405217E+04  0.95713921589E+03  0.45025368310E+03  0.17416385851E+04  0.10100000352E+00 0.  1.
       -3    1    3    3    0  502 -0.13836405217E+04 -0.95713921589E+03 -0.16300672949E+04  0.23425831827E+04  0.10100000352E+00 0. -1.
</event>
<event>
 5   0  0.1501585E-07  0.3908184E+04  0.7818609E-02  0.8023329E-01
       -2   -1    0    0    0  501  0.00000000000E+00  0.00000000000E+00  0.29814042796E+04  0.29814042796E+04  0.25500000920E-02 0.  1.
        2   -1    0    0  501    0  0.00000000000E+00  0.00000000000E+00 -0.12807638921E+04  0.12807638921E+04  0.25500000920E-02 0. -1.
    10030    2    1    2    0    0  0.00000000000E+00  0.00000000000E+00  0.17006403875E+04  0.42621681718E+04  0.39081836954E+04 0.  0.
        5    1    3    3  502    0  0.37285688659E+03  0.16783372219E+04 -0.16257394569E+03  0.17269309384E+04  0.46999998093E+01 0. -1.
       -5    1    3    3    0  502 -0.37285688659E+03 -0.16783372219E+04  0.18632143332E+04  0.25352372334E+04  0.46999998093E+01 0.  1.
</event>
<event>
 5   0  0.4762788E-08  0.3860519E+04  0.7818609E-02  0.8033291E-01
       -1   -1    0    0    0  501  0.00000000000E+00  0.00000000000E+00  0.28126103031E+04  0.28126103031E+04  0.50400001928E-02 0. -1.
        1   -1    0    0  501    0  0.00000000000E+00  0.00000000000E+00 -0.13247133197E+04  0.13247133197E+04  0.50400001928E-02 0.  1.
    10030    2    1    2    0    0  0.00000000000E+00  0.00000000000E+00  0.14878969835E+04  0.41373236228E+04  0.38605193079E+04 0.  0.
        2    1    3    3  502    0  0.17897799938E+04  0.55492022763E+03  0.12404752945E+04  0.22472267000E+04  0.25500000920E-02 0. -1.
       -2    1    3    3    0  502 -0.17897799938E+04 -0.55492022763E+03  0.24742168901E+03  0.18900969228E+04  0.25500000920E-02 0.  1.
</event>
<event>
 5   0  0.1546846E-07  0.3898590E+04  0.7818609E-02  0.8025323E-01
       -2   -1    0    0    0  501  0.00000000000E+00  0.00000000000E+00  0.22792731730E+04  0.22792731730E+04  0.25500000920E-02 0.  1.
        2   -1    0    0  501    0  0.00000000000E+00  0.00000000000E+00 -0.16670887647E+04  0.16670887647E+04  0.25500000920E-02 0. -1.
    10030    2    1    2    0    0  0.00000000000E+00  0.00000000000E+00  0.61218440827E+03  0.39463619376E+04  0.38985898467E+04 0.  0.
        2    1    3    3  502    0  0.59337099092E+02 -0.19452049348E+04  0.41884639879E+03  0.19906721065E+04  0.25500000920E-02 0. -1.
       -2    1    3    3    0  502 -0.59337099092E+02  0.19452049348E+04  0.19333800947E+03  0.19556898312E+04  0.25500000920E-02 0.  1.
</event>
<event>
 5   0  0.4762788E-08  0.3834845E+04  0.7818609E-02  0.8038718E-01
       -1   -1    0    0    0  501  0.00000000000E+00  0.00000000000E+00  0.13193291036E+04  0.13193291036E+04  0.50400001928E-02 0. -1.
        1   -1    0    0  501    0  0.00000000000E+00  0.00000000000E+00 -0.27866504702E+04  0.27866504702E+04  0.50400001928E-02 0.  1.
    10030    2    1    2    0    0  0.00000000000E+00  0.00000000000E+00 -0.14673213665E+04  0.41059795738E+04  0.38348450122E+04 0.  0.
        2    1    3    3  502    0  0.82739886958E+03 -0.14862916393E+04  0.21368893025E+03  0.17144429665E+04  0.25500000920E-02 0. -1.
       -2    1    3    3    0  502 -0.82739886958E+03  0.14862916393E+04 -0.16810102968E+04  0.23915366073E+04  0.25500000920E-02 0.  1.
</event>
<event>
 5   0  0.1501585E-07  0.3970581E+04  0.7818609E-02  0.8010508E-01
        2   -1    0    0  501    0  0.00000000000E+00  0.00000000000E+00  0.14092424468E+04  0.14092424468E+04  0.25500000920E-02 0. -1.
       -2   -1    0    0    0  501  0.00000000000E+00  0.00000000000E+00 -0.27968059745E+04  0.27968059746E+04  0.25500000920E-02 0.  1.
    10030    2    1    2    0    0  0.00000000000E+00  0.00000000000E+00 -0.13875635277E+04  0.42060484214E+04  0.39705806603E+04 0.  0.
        5    1    3    3  502    0 -0.47560735966E+03  0.19132830338E+04 -0.94108146072E+03  0.21846076842E+04  0.46999998093E+01 0.  1.
       -5    1    3    3    0  502  0.47560735966E+03 -0.19132830338E+04 -0.44648206698E+03  0.20214407372E+04  0.46999998093E+01 0. -1.
</event>
<event>
 5   0  0.4750125E-08  0.3891468E+04  0.7818609E-02  0.8026806E-01
       -1   -1    0    0    0  501  0.00000000000E+00  0.00000000000E+00  0.16389790207E+04  0.16389790207E+04  0.50400001928E-02 0.  1.
        1   -1    0    0  501    0  0.00000000000E+00  0.00000000000E+00 -0.23099021166E+04  0.23099021166E+04  0.50400001928E-02 0. -1.
    10030    2    1    2    0    0  0.00000000000E+00  0.00000000000E+00 -0.67092309592E+03  0.39488811373E+04  0.38914681595E+04 0.  0.
        1    1    3    3  502    0  0.76966246496E+03 -0.90561680651E+03  0.12278383440E+04  0.17088326745E+04  0.50400001928E-02 0.  1.
       -1    1    3    3    0  502 -0.76966246496E+03  0.90561680651E+03 -0.18987614400E+04  0.22400484629E+04  0.50400001928E-02 0. -1.
</event>
<event>
 5   0  0.4750125E-08  0.3818884E+04  0.7818609E-02  0.8042115E-01
       -1   -1    0    0    0  501  0.00000000000E+00  0.00000000000E+00  0.16057078731E+04  0.16057078731E+04  0.50400001928E-02 0.  1.
        1   -1    0    0  501    0  0.00000000000E+00  0.00000000000E+00 -0.22706297826E+04  0.22706297826E+04  0.50400001928E-02 0. -1.
    10030    2    1    2    0    0  0.00000000000E+00  0.00000000000E+00 -0.66492190945E+03  0.38763376557E+04  0.38188836688E+04 0.  0.
        4    1    3    3  502    0 -0.10575538738E+04  0.15886985836E+04 -0.27170121984E+03  0.19277464956E+04  0.12699999809E+01 0.  1.
       -4    1    3    3    0  502  0.10575538738E+04 -0.15886985836E+04 -0.39322068961E+03  0.19485911601E+04  0.12699999809E+01 0. -1.
</event>
<event>
 5   0  0.4750125E-08  0.3905837E+04  0.7818609E-02  0.8023816E-01
        1   -1    0    0  501    0  0.00000000000E+00  0.00000000000E+00  0.19997673241E+04  0.19997673241E+04  0.50400001928E-02 0. -1.
       -1   -1    0    0    0  501  0.00000000000E+00  0.00000000000E+00 -0.19071668665E+04  0.19071668665E+04  0.50400001928E-02 0.  1.
    10030    2    1    2    0    0  0.00000000000E+00  0.00000000000E+00  0.92600457588E+02  0.39069341907E+04  0.39058366486E+04 0.  0.
        1    1    3    3  502    0  0.52126594362E+03 -0.92967370610E+02 -0.18339962880E+04  0.19089011238E+04  0.50400001928E-02 0.  1.
       -1    1    3    3    0  502 -0.52126594362E+03  0.92967370610E+02  0.19265967456E+04  0.19980330669E+04  0.50400001928E-02 0. -1.
</event>
<event>
 5   0  0.1501585E-07  0.3901632E+04  0.7818609E-02  0.8024690E-01
        2   -1    0    0  501    0  0.00000000000E+00  0.00000000000E+00  0.21100589830E+04  0.21100589830E+04  0.25500000920E-02 0.  1.
       -2   -1    0    0    0  501  0.00000000000E+00  0.00000000000E+00 -0.18035910316E+04  0.18035910316E+04  0.25500000920E-02 0. -1.
    10030    2    1    2    0    0  0.00000000000E+00  0.00000000000E+00  0.30646795141E+03  0.39136500145E+04  0.39016322009E+04 0.  0.
        5    1    3    3  502    0  0.63274910233E+03 -0.16964488111E+04  0.88166041184E+03  0.20138662237E+04  0.46999998093E+01 0.  1.
       -5    1    3    3    0  502 -0.63274910233E+03  0.16964488111E+04 -0.57519246043E+03  0.18997837908E+04  0.46999998093E+01 0. -1.
</event>
<event>
 5   0  0.4750125E-08  0.4013470E+04  0.7818609E-02  0.8001835E-01
       -1   -1    0    0    0  501  0.00000000000E+00  0.00000000000E+00  0.17960555802E+04  0.17960555802E+04  0.50400001928E-02 0. -1.
        1   -1    0    0  501    0  0.00000000000E+00  0.00000000000E+00 -0.22421271157E+04  0.22421271157E+04  0.50400001928E-02 0.  1.
    10030    2    1    2    0    0  0.00000000000E+00  0.00000000000E+00 -0.44607153554E+03  0.40381826959E+04  0.40134697795E+04 0.  0.
        5    1    3    3  502    0 -0.26955933417E+03 -0.88692466833E+03 -0.20137884271E+04  0.22169040396E+04  0.46999998093E+01 0.  1.
       -5    1    3    3    0  502  0.26955933417E+03  0.88692466833E+03  0.15677168915E+04  0.18212786563E+04  0.46999998093E+01 0. -1.
</event>
<event>
 5   0  0.4750125E-08  0.3708644E+04  0.7818609E-02  0.8066049E-01
       -1   -1    0    0    0  501  0.00000000000E+00  0.00000000000E+00  0.12209862540E+04  0.12209862540E+04  0.50400001928E-02 0.  1.
        1   -1    0    0  501    0  0.00000000000E+00  0.00000000000E+00 -0.28161743560E+04  0.28161743560E+04  0.50400001928E-02 0. -1.
    10030    2    1    2    0    0  0.00000000000E+00  0.00000000000E+00 -0.15951881020E+04  0.40371606099E+04  0.37086440527E+04 0.  0.
        3    1    3    3  502    0  0.12817544453E+04  0.12992935572E+04 -0.11544295460E+04  0.21595753733E+04  0.10100000352E+00 0. -1.
       -3    1    3    3    0  502 -0.12817544453E+04 -0.12992935572E+04 -0.44075855597E+03  0.18775852366E+04  0.10100000352E+00 0.  1.
</event>
<event>
 5   0  0.1538018E-07  0.3909490E+04  0.7818609E-02  0.8023058E-01
        2   -1    0    0  501    0  0.00000000000E+00  0.00000000000E+00  0.24982047215E+04  0.24982047215E+04  0.25500000920E-02 0. -1.
       -2   -1    0    0    0  501  0.00000000000E+00  0.00000000000E+00 -0.15295097559E+04  0.15295097559E+04  0.25500000920E-02 0.  1.
    10030    2    1    2    0    0  0.00000000000E+00  0.00000000000E+00  0.96869496564E+03  0.40277144774E+04  0.39094902449E+04 0.  0.
        1    1    3    3  502    0 -0.10989952459E+04 -0.10185835176E+04 -0.80889163391E+03  0.17028237161E+04  0.50400001928E-02 0.  1.
       -1    1    3    3    0  502  0.10989952459E+04  0.10185835176E+04  0.17775865996E+04  0.23248907612E+04  0.50400001928E-02 0. -1.
</event>
<event>
 5   0  0.4750125E-08  0.3922762E+04  0.7818609E-02  0.8020312E-01
        1   -1    0    0  501    0  0.00000000000E+00  0.00000000000E+00  0.16773371150E+04  0.16773371150E+04  0.50400001928E-02 0.  1.
       -1   -1    0    0    0  501  0.00000000000E+00  0.00000000000E+00 -0.22935259273E+04  0.22935259274E+04  0.50400001928E-02 0. -1.
    10030    2    1    2    0    0  0.00000000000E+00  0.00000000000E+00 -0.61618881236E+03  0.39708630424E+04  0.39227623747E+04 0.  0.
        3    1    3    3  502    0  0.44356062394E+03  0.11499265391E+04  0.12363728757E+04  0.17457648669E+04  0.10100000352E+00 0.  1.
       -3    1    3    3    0  502 -0.44356062394E+03 -0.11499265391E+04 -0.18525616880E+04  0.22250981755E+04  0.10100000352E+00 0. -1.
</event>
<event>
 5   0  0.1503228E-07  0.3905052E+04  0.7818609E-02  0.8023979E-01
        2   -1    0    0  501    0  0.00000000000E+00  0.00000000000E+00  0.25799978891E+04  0.25799978891E+04  0.25500000920E-02 0. -1.
       -2   -1    0    0    0  501  0.00000000000E+00  0.00000000000E+00 -0.14776592361E+04  0.14776592361E+04  0.25500000920E-02 0.  1.
    10030    2    1    2    0    0  0.00000000000E+00  0.00000000000E+00  0.11023386530E+04  0.40576571252E+04  0.39050519638E+04 0.  0.
        3    1    3    3  502    0  0.70387344648E+03 -0.17802485686E+04  0.95041760599E+03  0.21372918450E+04  0.10100000352E+00 0. -1.
       -3    1    3    3    0  502 -0.70387344648E+03  0.17802485686E+04  0.15192104704E+03  0.19203652802E+04  0.10100000352E+00 0.  1.
</event>
<event>
 5   0  0.4750125E-08  0.3819742E+04  0.7818609E-02  0.8041932E-01
        1   -1    0    0  501    0  0.00000000000E+00  0.00000000000E+00  0.20919109910E+04  0.20919109910E+04  0.50400001928E-02 0. -1.
       -1   -1    0    0    0  501  0.00000000000E+00  0.00000000000E+00 -0.17436723001E+04  0.17436723001E+04  0.50400001928E-02 0.  1.
    10030    2    1    2    0    0  0.00000000000E+00  0.00000000000E+00  0.34823869091E+03  0.38355832911E+04  0.38197420066E+04 0.  0.
        3    1    3    3  502    0  0.16341896390E+02  0.48645682316E+03  0.20285864933E+04  0.20861616594E+04  0.10100000352E+00 0. -1.
       -3    1    3    3    0  502 -0.16341896390E+02 -0.48645682316E+03 -0.16803478024E+04  0.17494216317E+04  0.10100000352E+00 0.  1.
</event>
<event>
 5   0  0.4750125E-08  0.3914145E+04  0.7818609E-02  0.8022094E-01
        1   -1    0    0  501    0  0.00000000000E+00  0.00000000000E+00  0.23923831957E+04  0.23923831957E+04  0.50400001928E-02 0. -1.
       -1   -1    0    0    0  501  0.00000000000E+00  0.00000000000E+00 -0.16009697381E+04  0.16009697381E+04  0.50400001928E-02 0.  1.
    10030    2    1    2    0    0  0.00000000000E+00  0.00000000000E+00  0.79141345759E+03  0.39933529339E+04  0.39141451677E+04 0.  0.
        1    1    3    3  502    0  0.43264818482E+03  0.10502475987E+04  0.20216729641E+04  0.23189148419E+04  0.50400001928E-02 0. -1.
       -1    1    3    3    0  502 -0.43264818482E+03 -0.10502475987E+04 -0.12302595065E+04  0.16744380919E+04  0.50400001928E-02 0.  1.
</event>
<event>
 5   0  0.1538018E-07  0.3793295E+04  0.7818609E-02  0.8047595E-01
        2   -1    0    0  501    0  0.00000000000E+00  0.00000000000E+00  0.16140706864E+04  0.16140706864E+04  0.25500000920E-02 0. -1.
       -2   -1    0    0    0  501  0.00000000000E+00  0.00000000000E+00 -0.22286949370E+04  0.22286949370E+04  0.25500000920E-02 0.  1.
    10030    2    1    2    0    0  0.00000000000E+00  0.00000000000E+00 -0.61462425058E+03  0.38427656234E+04  0.37932946981E+04 0.  0.
        1    1    3    3  502    0 -0.18894015726E+04  0.15428116393E+02 -0.14025286780E+03  0.18946628186E+04  0.50400001928E-02 0. -1.
       -1    1    3    3    0  502  0.18894015726E+04 -0.15428116393E+02 -0.47437138279E+03  0.19481028048E+04  0.50400001928E-02 0.  1.
</event>
<event>
 5   0  0.4750125E-08  0.3899560E+04  0.7818609E-02  0.8025121E-01
        1   -1    0    0  501    0  0.00000000000E+00  0.00000000000E+00  0.26166884664E+04  0.26166884664E+04  0.50400001928E-02 0. -1.
       -1   -1    0    0    0  501  0.00000000000E+00  0.00000000000E+00 -0.14528446611E+04  0.14528446611E+04  0.50400001928E-02 0.  1.
    10030    2    1    2    0    0  0.00000000000E+00  0.00000000000E+00  0.11638438053E+04  0.40695331274E+04  0.38995599075E+04 0.  0.
        3    1    3    3  502    0  0.89228752158E+03  0.29893831302E+03 -0.12001706353E+04  0.15251067832E+04  0.10100000352E+00 0.  1.
       -3    1    3    3    0  502 -0.89228752158E+03 -0.29893831302E+03  0.23640144405E+04  0.25444263443E+04  0.10100000352E+00 0. -1.
</event>
<event>
 5   0  0.4750125E-08  0.3956089E+04  0.7818609E-02  0.8013464E-01
       -1   -1    0    0    0  501  0.00000000000E+00  0.00000000000E+00  0.12491133417E+04  0.12491133417E+04  0.50400001928E-02 0. -1.
        1   -1    0    0  501    0  0.00000000000E+00  0.00000000000E+00 -0.31323497523E+04  0.31323497524E+04  0.50400001928E-02 0.  1.
    10030    2    1    2    0    0  0.00000000000E+00  0.00000000000E+00 -0.18832364107E+04  0.43814630940E+04  0.39560889102E+04 0.  0.
        3    1    3    3  502    0  0.13835080929E+04 -0.26546756133E+03  0.59624254103E+03  0.15297296648E+04  0.10100000352E+00 0. -1.
       -3    1    3    3    0  502 -0.13835080929E+04  0.26546756133E+03 -0.24794789517E+04  0.28517334293E+04  0.10100000352E+00 0.  1.
</event>
<event>
 5   0  0.1503228E-07  0.3871289E+04  0.7818609E-02  0.8031027E-01
        2   -1    0    0  501    0  0.00000000000E+00  0.00000000000E+00  0.16364376167E+04  0.16364376167E+04  0.25500000920E-02 0. -1.
       -2   -1    0    0    0  501  0.00000000000E+00  0.00000000000E+00 -0.22895580466E+04  0.22895580466E+04  0.25500000920E-02 0.  1.
    10030    2    1    2    0    0  0.00000000000E+00  0.00000000000E+00 -0.65312042982E+03  0.39259956633E+04  0.38712886294E+04 0.  0.
        3    1    3    3  502    0  0.17374596391E+04 -0.13139542292E+03  0.52837616936E+03  0.18207724023E+04  0.10100000352E+00 0. -1.
       -3    1    3    3    0  502 -0.17374596391E+04  0.13139542292E+03 -0.11814965992E+04  0.21052232610E+04  0.10100000352E+00 0.  1.
</event>
<event>
 5   0  0.1501585E-07  0.3945918E+04  0.7818609E-02  0.8015546E-01
        2   -1    0    0  501    0  0.00000000000E+00  0.00000000000E+00  0.32183598095E+04  0.32183598095E+04  0.25500000920E-02 0.  1.
       -2   -1    0    0    0  501  0.00000000000E+00  0.00000000000E+00 -0.12094880085E+04  0.12094880085E+04  0.25500000920E-02 0. -1.
    10030    2    1    2    0    0  0.00000000000E+00  0.00000000000E+00  0.20088718010E+04  0.44278478180E+04  0.39459181931E+04 0.  0.
        5    1    3    3  502    0 -0.68200378623E+03 -0.64085196672E+02  0.30806287313E+04  0.31558725492E+04  0.46999998093E+01 0.  1.
       -5    1    3    3    0  502  0.68200378623E+03  0.64085196672E+02 -0.10717569303E+04  0.12719752688E+04  0.46999998093E+01 0. -1.
</event>
<event>
 5   0  0.1546846E-07  0.3894448E+04  0.7818609E-02  0.8026185E-01
       -2   -1    0    0    0  501  0.00000000000E+00  0.00000000000E+00  0.14995050086E+04  0.14995050086E+04  0.25500000920E-02 0.  1.
        2   -1    0    0  501    0  0.00000000000E+00  0.00000000000E+00 -0.25286214410E+04  0.25286214410E+04  0.25500000920E-02 0. -1.
    10030    2    1    2    0    0  0.00000000000E+00  0.00000000000E+00 -0.10291164323E+04  0.40281264496E+04  0.38944475941E+04 0.  0.
        2    1    3    3  502    0 -0.15799336115E+04  0.70658712507E+03  0.40838528884E+03  0.17782671695E+04  0.25500000920E-02 0. -1.
       -2    1    3    3    0  502  0.15799336115E+04 -0.70658712507E+03 -0.14375017212E+04  0.22498592801E+04  0.25500000920E-02 0.  1.
</event>
<event>
 5   0  0.1546846E-07  0.3896486E+04  0.7818609E-02  0.8025760E-01
       -2   -1    0    0    0  501  0.00000000000E+00  0.00000000000E+00  0.23075160941E+04  0.23075160941E+04  0.25500000920E-02 0.  1.
        2   -1    0    0  501    0  0.00000000000E+00  0.00000000000E+00 -0.16449075757E+04  0.16449075757E+04  0.25500000920E-02 0. -1.
    10030    2    1    2    0    0  0.00000000000E+00  0.00000000000E+00  0.66260851837E+03  0.39524236699E+04  0.38964859576E+04 0.  0.
        2    1    3    3  502    0  0.49973537904E+03 -0.16144644037E+04  0.13144553472E+04  0.21410333066E+04  0.25500000920E-02 0.  1.
       -2    1    3    3    0  502 -0.49973537904E+03  0.16144644037E+04 -0.65184682887E+03  0.18113903633E+04  0.25500000920E-02 0. -1.
</event>
<event>
 5   0  0.1503228E-07  0.3900733E+04  0.7818609E-02  0.8024877E-01
        2   -1    0    0  501    0  0.00000000000E+00  0.00000000000E+00  0.18044028940E+04  0.18044028940E+04  0.25500000920E-02 0.  1.
       -2   -1    0    0    0  501  0.00000000000E+00  0.00000000000E+00 -0.21081373084E+04  0.21081373084E+04  0.25500000920E-02 0. -1.
    10030    2    1    2    0    0  0.00000000000E+00  0.00000000000E+00 -0.30373441438E+03  0.39125402024E+04  0.39007327825E+04 0.  0.
        3    1    3    3  502    0 -0.16042935250E+04  0.84333893294E+03  0.57069575647E+03  0.19001768147E+04  0.10100000352E+00 0.  1.
       -3    1    3    3    0  502  0.16042935250E+04 -0.84333893294E+03 -0.87443017084E+03  0.20123633877E+04  0.10100000352E+00 0. -1.
</event>
<event>
 5   0  0.4762788E-08  0.3891210E+04  0.7818609E-02  0.8026860E-01
        1   -1    0    0  501    0  0.00000000000E+00  0.00000000000E+00  0.12991708776E+04  0.12991708776E+04  0.50400001928E-02 0. -1.
       -1   -1    0    0    0  501  0.00000000000E+00  0.00000000000E+00 -0.29136875740E+04  0.29136875740E+04  0.50400001928E-02 0.  1.
    10030    2    1    2    0    0  0.00000000000E+00  0.00000000000E+00 -0.16145166964E+04  0.42128584516E+04  0.38912096024E+04 0.  0.
        2    1    3    3  502    0 -0.10543760391E+03 -0.94759862983E+03  0.10289023029E+04  0.14027473759E+04  0.25500000920E-02 0. -1.
       -2    1    3    3    0  502  0.10543760391E+03  0.94759862983E+03 -0.26434189993E+04  0.28101110757E+04  0.25500000920E-02 0.  1.
</event>
<event>
 5   0  0.1538018E-07  0.3920471E+04  0.7818609E-02  0.8020785E-01
        2   -1    0    0  501    0  0.00000000000E+00  0.00000000000E+00  0.17691900570E+04  0.17691900570E+04  0.25500000920E-02 0. -1.
       -2   -1    0    0    0  501  0.00000000000E+00  0.00000000000E+00 -0.21719113417E+04  0.21719113417E+04  0.25500000920E-02 0.  1.
    10030    2    1    2    0    0  0.00000000000E+00  0.00000000000E+00 -0.40272128478E+03  0.39411013987E+04  0.39204713749E+04 0.  0.
        1    1    3    3  502    0 -0.40112716095E+03  0.15222638368E+04 -0.13755540420E+04  0.20905356037E+04  0.50400001928E-02 0.  1.
       -1    1    3    3    0  502  0.40112716095E+03 -0.15222638368E+04  0.97283275723E+03  0.18505657950E+04  0.50400001928E-02 0. -1.
</event>
<event>
 5   0  0.4750125E-08  0.3945275E+04  0.7818609E-02  0.8015678E-01
        1   -1    0    0  501    0  0.00000000000E+00  0.00000000000E+00  0.12259462400E+04  0.12259462400E+04  0.50400001928E-02 0.  1.
       -1   -1    0    0    0  501  0.00000000000E+00  0.00000000000E+00 -0.31741189883E+04  0.31741189883E+04  0.50400001928E-02 0. -1.
    10030    2    1    2    0    0  0.00000000000E+00  0.00000000000E+00 -0.19481727484E+04  0.44000652283E+04  0.39452752700E+04 0.  0.
        3    1    3    3  502    0  0.16491286911E+04  0.10278935410E+04 -0.13524730179E+04  0.23675670732E+04  0.10100000352E+00 0.  1.
       -3    1    3    3    0  502 -0.16491286911E+04 -0.10278935410E+04 -0.59569973047E+03  0.20324981551E+04  0.10100000352E+00 0. -1.
</event>
<event>
 5   0  0.4750125E-08  0.3913268E+04  0.7818609E-02  0.8022275E-01
       -1   -1    0    0    0  501  0.00000000000E+00  0.00000000000E+00  0.18467715448E+04  0.18467715448E+04  0.50400001928E-02 0. -1.
        1   -1    0    0  501    0  0.00000000000E+00  0.00000000000E+00 -0.20730324967E+04  0.20730324967E+04  0.50400001928E-02 0.  1.
    10030    2    1    2    0    0  0.00000000000E+00  0.00000000000E+00 -0.22626095199E+03  0.39198040415E+04  0.39132684172E+04 0.  0.
        3    1    3    3  502    0  0.15200810302E+04 -0.87365660623E+03  0.75693705614E+03  0.19096795336E+04  0.10100000352E+00 0.  1.
       -3    1    3    3    0  502 -0.15200810302E+04  0.87365660623E+03 -0.98319800813E+03  0.20101245079E+04  0.10100000352E+00 0. -1.
</event>
<event>
 5   0  0.4750125E-08  0.3707548E+04  0.7818609E-02  0.8066291E-01
       -1   -1    0    0    0  501  0.00000000000E+00  0.00000000000E+00  0.13891325362E+04  0.13891325362E+04  0.50400001928E-02 0.  1.
        1   -1    0    0  501    0  0.00000000000E+00  0.00000000000E+00 -0.24738297658E+04  0.24738297658E+04  0.50400001928E-02 0. -1.
    10030    2    1    2    0    0  0.00000000000E+00  0.00000000000E+00 -0.10846972296E+04  0.38629623020E+04  0.37075476621E+04 0.  0.
        4    1    3    3  502    0 -0.30314277598E+03 -0.88334170171E+03 -0.22108136186E+04  0.23999763694E+04  0.12699999809E+01 0. -1.
       -4    1    3    3    0  502  0.30314277598E+03  0.88334170171E+03  0.11261163890E+04  0.14629859326E+04  0.12699999809E+01 0.  1.
</event>
<event>
 5   0  0.1520986E-07  0.3603287E+04  0.7818609E-02  0.8089739E-01
        2   -1    0    0  501    0  0.00000000000E+00  0.00000000000E+00  0.22355050008E+04  0.22355050008E+04  0.25500000920E-02 0. -1.
       -2   -1    0    0    0  501  0.00000000000E+00  0.00000000000E+00 -0.14519850479E+04  0.14519850479E+04  0.25500000920E-02 0.  1.
    10030    2    1    2    0    0  0.00000000000E+00  0.00000000000E+00  0.78351995288E+03  0.36874900487E+04  0.36032872967E+04 0.  0.
        4    1    3    3  502    0 -0.17506505054E+03  0.56458959029E+03 -0.13499242189E+04  0.14736709901E+04  0.12699999809E+01 0.  1.
       -4    1    3    3    0  502  0.17506505054E+03 -0.56458959029E+03  0.21334441718E+04  0.22138190586E+04  0.12699999809E+01 0. -1.
</event>
<event>
 5   0  0.4750125E-08  0.3897408E+04  0.7818609E-02  0.8025568E-01
        1   -1    0    0  501    0  0.00000000000E+00  0.00000000000E+00  0.29148820089E+04  0.29148820089E+04  0.50400001928E-02 0.  1.
       -1   -1    0    0    0  501  0.00000000000E+00  0.00000000000E+00 -0.13027793860E+04  0.13027793860E+04  0.50400001928E-02 0. -1.
    10030    2    1    2    0    0  0.00000000000E+00  0.00000000000E+00  0.16121026229E+04  0.42176613949E+04  0.38974084691E+04 0.  0.
        3    1    3    3  502    0 -0.91948279756E+03  0.41289376734E+03  0.26108831646E+04  0.27986855464E+04  0.10100000352E+00 0.  1.
       -3    1    3    3    0  502  0.91948279756E+03 -0.41289376734E+03 -0.99878054164E+03  0.14189758485E+04  0.10100000352E+00 0. -1.
</event>
<event>
 5   0  0.1501585E-07  0.3910997E+04  0.7818609E-02  0.8022746E-01
        2   -1    0    0  501    0  0.00000000000E+00  0.00000000000E+00  0.14347732250E+04  0.14347732250E+04  0.25500000920E-02 0. -1.
       -2   -1    0    0    0  501  0.00000000000E+00  0.00000000000E+00 -0.26652116468E+04  0.26652116468E+04  0.25500000920E-02 0.  1.
    10030    2    1    2    0    0  0.00000000000E+00  0.00000000000E+00 -0.12304384218E+04  0.40999848719E+04  0.39109969624E+04 0.  0.
        5    1    3    3  502    0  0.14607492042E+04 -0.12108298715E+04 -0.11900168371E+03  0.19010735667E+04  0.46999998093E+01 0.  1.
       -5    1    3    3    0  502 -0.14607492042E+04  0.12108298715E+04 -0.11114367381E+04  0.21989113052E+04  0.46999998093E+01 0. -1.
</event>
<event>
 5   0  0.4750125E-08  0.3912948E+04  0.7818609E-02  0.8022342E-01
        1   -1    0    0  501    0  0.00000000000E+00  0.00000000000E+00  0.21782969070E+04  0.21782969070E+04  0.50400001928E-02 0. -1.
       -1   -1    0    0    0  501  0.00000000000E+00  0.00000000000E+00 -0.17572398589E+04  0.17572398589E+04  0.50400001928E-02 0.  1.
    10030    2    1    2    0    0  0.00000000000E+00  0.00000000000E+00  0.42105704816E+03  0.39355367659E+04  0.39129478144E+04 0.  0.
        3    1    3    3  502    0 -0.13693049149E+04 -0.11035401216E+04  0.10727952641E+04  0.20600209802E+04  0.10100000352E+00 0. -1.
       -3    1    3    3    0  502  0.13693049149E+04  0.11035401216E+04 -0.65173821595E+03  0.18755157857E+04  0.10100000352E+00 0.  1.
</event>
<event>
 5   0  0.1538018E-07  0.3764769E+04  0.7818609E-02  0.8053758E-01
        2   -1    0    0  501    0  0.00000000000E+00  0.00000000000E+00  0.14696385719E+04  0.14696385719E+04  0.25500000920E-02 0.  1.
       -2   -1    0    0    0  501  0.00000000000E+00  0.00000000000E+00 -0.24110498667E+04  0.24110498667E+04  0.25500000920E-02 0. -1.
    10030    2    1    2    0    0  0.00000000000E+00  0.00000000000E+00 -0.94141129476E+03  0.38806884386E+04  0.37647692535E+04 0.  0.
        1    1    3    3  502    0 -0.28119870211E+03  0.11560557020E+04 -0.19743299112E+04  0.23051065257E+04  0.50400001928E-02 0. -1.
       -1    1    3    3    0  502  0.28119870211E+03 -0.11560557020E+04  0.10329186165E+04  0.15755819130E+04  0.50400001928E-02 0.  1.
</event>
<event>
 5   0  0.4750125E-08  0.3887290E+04  0.7818609E-02  0.8027678E-01
        1   -1    0    0  501    0  0.00000000000E+00  0.00000000000E+00  0.28246456123E+04  0.28246456123E+04  0.50400001928E-02 0. -1.
       -1   -1    0    0    0  501  0.00000000000E+00  0.00000000000E+00 -0.13374264138E+04  0.13374264138E+04  0.50400001928E-02 0.  1.
    10030    2    1    2    0    0  0.00000000000E+00  0.00000000000E+00  0.14872191985E+04  0.41620720262E+04  0.38872898794E+04 0.  0.
        3    1    3    3  502    0 -0.18345757593E+04 -0.37474442575E+03  0.13016565612E+04  0.22804410571E+04  0.10100000352E+00 0.  1.
       -3    1    3    3    0  502  0.18345757593E+04  0.37474442575E+03  0.18556263734E+03  0.18816309691E+04  0.10100000352E+00 0. -1.
</event>
<event>
 5   0  0.1501585E-07  0.3869974E+04  0.7818609E-02  0.8031303E-01
       -2   -1    0    0    0  501  0.00000000000E+00  0.00000000000E+00  0.14162091400E+04  0.14162091400E+04  0.25500000920E-02 0. -1.
        2   -1    0    0  501    0  0.00000000000E+00  0.00000000000E+00 -0.26438006637E+04  0.26438006637E+04  0.25500000920E-02 0.  1.
    10030    2    1    2    0    0  0.00000000000E+00  0.00000000000E+00 -0.12275915237E+04  0.40600098037E+04  0.38699739866E+04 0.  0.
        5    1    3    3  502    0  0.80834071328E+02  0.20104319677E+03 -0.26310261980E+04  0.26399381544E+04  0.46999998093E+01 0.  1.
       -5    1    3    3    0  502 -0.80834071328E+02 -0.20104319677E+03  0.14034346744E+04  0.14200716493E+04  0.46999998093E+01 0. -1.
</event>
<event>
 5   0  0.1503228E-07  0.3907466E+04  0.7818609E-02  0.8023478E-01
       -2   -1    0    0    0  501  0.00000000000E+00  0.00000000000E+00  0.13813480376E+04  0.13813480376E+04  0.25500000920E-02 0. -1.
        2   -1    0    0  501    0  0.00000000000E+00  0.00000000000E+00 -0.27632960190E+04  0.27632960190E+04  0.25500000920E-02 0.  1.
    10030    2    1    2    0    0  0.00000000000E+00  0.00000000000E+00 -0.13819479814E+04  0.41446440567E+04  0.39074664596E+04 0.  0.
        3    1    3    3  502    0 -0.17274883536E+04  0.41496581353E+03  0.17117292244E+03  0.17848565259E+04  0.10100000352E+00 0. -1.
       -3    1    3    3    0  502  0.17274883536E+04 -0.41496581353E+03 -0.15531209039E+04  0.23597875308E+04  0.10100000352E+00 0.  1.
</event>
<event>
 5   0  0.1503228E-07  0.3898683E+04  0.7818609E-02  0.8025303E-01
       -2   -1    0    0    0  501  0.00000000000E+00  0.00000000000E+00  0.17329518402E+04  0.17329518402E+04  0.25500000920E-02 0.  1.
        2   -1    0    0  501    0  0.00000000000E+00  0.00000000000E+00 -0.21927514977E+04  0.21927514977E+04  0.25500000920E-02 0. -1.
    10030    2    1    2    0    0  0.00000000000E+00  0.00000000000E+00 -0.45979965746E+03  0.39257033380E+04  0.38986832357E+04 0.  0.
        3    1    3    3  502    0  0.41456279927E+03 -0.80554915714E+03 -0.19678867811E+04  0.21664141230E+04  0.10100000352E+00 0. -1.
       -3    1    3    3    0  502 -0.41456279927E+03  0.80554915714E+03  0.15080871236E+04  0.17592892149E+04  0.10100000352E+00 0.  1.
</event>
<event>
 5   0  0.4750125E-08  0.3896280E+04  0.7818609E-02  0.8025803E-01
       -1   -1    0    0    0  501  0.00000000000E+00  0.00000000000E+00  0.28953783839E+04  0.28953783839E+04  0.50400001928E-02 0. -1.
        1   -1    0    0  501    0  0.00000000000E+00  0.00000000000E+00 -0.13107956243E+04  0.13107956244E+04  0.50400001928E-02 0.  1.
    10030    2    1    2    0    0  0.00000000000E+00  0.00000000000E+00  0.15845827595E+04  0.42061740082E+04  0.38962799265E+04 0.  0.
        1    1    3    3  502    0  0.49264905820E+03 -0.18836277151E+04  0.86465131526E+03  0.21303470048E+04  0.50400001928E-02 0. -1.
       -1    1    3    3    0  502 -0.49264905820E+03  0.18836277151E+04  0.71993144426E+03  0.20758270034E+04  0.50400001928E-02 0.  1.
</event>
<event>
 5   0  0.4750125E-08  0.3971081E+04  0.7818609E-02  0.8010406E-01
       -1   -1    0    0    0  501  0.00000000000E+00  0.00000000000E+00  0.21602055135E+04  0.21602055135E+04  0.50400001928E-02 0.  1.
        1   -1    0    0  501    0  0.00000000000E+00  0.00000000000E+00 -0.18249979854E+04  0.18249979854E+04  0.50400001928E-02 0. -1.
    10030    2    1    2    0    0  0.00000000000E+00  0.00000000000E+00  0.33520752816E+03  0.39852034989E+04  0.39710808152E+04 0.  0.
        4    1    3    3  502    0  0.16876010768E+03 -0.11773322921E+04 -0.14279491995E+04  0.18583949605E+04  0.12699999809E+01 0. -1.
       -4    1    3    3    0  502 -0.16876010768E+03  0.11773322921E+04  0.17631567276E+04  0.21268085384E+04  0.12699999809E+01 0.  1.
</event>
<event>
 5   0  0.4750125E-08  0.3810328E+04  0.7818609E-02  0.8043942E-01
        1   -1    0    0  501    0  0.00000000000E+00  0.00000000000E+00  0.19460711294E+04  0.19460711294E+04  0.50400001928E-02 0. -1.
       -1   -1    0    0    0  501  0.00000000000E+00  0.00000000000E+00 -0.18651166700E+04  0.18651166700E+04  0.50400001928E-02 0.  1.
    10030    2    1    2    0    0  0.00000000000E+00  0.00000000000E+00  0.80954459481E+02  0.38111877994E+04  0.38103279147E+04 0.  0.
        1    1    3    3  502    0 -0.61056529260E+03  0.17993950648E+04  0.17848346827E+03  0.19085253271E+04  0.50400001928E-02 0.  1.
       -1    1    3    3    0  502  0.61056529260E+03 -0.17993950648E+04 -0.97529008786E+02  0.19026624723E+04  0.50400001928E-02 0. -1.
</event>
<event>
 5   0  0.4750125E-08  0.3918566E+04  0.7818609E-02  0.8021179E-01
       -1   -1    0    0    0  501  0.00000000000E+00  0.00000000000E+00  0.16500282882E+04  0.16500282883E+04  0.50400001928E-02 0. -1.
        1   -1    0    0  501    0  0.00000000000E+00  0.00000000000E+00 -0.23264995113E+04  0.23264995113E+04  0.50400001928E-02 0.  1.
    10030    2    1    2    0    0  0.00000000000E+00  0.00000000000E+00 -0.67647122302E+03  0.39765277995E+04  0.39185660674E+04 0.  0.
        5    1    3    3  502    0  0.15234821132E+04 -0.19112938341E+03 -0.15732997879E+04  0.21983681455E+04  0.46999998093E+01 0.  1.
       -5    1    3    3    0  502 -0.15234821132E+04  0.19112938341E+03  0.89682856488E+03  0.17781596540E+04  0.46999998093E+01 0. -1.
</event>
<event>
 5   0  0.4750125E-08  0.3937575E+04  0.7818609E-02  0.8017259E-01
       -1   -1    0    0    0  501  0.00000000000E+00  0.00000000000E+00  0.26443986847E+04  0.26443986847E+04  0.50400001928E-02 0. -1.
        1   -1    0    0  501    0  0.00000000000E+00  0.00000000000E+00 -0.14657866979E+04  0.14657866979E+04  0.50400001928E-02 0.  1.
    10030    2    1    2    0    0  0.00000000000E+00  0.00000000000E+00  0.11786119868E+04  0.41101853827E+04  0.39375750996E+04 0.  0.
        4    1    3    3  502    0 -0.34567897135E+03 -0.18099293121E+04 -0.13447620383E+03  0.18475452710E+04  0.12699999809E+01 0.  1.
       -4    1    3    3    0  502  0.34567897135E+03  0.18099293121E+04  0.13130881906E+04  0.22626401117E+04  0.12699999809E+01 0. -1.
</event>
<event>
 5   0  0.4762788E-08  0.3916994E+04  0.7818609E-02  0.8021504E-01
        1   -1    0    0  501    0  0.00000000000E+00  0.00000000000E+00  0.27061931577E+04  0.27061931577E+04  0.50400001928E-02 0. -1.
       -1   -1    0    0    0  501  0.00000000000E+00  0.00000000000E+00 -0.14173821904E+04  0.14173821904E+04  0.50400001928E-02 0.  1.
    10030    2    1    2    0    0  0.00000000000E+00  0.00000000000E+00  0.12888109673E+04  0.41235753481E+04  0.39169937378E+04 0.  0.
        2    1    3    3  502    0  0.16038743391E+04 -0.95626754859E+03  0.22620702127E+02  0.18674507266E+04  0.25500000920E-02 0.  1.
       -2    1    3    3    0  502 -0.16038743391E+04  0.95626754859E+03  0.12661902652E+04  0.22561246215E+04  0.25500000920E-02 0. -1.
</event>
<event>
 5   0  0.1546846E-07  0.3440510E+04  0.7818609E-02  0.8128035E-01
        2   -1    0    0  501    0  0.00000000000E+00  0.00000000000E+00  0.21276925600E+04  0.21276925600E+04  0.25500000920E-02 0.  1.
       -2   -1    0    0    0  501  0.00000000000E+00  0.00000000000E+00 -0.13908389186E+04  0.13908389186E+04  0.25500000920E-02 0. -1.
    10030    2    1    2    0    0  0.00000000000E+00  0.00000000000E+00  0.73685364137E+03  0.35185314786E+04  0.34405102060E+04 0.  0.
        2    1    3    3  502    0  0.16420034790E+03 -0.17031173399E+04  0.18632366215E+03  0.17211295520E+04  0.25500000920E-02 0. -1.
       -2    1    3    3    0  502 -0.16420034790E+03  0.17031173399E+04  0.55052997922E+03  0.17974019266E+04  0.25500000920E-02 0.  1.
</event>
<event>
 5   0  0.4750125E-08  0.3906565E+04  0.7818609E-02  0.8023665E-01
       -1   -1    0    0    0  501  0.00000000000E+00  0.00000000000E+00  0.20855497688E+04  0.20855497688E+04  0.50400001928E-02 0. -1.
        1   -1    0    0  501    0  0.00000000000E+00  0.00000000000E+00 -0.18294035999E+04  0.18294035999E+04  0.50400001928E-02 0.  1.
    10030    2    1    2    0    0  0.00000000000E+00  0.00000000000E+00  0.25614616889E+03  0.39149533687E+04  0.39065648618E+04 0.  0.
        5    1    3    3  502    0 -0.10717044142E+03  0.52705937774E+03 -0.17537271279E+04  0.18343549331E+04  0.46999998093E+01 0.  1.
       -5    1    3    3    0  502  0.10717044142E+03 -0.52705937774E+03  0.20098732968E+04  0.20805984357E+04  0.46999998093E+01 0. -1.
</event>
<event>
 5   0  0.4750125E-08  0.4154777E+04  0.7818609E-02  0.7974031E-01
        1   -1    0    0  501    0  0.00000000000E+00  0.00000000000E+00  0.21253496928E+04  0.21253496928E+04  0.50400001928E-02 0. -1.
       -1   -1    0    0    0  501  0.00000000000E+00  0.00000000000E+00 -0.20305093453E+04  0.20305093453E+04  0.50400001928E-02 0.  1.
    10030    2    1    2    0    0  0.00000000000E+00  0.00000000000E+00  0.94840347445E+02  0.41558590381E+04  0.41547767272E+04 0.  0.
        3    1    3    3  502    0 -0.31623907590E+03 -0.23604219820E+03 -0.19926746432E+04  0.20313727664E+04  0.10100000352E+00 0.  1.
       -3    1    3    3    0  502  0.31623907590E+03  0.23604219820E+03  0.20875149906E+04  0.21244862717E+04  0.10100000352E+00 0. -1.
</event>
<event>
 5   0  0.1546846E-07  0.3872701E+04  0.7818609E-02  0.8030731E-01
        2   -1    0    0  501    0  0.00000000000E+00  0.00000000000E+00  0.13529321150E+04  0.13529321150E+04  0.25500000920E-02 0. -1.
       -2   -1    0    0    0  501  0.00000000000E+00  0.00000000000E+00 -0.27713536766E+04  0.27713536766E+04  0.25500000920E-02 0.  1.
    10030    2    1    2    0    0  0.00000000000E+00  0.00000000000E+00 -0.14184215617E+04  0.41242857916E+04  0.38727010683E+04 0.  0.
        2    1    3    3  502    0  0.17631836126E+04 -0.79971477712E+03 -0.74442251887E+03  0.20742528928E+04  0.25500000920E-02 0.  1.
       -2    1    3    3    0  502 -0.17631836126E+04  0.79971477712E+03 -0.67399904279E+03  0.20500328988E+04  0.25500000920E-02 0. -1.
</event>
<event>
 5   0  0.4762788E-08  0.3883849E+04  0.7818609E-02  0.8028397E-01
        1   -1    0    0  501    0  0.00000000000E+00  0.00000000000E+00  0.27838385942E+04  0.27838385942E+04  0.50400001928E-02 0.  1.
       -1   -1    0    0    0  501  0.00000000000E+00  0.00000000000E+00 -0.13546296708E+04  0.13546296708E+04  0.50400001928E-02 0. -1.
    10030    2    1    2    0    0  0.00000000000E+00  0.00000000000E+00  0.14292089235E+04  0.41384682650E+04  0.38838487913E+04 0.  0.
        2    1    3    3  502    0 -0.45810728761E+02  0.19126491432E+04  0.10692049762E+04  0.21916944698E+04  0.25500000920E-02 0. -1.
       -2    1    3    3    0  502  0.45810728761E+02 -0.19126491432E+04  0.36000394721E+03  0.19467737952E+04  0.25500000920E-02 0.  1.
</event>
<event>
 5   0  0.4750125E-08  0.3889115E+04  0.7818609E-02  0.8027297E-01
       -1   -1    0    0    0  501  0.00000000000E+00  0.00000000000E+00  0.17902314622E+04  0.17902314622E+04  0.50400001928E-02 0.  1.
        1   -1    0    0  501    0  0.00000000000E+00  0.00000000000E+00 -0.21121870491E+04  0.21121870492E+04  0.50400001928E-02 0. -1.
    10030    2    1    2    0    0  0.00000000000E+00  0.00000000000E+00 -0.32195558699E+03  0.39024185113E+04  0.38891149170E+04 0.  0.
        5    1    3    3  502    0 -0.59685257222E+03  0.17657149804E+04 -0.71721982960E+03  0.19971000874E+04  0.46999998093E+01 0. -1.
       -5    1    3    3    0  502  0.59685257222E+03 -0.17657149804E+04  0.39526424261E+03  0.19053184239E+04  0.46999998093E+01 0.  1.
</event>
<event>
 5   0  0.1538018E-07  0.3907671E+04  0.7818609E-02  0.8023436E-01
       -2   -1    0    0    0  501  0.00000000000E+00  0.00000000000E+00  0.22480380051E+04  0.22480380051E+04  0.25500000920E-02 0. -1.
        2   -1    0    0  501    0  0.00000000000E+00  0.00000000000E+00 -0.16981351812E+04  0.16981351812E+04  0.25500000920E-02 0.  1.
    10030    2    1    2    0    0  0.00000000000E+00  0.00000000000E+00  0.54990282383E+03  0.39461731863E+04  0.39076706234E+04 0.  0.
        1    1    3    3  502    0 -0.63548855906E+03 -0.16378238301E+04 -0.58855257942E+03  0.18527565263E+04  0.50400001928E-02 0.  1.
       -1    1    3    3    0  502  0.63548855906E+03  0.16378238301E+04  0.11384554032E+04  0.20934166600E+04  0.50400001928E-02 0. -1.
</event>
<event>
 5   0  0.1546846E-07  0.3901990E+04  0.7818609E-02  0.8024615E-01
       -2   -1    0    0    0  501  0.00000000000E+00  0.00000000000E+00  0.16603944751E+04  0.16603944751E+04  0.25500000920E-02 0. -1.
        2   -1    0    0  501    0  0.00000000000E+00  0.00000000000E+00 -0.22924558729E+04  0.22924558729E+04  0.25500000920E-02 0.  1.
    10030    2    1    2    0    0  0.00000000000E+00  0.00000000000E+00 -0.63206139781E+03  0.39528503480E+04  0.39019897825E+04 0.  0.
        2    1    3    3  502    0 -0.93088665346E+03  0.16694419786E+04 -0.71201523390E+03  0.20397431640E+04  0.25500000920E-02 0.  1.
       -2    1    3    3    0  502  0.93088665346E+03 -0.16694419786E+04  0.79953836085E+02  0.19131071840E+04  0.25500000920E-02 0. -1.
</event>
<event>
 5   0  0.1520986E-07  0.3912841E+04  0.7818609E-02  0.8022364E-01
        2   -1    0    0  501    0  0.00000000000E+00  0.00000000000E+00  0.15400002645E+04  0.15400002645E+04  0.25500000920E-02 0. -1.
       -2   -1    0    0    0  501  0.00000000000E+00  0.00000000000E+00 -0.24854414082E+04  0.24854414082E+04  0.25500000920E-02 0.  1.
    10030    2    1    2    0    0  0.00000000000E+00  0.00000000000E+00 -0.94544114375E+03  0.40254416727E+04  0.39128406183E+04 0.  0.
        4    1    3    3  502    0  0.14366277252E+03  0.50423718401E+03 -0.24118183641E+04  0.24681498262E+04  0.12699999809E+01 0.  1.
       -4    1    3    3    0  502 -0.14366277252E+03 -0.50423718401E+03  0.14663772204E+04  0.15572918465E+04  0.12699999809E+01 0. -1.
</event>
<event>
 5   0  0.1501585E-07  0.3948103E+04  0.7818609E-02  0.8015098E-01
       -2   -1    0    0    0  501  0.00000000000E+00  0.00000000000E+00  0.18651993901E+04  0.18651993901E+04  0.25500000920E-02 0. -1.
        2   -1    0    0  501    0  0.00000000000E+00  0.00000000000E+00 -0.20892559026E+04  0.20892559026E+04  0.25500000920E-02 0.  1.
    10030    2    1    2    0    0  0.00000000000E+00  0.00000000000E+00 -0.22405651251E+03  0.39544552927E+04  0.39481027521E+04 0.  0.
        5    1    3    3  502    0  0.14957081452E+04  0.54966490596E+03 -0.12790563731E+04  0.20433505964E+04  0.46999998093E+01 0.  1.
       -5    1    3    3    0  502 -0.14957081452E+04 -0.54966490596E+03  0.10549998606E+04  0.19111046963E+04  0.46999998093E+01 0. -1.
</event>
<event>
 5   0  0.1520986E-07  0.3870572E+04  0.7818609E-02  0.8031178E-01
       -2   -1    0    0    0  501  0.00000000000E+00  0.00000000000E+00  0.13373954755E+04  0.13373954755E+04  0.25500000920E-02 0.  1.
        2   -1    0    0  501    0  0.00000000000E+00  0.00000000000E+00 -0.28004663683E+04  0.28004663683E+04  0.25500000920E-02 0. -1.
    10030    2    1    2    0    0  0.00000000000E+00  0.00000000000E+00 -0.14630708928E+04  0.41378618438E+04  0.38705715600E+04 0.  0.
        4    1    3    3  502    0 -0.48385002697E+03 -0.46462828404E+03 -0.26722021014E+04  0.27551145121E+04  0.12699999809E+01 0. -1.
       -4    1    3    3    0  502  0.48385002697E+03  0.46462828404E+03  0.12091312086E+04  0.13827473317E+04  0.12699999809E+01 0.  1.
</event>
<event>
 5   0  0.1538018E-07  0.3857956E+04  0.7818609E-02  0.8033831E-01
       -2   -1    0    0    0  501  0.00000000000E+00  0.00000000000E+00  0.14984232783E+04  0.14984232783E+04  0.25500000920E-02 0. -1.
        2   -1    0    0  501    0  0.00000000000E+00  0.00000000000E+00 -0.24832476931E+04  0.24832476931E+04  0.25500000920E-02 0.  1.
    10030    2    1    2    0    0  0.00000000000E+00  0.00000000000E+00 -0.98482441480E+03  0.39816709715E+04  0.38579560128E+04 0.  0.
        1    1    3    3  502    0  0.73029582648E+03  0.14123501198E+04 -0.16196318078E+04  0.22696413919E+04  0.50400001928E-02 0.  1.
       -1    1    3    3    0  502 -0.73029582648E+03 -0.14123501198E+04  0.63480739298E+03  0.17120295796E+04  0.50400001928E-02 0. -1.
</event>
<event>
 5   0  0.4750125E-08  0.3890741E+04  0.7818609E-02  0.8026958E-01
       -1   -1    0    0    0  501  0.00000000000E+00  0.00000000000E+00  0.18556951704E+04  0.18556951704E+04  0.50400001928E-02 0. -1.
        1   -1    0    0  501    0  0.00000000000E+00  0.00000000000E+00 -0.20393789739E+04  0.20393789739E+04  0.50400001928E-02 0.  1.
    10030    2    1    2    0    0  0.00000000000E+00  0.00000000000E+00 -0.18368380358E+03  0.38950741443E+04  0.38907406557E+04 0.  0.
        4    1    3    3  502    0 -0.93543625889E+03 -0.17054939111E+04 -0.11858540229E+03  0.19487982414E+04  0.12699999809E+01 0. -1.
       -4    1    3    3    0  502  0.93543625889E+03  0.17054939111E+04 -0.65098401290E+02  0.19462759029E+04  0.12699999809E+01 0.  1.
</event>
<event>
 5   0  0.1546846E-07  0.3843919E+04  0.7818609E-02  0.8036795E-01
       -2   -1    0    0    0  501  0.00000000000E+00  0.00000000000E+00  0.25351625247E+04  0.25351625247E+04  0.25500000920E-02 0. -1.
        2   -1    0    0  501    0  0.00000000000E+00  0.00000000000E+00 -0.14570776986E+04  0.14570776986E+04  0.25500000920E-02 0.  1.
    10030    2    1    2    0    0  0.00000000000E+00  0.00000000000E+00  0.10780848261E+04  0.39922402232E+04  0.38439192379E+04 0.  0.
        2    1    3    3  502    0 -0.85043921925E+03 -0.17234126545E+04  0.56296899443E+03  0.20025813672E+04  0.25500000920E-02 0. -1.
       -2    1    3    3    0  502  0.85043921925E+03  0.17234126545E+04  0.51511583168E+03  0.19896588561E+04  0.25500000920E-02 0.  1.
</event>
<event>
 5   0  0.1503228E-07  0.3891247E+04  0.7818609E-02  0.8026852E-01
        2   -1    0    0  501    0  0.00000000000E+00  0.00000000000E+00  0.22039477362E+04  0.22039477363E+04  0.25500000920E-02 0. -1.
       -2   -1    0    0    0  501  0.00000000000E+00  0.00000000000E+00 -0.17175771675E+04  0.17175771675E+04  0.25500000920E-02 0.  1.
    10030    2    1    2    0    0  0.00000000000E+00  0.00000000000E+00  0.48637056878E+03  0.39215249037E+04  0.38912467463E+04 0.  0.
        3    1    3    3  502    0 -0.93852935662E+03  0.72605307036E+03 -0.13107137820E+04  0.17680387560E+04  0.10100000352E+00 0.  1.
       -3    1    3    3    0  502  0.93852935662E+03 -0.72605307036E+03  0.17970843508E+04  0.21534861477E+04  0.10100000352E+00 0. -1.
</event>
<event>
 5   0  0.1501585E-07  0.3912698E+04  0.7818609E-02  0.8022393E-01
       -2   -1    0    0    0  501  0.00000000000E+00  0.00000000000E+00  0.24918636338E+04  0.24918636338E+04  0.25500000920E-02 0. -1.
        2   -1    0    0  501    0  0.00000000000E+00  0.00000000000E+00 -0.15359194485E+04  0.15359194485E+04  0.25500000920E-02 0.  1.
    10030    2    1    2    0    0  0.00000000000E+00  0.00000000000E+00  0.95594418524E+03  0.40277830823E+04  0.39126982088E+04 0.  0.
        5    1    3    3  502    0  0.64882301949E+03 -0.17817274768E+04  0.97354191846E+03  0.21315088715E+04  0.46999998093E+01 0.  1.
       -5    1    3    3    0  502 -0.64882301949E+03  0.17817274768E+04 -0.17597733220E+02  0.18962742108E+04  0.46999998093E+01 0. -1.
</event>
<event>
 5   0  0.1538018E-07  0.3909986E+04  0.7818609E-02  0.8022956E-01
        2   -1    0    0  501    0  0.00000000000E+00  0.00000000000E+00  0.24692305221E+04  0.24692305221E+04  0.25500000920E-02 0.  1.
       -2   -1    0    0    0  501  0.00000000000E+00  0.00000000000E+00 -0.15478496732E+04  0.15478496732E+04  0.25500000920E-02 0. -1.
    10030    2    1    2    0    0  0.00000000000E+00  0.00000000000E+00  0.92138084893E+03  0.40170801953E+04  0.39099860136E+04 0.  0.
        1    1    3    3  502    0  0.51583925128E+03 -0.15208344138E+04 -0.68473193843E+03  0.17458193707E+04  0.50400001928E-02 0. -1.
       -1    1    3    3    0  502 -0.51583925128E+03  0.15208344138E+04  0.16061127874E+04  0.22712608246E+04  0.50400001928E-02 0.  1.
</event>
<event>
 5   0  0.4750125E-08  0.3927475E+04  0.7818609E-02  0.8019339E-01
        1   -1    0    0  501    0  0.00000000000E+00  0.00000000000E+00  0.16991423708E+04  0.16991423709E+04  0.50400001928E-02 0. -1.
       -1   -1    0    0    0  501  0.00000000000E+00  0.00000000000E+00 -0.22695365588E+04  0.22695365588E+04  0.50400001928E-02 0.  1.
    10030    2    1    2    0    0  0.00000000000E+00  0.00000000000E+00 -0.57039418793E+03  0.39686789296E+04  0.39274753872E+04 0.  0.
        1    1    3    3  502    0 -0.16321825399E+04  0.99997533785E+03 -0.72831237368E+03  0.20480257404E+04  0.50400001928E-02 0. -1.
       -1    1    3    3    0  502  0.16321825399E+04 -0.99997533785E+03  0.15791818575E+03  0.19206531892E+04  0.50400001928E-02 0.  1.
</event>
<event>
 5   0  0.1546846E-07  0.3948724E+04  0.7818609E-02  0.8014971E-01
       -2   -1    0    0    0  501  0.00000000000E+00  0.00000000000E+00  0.17155920579E+04  0.17155920579E+04  0.25500000920E-02 0.  1.
        2   -1    0    0  501    0  0.00000000000E+00  0.00000000000E+00 -0.22721634795E+04  0.22721634795E+04  0.25500000920E-02 0. -1.
    10030    2    1    2    0    0  0.00000000000E+00  0.00000000000E+00 -0.55657142159E+03  0.39877555373E+04  0.39487241583E+04 0.  0.
        2    1    3    3  502    0 -0.12248192274E+04 -0.14504747042E+04 -0.82590636550E+03  0.20703092358E+04  0.25500000920E-02 0.  1.
       -2    1    3    3    0  502  0.12248192274E+04  0.14504747042E+04  0.26933494390E+03  0.19174463015E+04  0.25500000920E-02 0. -1.
</event>
<event>
 5   0  0.4750125E-08  0.3908479E+04  0.7818609E-02  0.8023268E-01
       -1   -1    0    0    0  501  0.00000000000E+00  0.00000000000E+00  0.12725420648E+04  0.12725420648E+04  0.50400001928E-02 0.  1.
        1   -1    0    0  501    0  0.00000000000E+00  0.00000000000E+00 -0.30011210517E+04  0.30011210517E+04  0.50400001928E-02 0. -1.
    10030    2    1    2    0    0  0.00000000000E+00  0.00000000000E+00 -0.17285789869E+04  0.42736631165E+04  0.39084793871E+04 0.  0.
        5    1    3    3  502    0 -0.14180704849E+04  0.22038019917E+03  0.58612440148E+03  0.15501790981E+04  0.46999998093E+01 0. -1.
       -5    1    3    3    0  502  0.14180704849E+04 -0.22038019917E+03 -0.23147033884E+04  0.27234840184E+04  0.46999998093E+01 0.  1.
</event>
<event>
 5   0  0.1501585E-07  0.3890791E+04  0.7818609E-02  0.8026947E-01
        2   -1    0    0  501    0  0.00000000000E+00  0.00000000000E+00  0.24964945758E+04  0.24964945758E+04  0.25500000920E-02 0. -1.
       -2   -1    0    0    0  501  0.00000000000E+00  0.00000000000E+00 -0.15159512932E+04  0.15159512932E+04  0.25500000920E-02 0.  1.
    10030    2    1    2    0    0  0.00000000000E+00  0.00000000000E+00  0.98054328261E+03  0.40124458690E+04  0.38907912720E+04 0.  0.
        5    1    3    3  502    0 -0.13098580159E+04 -0.10774647916E+04  0.14728933644E+04  0.22463515646E+04  0.46999998093E+01 0. -1.
       -5    1    3    3    0  502  0.13098580159E+04  0.10774647916E+04 -0.49235008183E+03  0.17660943044E+04  0.46999998093E+01 0.  1.
</event>
<event>
 5   0  0.4750125E-08  0.3902807E+04  0.7818609E-02  0.8024446E-01
       -1   -1    0    0    0  501  0.00000000000E+00  0.00000000000E+00  0.21576217594E+04  0.21576217594E+04  0.50400001928E-02 0.  1.
        1   -1    0    0  501    0  0.00000000000E+00  0.00000000000E+00 -0.17648951839E+04  0.17648951839E+04  0.50400001928E-02 0. -1.
    10030    2    1    2    0    0  0.00000000000E+00  0.00000000000E+00  0.39272657550E+03  0.39225169432E+04  0.39028073238E+04 0.  0.
        4    1    3    3  502    0 -0.12501011121E+03 -0.16618987650E+04 -0.82386882274E+03  0.18591117457E+04  0.12699999809E+01 0.  1.
       -4    1    3    3    0  502  0.12501011121E+03  0.16618987650E+04  0.12165953982E+04  0.20634051975E+04  0.12699999809E+01 0. -1.
</event>
<event>
 5   0  0.1520986E-07  0.3914983E+04  0.7818609E-02  0.8021920E-01
        2   -1    0    0  501    0  0.00000000000E+00  0.00000000000E+00  0.18364126004E+04  0.18364126004E+04  0.25500000920E-02 0.  1.
       -2   -1    0    0    0  501  0.00000000000E+00  0.00000000000E+00 -0.20865538251E+04  0.20865538251E+04  0.25500000920E-02 0. -1.
    10030    2    1    2    0    0  0.00000000000E+00  0.00000000000E+00 -0.25014122469E+03  0.39229664255E+04  0.39149833900E+04 0.  0.
        4    1    3    3  502    0  0.65007918792E+03 -0.18397367437E+04  0.31894538772E+02  0.19514745992E+04  0.12699999809E+01 0.  1.
       -4    1    3    3    0  502 -0.65007918792E+03  0.18397367437E+04 -0.28203576347E+03  0.19714918264E+04  0.12699999809E+01 0. -1.
</event>
<event>
 5   0  0.4750125E-08  0.3925079E+04  0.7818609E-02  0.8019833E-01
       -1   -1    0    0    0  501  0.00000000000E+00  0.00000000000E+00  0.13545149848E+04  0.13545149848E+04  0.50400001928E-02 0. -1.
        1   -1    0    0  501    0  0.00000000000E+00  0.00000000000E+00 -0.28434987587E+04  0.28434987587E+04  0.50400001928E-02 0.  1.
    10030    2    1    2    0    0  0.00000000000E+00  0.00000000000E+00 -0.14889837739E+04  0.41980137435E+04  0.39250791981E+04 0.  0.
        1    1    3    3  502    0 -0.18974080184E+04  0.49307994341E+03 -0.64718961944E+03  0.20644949558E+04  0.50400001928E-02 0. -1.
       -1    1    3    3    0  502  0.18974080184E+04 -0.49307994341E+03 -0.84179415444E+03  0.21335187877E+04  0.50400001928E-02 0.  1.
</event>
<event>
 5   0  0.1538018E-07  0.3890825E+04  0.7818609E-02  0.8026940E-01
       -2   -1    0    0    0  501  0.00000000000E+00  0.00000000000E+00  0.25830355411E+04  0.25830355411E+04  0.25500000920E-02 0.  1.
        2   -1    0    0  501    0  0.00000000000E+00  0.00000000000E+00 -0.14651871266E+04  0.14651871266E+04  0.25500000920E-02 0. -1.
    10030    2    1    2    0    0  0.00000000000E+00  0.00000000000E+00  0.11178484145E+04  0.40482226678E+04  0.38908253225E+04 0.  0.
        1    1    3    3  502    0  0.17116666593E+03 -0.23886867199E+03 -0.14419611672E+04  0.14716005836E+04  0.50400001928E-02 0. -1.
       -1    1    3    3    0  502 -0.17116666593E+03  0.23886867199E+03  0.25598095817E+04  0.25766220841E+04  0.50400001928E-02 0.  1.
</event>
<event>
 5   0  0.4750125E-08  0.3898429E+04  0.7818609E-02  0.8025356E-01
        1   -1    0    0  501    0  0.00000000000E+00  0.00000000000E+00  0.18823332129E+04  0.18823332129E+04  0.50400001928E-02 0. -1.
       -1   -1    0    0    0  501  0.00000000000E+00  0.00000000000E+00 -0.20184726065E+04  0.20184726065E+04  0.50400001928E-02 0.  1.
    10030    2    1    2    0    0  0.00000000000E+00  0.00000000000E+00 -0.13613939361E+03  0.39008058194E+04  0.38984294410E+04 0.  0.
        4    1    3    3  502    0 -0.28581381110E+02  0.18499497370E+04  0.54574167495E+03  0.19289806929E+04  0.12699999809E+01 0. -1.
       -4    1    3    3    0  502  0.28581381110E+02 -0.18499497370E+04 -0.68188106855E+03  0.19718251265E+04  0.12699999809E+01 0.  1.
</event>
<event>
 5   0  0.1503228E-07  0.3800603E+04  0.7818609E-02  0.8046025E-01
       -2   -1    0    0    0  501  0.00000000000E+00  0.00000000000E+00  0.11219603239E+04  0.11219603239E+04  0.25500000920E-02 0. -1.
        2   -1    0    0  501    0  0.00000000000E+00  0.00000000000E+00 -0.32186043804E+04  0.32186043804E+04  0.25500000920E-02 0.  1.
    10030    2    1    2    0    0  0.00000000000E+00  0.00000000000E+00 -0.20966440565E+04  0.43405647044E+04  0.38006033275E+04 0.  0.
        3    1    3    3  502    0 -0.41234491136E+03 -0.37715715015E+03  0.10260007100E+04  0.11683121624E+04  0.10100000352E+00 0. -1.
       -3    1    3    3    0  502  0.41234491136E+03  0.37715715015E+03 -0.31226447665E+04  0.31722525419E+04  0.10100000352E+00 0.  1.
</event>
<event>
 5   0  0.4750125E-08  0.3760447E+04  0.7818609E-02  0.8054697E-01
        1   -1    0    0  501    0  0.00000000000E+00  0.00000000000E+00  0.10207457695E+04  0.10207457696E+04  0.50400001928E-02 0. -1.
       -1   -1    0    0    0  501  0.00000000000E+00  0.00000000000E+00 -0.34633894730E+04  0.34633894730E+04  0.50400001928E-02 0.  1.
    10030    2    1    2    0    0  0.00000000000E+00  0.00000000000E+00 -0.24426437034E+04  0.44841352425E+04  0.37604468633E+04 0.  0.
        3    1    3    3  502    0  0.14692733950E+04  0.66398395346E+03 -0.23747342571E+04  0.28703661442E+04  0.10100000352E+00 0.  1.
       -3    1    3    3    0  502 -0.14692733950E+04 -0.66398395346E+03 -0.67909446319E+02  0.16137690983E+04  0.10100000352E+00 0. -1.
</event>
<event>
 5   0  0.1538018E-07  0.3912688E+04  0.7818609E-02  0.8022396E-01
       -2   -1    0    0    0  501  0.00000000000E+00  0.00000000000E+00  0.28644868687E+04  0.28644868687E+04  0.25500000920E-02 0. -1.
        2   -1    0    0  501    0  0.00000000000E+00  0.00000000000E+00 -0.13361142493E+04  0.13361142493E+04  0.25500000920E-02 0.  1.
    10030    2    1    2    0    0  0.00000000000E+00  0.00000000000E+00  0.15283726194E+04  0.42006011179E+04  0.39126879365E+04 0.  0.
        1    1    3    3  502    0  0.56916389923E+03  0.12184750081E+04 -0.76115506289E+03  0.15453109459E+04  0.50400001928E-02 0.  1.
       -1    1    3    3    0  502 -0.56916389923E+03 -0.12184750081E+04  0.22895276823E+04  0.26552901720E+04  0.50400001928E-02 0. -1.
</event>
<event>
 5   0  0.4750125E-08  0.3879344E+04  0.7818609E-02  0.8029339E-01
        1   -1    0    0  501    0  0.00000000000E+00  0.00000000000E+00  0.22976199045E+04  0.22976199046E+04  0.50400001928E-02 0. -1.
       -1   -1    0    0    0  501  0.00000000000E+00  0.00000000000E+00 -0.16374892547E+04  0.16374892547E+04  0.50400001928E-02 0.  1.
    10030    2    1    2    0    0  0.00000000000E+00  0.00000000000E+00  0.66013064988E+03  0.39351091592E+04  0.38793442255E+04 0.  0.
        4    1    3    3  502    0 -0.22918659378E+03  0.11791683094E+04 -0.12147718990E+04  0.17084018193E+04  0.12699999809E+01 0.  1.
       -4    1    3    3    0  502  0.22918659378E+03 -0.11791683094E+04  0.18749025489E+04  0.22267073399E+04  0.12699999809E+01 0. -1.
</event>
<event>
 5   0  0.1503228E-07  0.3640145E+04  0.7818609E-02  0.8081357E-01
        2   -1    0    0  501    0  0.00000000000E+00  0.00000000000E+00  0.25557364263E+04  0.25557364263E+04  0.25500000920E-02 0. -1.
       -2   -1    0    0    0  501  0.00000000000E+00  0.00000000000E+00 -0.12961678786E+04  0.12961678786E+04  0.25500000920E-02 0.  1.
    10030    2    1    2    0    0  0.00000000000E+00  0.00000000000E+00  0.12595685476E+04  0.38519043049E+04  0.36401447565E+04 0.  0.
        3    1    3    3  502    0  0.15249736587E+04 -0.91491899119E+03  0.21989806807E+03  0.17919198059E+04  0.10100000352E+00 0.  1.
       -3    1    3    3    0  502 -0.15249736587E+04  0.91491899119E+03  0.10396704796E+04  0.20599844991E+04  0.10100000352E+00 0. -1.
</event>
<event>
 5   0  0.4750125E-08  0.3897986E+04  0.7818609E-02  0.8025448E-01
        1   -1    0    0  501    0  0.00000000000E+00  0.00000000000E+00  0.19670467614E+04  0.19670467614E+04  0.50400001928E-02 0.  1.
       -1   -1    0    0    0  501  0.00000000000E+00  0.00000000000E+00 -0.19311050117E+04  0.19311050117E+04  0.50400001928E-02 0. -1.
    10030    2    1    2    0    0  0.00000000000E+00  0.00000000000E+00  0.35941749740E+02  0.38981517732E+04  0.38979860745E+04 0.  0.
        4    1    3    3  502    0  0.16902937958E+04 -0.85860907527E+03  0.46995201718E+03  0.19532432444E+04  0.12699999809E+01 0. -1.
       -4    1    3    3    0  502 -0.16902937958E+04  0.85860907527E+03 -0.43401026745E+03  0.19449085288E+04  0.12699999809E+01 0.  1.
</event>
<event>
 5   0  0.4750125E-08  0.3899025E+04  0.7818609E-02  0.8025232E-01
       -1   -1    0    0    0  501  0.00000000000E+00  0.00000000000E+00  0.26244548758E+04  0.26244548758E+04  0.50400001928E-02 0.  1.
        1   -1    0    0  501    0  0.00000000000E+00  0.00000000000E+00 -0.14481482969E+04  0.14481482969E+04  0.50400001928E-02 0. -1.
    10030    2    1    2    0    0  0.00000000000E+00  0.00000000000E+00  0.11763065789E+04  0.40726031728E+04  0.38990254469E+04 0.  0.
        4    1    3    3  502    0  0.16905430441E+04 -0.56685382080E+03 -0.23518896702E+03  0.17984922856E+04  0.12699999809E+01 0. -1.
       -4    1    3    3    0  502 -0.16905430441E+04  0.56685382080E+03  0.14114955459E+04  0.22741108872E+04  0.12699999809E+01 0.  1.
</event>
<event>
 5   0  0.4750125E-08  0.3900591E+04  0.7818609E-02  0.8024906E-01
       -1   -1    0    0    0  501  0.00000000000E+00  0.00000000000E+00  0.17691331486E+04  0.17691331486E+04  0.50400001928E-02 0. -1.
        1   -1    0    0  501    0  0.00000000000E+00  0.00000000000E+00 -0.21500087591E+04  0.21500087591E+04  0.50400001928E-02 0.  1.
    10030    2    1    2    0    0  0.00000000000E+00  0.00000000000E+00 -0.38087561050E+03  0.39191419076E+04  0.39005906042E+04 0.  0.
        5    1    3    3  502    0 -0.37769483149E+03 -0.13610997104E+03  0.17271596294E+04  0.17732122787E+04  0.46999998093E+01 0. -1.
       -5    1    3    3    0  502  0.37769483149E+03  0.13610997104E+03 -0.21080352399E+04  0.21459296290E+04  0.46999998093E+01 0.  1.
</event>
<event>
 5   0  0.1546846E-07  0.3903515E+04  0.7818609E-02  0.8024299E-01
        2   -1    0    0  501    0  0.00000000000E+00  0.00000000000E+00  0.33138845307E+04  0.33138845307E+04  0.25500000920E-02 0. -1.
       -2   -1    0    0    0  501  0.00000000000E+00  0.00000000000E+00 -0.11495140822E+04  0.11495140822E+04  0.25500000920E-02 0.  1.
    10030    2    1    2    0    0  0.00000000000E+00  0.00000000000E+00  0.21643704485E+04  0.44633986129E+04  0.39035147930E+04 0.  0.
        2    1    3    3  502    0 -0.98766407591E+03 -0.63339605871E+03  0.28656021174E+04  0.30965055126E+04  0.25500000920E-02 0. -1.
       -2    1    3    3    0  502  0.98766407591E+03  0.63339605871E+03 -0.70123166898E+03  0.13668931003E+04  0.25500000920E-02 0.  1.
</event>
<event>
 5   0  0.1520986E-07  0.3985435E+04  0.7818609E-02  0.8007491E-01
       -2   -1    0    0    0  501  0.00000000000E+00  0.00000000000E+00  0.13742741547E+04  0.13742741547E+04  0.25500000920E-02 0. -1.
        2   -1    0    0  501    0  0.00000000000E+00  0.00000000000E+00 -0.28894689105E+04  0.28894689105E+04  0.25500000920E-02 0.  1.
    10030    2    1    2    0    0  0.00000000000E+00  0.00000000000E+00 -0.15151947558E+04  0.42637430653E+04  0.39854347039E+04 0.  0.
        4    1    3    3  502    0  0.90845559881E+03  0.11963548457E+04  0.64317280969E+03  0.16340836477E+04  0.12699999809E+01 0.  1.
       -4    1    3    3    0  502 -0.90845559881E+03 -0.11963548457E+04 -0.21583675655E+04  0.26296594176E+04  0.12699999809E+01 0. -1.
</event>
<event>
 5   0  0.1501585E-07  0.3903366E+04  0.7818609E-02  0.8024329E-01
       -2   -1    0    0    0  501  0.00000000000E+00  0.00000000000E+00  0.20370292008E+04  0.20370292008E+04  0.25500000920E-02 0. -1.
        2   -1    0    0  501    0  0.00000000000E+00  0.00000000000E+00 -0.18699128258E+04  0.18699128258E+04  0.25500000920E-02 0.  1.
    10030    2    1    2    0    0  0.00000000000E+00  0.00000000000E+00  0.16711637494E+03  0.39069420266E+04  0.39033662544E+04 0.  0.
        5    1    3    3  502    0 -0.14410255341E+04  0.11973404063E+02  0.14009504436E+04  0.20098214318E+04  0.46999998093E+01 0. -1.
       -5    1    3    3    0  502  0.14410255341E+04 -0.11973404063E+02 -0.12338340686E+04  0.18971205948E+04  0.46999998093E+01 0.  1.
</event>
<event>
 5   0  0.1501585E-07  0.3898660E+04  0.7818609E-02  0.8025308E-01
       -2   -1    0    0    0  501  0.00000000000E+00  0.00000000000E+00  0.16927007111E+04  0.16927007111E+04  0.25500000920E-02 0.  1.
        2   -1    0    0  501    0  0.00000000000E+00  0.00000000000E+00 -0.22448665070E+04  0.22448665070E+04  0.25500000920E-02 0. -1.
    10030    2    1    2    0    0  0.00000000000E+00  0.00000000000E+00 -0.55216579591E+03  0.39375672180E+04  0.38986598377E+04 0.  0.
        5    1    3    3  502    0  0.14817201634E+04 -0.11322504962E+04  0.29736788808E+03  0.18883684968E+04  0.46999998093E+01 0.  1.
       -5    1    3    3    0  502 -0.14817201634E+04  0.11322504962E+04 -0.84953368399E+03  0.20491987212E+04  0.46999998093E+01 0. -1.
</event>
<event>
 5   0  0.4750125E-08  0.3611743E+04  0.7818609E-02  0.8087807E-01
       -1   -1    0    0    0  501  0.00000000000E+00  0.00000000000E+00  0.13740048585E+04  0.13740048585E+04  0.50400001928E-02 0. -1.
        1   -1    0    0  501    0  0.00000000000E+00  0.00000000000E+00 -0.23734789684E+04  0.23734789684E+04  0.50400001928E-02 0.  1.
    10030    2    1    2    0    0  0.00000000000E+00  0.00000000000E+00 -0.99947410994E+03  0.37474838270E+04  0.36117428669E+04 0.  0.
        4    1    3    3  502    0  0.84916402480E+03 -0.65505347345E+02  0.11525306032E+04  0.14330732346E+04  0.12699999809E+01 0. -1.
       -4    1    3    3    0  502 -0.84916402480E+03  0.65505347345E+02 -0.21520047132E+04  0.23144105923E+04  0.12699999809E+01 0.  1.
</event>
<event>
 5   0  0.4750125E-08  0.3873581E+04  0.7818609E-02  0.8030546E-01
        1   -1    0    0  501    0  0.00000000000E+00  0.00000000000E+00  0.23581052395E+04  0.23581052395E+04  0.50400001928E-02 0.  1.
       -1   -1    0    0    0  501  0.00000000000E+00  0.00000000000E+00 -0.15907503701E+04  0.15907503701E+04  0.50400001928E-02 0. -1.
    10030    2    1    2    0    0  0.00000000000E+00  0.00000000000E+00  0.76735486933E+03  0.39488556096E+04  0.38735806600E+04 0.  0.
        1    1    3    3  502    0 -0.19151147052E+04 -0.12029708902E+02  0.67798779464E+03  0.20316191813E+04  0.50400001928E-02 0.  1.
       -1    1    3    3    0  502  0.19151147052E+04  0.12029708902E+02  0.89367074690E+02  0.19172364283E+04  0.50400001928E-02 0. -1.
</event>
<event>
 5   0  0.1503228E-07  0.3879519E+04  0.7818609E-02  0.8029302E-01
        2   -1    0    0  501    0  0.00000000000E+00  0.00000000000E+00  0.23494674016E+04  0.23494674016E+04  0.25500000920E-02 0.  1.
       -2   -1    0    0    0  501  0.00000000000E+00  0.00000000000E+00 -0.16014979005E+04  0.16014979005E+04  0.25500000920E-02 0. -1.
    10030    2    1    2    0    0  0.00000000000E+00  0.00000000000E+00  0.74796950107E+03  0.39509653020E+04  0.38795190995E+04 0.  0.
        3    1    3    3  502    0 -0.19280567377E+04 -0.15041626961E+02  0.59011481809E+03  0.20163989048E+04  0.10100000352E+00 0.  1.
       -3    1    3    3    0  502  0.19280567377E+04  0.15041626961E+02  0.15785468298E+03  0.19345663973E+04  0.10100000352E+00 0. -1.
</event>
<event>
 5   0  0.1538018E-07  0.3905977E+04  0.7818609E-02  0.8023787E-01
       -2   -1    0    0    0  501  0.00000000000E+00  0.00000000000E+00  0.16314789748E+04  0.16314789748E+04  0.25500000920E-02 0. -1.
        2   -1    0    0  501    0  0.00000000000E+00  0.00000000000E+00 -0.23378568333E+04  0.23378568333E+04  0.25500000920E-02 0.  1.
    10030    2    1    2    0    0  0.00000000000E+00  0.00000000000E+00 -0.70637785842E+03  0.39693358081E+04  0.39059770965E+04 0.  0.
        1    1    3    3  502    0 -0.11435253346E+04  0.95392741316E+02  0.12527663487E+04  0.16988741832E+04  0.50400001928E-02 0. -1.
       -1    1    3    3    0  502  0.11435253346E+04 -0.95392741316E+02 -0.19591442071E+04  0.22704616249E+04  0.50400001928E-02 0.  1.
</event>
<event>
 5   0  0.1501585E-07  0.3887484E+04  0.7818609E-02  0.8027637E-01
       -2   -1    0    0    0  501  0.00000000000E+00  0.00000000000E+00  0.16492271638E+04  0.16492271638E+04  0.25500000920E-02 0.  1.
        2   -1    0    0  501    0  0.00000000000E+00  0.00000000000E+00 -0.22908507477E+04  0.22908507477E+04  0.25500000920E-02 0. -1.
    10030    2    1    2    0    0  0.00000000000E+00  0.00000000000E+00 -0.64162358390E+03  0.39400779114E+04  0.38874841639E+04 0.  0.
        5    1    3    3  502    0 -0.14651609813E+04 -0.15294754290E+03 -0.16060455009E+04  0.21793333598E+04  0.46999998093E+01 0. -1.
       -5    1    3    3    0  502  0.14651609813E+04  0.15294754290E+03  0.96442191700E+03  0.17607445516E+04  0.46999998093E+01 0.  1.
</event>
<event>
 5   0  0.4750125E-08  0.3907135E+04  0.7818609E-02  0.8023547E-01
        1   -1    0    0  501    0  0.00000000000E+00  0.00000000000E+00  0.10826049401E+04  0.10826049401E+04  0.50400001928E-02 0. -1.
       -1   -1    0    0    0  501  0.00000000000E+00  0.00000000000E+00 -0.35252249358E+04  0.35252249358E+04  0.50400001928E-02 0.  1.
    10030    2    1    2    0    0  0.00000000000E+00  0.00000000000E+00 -0.24426199956E+04  0.46078298759E+04  0.39071349762E+04 0.  0.
        5    1    3    3  502    0  0.49606903090E+03 -0.16166474557E+04 -0.23748744864E+04  0.29154218212E+04  0.46999998093E+01 0.  1.
       -5    1    3    3    0  502 -0.49606903090E+03  0.16166474557E+04 -0.67745509235E+02  0.16924080547E+04  0.46999998093E+01 0. -1.
</event>
<event>
 5   0  0.1546846E-07  0.3894648E+04  0.7818609E-02  0.8026143E-01
       -2   -1    0    0    0  501  0.00000000000E+00  0.00000000000E+00  0.19625159000E+04  0.19625159000E+04  0.25500000920E-02 0.  1.
        2   -1    0    0  501    0  0.00000000000E+00  0.00000000000E+00 -0.19322492937E+04  0.19322492937E+04  0.25500000920E-02 0. -1.
    10030    2    1    2    0    0  0.00000000000E+00  0.00000000000E+00  0.30266606327E+02  0.38947651937E+04  0.38946475896E+04 0.  0.
        2    1    3    3  502    0 -0.11717853025E+04  0.27818680467E+03  0.15454086660E+04  0.19592745184E+04  0.25500000920E-02 0.  1.
       -2    1    3    3    0  502  0.11717853025E+04 -0.27818680467E+03 -0.15151420596E+04  0.19354906754E+04  0.25500000920E-02 0. -1.
</event>
<event>
 5   0  0.4750125E-08  0.3960603E+04  0.7818609E-02  0.8012542E-01
        1   -1    0    0  501    0  0.00000000000E+00  0.00000000000E+00  0.18911349103E+04  0.18911349103E+04  0.50400001928E-02 0.  1.
       -1   -1    0    0    0  501  0.00000000000E+00  0.00000000000E+00 -0.20736726414E+04  0.20736726414E+04  0.50400001928E-02 0. -1.
    10030    2    1    2    0    0  0.00000000000E+00  0.00000000000E+00 -0.18253773113E+03  0.39648075518E+04  0.39606033504E+04 0.  0.
        1    1    3    3  502    0  0.12246239779E+04  0.15258961951E+04  0.21488520242E+03  0.19683085977E+04  0.50400001928E-02 0.  1.
       -1    1    3    3    0  502 -0.12246239779E+04 -0.15258961951E+04 -0.39742293355E+03  0.19964989541E+04  0.50400001928E-02 0. -1.
</event>
<event>
 5   0  0.1503228E-07  0.3888936E+04  0.7818609E-02  0.8027334E-01
       -2   -1    0    0    0  501  0.00000000000E+00  0.00000000000E+00  0.21392145392E+04  0.21392145392E+04  0.25500000920E-02 0.  1.
        2   -1    0    0  501    0  0.00000000000E+00  0.00000000000E+00 -0.17674502596E+04  0.17674502596E+04  0.25500000920E-02 0. -1.
    10030    2    1    2    0    0  0.00000000000E+00  0.00000000000E+00  0.37176427960E+03  0.39066647989E+04  0.38889357376E+04 0.  0.
        3    1    3    3  502    0 -0.97823893330E+03 -0.65599031436E+03  0.17400877801E+04  0.21012330180E+04  0.10100000352E+00 0.  1.
       -3    1    3    3    0  502  0.97823893330E+03  0.65599031436E+03 -0.13683235005E+04  0.18054317809E+04  0.10100000352E+00 0. -1.
</event>
<event>
 5   0  0.1546846E-07  0.3881998E+04  0.7818609E-02  0.8028784E-01
        2   -1    0    0  501    0  0.00000000000E+00  0.00000000000E+00  0.23111076596E+04  0.23111076596E+04  0.25500000920E-02 0.  1.
       -2   -1    0    0    0  501  0.00000000000E+00  0.00000000000E+00 -0.16301610712E+04  0.16301610712E+04  0.25500000920E-02 0. -1.
    10030    2    1    2    0    0  0.00000000000E+00  0.00000000000E+00  0.68094658832E+03  0.39412687308E+04  0.38819983194E+04 0.  0.
        2    1    3    3  502    0  0.15662764851E+04  0.60836549741E+03  0.13269811403E+04  0.21410767275E+04  0.25500000920E-02 0.  1.
       -2    1    3    3    0  502 -0.15662764851E+04 -0.60836549741E+03 -0.64603455199E+03  0.18001920033E+04  0.25500000920E-02 0. -1.
</event>
<event>
 5   0  0.4750125E-08  0.3658111E+04  0.7818609E-02  0.8077309E-01
        1   -1    0    0  501    0  0.00000000000E+00  0.00000000000E+00  0.20984253061E+04  0.20984253061E+04  0.50400001928E-02 0.  1.
       -1   -1    0    0    0  501  0.00000000000E+00  0.00000000000E+00 -0.15942638598E+04  0.15942638598E+04  0.50400001928E-02 0. -1.
    10030    2    1    2    0    0  0.00000000000E+00  0.00000000000E+00  0.50416144628E+03  0.36926891659E+04  0.36581107845E+04 0.  0.
        3    1    3    3  502    0 -0.13337190086E+04  0.97198201406E+03  0.10481338499E+04  0.19550294133E+04  0.10100000352E+00 0.  1.
       -3    1    3    3    0  502  0.13337190086E+04 -0.97198201406E+03 -0.54397240360E+03  0.17376597525E+04  0.10100000352E+00 0. -1.
</event>
<event>
 5   0  0.1501585E-07  0.3991220E+04  0.7818609E-02  0.8006320E-01
        2   -1    0    0  501    0  0.00000000000E+00  0.00000000000E+00  0.23455174723E+04  0.23455174723E+04  0.25500000920E-02 0.  1.
       -2   -1    0    0    0  501  0.00000000000E+00  0.00000000000E+00 -0.16979018263E+04  0.16979018263E+04  0.25500000920E-02 0. -1.
    10030    2    1    2    0    0  0.00000000000E+00  0.00000000000E+00  0.64761564593E+03  0.40434192986E+04  0.39912195629E+04 0.  0.
        5    1    3    3  502    0 -0.17621688095E+04 -0.43152114653E+03 -0.51832009645E+03  0.18868299408E+04  0.46999998093E+01 0. -1.
       -5    1    3    3    0  502  0.17621688095E+04  0.43152114653E+03  0.11659357424E+04  0.21565893578E+04  0.46999998093E+01 0.  1.
</event>
<event>
 5   0  0.1546846E-07  0.3908750E+04  0.7818609E-02  0.8023212E-01
        2   -1    0    0  501    0  0.00000000000E+00  0.00000000000E+00  0.12260233854E+04  0.12260233854E+04  0.25500000920E-02 0. -1.
       -2   -1    0    0    0  501  0.00000000000E+00  0.00000000000E+00 -0.31154229486E+04  0.31154229486E+04  0.25500000920E-02 0.  1.
    10030    2    1    2    0    0  0.00000000000E+00  0.00000000000E+00 -0.18893995631E+04  0.43414463340E+04  0.39087498720E+04 0.  0.
        2    1    3    3  502    0 -0.14132692683E+04 -0.19026070394E+03  0.53967522905E+03  0.15247224380E+04  0.25500000920E-02 0. -1.
       -2    1    3    3    0  502  0.14132692683E+04  0.19026070394E+03 -0.24290747922E+04  0.28167238960E+04  0.25500000920E-02 0.  1.
</event>
<event>
 5   0  0.1501585E-07  0.3905730E+04  0.7818609E-02  0.8023839E-01
       -2   -1    0    0    0  501  0.00000000000E+00  0.00000000000E+00  0.24002677985E+04  0.24002677985E+04  0.25500000920E-02 0. -1.
        2   -1    0    0  501    0  0.00000000000E+00  0.00000000000E+00 -0.15888566711E+04  0.15888566711E+04  0.25500000920E-02 0.  1.
    10030    2    1    2    0    0  0.00000000000E+00  0.00000000000E+00  0.81141112736E+03  0.39891244696E+04  0.39057298954E+04 0.  0.
        5    1    3    3  502    0 -0.11574912505E+04 -0.11924284980E+04 -0.64185878971E+03  0.17814815502E+04  0.46999998093E+01 0.  1.
       -5    1    3    3    0  502  0.11574912505E+04  0.11924284980E+04  0.14532699171E+04  0.22076429194E+04  0.46999998093E+01 0. -1.
</event>
<event>
 5   0  0.4750125E-08  0.3905832E+04  0.7818609E-02  0.8023817E-01
        1   -1    0    0  501    0  0.00000000000E+00  0.00000000000E+00  0.13800928850E+04  0.13800928850E+04  0.50400001928E-02 0.  1.
       -1   -1    0    0    0  501  0.00000000000E+00  0.00000000000E+00 -0.27634957763E+04  0.27634957764E+04  0.50400001928E-02 0. -1.
    10030    2    1    2    0    0  0.00000000000E+00  0.00000000000E+00 -0.13834028913E+04  0.41435886614E+04  0.39058319773E+04 0.  0.
        1    1    3    3  502    0 -0.10074890089E+04  0.44423983753E+03 -0.24027991329E+04  0.26430714726E+04  0.50400001928E-02 0. -1.
       -1    1    3    3    0  502  0.10074890089E+04 -0.44423983753E+03  0.10193962416E+04  0.15005171887E+04  0.50400001928E-02 0.  1.
</event>
<event>
 5   0  0.1520986E-07  0.3864366E+04  0.7818609E-02  0.8032482E-01
        2   -1    0    0  501    0  0.00000000000E+00  0.00000000000E+00  0.12028190914E+04  0.12028190914E+04  0.25500000920E-02 0.  1.
       -2   -1    0    0    0  501  0.00000000000E+00  0.00000000000E+00 -0.31038172082E+04  0.31038172082E+04  0.25500000920E-02 0. -1.
    10030    2    1    2    0    0  0.00000000000E+00  0.00000000000E+00 -0.19009981169E+04  0.43066362996E+04  0.38643657146E+04 0.  0.
        4    1    3    3  502    0 -0.28693189853E+03 -0.10695822810E+04  0.81406130903E+03  0.13744211865E+04  0.12699999809E+01 0.  1.
       -4    1    3    3    0  502  0.28693189853E+03  0.10695822810E+04 -0.27150594259E+04  0.29322151130E+04  0.12699999809E+01 0. -1.
</event>
<event>
 5   0  0.1503228E-07  0.3869365E+04  0.7818609E-02  0.8031431E-01
        2   -1    0    0  501    0  0.00000000000E+00  0.00000000000E+00  0.21649884099E+04  0.21649884099E+04  0.25500000920E-02 0.  1.
       -2   -1    0    0    0  501  0.00000000000E+00  0.00000000000E+00 -0.17288759749E+04  0.17288759749E+04  0.25500000920E-02 0. -1.
    10030    2    1    2    0    0  0.00000000000E+00  0.00000000000E+00  0.43611243501E+03  0.38938643847E+04  0.38693650371E+04 0.  0.
        3    1    3    3  502    0 -0.95796322949E+03 -0.11178964114E+04  0.14812371229E+04  0.20884083318E+04  0.10100000352E+00 0.  1.
       -3    1    3    3    0  502  0.95796322949E+03  0.11178964114E+04 -0.10451246879E+04  0.18054560530E+04  0.10100000352E+00 0. -1.
</event>
<event>
 5   0  0.1501585E-07  0.3928970E+04  0.7818609E-02  0.8019031E-01
        2   -1    0    0  501    0  0.00000000000E+00  0.00000000000E+00  0.25080930843E+04  0.25080930843E+04  0.25500000920E-02 0. -1.
       -2   -1    0    0    0  501  0.00000000000E+00  0.00000000000E+00 -0.15386997745E+04  0.15386997745E+04  0.25500000920E-02 0.  1.
    10030    2    1    2    0    0  0.00000000000E+00  0.00000000000E+00  0.96939330983E+03  0.40467928588E+04  0.39289704825E+04 0.  0.
        5    1    3    3  502    0  0.15195388823E+04 -0.12024102156E+04  0.15191097032E+03  0.19436789278E+04  0.46999998093E+01 0.  1.
       -5    1    3    3    0  502 -0.15195388823E+04  0.12024102156E+04  0.81748233951E+03  0.21031139310E+04  0.46999998093E+01 0. -1.
</event>
<event>
 5   0  0.1503228E-07  0.3862086E+04  0.7818609E-02  0.8032961E-01
       -2   -1    0    0    0  501  0.00000000000E+00  0.00000000000E+00  0.16398061162E+04  0.16398061162E+04  0.25500000920E-02 0.  1.
        2   -1    0    0  501    0  0.00000000000E+00  0.00000000000E+00 -0.22740054328E+04  0.22740054328E+04  0.25500000920E-02 0. -1.
    10030    2    1    2    0    0  0.00000000000E+00  0.00000000000E+00 -0.63419931654E+03  0.39138115490E+04  0.38620864915E+04 0.  0.
        3    1    3    3  502    0  0.19025228218E+04 -0.24616142785E+03 -0.93372699024E+02  0.19206527554E+04  0.10100000352E+00 0.  1.
       -3    1    3    3    0  502 -0.19025228218E+04  0.24616142785E+03 -0.54082661751E+03  0.19931587935E+04  0.10100000352E+00 0. -1.
</event>
<event>
 5   0  0.4750125E-08  0.3930308E+04  0.7818609E-02  0.8018755E-01
       -1   -1    0    0    0  501  0.00000000000E+00  0.00000000000E+00  0.17412317635E+04  0.17412317635E+04  0.50400001928E-02 0. -1.
        1   -1    0    0  501    0  0.00000000000E+00  0.00000000000E+00 -0.22178726117E+04  0.22178726118E+04  0.50400001928E-02 0.  1.
    10030    2    1    2    0    0  0.00000000000E+00  0.00000000000E+00 -0.47664084827E+03  0.39591043752E+04  0.39303079976E+04 0.  0.
        3    1    3    3  502    0 -0.16059665640E+04  0.10170068117E+04 -0.74036824459E+03  0.20399942665E+04  0.10100000352E+00 0.  1.
       -3    1    3    3    0  502  0.16059665640E+04 -0.10170068117E+04  0.26372739632E+03  0.19191101087E+04  0.10100000352E+00 0. -1.
</event>
<event>
 5   0  0.4750125E-08  0.3832822E+04  0.7818609E-02  0.8039148E-01
        1   -1    0    0  501    0  0.00000000000E+00  0.00000000000E+00  0.28258517139E+04  0.28258517139E+04  0.50400001928E-02 0. -1.
       -1   -1    0    0    0  501  0.00000000000E+00  0.00000000000E+00 -0.12996542434E+04  0.12996542434E+04  0.50400001928E-02 0.  1.
    10030    2    1    2    0    0  0.00000000000E+00  0.00000000000E+00  0.15261974705E+04  0.41255059572E+04  0.38328215044E+04 0.  0.
        5    1    3    3  502    0  0.18315304862E+04 -0.10494195462E+03  0.16662350618E+03  0.18420918051E+04  0.46999998093E+01 0.  1.
       -5    1    3    3    0  502 -0.18315304862E+04  0.10494195462E+03  0.13595739643E+04  0.22834141521E+04  0.46999998093E+01 0. -1.
</event>
<event>
 5   0  0.1520986E-07  0.3634894E+04  0.7818609E-02  0.8082545E-01
       -2   -1    0    0    0  501  0.00000000000E+00  0.00000000000E+00  0.10496448665E+04  0.10496448665E+04  0.25500000920E-02 0. -1.
        2   -1    0    0  501    0  0.00000000000E+00  0.00000000000E+00 -0.31468872283E+04  0.31468872283E+04  0.25500000920E-02 0.  1.
    10030    2    1    2    0    0  0.00000000000E+00  0.00000000000E+00 -0.20972423618E+04  0.41965320949E+04  0.36348942349E+04 0.  0.
        4    1    3    3  502    0 -0.67448835778E+03  0.35100187151E+03 -0.29544332613E+04  0.30507071913E+04  0.12699999809E+01 0.  1.
       -4    1    3    3    0  502  0.67448835778E+03 -0.35100187151E+03  0.85719089951E+03  0.11458249036E+04  0.12699999809E+01 0. -1.
</event>
<event>
 5   0  0.4750125E-08  0.3883386E+04  0.7818609E-02  0.8028493E-01
       -1   -1    0    0    0  501  0.00000000000E+00  0.00000000000E+00  0.18861914574E+04  0.18861914574E+04  0.50400001928E-02 0.  1.
        1   -1    0    0  501    0  0.00000000000E+00  0.00000000000E+00 -0.19988278303E+04  0.19988278303E+04  0.50400001928E-02 0. -1.
    10030    2    1    2    0    0  0.00000000000E+00  0.00000000000E+00 -0.11263637288E+03  0.38850192877E+04  0.38833861401E+04 0.  0.
        5    1    3    3  502    0  0.81834909761E+03  0.36682788943E+03 -0.17792189562E+04  0.19924608228E+04  0.46999998093E+01 0. -1.
       -5    1    3    3    0  502 -0.81834909761E+03 -0.36682788943E+03  0.16665825834E+04  0.18925584649E+04  0.46999998093E+01 0.  1.
</event>
<event>
 5   0  0.4750125E-08  0.3914456E+04  0.7818609E-02  0.8022029E-01
        1   -1    0    0  501    0  0.00000000000E+00  0.00000000000E+00  0.25405111272E+04  0.25405111272E+04  0.50400001928E-02 0.  1.
       -1   -1    0    0    0  501  0.00000000000E+00  0.00000000000E+00 -0.15078626183E+04  0.15078626183E+04  0.50400001928E-02 0. -1.
    10030    2    1    2    0    0  0.00000000000E+00  0.00000000000E+00  0.10326485090E+04  0.40483737455E+04  0.39144561615E+04 0.  0.
        5    1    3    3  502    0 -0.13246372889E+04 -0.73904488683E+03 -0.76286911605E+03  0.16978935980E+04  0.46999998093E+01 0. -1.
       -5    1    3    3    0  502  0.13246372889E+04  0.73904488683E+03  0.17955176250E+04  0.23504801475E+04  0.46999998093E+01 0.  1.
</event>
<event>
 5   0  0.4750125E-08  0.3917102E+04  0.7818609E-02  0.8021482E-01
        1   -1    0    0  501    0  0.00000000000E+00  0.00000000000E+00  0.20492260955E+04  0.20492260955E+04  0.50400001928E-02 0.  1.
       -1   -1    0    0    0  501  0.00000000000E+00  0.00000000000E+00 -0.18718884755E+04  0.18718884755E+04  0.50400001928E-02 0. -1.
    10030    2    1    2    0    0  0.00000000000E+00  0.00000000000E+00  0.17733762003E+03  0.39211145710E+04  0.39171023535E+04 0.  0.
        3    1    3    3  502    0 -0.12750122867E+04  0.94908053524E+02  0.15738524892E+04  0.20277266921E+04  0.10100000352E+00 0.  1.
       -3    1    3    3    0  502  0.12750122867E+04 -0.94908053524E+02 -0.13965148692E+04  0.18933878789E+04  0.10100000352E+00 0. -1.
</event>
<event>
 5   0  0.1538018E-07  0.3895979E+04  0.7818609E-02  0.8025866E-01
        2   -1    0    0  501    0  0.00000000000E+00  0.00000000000E+00  0.25866552136E+04  0.25866552136E+04  0.25500000920E-02 0.  1.
       -2   -1    0    0    0  501  0.00000000000E+00  0.00000000000E+00 -0.14670152372E+04  0.14670152372E+04  0.25500000920E-02 0. -1.
    10030    2    1    2    0    0  0.00000000000E+00  0.00000000000E+00  0.11196399764E+04  0.40536704508E+04  0.38959787534E+04 0.  0.
        1    1    3    3  502    0 -0.10759114744E+04  0.14659008657E+04 -0.16718263669E+03  0.18260341954E+04  0.50400001928E-02 0. -1.
       -1    1    3    3    0  502  0.10759114744E+04 -0.14659008657E+04  0.12868226131E+04  0.22276362554E+04  0.50400001928E-02 0.  1.
</event>
<event>
 5   0  0.4762788E-08  0.3869557E+04  0.7818609E-02  0.8031391E-01
        1   -1    0    0  501    0  0.00000000000E+00  0.00000000000E+00  0.14604395211E+04  0.14604395211E+04  0.50400001928E-02 0. -1.
       -1   -1    0    0    0  501  0.00000000000E+00  0.00000000000E+00 -0.25631787026E+04  0.25631787026E+04  0.50400001928E-02 0.  1.
    10030    2    1    2    0    0  0.00000000000E+00  0.00000000000E+00 -0.11027391815E+04  0.40236182237E+04  0.38695568102E+04 0.  0.
        2    1    3    3  502    0  0.83307442509E+03  0.12356752236E+04  0.73163632577E+03  0.16601801014E+04  0.25500000920E-02 0. -1.
       -2    1    3    3    0  502 -0.83307442509E+03 -0.12356752236E+04 -0.18343755073E+04  0.23634381223E+04  0.25500000920E-02 0.  1.
</event>
<event>
 5   0  0.4750125E-08  0.3897601E+04  0.7818609E-02  0.8025528E-01
       -1   -1    0    0    0  501  0.00000000000E+00  0.00000000000E+00  0.14927957178E+04  0.14927957178E+04  0.50400001928E-02 0.  1.
        1   -1    0    0  501    0  0.00000000000E+00  0.00000000000E+00 -0.25441009227E+04  0.25441009227E+04  0.50400001928E-02 0. -1.
    10030    2    1    2    0    0  0.00000000000E+00  0.00000000000E+00 -0.10513052049E+04  0.40368966405E+04  0.38976007816E+04 0.  0.
        3    1    3    3  502    0  0.39013490185E+03  0.80686529874E+03  0.12666803050E+04  0.15516816224E+04  0.10100000352E+00 0.  1.
       -3    1    3    3    0  502 -0.39013490185E+03 -0.80686529874E+03 -0.23179855099E+04  0.24852150181E+04  0.10100000352E+00 0. -1.
</event>
<event>
 5   0  0.4762788E-08  0.3908456E+04  0.7818609E-02  0.8023273E-01
        1   -1    0    0  501    0  0.00000000000E+00  0.00000000000E+00  0.22429675511E+04  0.22429675511E+04  0.50400001928E-02 0. -1.
       -1   -1    0    0    0  501  0.00000000000E+00  0.00000000000E+00 -0.17026577689E+04  0.17026577689E+04  0.50400001928E-02 0.  1.
    10030    2    1    2    0    0  0.00000000000E+00  0.00000000000E+00  0.54030978219E+03  0.39456253200E+04  0.39084555140E+04 0.  0.
        2    1    3    3  502    0 -0.14743338961E+04 -0.44867162711E+03  0.14832649371E+04  0.21389346740E+04  0.25500000920E-02 0.  1.
       -2    1    3    3    0  502  0.14743338961E+04  0.44867162711E+03 -0.94295515487E+03  0.18066906460E+04  0.25500000920E-02 0. -1.
</event>
<event>
 5   0  0.4750125E-08  0.3828764E+04  0.7818609E-02  0.8040010E-01
       -1   -1    0    0    0  501  0.00000000000E+00  0.00000000000E+00  0.29884519655E+04  0.29884519655E+04  0.50400001928E-02 0. -1.
        1   -1    0    0  501    0  0.00000000000E+00  0.00000000000E+00 -0.12263399264E+04  0.12263399264E+04  0.50400001928E-02 0.  1.
    10030    2    1    2    0    0  0.00000000000E+00  0.00000000000E+00  0.17621120391E+04  0.42147918919E+04  0.38287637500E+04 0.  0.
        3    1    3    3  502    0  0.14430575788E+04  0.90490306179E+03  0.18429973834E+04  0.25095625301E+04  0.10100000352E+00 0. -1.
       -3    1    3    3    0  502 -0.14430575788E+04 -0.90490306179E+03 -0.80885344317E+02  0.17052293617E+04  0.10100000352E+00 0.  1.
</event>
<event>
 5   0  0.1501585E-07  0.3943547E+04  0.7818609E-02  0.8016033E-01
        2   -1    0    0  501    0  0.00000000000E+00  0.00000000000E+00  0.28421920637E+04  0.28421920637E+04  0.25500000920E-02 0.  1.
       -2   -1    0    0    0  501  0.00000000000E+00  0.00000000000E+00 -0.13679199440E+04  0.13679199440E+04  0.25500000920E-02 0. -1.
    10030    2    1    2    0    0  0.00000000000E+00  0.00000000000E+00  0.14742721197E+04  0.42101120077E+04  0.39435472401E+04 0.  0.
        5    1    3    3  502    0  0.99668020930E+03  0.58185170987E+03 -0.96966326445E+03  0.15073791123E+04  0.46999998093E+01 0. -1.
       -5    1    3    3    0  502 -0.99668020930E+03 -0.58185170987E+03  0.24439353842E+04  0.27027328954E+04  0.46999998093E+01 0.  1.
</event>
<event>
 5   0  0.1538018E-07  0.3872068E+04  0.7818609E-02  0.8030864E-01
       -2   -1    0    0    0  501  0.00000000000E+00  0.00000000000E+00  0.30803822158E+04  0.30803822158E+04  0.25500000920E-02 0. -1.
        2   -1    0    0  501    0  0.00000000000E+00  0.00000000000E+00 -0.12168061822E+04  0.12168061822E+04  0.25500000920E-02 0.  1.
    10030    2    1    2    0    0  0.00000000000E+00  0.00000000000E+00  0.18635760336E+04  0.42971883980E+04  0.38720682451E+04 0.  0.
        1    1    3    3  502    0 -0.18257084158E+03 -0.17016258488E+04  0.19363580609E+04  0.25842494426E+04  0.50400001928E-02 0. -1.
       -1    1    3    3    0  502  0.18257084158E+03  0.17016258488E+04 -0.72782027332E+02  0.17129389554E+04  0.50400001928E-02 0.  1.
</event>
<event>
 5   0  0.4750125E-08  0.3906730E+04  0.7818609E-02  0.8023631E-01
        1   -1    0    0  501    0  0.00000000000E+00  0.00000000000E+00  0.21893578905E+04  0.21893578905E+04  0.50400001928E-02 0.  1.
       -1   -1    0    0    0  501  0.00000000000E+00  0.00000000000E+00 -0.17428095766E+04  0.17428095766E+04  0.50400001928E-02 0. -1.
    10030    2    1    2    0    0  0.00000000000E+00  0.00000000000E+00  0.44654831392E+03  0.39321674670E+04  0.39067295264E+04 0.  0.
        1    1    3    3  502    0 -0.82854045015E+03  0.11666792971E+04  0.15615989249E+04  0.21180677661E+04  0.50400001928E-02 0.  1.
       -1    1    3    3    0  502  0.82854045015E+03 -0.11666792971E+04 -0.11150506109E+04  0.18140997009E+04  0.50400001928E-02 0. -1.
</event>
<event>
 5   0  0.1546846E-07  0.3903950E+04  0.7818609E-02  0.8024208E-01
        2   -1    0    0  501    0  0.00000000000E+00  0.00000000000E+00  0.19279557000E+04  0.19279557000E+04  0.25500000920E-02 0. -1.
       -2   -1    0    0    0  501  0.00000000000E+00  0.00000000000E+00 -0.19762935543E+04  0.19762935543E+04  0.25500000920E-02 0.  1.
    10030    2    1    2    0    0  0.00000000000E+00  0.00000000000E+00 -0.48337854249E+02  0.39042492543E+04  0.39039500114E+04 0.  0.
        2    1    3    3  502    0  0.37850212471E+03  0.14306042119E+03 -0.19338901937E+04  0.19757685654E+04  0.25500000920E-02 0.  1.
       -2    1    3    3    0  502 -0.37850212471E+03 -0.14306042119E+03  0.18855523395E+04  0.19284806889E+04  0.25500000920E-02 0. -1.
</event>
<event>
 5   0  0.1501585E-07  0.3912592E+04  0.7818609E-02  0.8022415E-01
        2   -1    0    0  501    0  0.00000000000E+00  0.00000000000E+00  0.21111288705E+04  0.21111288705E+04  0.25500000920E-02 0. -1.
       -2   -1    0    0    0  501  0.00000000000E+00  0.00000000000E+00 -0.18128187403E+04  0.18128187403E+04  0.25500000920E-02 0.  1.
    10030    2    1    2    0    0  0.00000000000E+00  0.00000000000E+00  0.29831013024E+03  0.39239476108E+04  0.39125919694E+04 0.  0.
        5    1    3    3  502    0  0.14638821411E+04  0.67331658898E+03 -0.96346359688E+03  0.18773892363E+04  0.46999998093E+01 0.  1.
       -5    1    3    3    0  502 -0.14638821411E+04 -0.67331658898E+03  0.12617737271E+04  0.20465583746E+04  0.46999998093E+01 0. -1.
</event>
<event>
 5   0  0.4762788E-08  0.3898106E+04  0.7818609E-02  0.8025423E-01
       -1   -1    0    0    0  501  0.00000000000E+00  0.00000000000E+00  0.11128576460E+04  0.11128576460E+04  0.50400001928E-02 0.  1.
        1   -1    0    0  501    0  0.00000000000E+00  0.00000000000E+00 -0.34135617397E+04  0.34135617397E+04  0.50400001928E-02 0. -1.
    10030    2    1    2    0    0  0.00000000000E+00  0.00000000000E+00 -0.23007040937E+04  0.45264193858E+04  0.38981063517E+04 0.  0.
        2    1    3    3  502    0  0.18150623513E+04 -0.12905974083E+03 -0.19612714996E+04  0.26753866357E+04  0.25500000920E-02 0. -1.
       -2    1    3    3    0  502 -0.18150623513E+04  0.12905974083E+03 -0.33943259415E+03  0.18510327500E+04  0.25500000920E-02 0.  1.
</event>
<event>
 5   0  0.1546846E-07  0.3904910E+04  0.7818609E-02  0.8024009E-01
        2   -1    0    0  501    0  0.00000000000E+00  0.00000000000E+00  0.17510205531E+04  0.17510205531E+04  0.25500000920E-02 0.  1.
       -2   -1    0    0    0  501  0.00000000000E+00  0.00000000000E+00 -0.21770617208E+04  0.21770617208E+04  0.25500000920E-02 0. -1.
    10030    2    1    2    0    0  0.00000000000E+00  0.00000000000E+00 -0.42604116774E+03  0.39280822738E+04  0.39049096370E+04 0.  0.
        2    1    3    3  502    0  0.13818352980E+04 -0.88850484391E+03 -0.12743504047E+04  0.20791533379E+04  0.25500000920E-02 0. -1.
       -2    1    3    3    0  502 -0.13818352980E+04  0.88850484391E+03  0.84830923700E+03  0.18489289359E+04  0.25500000920E-02 0.  1.
</event>
<event>
 5   0  0.1503228E-07  0.3885882E+04  0.7818609E-02  0.8027972E-01
        2   -1    0    0  501    0  0.00000000000E+00  0.00000000000E+00  0.19397691325E+04  0.19397691325E+04  0.25500000920E-02 0. -1.
       -2   -1    0    0    0  501  0.00000000000E+00  0.00000000000E+00 -0.19461179621E+04  0.19461179621E+04  0.25500000920E-02 0.  1.
    10030    2    1    2    0    0  0.00000000000E+00  0.00000000000E+00 -0.63488295672E+01  0.38858870945E+04  0.38858819081E+04 0.  0.
        3    1    3    3  502    0 -0.64563530682E+03 -0.16458151320E+04  0.80272190384E+03  0.19416268599E+04  0.10100000352E+00 0. -1.
       -3    1    3    3    0  502  0.64563530682E+03  0.16458151320E+04 -0.80907073341E+03  0.19442602346E+04  0.10100000352E+00 0.  1.
</event>
<event>
 5   0  0.4750125E-08  0.3873776E+04  0.7818609E-02  0.8030506E-01
       -1   -1    0    0    0  501  0.00000000000E+00  0.00000000000E+00  0.16901592198E+04  0.16901592198E+04  0.50400001928E-02 0. -1.
        1   -1    0    0  501    0  0.00000000000E+00  0.00000000000E+00 -0.22196341499E+04  0.22196341499E+04  0.50400001928E-02 0.  1.
    10030    2    1    2    0    0  0.00000000000E+00  0.00000000000E+00 -0.52947493006E+03  0.39097933697E+04  0.38737759993E+04 0.  0.
        5    1    3    3  502    0  0.97808672169E+03  0.91303877048E+03  0.11487189275E+04  0.17634825477E+04  0.46999998093E+01 0. -1.
       -5    1    3    3    0  502 -0.97808672169E+03 -0.91303877048E+03 -0.16781938575E+04  0.21463108221E+04  0.46999998093E+01 0.  1.
</event>
<event>
 5   0  0.1538018E-07  0.4027615E+04  0.7818609E-02  0.7998999E-01
       -2   -1    0    0    0  501  0.00000000000E+00  0.00000000000E+00  0.18362511501E+04  0.18362511501E+04  0.25500000920E-02 0.  1.
        2   -1    0    0  501    0  0.00000000000E+00  0.00000000000E+00 -0.22085321637E+04  0.22085321638E+04  0.25500000920E-02 0. -1.
    10030    2    1    2    0    0  0.00000000000E+00  0.00000000000E+00 -0.37228101364E+03  0.40447833139E+04  0.40276145425E+04 0.  0.
        1    1    3    3  502    0 -0.15206973436E+04  0.12182787525E+04  0.32464948797E+03  0.19753786522E+04  0.50400001928E-02 0.  1.
       -1    1    3    3    0  502  0.15206973436E+04 -0.12182787525E+04 -0.69693050161E+03  0.20694046616E+04  0.50400001928E-02 0. -1.
</event>
<event>
 5   0  0.4750125E-08  0.3900475E+04  0.7818609E-02  0.8024930E-01
       -1   -1    0    0    0  501  0.00000000000E+00  0.00000000000E+00  0.15705007293E+04  0.15705007293E+04  0.50400001928E-02 0. -1.
        1   -1    0    0  501    0  0.00000000000E+00  0.00000000000E+00 -0.24217921504E+04  0.24217921504E+04  0.50400001928E-02 0.  1.
    10030    2    1    2    0    0  0.00000000000E+00  0.00000000000E+00 -0.85129142112E+03  0.39922928797E+04  0.39004750164E+04 0.  0.
        4    1    3    3  502    0 -0.15499456856E+04  0.24862946814E+03  0.75886779122E+03  0.17435682316E+04  0.12699999809E+01 0. -1.
       -4    1    3    3    0  502  0.15499456856E+04 -0.24862946814E+03 -0.16101592123E+04  0.22487246481E+04  0.12699999809E+01 0.  1.
</event>
<event>
 5   0  0.4762788E-08  0.3844764E+04  0.7818609E-02  0.8036616E-01
        1   -1    0    0  501    0  0.00000000000E+00  0.00000000000E+00  0.19972741709E+04  0.19972741709E+04  0.50400001928E-02 0.  1.
       -1   -1    0    0    0  501  0.00000000000E+00  0.00000000000E+00 -0.18502981227E+04  0.18502981227E+04  0.50400001928E-02 0. -1.
    10030    2    1    2    0    0  0.00000000000E+00  0.00000000000E+00  0.14697604819E+03  0.38475722935E+04  0.38447640494E+04 0.  0.
        2    1    3    3  502    0  0.71980700793E+03 -0.11539265799E+04  0.14331135048E+04  0.19757234113E+04  0.25500000920E-02 0.  1.
       -2    1    3    3    0  502 -0.71980700793E+03  0.11539265799E+04 -0.12861374566E+04  0.18718488822E+04  0.25500000920E-02 0. -1.
</event>
<event>
 5   0  0.1520986E-07  0.3956001E+04  0.7818609E-02  0.8013482E-01
        2   -1    0    0  501    0  0.00000000000E+00  0.00000000000E+00  0.26407722970E+04  0.26407722970E+04  0.25500000920E-02 0.  1.
       -2   -1    0    0    0  501  0.00000000000E+00  0.00000000000E+00 -0.14815690833E+04  0.14815690833E+04  0.25500000920E-02 0. -1.
    10030    2    1    2    0    0  0.00000000000E+00  0.00000000000E+00  0.11592032137E+04  0.41223413802E+04  0.39560013100E+04 0.  0.
        4    1    3    3  502    0  0.93206616290E+03  0.19692648073E+03  0.23859715650E+04  0.25691222806E+04  0.12699999809E+01 0.  1.
       -4    1    3    3    0  502 -0.93206616290E+03 -0.19692648073E+03 -0.12267683513E+04  0.15532190996E+04  0.12699999809E+01 0. -1.
</event>
<event>
 5   0  0.1546846E-07  0.3921948E+04  0.7818609E-02  0.8020480E-01
       -2   -1    0    0    0  501  0.00000000000E+00  0.00000000000E+00  0.21240505775E+04  0.21240505775E+04  0.25500000920E-02 0. -1.
        2   -1    0    0  501    0  0.00000000000E+00  0.00000000000E+00 -0.18104180570E+04  0.18104180570E+04  0.25500000920E-02 0.  1.
    10030    2    1    2    0    0  0.00000000000E+00  0.00000000000E+00  0.31363252056E+03  0.39344686345E+04  0.39219482503E+04 0.  0.
        2    1    3    3  502    0 -0.12319128130E+04 -0.37473393646E+03  0.16405187494E+04  0.20855062860E+04  0.25500000920E-02 0. -1.
       -2    1    3    3    0  502  0.12319128130E+04  0.37473393646E+03 -0.13268862288E+04  0.18489623485E+04  0.25500000920E-02 0.  1.
</event>
<event>
 5   0  0.1501585E-07  0.3910320E+04  0.7818609E-02  0.8022886E-01
        2   -1    0    0  501    0  0.00000000000E+00  0.00000000000E+00  0.22720457828E+04  0.22720457828E+04  0.25500000920E-02 0. -1.
       -2   -1    0    0    0  501  0.00000000000E+00  0.00000000000E+00 -0.16824704069E+04  0.16824704069E+04  0.25500000920E-02 0.  1.
    10030    2    1    2    0    0  0.00000000000E+00  0.00000000000E+00  0.58957537594E+03  0.39545161897E+04  0.39103195739E+04 0.  0.
        5    1    3    3  502    0 -0.47685929375E+03 -0.56097009271E+03 -0.15369114326E+04  0.17041716676E+04  0.46999998093E+01 0.  1.
       -5    1    3    3    0  502  0.47685929375E+03  0.56097009271E+03  0.21264868086E+04  0.22503445221E+04  0.46999998093E+01 0. -1.
</event>
<event>
 5   0  0.4762788E-08  0.3915109E+04  0.7818609E-02  0.8021894E-01
        1   -1    0    0  501    0  0.00000000000E+00  0.00000000000E+00  0.13467854328E+04  0.13467854328E+04  0.50400001928E-02 0.  1.
       -1   -1    0    0    0  501  0.00000000000E+00  0.00000000000E+00 -0.28453078242E+04  0.28453078242E+04  0.50400001928E-02 0. -1.
    10030    2    1    2    0    0  0.00000000000E+00  0.00000000000E+00 -0.14985223913E+04  0.41920932570E+04  0.39151087492E+04 0.  0.
        2    1    3    3  502    0  0.11500964945E+04  0.15779090421E+04 -0.89878387083E+03  0.21494956009E+04  0.25500000920E-02 0. -1.
       -2    1    3    3    0  502 -0.11500964945E+04 -0.15779090421E+04 -0.59973852052E+03  0.20425976561E+04  0.25500000920E-02 0.  1.
</event>
<event>
 5   0  0.1520986E-07  0.3953896E+04  0.7818609E-02  0.8013912E-01
       -2   -1    0    0    0  501  0.00000000000E+00  0.00000000000E+00  0.21473835398E+04  0.21473835398E+04  0.25500000920E-02 0. -1.
        2   -1    0    0  501    0  0.00000000000E+00  0.00000000000E+00 -0.18200393161E+04  0.18200393161E+04  0.25500000920E-02 0.  1.
    10030    2    1    2    0    0  0.00000000000E+00  0.00000000000E+00  0.32734422371E+03  0.39674228559E+04  0.39538955319E+04 0.  0.
        4    1    3    3  502    0 -0.83911075273E+03 -0.13485309260E+03  0.19547238791E+04  0.21314875717E+04  0.12699999809E+01 0. -1.
       -4    1    3    3    0  502  0.83911075273E+03  0.13485309260E+03 -0.16273796554E+04  0.18359352842E+04  0.12699999809E+01 0.  1.
</event>
<event>
 5   0  0.1503228E-07  0.3896568E+04  0.7818609E-02  0.8025743E-01
        2   -1    0    0  501    0  0.00000000000E+00  0.00000000000E+00  0.19278292286E+04  0.19278292286E+04  0.25500000920E-02 0.  1.
       -2   -1    0    0    0  501  0.00000000000E+00  0.00000000000E+00 -0.19689561536E+04  0.19689561536E+04  0.25500000920E-02 0. -1.
    10030    2    1    2    0    0  0.00000000000E+00  0.00000000000E+00 -0.41126925071E+02  0.38967853822E+04  0.38965683480E+04 0.  0.
        3    1    3    3  502    0 -0.11664450579E+04 -0.87412116765E+03  0.12722302134E+04  0.19347484630E+04  0.10100000352E+00 0.  1.
       -3    1    3    3    0  502  0.11664450579E+04  0.87412116765E+03 -0.13133571385E+04  0.19620369192E+04  0.10100000352E+00 0. -1.
</event>
<event>
 5   0  0.4750125E-08  0.3903911E+04  0.7818609E-02  0.8024216E-01
        1   -1    0    0  501    0  0.00000000000E+00  0.00000000000E+00  0.24091331824E+04  0.24091331824E+04  0.50400001928E-02 0.  1.
       -1   -1    0    0    0  501  0.00000000000E+00  0.00000000000E+00 -0.15815360211E+04  0.15815360211E+04  0.50400001928E-02 0. -1.
    10030    2    1    2    0    0  0.00000000000E+00  0.00000000000E+00  0.82759716131E+03  0.39906692035E+04  0.39039113246E+04 0.  0.
        5    1    3    3  502    0  0.87767359103E+03  0.14158339188E+04 -0.62626640504E+03  0.17796427501E+04  0.46999998093E+01 0. -1.
       -5    1    3    3    0  502 -0.87767359103E+03 -0.14158339188E+04  0.14538635663E+04  0.22110264534E+04  0.46999998093E+01 0.  1.
</event>
<event>
 5   0  0.1503228E-07  0.3902755E+04  0.7818609E-02  0.8024456E-01
        2   -1    0    0  501    0  0.00000000000E+00  0.00000000000E+00  0.19339457077E+04  0.19339457077E+04  0.25500000920E-02 0. -1.
       -2   -1    0    0    0  501  0.00000000000E+00  0.00000000000E+00 -0.19689665664E+04  0.19689665664E+04  0.25500000920E-02 0.  1.
    10030    2    1    2    0    0  0.00000000000E+00  0.00000000000E+00 -0.35020858749E+02  0.39029122741E+04  0.39027551497E+04 0.  0.
        3    1    3    3  502    0  0.28705368993E+03 -0.17101365926E+04 -0.91248078277E+03  0.19594867122E+04  0.10100000352E+00 0.  1.
       -3    1    3    3    0  502 -0.28705368993E+03  0.17101365926E+04  0.87745992402E+03  0.19434255619E+04  0.10100000352E+00 0. -1.
</event>
<event>
 5   0  0.4762788E-08  0.3887035E+04  0.7818609E-02  0.8027731E-01
       -1   -1    0    0    0  501  0.00000000000E+00  0.00000000000E+00  0.16887368791E+04  0.16887368791E+04  0.50400001928E-02 0.  1.
        1   -1    0    0  501    0  0.00000000000E+00  0.00000000000E+00 -0.22367371919E+04  0.22367371919E+04  0.50400001928E-02 0. -1.
    10030    2    1    2    0    0  0.00000000000E+00  0.00000000000E+00 -0.54800031285E+03  0.39254740710E+04  0.38870351606E+04 0.  0.
        2    1    3    3  502    0 -0.69786709052E+03 -0.69695699516E+03  0.14172226574E+04  0.17266405503E+04  0.25500000920E-02 0.  1.
       -2    1    3    3    0  502  0.69786709052E+03  0.69695699516E+03 -0.19652229703E+04  0.21988335208E+04  0.25500000920E-02 0. -1.
</event>
<event>
 5   0  0.4750125E-08  0.3883845E+04  0.7818609E-02  0.8028398E-01
       -1   -1    0    0    0  501  0.00000000000E+00  0.00000000000E+00  0.21977997385E+04  0.21977997385E+04  0.50400001928E-02 0. -1.
        1   -1    0    0  501    0  0.00000000000E+00  0.00000000000E+00 -0.17158357687E+04  0.17158357687E+04  0.50400001928E-02 0.  1.
    10030    2    1    2    0    0  0.00000000000E+00  0.00000000000E+00  0.48196396978E+03  0.39136355073E+04  0.38838452100E+04 0.  0.
        1    1    3    3  502    0 -0.23258568411E+03  0.95628864104E+03  0.19278832831E+04  0.21645595438E+04  0.50400001928E-02 0. -1.
       -1    1    3    3    0  502  0.23258568411E+03 -0.95628864104E+03 -0.14459193133E+04  0.17490759635E+04  0.50400001928E-02 0.  1.
</event>
<event>
 5   0  0.1520986E-07  0.3904382E+04  0.7818609E-02  0.8024118E-01
       -2   -1    0    0    0  501  0.00000000000E+00  0.00000000000E+00  0.19389808515E+04  0.19389808515E+04  0.25500000920E-02 0.  1.
        2   -1    0    0  501    0  0.00000000000E+00  0.00000000000E+00 -0.19654915659E+04  0.19654915659E+04  0.25500000920E-02 0. -1.
    10030    2    1    2    0    0  0.00000000000E+00  0.00000000000E+00 -0.26510714392E+02  0.39044724174E+04  0.39043824147E+04 0.  0.
        4    1    3    3  502    0 -0.19051322395E+04  0.14544133317E+03 -0.41372290801E+03  0.19549553163E+04  0.12699999809E+01 0. -1.
       -4    1    3    3    0  502  0.19051322395E+04 -0.14544133317E+03  0.38721219361E+03  0.19495171010E+04  0.12699999809E+01 0.  1.
</event>
<event>
 5   0  0.1520986E-07  0.3900790E+04  0.7818609E-02  0.8024865E-01
       -2   -1    0    0    0  501  0.00000000000E+00  0.00000000000E+00  0.15065295472E+04  0.15065295472E+04  0.25500000920E-02 0.  1.
        2   -1    0    0  501    0  0.00000000000E+00  0.00000000000E+00 -0.25250361502E+04  0.25250361502E+04  0.25500000920E-02 0. -1.
    10030    2    1    2    0    0  0.00000000000E+00  0.00000000000E+00 -0.10185066029E+04  0.40315656974E+04  0.39007904676E+04 0.  0.
        4    1    3    3  502    0 -0.13384052769E+04 -0.15139056485E+03 -0.19671440403E+04  0.23840941836E+04  0.12699999809E+01 0. -1.
       -4    1    3    3    0  502  0.13384052769E+04  0.15139056485E+03  0.94863743733E+03  0.16474715138E+04  0.12699999809E+01 0.  1.
</event>
<event>
 5   0  0.1520986E-07  0.3917952E+04  0.7818609E-02  0.8021306E-01
        2   -1    0    0  501    0  0.00000000000E+00  0.00000000000E+00  0.14961423641E+04  0.14961423641E+04  0.25500000920E-02 0.  1.
       -2   -1    0    0    0  501  0.00000000000E+00  0.00000000000E+00 -0.25649872578E+04  0.25649872578E+04  0.25500000920E-02 0. -1.
    10030    2    1    2    0    0  0.00000000000E+00  0.00000000000E+00 -0.10688448937E+04  0.40611296220E+04  0.39179515566E+04 0.  0.
        4    1    3    3  502    0  0.14651326652E+04  0.66594512251E+03 -0.16921488889E+04  0.23352657467E+04  0.12699999809E+01 0. -1.
       -4    1    3    3    0  502 -0.14651326652E+04 -0.66594512251E+03  0.62330399515E+03  0.17258638753E+04  0.12699999809E+01 0.  1.
</event>
<event>
 5   0  0.4750125E-08  0.3946791E+04  0.7818609E-02  0.8015367E-01
       -1   -1    0    0    0  501  0.00000000000E+00  0.00000000000E+00  0.17274725134E+04  0.17274725135E+04  0.50400001928E-02 0. -1.
        1   -1    0    0  501    0  0.00000000000E+00  0.00000000000E+00 -0.22543285350E+04  0.22543285351E+04  0.50400001928E-02 0.  1.
    10030    2    1    2    0    0  0.00000000000E+00  0.00000000000E+00 -0.52685602160E+03  0.39818010485E+04  0.39467913959E+04 0.  0.
        3    1    3    3  502    0  0.10307391206E+04  0.53560600314E+03  0.13460266059E+04  0.17779439134E+04  0.10100000352E+00 0. -1.
       -3    1    3    3    0  502 -0.10307391206E+04 -0.53560600314E+03 -0.18728826275E+04  0.22038571351E+04  0.10100000352E+00 0.  1.
</event>
<event>
 5   0  0.1503228E-07  0.3944730E+04  0.7818609E-02  0.8015790E-01
       -2   -1    0    0    0  501  0.00000000000E+00  0.00000000000E+00  0.14090460008E+04  0.14090460008E+04  0.25500000920E-02 0.  1.
        2   -1    0    0  501    0  0.00000000000E+00  0.00000000000E+00 -0.27608918611E+04  0.27608918611E+04  0.25500000920E-02 0. -1.
    10030    2    1    2    0    0  0.00000000000E+00  0.00000000000E+00 -0.13518458604E+04  0.41699378619E+04  0.39447299707E+04 0.  0.
        3    1    3    3  502    0 -0.74946590700E+03  0.15399608544E+04  0.35821506195E+03  0.17497132965E+04  0.10100000352E+00 0.  1.
       -3    1    3    3    0  502  0.74946590700E+03 -0.15399608544E+04 -0.17100609223E+04  0.24202245654E+04  0.10100000352E+00 0. -1.
</event>
<event>
 5   0  0.1538018E-07  0.3901064E+04  0.7818609E-02  0.8024808E-01
       -2   -1    0    0    0  501  0.00000000000E+00  0.00000000000E+00  0.15262642129E+04  0.15262642129E+04  0.25500000920E-02 0.  1.
        2   -1    0    0  501    0  0.00000000000E+00  0.00000000000E+00 -0.24927364578E+04  0.24927364578E+04  0.25500000920E-02 0. -1.
    10030    2    1    2    0    0  0.00000000000E+00  0.00000000000E+00 -0.96647224492E+03  0.40190006708E+04  0.39010636744E+04 0.  0.
        1    1    3    3  502    0 -0.62753810307E+03  0.42466527865E+03 -0.23349129516E+04  0.24547837301E+04  0.50400001928E-02 0. -1.
       -1    1    3    3    0  502  0.62753810307E+03 -0.42466527865E+03  0.13684407067E+04  0.15642169407E+04  0.50400001928E-02 0.  1.
</event>
<event>
 5   0  0.4762788E-08  0.3883251E+04  0.7818609E-02  0.8028522E-01
       -1   -1    0    0    0  501  0.00000000000E+00  0.00000000000E+00  0.23183742210E+04  0.23183742210E+04  0.50400001928E-02 0.  1.
        1   -1    0    0  501    0  0.00000000000E+00  0.00000000000E+00 -0.16261008552E+04  0.16261008552E+04  0.50400001928E-02 0. -1.
    10030    2    1    2    0    0  0.00000000000E+00  0.00000000000E+00  0.69227336586E+03  0.39444750762E+04  0.38832513714E+04 0.  0.
        2    1    3    3  502    0 -0.51616614801E+03 -0.89209026165E+02 -0.15529723127E+04  0.16389352479E+04  0.25500000920E-02 0. -1.
       -2    1    3    3    0  502  0.51616614801E+03  0.89209026165E+02  0.22452456786E+04  0.23055398283E+04  0.25500000920E-02 0.  1.
</event>
<event>
 5   0  0.4750125E-08  0.3891089E+04  0.7818609E-02  0.8026885E-01
       -1   -1    0    0    0  501  0.00000000000E+00  0.00000000000E+00  0.15942708306E+04  0.15942708306E+04  0.50400001928E-02 0. -1.
        1   -1    0    0  501    0  0.00000000000E+00  0.00000000000E+00 -0.23742159165E+04  0.23742159165E+04  0.50400001928E-02 0.  1.
    10030    2    1    2    0    0  0.00000000000E+00  0.00000000000E+00 -0.77994508590E+03  0.39684867472E+04  0.38910888869E+04 0.  0.
        1    1    3    3  502    0  0.34999504270E+03 -0.21109903095E+03  0.15499888909E+04  0.16029737654E+04  0.50400001928E-02 0. -1.
       -1    1    3    3    0  502 -0.34999504270E+03  0.21109903095E+03 -0.23299339768E+04  0.23655129818E+04  0.50400001928E-02 0.  1.
</event>
<event>
 5   0  0.4762788E-08  0.3635839E+04  0.7818609E-02  0.8082331E-01
        1   -1    0    0  501    0  0.00000000000E+00  0.00000000000E+00  0.21927596345E+04  0.21927596345E+04  0.50400001928E-02 0. -1.
       -1   -1    0    0    0  501  0.00000000000E+00  0.00000000000E+00 -0.15071565469E+04  0.15071565469E+04  0.50400001928E-02 0.  1.
    10030    2    1    2    0    0  0.00000000000E+00  0.00000000000E+00  0.68560308762E+03  0.36999161814E+04  0.36358394017E+04 0.  0.
        2    1    3    3  502    0  0.76421594263E+03 -0.76375216658E+03  0.18305828702E+04  0.21256474364E+04  0.25500000920E-02 0. -1.
       -2    1    3    3    0  502 -0.76421594263E+03  0.76375216658E+03 -0.11449797826E+04  0.15742687450E+04  0.25500000920E-02 0.  1.
</event>
<event>
 5   0  0.1503228E-07  0.3894833E+04  0.7818609E-02  0.8026105E-01
       -2   -1    0    0    0  501  0.00000000000E+00  0.00000000000E+00  0.19644942546E+04  0.19644942546E+04  0.25500000920E-02 0.  1.
        2   -1    0    0  501    0  0.00000000000E+00  0.00000000000E+00 -0.19304874016E+04  0.19304874016E+04  0.25500000920E-02 0. -1.
    10030    2    1    2    0    0  0.00000000000E+00  0.00000000000E+00  0.34006852943E+02  0.38949816562E+04  0.38948331975E+04 0.  0.
        3    1    3    3  502    0  0.43760104406E+03  0.51013835464E+01  0.19146823289E+04  0.19640593496E+04  0.10100000352E+00 0.  1.
       -3    1    3    3    0  502 -0.43760104406E+03 -0.51013835464E+01 -0.18806754760E+04  0.19309223066E+04  0.10100000352E+00 0. -1.
</event>
<event>
 5   0  0.4762788E-08  0.4001523E+04  0.7818609E-02  0.8004239E-01
        1   -1    0    0  501    0  0.00000000000E+00  0.00000000000E+00  0.14772257932E+04  0.14772257932E+04  0.50400001928E-02 0.  1.
       -1   -1    0    0    0  501  0.00000000000E+00  0.00000000000E+00 -0.27098401511E+04  0.27098401511E+04  0.50400001928E-02 0. -1.
    10030    2    1    2    0    0  0.00000000000E+00  0.00000000000E+00 -0.12326143579E+04  0.41870659443E+04  0.40015225935E+04 0.  0.
        2    1    3    3  502    0  0.34263146762E+03  0.18923951770E+04 -0.11936994958E+04  0.22635092919E+04  0.25500000920E-02 0. -1.
       -2    1    3    3    0  502 -0.34263146762E+03 -0.18923951770E+04 -0.38914862146E+02  0.19235566524E+04  0.25500000920E-02 0.  1.
</event>
<event>
 5   0  0.1520986E-07  0.3878634E+04  0.7818609E-02  0.8029488E-01
        2   -1    0    0  501    0  0.00000000000E+00  0.00000000000E+00  0.21502349001E+04  0.21502349001E+04  0.25500000920E-02 0.  1.
       -2   -1    0    0    0  501  0.00000000000E+00  0.00000000000E+00 -0.17490881964E+04  0.17490881964E+04  0.25500000920E-02 0. -1.
    10030    2    1    2    0    0  0.00000000000E+00  0.00000000000E+00  0.40114670372E+03  0.38993230964E+04  0.38786340292E+04 0.  0.
        4    1    3    3  502    0  0.39316057643E+03  0.18601198754E+04 -0.18399510814E+03  0.19100986892E+04  0.12699999809E+01 0.  1.
       -4    1    3    3    0  502 -0.39316057643E+03 -0.18601198754E+04  0.58514181185E+03  0.19892244073E+04  0.12699999809E+01 0. -1.
</event>
<event>
 5   0  0.4750125E-08  0.3908762E+04  0.7818609E-02  0.8023209E-01
        1   -1    0    0  501    0  0.00000000000E+00  0.00000000000E+00  0.28235380447E+04  0.28235380447E+04  0.50400001928E-02 0.  1.
       -1   -1    0    0    0  501  0.00000000000E+00  0.00000000000E+00 -0.13527729125E+04  0.13527729125E+04  0.50400001928E-02 0. -1.
    10030    2    1    2    0    0  0.00000000000E+00  0.00000000000E+00  0.14707651322E+04  0.41763109572E+04  0.39087623536E+04 0.  0.
        3    1    3    3  502    0 -0.88985074567E+03  0.12401957751E+04 -0.56868744884E+03  0.16289031079E+04  0.10100000352E+00 0. -1.
       -3    1    3    3    0  502  0.88985074567E+03 -0.12401957751E+04  0.20394525810E+04  0.25474078493E+04  0.10100000352E+00 0.  1.
</event>
<event>
 5   0  0.4750125E-08  0.3723942E+04  0.7818609E-02  0.8062677E-01
        1   -1    0    0  501    0  0.00000000000E+00  0.00000000000E+00  0.19668405475E+04  0.19668405475E+04  0.50400001928E-02 0.  1.
       -1   -1    0    0    0  501  0.00000000000E+00  0.00000000000E+00 -0.17626928832E+04  0.17626928832E+04  0.50400001928E-02 0. -1.
    10030    2    1    2    0    0  0.00000000000E+00  0.00000000000E+00  0.20414766427E+03  0.37295334307E+04  0.37239419091E+04 0.  0.
        1    1    3    3  502    0 -0.39525056649E+03  0.50842099319E+03  0.18517577056E+04  0.19605411286E+04  0.50400001928E-02 0.  1.
       -1    1    3    3    0  502  0.39525056649E+03 -0.50842099319E+03 -0.16476100413E+04  0.17689923021E+04  0.50400001928E-02 0. -1.
</event>
<event>
 5   0  0.1520986E-07  0.4052017E+04  0.7818609E-02  0.7994135E-01
       -2   -1    0    0    0  501  0.00000000000E+00  0.00000000000E+00  0.18794598899E+04  0.18794598899E+04  0.25500000920E-02 0. -1.
        2   -1    0    0  501    0  0.00000000000E+00  0.00000000000E+00 -0.21839837461E+04  0.21839837461E+04  0.25500000920E-02 0.  1.
    10030    2    1    2    0    0  0.00000000000E+00  0.00000000000E+00 -0.30452385614E+03  0.40634436360E+04  0.40520167082E+04 0.  0.
        4    1    3    3  502    0  0.19215613129E+04 -0.61723439799E+03 -0.32976973723E+03  0.20450246634E+04  0.12699999809E+01 0. -1.
       -4    1    3    3    0  502 -0.19215613129E+04  0.61723439799E+03  0.25245881090E+02  0.20184189726E+04  0.12699999809E+01 0.  1.
</event>
<event>
 5   0  0.1501585E-07  0.3912420E+04  0.7818609E-02  0.8022451E-01
       -2   -1    0    0    0  501  0.00000000000E+00  0.00000000000E+00  0.16010955879E+04  0.16010955879E+04  0.25500000920E-02 0. -1.
        2   -1    0    0  501    0  0.00000000000E+00  0.00000000000E+00 -0.23900866769E+04  0.23900866769E+04  0.25500000920E-02 0.  1.
    10030    2    1    2    0    0  0.00000000000E+00  0.00000000000E+00 -0.78899108897E+03  0.39911822648E+04  0.39124198308E+04 0.  0.
        5    1    3    3  502    0  0.17243180863E+04 -0.33685931014E+03 -0.12720386798E+04  0.21690669769E+04  0.46999998093E+01 0.  1.
       -5    1    3    3    0  502 -0.17243180863E+04  0.33685931014E+03  0.48304759079E+03  0.18221152879E+04  0.46999998093E+01 0. -1.
</event>
<event>
 5   0  0.4762788E-08  0.3830969E+04  0.7818609E-02  0.8039542E-01
       -1   -1    0    0    0  501  0.00000000000E+00  0.00000000000E+00  0.15113331355E+04  0.15113331355E+04  0.50400001928E-02 0. -1.
        1   -1    0    0  501    0  0.00000000000E+00  0.00000000000E+00 -0.24277113971E+04  0.24277113971E+04  0.50400001928E-02 0.  1.
    10030    2    1    2    0    0  0.00000000000E+00  0.00000000000E+00 -0.91637826159E+03  0.39390445327E+04  0.38309688999E+04 0.  0.
        2    1    3    3  502    0  0.71797249717E+03 -0.17493843937E+04 -0.77217322591E+03  0.20425674419E+04  0.25500000920E-02 0. -1.
       -2    1    3    3    0  502 -0.71797249717E+03  0.17493843937E+04 -0.14420503567E+03  0.18964770908E+04  0.25500000920E-02 0.  1.
</event>
<event>
 5   0  0.4750125E-08  0.3886045E+04  0.7818609E-02  0.8027938E-01
        1   -1    0    0  501    0  0.00000000000E+00  0.00000000000E+00  0.11557329766E+04  0.11557329766E+04  0.50400001928E-02 0. -1.
       -1   -1    0    0    0  501  0.00000000000E+00  0.00000000000E+00 -0.32666166589E+04  0.32666166589E+04  0.50400001928E-02 0.  1.
    10030    2    1    2    0    0  0.00000000000E+00  0.00000000000E+00 -0.21108836823E+04  0.44223496356E+04  0.38860450820E+04 0.  0.
        4    1    3    3  502    0  0.10254935906E+04 -0.83552952201E+03  0.56420687183E+03  0.14380812542E+04  0.12699999809E+01 0. -1.
       -4    1    3    3    0  502 -0.10254935906E+04  0.83552952201E+03 -0.26750905541E+04  0.29842683814E+04  0.12699999809E+01 0.  1.
</event>
<event>
 5   0  0.4750125E-08  0.3888462E+04  0.7818609E-02  0.8027433E-01
       -1   -1    0    0    0  501  0.00000000000E+00  0.00000000000E+00  0.20286206819E+04  0.20286206819E+04  0.50400001928E-02 0.  1.
        1   -1    0    0  501    0  0.00000000000E+00  0.00000000000E+00 -0.18633518353E+04  0.18633518354E+04  0.50400001928E-02 0. -1.
    10030    2    1    2    0    0  0.00000000000E+00  0.00000000000E+00  0.16526884657E+03  0.38919725173E+04  0.38884619432E+04 0.  0.
        1    1    3    3  502    0 -0.62031895220E+02 -0.13592026017E+03  0.20228663480E+04  0.20283763297E+04  0.50400001928E-02 0.  1.
       -1    1    3    3    0  502  0.62031895220E+02  0.13592026017E+03 -0.18575975014E+04  0.18635961876E+04  0.50400001928E-02 0. -1.
</event>
<event>
 5   0  0.4750125E-08  0.3887294E+04  0.7818609E-02  0.8027677E-01
        1   -1    0    0  501    0  0.00000000000E+00  0.00000000000E+00  0.25356006218E+04  0.25356006218E+04  0.50400001928E-02 0. -1.
       -1   -1    0    0    0  501  0.00000000000E+00  0.00000000000E+00 -0.14898891975E+04  0.14898891976E+04  0.50400001928E-02 0.  1.
    10030    2    1    2    0    0  0.00000000000E+00  0.00000000000E+00  0.10457114242E+04  0.40254898193E+04  0.38872941621E+04 0.  0.
        5    1    3    3  502    0  0.11951334046E+03 -0.82857804624E+03 -0.12936183794E+04  0.15408749523E+04  0.46999998093E+01 0.  1.
       -5    1    3    3    0  502 -0.11951334046E+03  0.82857804624E+03  0.23393298036E+04  0.24846148670E+04  0.46999998093E+01 0. -1.
</event>
<event>
 5   0  0.4750125E-08  0.3889599E+04  0.7818609E-02  0.8027196E-01
        1   -1    0    0  501    0  0.00000000000E+00  0.00000000000E+00  0.25290580031E+04  0.25290580031E+04  0.50400001928E-02 0.  1.
       -1   -1    0    0    0  501  0.00000000000E+00  0.00000000000E+00 -0.14955156285E+04  0.14955156285E+04  0.50400001928E-02 0. -1.
    10030    2    1    2    0    0  0.00000000000E+00  0.00000000000E+00  0.10335423746E+04  0.40245736316E+04  0.38895993464E+04 0.  0.
        3    1    3    3  502    0 -0.17337338941E+04 -0.16703048259E+03  0.14119602911E+04  0.22421784656E+04  0.10100000352E+00 0.  1.
       -3    1    3    3    0  502  0.17337338941E+04  0.16703048259E+03 -0.37841791649E+03  0.17823951659E+04  0.10100000352E+00 0. -1.
</event>
<event>
 5   0  0.1538018E-07  0.3891656E+04  0.7818609E-02  0.8026767E-01
        2   -1    0    0  501    0  0.00000000000E+00  0.00000000000E+00  0.21052476048E+04  0.21052476048E+04  0.25500000920E-02 0.  1.
       -2   -1    0    0    0  501  0.00000000000E+00  0.00000000000E+00 -0.17984806471E+04  0.17984806471E+04  0.25500000920E-02 0. -1.
    10030    2    1    2    0    0  0.00000000000E+00  0.00000000000E+00  0.30676695776E+03  0.39037282519E+04  0.38916562410E+04 0.  0.
        1    1    3    3  502    0 -0.37707854190E+03  0.30113440600E+03  0.20442712150E+04  0.21004558928E+04  0.50400001928E-02 0.  1.
       -1    1    3    3    0  502  0.37707854190E+03 -0.30113440600E+03 -0.17375042572E+04  0.18032723591E+04  0.50400001928E-02 0. -1.
</event>
<event>
 5   0  0.4750125E-08  0.3941788E+04  0.7818609E-02  0.8016394E-01
       -1   -1    0    0    0  501  0.00000000000E+00  0.00000000000E+00  0.16279767798E+04  0.16279767798E+04  0.50400001928E-02 0. -1.
        1   -1    0    0  501    0  0.00000000000E+00  0.00000000000E+00 -0.23860430503E+04  0.23860430503E+04  0.50400001928E-02 0.  1.
    10030    2    1    2    0    0  0.00000000000E+00  0.00000000000E+00 -0.75806627050E+03  0.40140198300E+04  0.39417877575E+04 0.  0.
        5    1    3    3  502    0 -0.56453751143E+03 -0.14569965321E+04  0.84416902109E+03  0.17760025120E+04  0.46999998093E+01 0. -1.
       -5    1    3    3    0  502  0.56453751143E+03  0.14569965321E+04 -0.16022352916E+04  0.22380173181E+04  0.46999998093E+01 0.  1.
</event>
<event>
 5   0  0.4750125E-08  0.3620558E+04  0.7818609E-02  0.8085799E-01
        1   -1    0    0  501    0  0.00000000000E+00  0.00000000000E+00  0.17619700773E+04  0.17619700773E+04  0.50400001928E-02 0. -1.
       -1   -1    0    0    0  501  0.00000000000E+00  0.00000000000E+00 -0.18599126519E+04  0.18599126519E+04  0.50400001928E-02 0.  1.
    10030    2    1    2    0    0  0.00000000000E+00  0.00000000000E+00 -0.97942574595E+02  0.36218827292E+04  0.36205582106E+04 0.  0.
        1    1    3    3  502    0  0.56796348927E+03  0.14343152307E+04  0.89861741717E+03  0.17853167698E+04  0.50400001928E-02 0.  1.
       -1    1    3    3    0  502 -0.56796348927E+03 -0.14343152307E+04 -0.99655999177E+03  0.18365659594E+04  0.50400001928E-02 0. -1.
</event>
<event>
 5   0  0.4750125E-08  0.3891718E+04  0.7818609E-02  0.8026754E-01
       -1   -1    0    0    0  501  0.00000000000E+00  0.00000000000E+00  0.33046136872E+04  0.33046136873E+04  0.50400001928E-02 0.  1.
        1   -1    0    0  501    0  0.00000000000E+00  0.00000000000E+00 -0.11457819191E+04  0.11457819191E+04  0.50400001928E-02 0. -1.
    10030    2    1    2    0    0  0.00000000000E+00  0.00000000000E+00  0.21588317682E+04  0.44503956063E+04  0.38917176734E+04 0.  0.
        3    1    3    3  502    0 -0.17382901748E+04 -0.87441404671E+03  0.10916227859E+04  0.22311192200E+04  0.10100000352E+00 0.  1.
       -3    1    3    3    0  502  0.17382901748E+04  0.87441404671E+03  0.10672089823E+04  0.22192763864E+04  0.10100000352E+00 0. -1.
</event>
<event>
 5   0  0.4750125E-08  0.4278324E+04  0.7818609E-02  0.7950638E-01
       -1   -1    0    0    0  501  0.00000000000E+00  0.00000000000E+00  0.24711874206E+04  0.24711874206E+04  0.50400001928E-02 0. -1.
        1   -1    0    0  501    0  0.00000000000E+00  0.00000000000E+00 -0.18517470552E+04  0.18517470552E+04  0.50400001928E-02 0.  1.
    10030    2    1    2    0    0  0.00000000000E+00  0.00000000000E+00  0.61944036533E+03  0.43229344758E+04  0.42783239844E+04 0.  0.
        4    1    3    3  502    0  0.14082722446E+04 -0.10788092547E+04  0.15175725320E+04  0.23345423804E+04  0.12699999809E+01 0. -1.
       -4    1    3    3    0  502 -0.14082722446E+04  0.10788092547E+04 -0.89813216670E+03  0.19883920954E+04  0.12699999809E+01 0.  1.
</event>
<event>
 5   0  0.4750125E-08  0.3689928E+04  0.7818609E-02  0.8070198E-01
        1   -1    0    0  501    0  0.00000000000E+00  0.00000000000E+00  0.20826769662E+04  0.20826769662E+04  0.50400001928E-02 0.  1.
       -1   -1    0    0    0  501  0.00000000000E+00  0.00000000000E+00 -0.16343832081E+04  0.16343832081E+04  0.50400001928E-02 0. -1.
    10030    2    1    2    0    0  0.00000000000E+00  0.00000000000E+00  0.44829375808E+03  0.37170601743E+04  0.36899280543E+04 0.  0.
        5    1    3    3  502    0  0.14746046443E+04  0.11078089025E+04  0.17721298430E+03  0.18528696536E+04  0.46999998093E+01 0. -1.
       -5    1    3    3    0  502 -0.14746046443E+04 -0.11078089025E+04  0.27108077378E+03  0.18641905207E+04  0.46999998093E+01 0.  1.
</event>
<event>
 5   0  0.1538018E-07  0.3911300E+04  0.7818609E-02  0.8022683E-01
       -2   -1    0    0    0  501  0.00000000000E+00  0.00000000000E+00  0.31511744729E+04  0.31511744729E+04  0.25500000920E-02 0. -1.
        2   -1    0    0  501    0  0.00000000000E+00  0.00000000000E+00 -0.12136956251E+04  0.12136956251E+04  0.25500000920E-02 0.  1.
    10030    2    1    2    0    0  0.00000000000E+00  0.00000000000E+00  0.19374788478E+04  0.43648700980E+04  0.39112998717E+04 0.  0.
        1    1    3    3  502    0  0.36395487169E+03 -0.16976700389E+04  0.19731194569E+04  0.26282593291E+04  0.50400001928E-02 0. -1.
       -1    1    3    3    0  502 -0.36395487169E+03  0.16976700389E+04 -0.35640609099E+02  0.17366107689E+04  0.50400001928E-02 0.  1.
</event>
<event>
 5   0  0.1503228E-07  0.4034343E+04  0.7818609E-02  0.7997654E-01
       -2   -1    0    0    0  501  0.00000000000E+00  0.00000000000E+00  0.14917447658E+04  0.14917447658E+04  0.25500000920E-02 0. -1.
        2   -1    0    0  501    0  0.00000000000E+00  0.00000000000E+00 -0.27276655325E+04  0.27276655325E+04  0.25500000920E-02 0.  1.
    10030    2    1    2    0    0  0.00000000000E+00  0.00000000000E+00 -0.12359207667E+04  0.42194102983E+04  0.40343429607E+04 0.  0.
        3    1    3    3  502    0 -0.18914192360E+04 -0.54780740753E+03 -0.10755475489E+04  0.22437384478E+04  0.10100000352E+00 0. -1.
       -3    1    3    3    0  502  0.18914192360E+04  0.54780740753E+03 -0.16037321774E+03  0.19756718506E+04  0.10100000352E+00 0.  1.
</event>
<event>
 5   0  0.4750125E-08  0.3881348E+04  0.7818609E-02  0.8028920E-01
       -1   -1    0    0    0  501  0.00000000000E+00  0.00000000000E+00  0.18822621474E+04  0.18822621474E+04  0.50400001928E-02 0.  1.
        1   -1    0    0  501    0  0.00000000000E+00  0.00000000000E+00 -0.20008982994E+04  0.20008982994E+04  0.50400001928E-02 0. -1.
    10030    2    1    2    0    0  0.00000000000E+00  0.00000000000E+00 -0.11863615195E+03  0.38831604468E+04  0.38813477709E+04 0.  0.
        3    1    3    3  502    0 -0.11734970562E+04 -0.74792548188E+03  0.12939877646E+04  0.19002347782E+04  0.10100000352E+00 0.  1.
       -3    1    3    3    0  502  0.11734970562E+04  0.74792548188E+03 -0.14126239165E+04  0.19829256686E+04  0.10100000352E+00 0. -1.
</event>
<event>
 5   0  0.4762788E-08  0.3921416E+04  0.7818609E-02  0.8020590E-01
       -1   -1    0    0    0  501  0.00000000000E+00  0.00000000000E+00  0.16026214932E+04  0.16026214932E+04  0.50400001928E-02 0.  1.
        1   -1    0    0  501    0  0.00000000000E+00  0.00000000000E+00 -0.23988048439E+04  0.23988048440E+04  0.50400001928E-02 0. -1.
    10030    2    1    2    0    0  0.00000000000E+00  0.00000000000E+00 -0.79618335077E+03  0.40014263371E+04  0.39214161732E+04 0.  0.
        2    1    3    3  502    0 -0.16872445668E+04 -0.77182137798E+02 -0.14142130809E+04  0.22028958098E+04  0.25500000920E-02 0. -1.
       -2    1    3    3    0  502  0.16872445668E+04  0.77182137798E+02  0.61802973014E+03  0.17985305274E+04  0.25500000920E-02 0.  1.
</event>
<event>
 5   0  0.4750125E-08  0.3931387E+04  0.7818609E-02  0.8018533E-01
        1   -1    0    0  501    0  0.00000000000E+00  0.00000000000E+00  0.17894797978E+04  0.17894797978E+04  0.50400001928E-02 0.  1.
       -1   -1    0    0    0  501  0.00000000000E+00  0.00000000000E+00 -0.21592588817E+04  0.21592588817E+04  0.50400001928E-02 0. -1.
    10030    2    1    2    0    0  0.00000000000E+00  0.00000000000E+00 -0.36977908385E+03  0.39487386795E+04  0.39313865986E+04 0.  0.
        4    1    3    3  502    0  0.53124874529E+03  0.13742547243E+04 -0.14918426524E+04  0.20967587818E+04  0.12699999809E+01 0. -1.
       -4    1    3    3    0  502 -0.53124874529E+03 -0.13742547243E+04  0.11220635686E+04  0.18519798977E+04  0.12699999809E+01 0.  1.
</event>
<event>
 5   0  0.4762788E-08  0.3872353E+04  0.7818609E-02  0.8030804E-01
        1   -1    0    0  501    0  0.00000000000E+00  0.00000000000E+00  0.13468607475E+04  0.13468607475E+04  0.50400001928E-02 0.  1.
       -1   -1    0    0    0  501  0.00000000000E+00  0.00000000000E+00 -0.27833458728E+04  0.27833458728E+04  0.50400001928E-02 0. -1.
    10030    2    1    2    0    0  0.00000000000E+00  0.00000000000E+00 -0.14364851253E+04  0.41302066203E+04  0.38723529296E+04 0.  0.
        2    1    3    3  502    0 -0.11425793963E+04 -0.31303898481E+03 -0.23516550937E+04  0.26332038969E+04  0.25500000920E-02 0. -1.
       -2    1    3    3    0  502  0.11425793963E+04  0.31303898481E+03  0.91516996840E+03  0.14970027234E+04  0.25500000920E-02 0.  1.
</event>
<event>
 5   0  0.4750125E-08  0.3953258E+04  0.7818609E-02  0.8014043E-01
       -1   -1    0    0    0  501  0.00000000000E+00  0.00000000000E+00  0.16131057659E+04  0.16131057660E+04  0.50400001928E-02 0.  1.
        1   -1    0    0  501    0  0.00000000000E+00  0.00000000000E+00 -0.24220739450E+04  0.24220739450E+04  0.50400001928E-02 0. -1.
    10030    2    1    2    0    0  0.00000000000E+00  0.00000000000E+00 -0.80896817906E+03  0.40351797110E+04  0.39532576168E+04 0.  0.
        1    1    3    3  502    0  0.55143653522E+03 -0.16538658199E+04 -0.13552953717E+04  0.22082074058E+04  0.50400001928E-02 0. -1.
       -1    1    3    3    0  502 -0.55143653522E+03  0.16538658199E+04  0.54632719259E+03  0.18269723052E+04  0.50400001928E-02 0.  1.
</event>
<event>
 5   0  0.4750125E-08  0.3881656E+04  0.7818609E-02  0.8028855E-01
        1   -1    0    0  501    0  0.00000000000E+00  0.00000000000E+00  0.21322917343E+04  0.21322917343E+04  0.50400001928E-02 0.  1.
       -1   -1    0    0    0  501  0.00000000000E+00  0.00000000000E+00 -0.17665564668E+04  0.17665564668E+04  0.50400001928E-02 0. -1.
    10030    2    1    2    0    0  0.00000000000E+00  0.00000000000E+00  0.36573526754E+03  0.38988482011E+04  0.38816562199E+04 0.  0.
        5    1    3    3  502    0 -0.11312446942E+04 -0.37352973303E+02 -0.14007197338E+04  0.18008741392E+04  0.46999998093E+01 0. -1.
       -5    1    3    3    0  502  0.11312446942E+04  0.37352973303E+02  0.17664550014E+04  0.20979740619E+04  0.46999998093E+01 0.  1.
</event>
<event>
 5   0  0.1501585E-07  0.3897208E+04  0.7818609E-02  0.8025610E-01
        2   -1    0    0  501    0  0.00000000000E+00  0.00000000000E+00  0.24011324614E+04  0.24011324614E+04  0.25500000920E-02 0. -1.
       -2   -1    0    0    0  501  0.00000000000E+00  0.00000000000E+00 -0.15813612436E+04  0.15813612436E+04  0.25500000920E-02 0.  1.
    10030    2    1    2    0    0  0.00000000000E+00  0.00000000000E+00  0.81977121778E+03  0.39824937050E+04  0.38972081368E+04 0.  0.
        5    1    3    3  502    0 -0.18857558630E+04 -0.47263772087E+03  0.54535415828E+03  0.20191321992E+04  0.46999998093E+01 0.  1.
       -5    1    3    3    0  502  0.18857558630E+04  0.47263772087E+03  0.27441705950E+03  0.19633615058E+04  0.46999998093E+01 0. -1.
</event>
<event>
 5   0  0.1520986E-07  0.3875827E+04  0.7818609E-02  0.8030076E-01
        2   -1    0    0  501    0  0.00000000000E+00  0.00000000000E+00  0.16193876511E+04  0.16193876511E+04  0.25500000920E-02 0. -1.
       -2   -1    0    0    0  501  0.00000000000E+00  0.00000000000E+00 -0.23190921787E+04  0.23190921787E+04  0.25500000920E-02 0.  1.
    10030    2    1    2    0    0  0.00000000000E+00  0.00000000000E+00 -0.69970452752E+03  0.39384798298E+04  0.38758272593E+04 0.  0.
        4    1    3    3  502    0 -0.78690371064E+03 -0.59618618592E+03  0.13446929718E+04  0.16681895034E+04  0.12699999809E+01 0. -1.
       -4    1    3    3    0  502  0.78690371064E+03  0.59618618592E+03 -0.20443974993E+04  0.22702903264E+04  0.12699999809E+01 0.  1.
</event>
<event>
 5   0  0.4750125E-08  0.3854553E+04  0.7818609E-02  0.8034548E-01
        3   -1    0    0  501    0  0.00000000000E+00  0.00000000000E+00  0.17285656107E+04  0.17285656137E+04  0.10100000352E+00 0. -1.
       -3   -1    0    0    0  501  0.00000000000E+00  0.00000000000E+00 -0.21488306951E+04  0.21488306975E+04  0.10100000352E+00 0.  1.
    10030    2    1    2    0    0  0.00000000000E+00  0.00000000000E+00 -0.42026508440E+03  0.38773963112E+04  0.38545530756E+04 0.  0.
        2    1    3    3  502    0 -0.18914650719E+04 -0.10274365475E+03 -0.56748207495E+03  0.19774307275E+04  0.25500000920E-02 0. -1.
       -2    1    3    3    0  502  0.18914650719E+04  0.10274365475E+03  0.14721699055E+03  0.18999655837E+04  0.25500000920E-02 0.  1.
</event>
<event>
 5   0  0.1538018E-07  0.3884875E+04  0.7818609E-02  0.8028182E-01
       -2   -1    0    0    0  501  0.00000000000E+00  0.00000000000E+00  0.16848828205E+04  0.16848828205E+04  0.25500000920E-02 0.  1.
        2   -1    0    0  501    0  0.00000000000E+00  0.00000000000E+00 -0.22393620697E+04  0.22393620697E+04  0.25500000920E-02 0. -1.
    10030    2    1    2    0    0  0.00000000000E+00  0.00000000000E+00 -0.55447924925E+03  0.39242448902E+04  0.38848746081E+04 0.  0.
        1    1    3    3  502    0  0.78486280580E+03  0.95983275596E+03  0.12331641412E+04  0.17487087644E+04  0.50400001928E-02 0.  1.
       -1    1    3    3    0  502 -0.78486280580E+03 -0.95983275596E+03 -0.17876433905E+04  0.21755361258E+04  0.50400001928E-02 0. -1.
</event>
<event>
 5   0  0.1520986E-07  0.3909491E+04  0.7818609E-02  0.8023058E-01
        2   -1    0    0  501    0  0.00000000000E+00  0.00000000000E+00  0.20138729615E+04  0.20138729615E+04  0.25500000920E-02 0. -1.
       -2   -1    0    0    0  501  0.00000000000E+00  0.00000000000E+00 -0.18973544673E+04  0.18973544673E+04  0.25500000920E-02 0.  1.
    10030    2    1    2    0    0  0.00000000000E+00  0.00000000000E+00  0.11651849421E+03  0.39112274287E+04  0.39094914554E+04 0.  0.
        4    1    3    3  502    0  0.16514905924E+04 -0.88391293095E+02  0.11007368431E+04  0.19866699293E+04  0.12699999809E+01 0. -1.
       -4    1    3    3    0  502 -0.16514905924E+04  0.88391293095E+02 -0.98421834885E+03  0.19245574994E+04  0.12699999809E+01 0.  1.
</event>
<event>
 5   0  0.1520986E-07  0.3908224E+04  0.7818609E-02  0.8023321E-01
       -2   -1    0    0    0  501  0.00000000000E+00  0.00000000000E+00  0.13266459221E+04  0.13266459221E+04  0.25500000920E-02 0. -1.
        2   -1    0    0  501    0  0.00000000000E+00  0.00000000000E+00 -0.28783517765E+04  0.28783517765E+04  0.25500000920E-02 0.  1.
    10030    2    1    2    0    0  0.00000000000E+00  0.00000000000E+00 -0.15517058544E+04  0.42049976986E+04  0.39082239683E+04 0.  0.
        4    1    3    3  502    0  0.12501122814E+04  0.15017686028E+04 -0.75271702875E+03  0.20939613633E+04  0.12699999809E+01 0.  1.
       -4    1    3    3    0  502 -0.12501122814E+04 -0.15017686028E+04 -0.79898882563E+03  0.21110363353E+04  0.12699999809E+01 0. -1.
</event>
<event>
 5   0  0.4750125E-08  0.3901848E+04  0.7818609E-02  0.8024645E-01
       -1   -1    0    0    0  501  0.00000000000E+00  0.00000000000E+00  0.21593176257E+04  0.21593176258E+04  0.50400001928E-02 0. -1.
        1   -1    0    0  501    0  0.00000000000E+00  0.00000000000E+00 -0.17626424549E+04  0.17626424549E+04  0.50400001928E-02 0.  1.
    10030    2    1    2    0    0  0.00000000000E+00  0.00000000000E+00  0.39667517083E+03  0.39219600807E+04  0.39018482394E+04 0.  0.
        1    1    3    3  502    0 -0.53121665643E+02 -0.49480702693E+03 -0.16977708447E+04  0.17692037040E+04  0.50400001928E-02 0.  1.
       -1    1    3    3    0  502  0.53121665643E+02  0.49480702693E+03  0.20944460155E+04  0.21527563767E+04  0.50400001928E-02 0. -1.
</event>
<event>
 5   0  0.4750125E-08  0.3912401E+04  0.7818609E-02  0.8022455E-01
       -1   -1    0    0    0  501  0.00000000000E+00  0.00000000000E+00  0.23429603138E+04  0.23429603139E+04  0.50400001928E-02 0.  1.
        1   -1    0    0  501    0  0.00000000000E+00  0.00000000000E+00 -0.16332841075E+04  0.16332841075E+04  0.50400001928E-02 0. -1.
    10030    2    1    2    0    0  0.00000000000E+00  0.00000000000E+00  0.70967620636E+03  0.39762444213E+04  0.39124007183E+04 0.  0.
        5    1    3    3  502    0 -0.17658913876E+04  0.44523985866E+03 -0.37102011506E+03  0.18585717475E+04  0.46999998093E+01 0.  1.
       -5    1    3    3    0  502  0.17658913876E+04 -0.44523985866E+03  0.10806963214E+04  0.21176726739E+04  0.46999998093E+01 0. -1.
</event>
<event>
 5   0  0.4750125E-08  0.3882560E+04  0.7818609E-02  0.8028666E-01
        1   -1    0    0  501    0  0.00000000000E+00  0.00000000000E+00  0.12396334613E+04  0.12396334613E+04  0.50400001928E-02 0.  1.
       -1   -1    0    0    0  501  0.00000000000E+00  0.00000000000E+00 -0.30400671143E+04  0.30400671143E+04  0.50400001928E-02 0. -1.
    10030    2    1    2    0    0  0.00000000000E+00  0.00000000000E+00 -0.18004336530E+04  0.42797005756E+04  0.38825604539E+04 0.  0.
        3    1    3    3  502    0 -0.20081030461E+03 -0.15028856719E+04 -0.22364787574E+04  0.27020043234E+04  0.10100000352E+00 0. -1.
       -3    1    3    3    0  502  0.20081030461E+03  0.15028856719E+04  0.43604510441E+03  0.15776962523E+04  0.10100000352E+00 0.  1.
</event>
<event>
 5   0  0.1520986E-07  0.3763274E+04  0.7818609E-02  0.8054082E-01
        2   -1    0    0  501    0  0.00000000000E+00  0.00000000000E+00  0.20250474724E+04  0.20250474724E+04  0.25500000920E-02 0.  1.
       -2   -1    0    0    0  501  0.00000000000E+00  0.00000000000E+00 -0.17483827983E+04  0.17483827983E+04  0.25500000920E-02 0. -1.
    10030    2    1    2    0    0  0.00000000000E+00  0.00000000000E+00  0.27666467410E+03  0.37734302706E+04  0.37632741948E+04 0.  0.
        4    1    3    3  502    0  0.27152581406E+03  0.82610449684E+03 -0.15348175473E+04  0.17640412195E+04  0.12699999809E+01 0. -1.
       -4    1    3    3    0  502 -0.27152581406E+03 -0.82610449684E+03  0.18114822214E+04  0.20093890512E+04  0.12699999809E+01 0.  1.
</event>
<event>
 5   0  0.4750125E-08  0.3844512E+04  0.7818609E-02  0.8036670E-01
       -1   -1    0    0    0  501  0.00000000000E+00  0.00000000000E+00  0.24027728786E+04  0.24027728786E+04  0.50400001928E-02 0. -1.
        1   -1    0    0  501    0  0.00000000000E+00  0.00000000000E+00 -0.15378346930E+04  0.15378346930E+04  0.50400001928E-02 0.  1.
    10030    2    1    2    0    0  0.00000000000E+00  0.00000000000E+00  0.86493818557E+03  0.39406075716E+04  0.38445116684E+04 0.  0.
        4    1    3    3  502    0 -0.75467180044E+03  0.16378449943E+04  0.11146882801E+04  0.21200465387E+04  0.12699999809E+01 0. -1.
       -4    1    3    3    0  502  0.75467180044E+03 -0.16378449943E+04 -0.24975009451E+03  0.18205610328E+04  0.12699999809E+01 0.  1.
</event>
<event>
 5   0  0.1503228E-07  0.3883402E+04  0.7818609E-02  0.8028490E-01
        2   -1    0    0  501    0  0.00000000000E+00  0.00000000000E+00  0.28251686073E+04  0.28251686073E+04  0.25500000920E-02 0.  1.
       -2   -1    0    0    0  501  0.00000000000E+00  0.00000000000E+00 -0.13345051135E+04  0.13345051135E+04  0.25500000920E-02 0. -1.
    10030    2    1    2    0    0  0.00000000000E+00  0.00000000000E+00  0.14906634938E+04  0.41596737208E+04  0.38834015775E+04 0.  0.
        3    1    3    3  502    0  0.97051248743E+02  0.12560361859E+04 -0.83733456581E+03  0.15126714880E+04  0.10100000352E+00 0. -1.
       -3    1    3    3    0  502 -0.97051248743E+02 -0.12560361859E+04  0.23279980596E+04  0.26470022329E+04  0.10100000352E+00 0.  1.
</event>
<event>
 5   0  0.4750125E-08  0.3783507E+04  0.7818609E-02  0.8049704E-01
        1   -1    0    0  501    0  0.00000000000E+00  0.00000000000E+00  0.21069207970E+04  0.21069207970E+04  0.50400001928E-02 0. -1.
       -1   -1    0    0    0  501  0.00000000000E+00  0.00000000000E+00 -0.16985597860E+04  0.16985597860E+04  0.50400001928E-02 0.  1.
    10030    2    1    2    0    0  0.00000000000E+00  0.00000000000E+00  0.40836101107E+03  0.38054805830E+04  0.37835068062E+04 0.  0.
        5    1    3    3  502    0  0.64900246107E+03  0.12293941749E+04  0.14946340893E+04  0.20412171327E+04  0.46999998093E+01 0.  1.
       -5    1    3    3    0  502 -0.64900246107E+03 -0.12293941749E+04 -0.10862730782E+04  0.17642634504E+04  0.46999998093E+01 0. -1.
</event>
<event>
 5   0  0.1503228E-07  0.3898428E+04  0.7818609E-02  0.8025356E-01
        2   -1    0    0  501    0  0.00000000000E+00  0.00000000000E+00  0.18646969034E+04  0.18646969034E+04  0.25500000920E-02 0.  1.
       -2   -1    0    0    0  501  0.00000000000E+00  0.00000000000E+00 -0.20375623393E+04  0.20375623393E+04  0.25500000920E-02 0. -1.
    10030    2    1    2    0    0  0.00000000000E+00  0.00000000000E+00 -0.17286543585E+03  0.39022592427E+04  0.38984284960E+04 0.  0.
        3    1    3    3  502    0  0.46262160968E+03  0.89970009755E+03 -0.17541903026E+04  0.20250092956E+04  0.10100000352E+00 0. -1.
       -3    1    3    3    0  502 -0.46262160968E+03 -0.89970009755E+03  0.15813248668E+04  0.18772499471E+04  0.10100000352E+00 0.  1.
</event>
<event>
 5   0  0.1538018E-07  0.3904638E+04  0.7818609E-02  0.8024065E-01
        2   -1    0    0  501    0  0.00000000000E+00  0.00000000000E+00  0.15543817374E+04  0.15543817374E+04  0.25500000920E-02 0.  1.
       -2   -1    0    0    0  501  0.00000000000E+00  0.00000000000E+00 -0.24521322047E+04  0.24521322047E+04  0.25500000920E-02 0. -1.
    10030    2    1    2    0    0  0.00000000000E+00  0.00000000000E+00 -0.89775046727E+03  0.40065139421E+04  0.39046380199E+04 0.  0.
        1    1    3    3  502    0 -0.78687951649E+03 -0.72158281000E+03  0.12283013156E+04  0.16274474637E+04  0.50400001928E-02 0.  1.
       -1    1    3    3    0  502  0.78687951649E+03  0.72158281000E+03 -0.21260517829E+04  0.23790664784E+04  0.50400001928E-02 0. -1.
</event>
<event>
 5   0  0.4750125E-08  0.3902473E+04  0.7818609E-02  0.8024515E-01
       -1   -1    0    0    0  501  0.00000000000E+00  0.00000000000E+00  0.25278225602E+04  0.25278225602E+04  0.50400001928E-02 0.  1.
        1   -1    0    0  501    0  0.00000000000E+00  0.00000000000E+00 -0.15061670485E+04  0.15061670485E+04  0.50400001928E-02 0. -1.
    10030    2    1    2    0    0  0.00000000000E+00  0.00000000000E+00  0.10216555117E+04  0.40339896086E+04  0.39024725723E+04 0.  0.
        5    1    3    3  502    0 -0.11799328471E+04 -0.15107891616E+04  0.88720782545E+03  0.21123175022E+04  0.46999998093E+01 0.  1.
       -5    1    3    3    0  502  0.11799328471E+04  0.15107891616E+04  0.13444768624E+03  0.19216721065E+04  0.46999998093E+01 0. -1.
</event>
<event>
 5   0  0.4762788E-08  0.3913841E+04  0.7818609E-02  0.8022157E-01
        1   -1    0    0  501    0  0.00000000000E+00  0.00000000000E+00  0.14107424183E+04  0.14107424183E+04  0.50400001928E-02 0. -1.
       -1   -1    0    0    0  501  0.00000000000E+00  0.00000000000E+00 -0.27145551212E+04  0.27145551212E+04  0.50400001928E-02 0.  1.
    10030    2    1    2    0    0  0.00000000000E+00  0.00000000000E+00 -0.13038127029E+04  0.41252975395E+04  0.39138411088E+04 0.  0.
        2    1    3    3  502    0  0.55628650397E+02 -0.11555745680E+04  0.10116858555E+04  0.15368654460E+04  0.25500000920E-02 0. -1.
       -2    1    3    3    0  502 -0.55628650397E+02  0.11555745680E+04 -0.23154985584E+04  0.25884320935E+04  0.25500000920E-02 0.  1.
</event>
<event>
 5   0  0.1546846E-07  0.3899810E+04  0.7818609E-02  0.8025069E-01
       -2   -1    0    0    0  501  0.00000000000E+00  0.00000000000E+00  0.30347937828E+04  0.30347937828E+04  0.25500000920E-02 0.  1.
        2   -1    0    0  501    0  0.00000000000E+00  0.00000000000E+00 -0.12528458298E+04  0.12528458298E+04  0.25500000920E-02 0. -1.
    10030    2    1    2    0    0  0.00000000000E+00  0.00000000000E+00  0.17819479530E+04  0.42876396125E+04  0.38998096030E+04 0.  0.
        2    1    3    3  502    0  0.51306930341E+03  0.13192933361E+01  0.29592486353E+04  0.30033971326E+04  0.25500000920E-02 0.  1.
       -2    1    3    3    0  502 -0.51306930341E+03 -0.13192933361E+01 -0.11773006823E+04  0.12842424799E+04  0.25500000920E-02 0. -1.
</event>
<event>
 5   0  0.1546846E-07  0.3901665E+04  0.7818609E-02  0.8024683E-01
       -2   -1    0    0    0  501  0.00000000000E+00  0.00000000000E+00  0.17385984344E+04  0.17385984344E+04  0.25500000920E-02 0. -1.
        2   -1    0    0  501    0  0.00000000000E+00  0.00000000000E+00 -0.21889744203E+04  0.21889744203E+04  0.25500000920E-02 0.  1.
    10030    2    1    2    0    0  0.00000000000E+00  0.00000000000E+00 -0.45037598587E+03  0.39275728547E+04  0.39016650293E+04 0.  0.
        2    1    3    3  502    0 -0.11862956457E+04  0.14812916913E+04  0.22972547196E+03  0.19116213606E+04  0.25500000920E-02 0. -1.
       -2    1    3    3    0  502  0.11862956457E+04 -0.14812916913E+04 -0.68010145783E+03  0.20159514941E+04  0.25500000920E-02 0.  1.
</event>
<event>
 5   0  0.4750125E-08  0.3881519E+04  0.7818609E-02  0.8028884E-01
       -1   -1    0    0    0  501  0.00000000000E+00  0.00000000000E+00  0.16557684396E+04  0.16557684396E+04  0.50400001928E-02 0.  1.
        1   -1    0    0  501    0  0.00000000000E+00  0.00000000000E+00 -0.22748032434E+04  0.22748032434E+04  0.50400001928E-02 0. -1.
    10030    2    1    2    0    0  0.00000000000E+00  0.00000000000E+00 -0.61903480380E+03  0.39305716829E+04  0.38815189896E+04 0.  0.
        3    1    3    3  502    0  0.10169890510E+04 -0.49155387504E+03  0.12886079221E+04  0.17135933967E+04  0.10100000352E+00 0.  1.
       -3    1    3    3    0  502 -0.10169890510E+04  0.49155387504E+03 -0.19076427259E+04  0.22169782863E+04  0.10100000352E+00 0. -1.
</event>
<event>
 5   0  0.4762788E-08  0.4054771E+04  0.7818609E-02  0.7993588E-01
        1   -1    0    0  501    0  0.00000000000E+00  0.00000000000E+00  0.15582241894E+04  0.15582241894E+04  0.50400001928E-02 0. -1.
       -1   -1    0    0    0  501  0.00000000000E+00  0.00000000000E+00 -0.26378055340E+04  0.26378055340E+04  0.50400001928E-02 0.  1.
    10030    2    1    2    0    0  0.00000000000E+00  0.00000000000E+00 -0.10795813446E+04  0.41960297233E+04  0.40547712093E+04 0.  0.
        2    1    3    3  502    0 -0.13192674325E+04 -0.14175102148E+04  0.81534841521E+02  0.19381562625E+04  0.25500000920E-02 0. -1.
       -2    1    3    3    0  502  0.13192674325E+04  0.14175102148E+04 -0.11611161861E+04  0.22578734608E+04  0.25500000920E-02 0.  1.
</event>
<event>
 5   0  0.1538018E-07  0.3912101E+04  0.7818609E-02  0.8022517E-01
       -2   -1    0    0    0  501  0.00000000000E+00  0.00000000000E+00  0.27043996548E+04  0.27043996548E+04  0.25500000920E-02 0. -1.
        2   -1    0    0  501    0  0.00000000000E+00  0.00000000000E+00 -0.14147812366E+04  0.14147812366E+04  0.25500000920E-02 0.  1.
    10030    2    1    2    0    0  0.00000000000E+00  0.00000000000E+00  0.12896184182E+04  0.41191808914E+04  0.39121011683E+04 0.  0.
        1    1    3    3  502    0 -0.56914551236E+03  0.46902416736E+03 -0.12627800529E+04  0.14623692235E+04  0.50400001928E-02 0.  1.
       -1    1    3    3    0  502  0.56914551236E+03 -0.46902416736E+03  0.25523984710E+04  0.26568116679E+04  0.50400001928E-02 0. -1.
</event>
<event>
 5   0  0.4750125E-08  0.3896645E+04  0.7818609E-02  0.8025727E-01
       -1   -1    0    0    0  501  0.00000000000E+00  0.00000000000E+00  0.31589248124E+04  0.31589248124E+04  0.50400001928E-02 0.  1.
        1   -1    0    0  501    0  0.00000000000E+00  0.00000000000E+00 -0.12016620419E+04  0.12016620419E+04  0.50400001928E-02 0. -1.
    10030    2    1    2    0    0  0.00000000000E+00  0.00000000000E+00  0.19572627704E+04  0.43605868543E+04  0.38966447312E+04 0.  0.
        4    1    3    3  502    0 -0.27730910254E+03 -0.16905682341E+04 -0.59769550111E+02  0.17142039857E+04  0.12699999809E+01 0. -1.
       -4    1    3    3    0  502  0.27730910254E+03  0.16905682341E+04  0.20170323205E+04  0.26463828687E+04  0.12699999809E+01 0.  1.
</event>
<event>
 5   0  0.1538018E-07  0.3939157E+04  0.7818609E-02  0.8016934E-01
       -2   -1    0    0    0  501  0.00000000000E+00  0.00000000000E+00  0.13951362712E+04  0.13951362712E+04  0.25500000920E-02 0. -1.
        2   -1    0    0  501    0  0.00000000000E+00  0.00000000000E+00 -0.27805455754E+04  0.27805455754E+04  0.25500000920E-02 0.  1.
    10030    2    1    2    0    0  0.00000000000E+00  0.00000000000E+00 -0.13854093043E+04  0.41756818466E+04  0.39391572631E+04 0.  0.
        1    1    3    3  502    0  0.12318927131E+04 -0.14301055023E+04 -0.96361490206E+02  0.18899859632E+04  0.50400001928E-02 0. -1.
       -1    1    3    3    0  502 -0.12318927131E+04  0.14301055023E+04 -0.12890478141E+04  0.22856958834E+04  0.50400001928E-02 0.  1.
</event>
<event>
 5   0  0.4750125E-08  0.3842538E+04  0.7818609E-02  0.8037088E-01
       -1   -1    0    0    0  501  0.00000000000E+00  0.00000000000E+00  0.15028816081E+04  0.15028816082E+04  0.50400001928E-02 0.  1.
        1   -1    0    0  501    0  0.00000000000E+00  0.00000000000E+00 -0.24561306985E+04  0.24561306985E+04  0.50400001928E-02 0. -1.
    10030    2    1    2    0    0  0.00000000000E+00  0.00000000000E+00 -0.95324909039E+03  0.39590123067E+04  0.38425375231E+04 0.  0.
        1    1    3    3  502    0  0.10994804761E+04  0.91185133588E+03  0.84721343647E+03  0.16607530771E+04  0.50400001928E-02 0.  1.
       -1    1    3    3    0  502 -0.10994804761E+04 -0.91185133588E+03 -0.18004625269E+04  0.22982592296E+04  0.50400001928E-02 0. -1.
</event>
<event>
 5   0  0.1520986E-07  0.3978604E+04  0.7818609E-02  0.8008877E-01
       -2   -1    0    0    0  501  0.00000000000E+00  0.00000000000E+00  0.17233306226E+04  0.17233306226E+04  0.25500000920E-02 0. -1.
        2   -1    0    0  501    0  0.00000000000E+00  0.00000000000E+00 -0.22963221650E+04  0.22963221650E+04  0.25500000920E-02 0.  1.
    10030    2    1    2    0    0  0.00000000000E+00  0.00000000000E+00 -0.57299154249E+03  0.40196527876E+04  0.39786039292E+04 0.  0.
        4    1    3    3  502    0 -0.54800282024E+03 -0.13265519792E+04 -0.16781226176E+04  0.22081993517E+04  0.12699999809E+01 0.  1.
       -4    1    3    3    0  502  0.54800282024E+03  0.13265519792E+04  0.11051310751E+04  0.18114534359E+04  0.12699999809E+01 0. -1.
</event>
<event>
 5   0  0.1503228E-07  0.3891716E+04  0.7818609E-02  0.8026754E-01
       -2   -1    0    0    0  501  0.00000000000E+00  0.00000000000E+00  0.27355011576E+04  0.27355011576E+04  0.25500000920E-02 0. -1.
        2   -1    0    0  501    0  0.00000000000E+00  0.00000000000E+00 -0.13841573909E+04  0.13841573909E+04  0.25500000920E-02 0.  1.
    10030    2    1    2    0    0  0.00000000000E+00  0.00000000000E+00  0.13513437667E+04  0.41196585485E+04  0.38917164055E+04 0.  0.
        3    1    3    3  502    0 -0.10471042201E+04  0.61673826394E+03  0.22844112032E+04  0.25875331668E+04  0.10100000352E+00 0. -1.
       -3    1    3    3    0  502  0.10471042201E+04 -0.61673826394E+03 -0.93306743650E+03  0.15321253817E+04  0.10100000352E+00 0.  1.
</event>
<event>
 5   0  0.1546846E-07  0.3883608E+04  0.7818609E-02  0.8028447E-01
        2   -1    0    0  501    0  0.00000000000E+00  0.00000000000E+00  0.22588594549E+04  0.22588594549E+04  0.25500000920E-02 0.  1.
       -2   -1    0    0    0  501  0.00000000000E+00  0.00000000000E+00 -0.16692510566E+04  0.16692510566E+04  0.25500000920E-02 0. -1.
    10030    2    1    2    0    0  0.00000000000E+00  0.00000000000E+00  0.58960839836E+03  0.39281105115E+04  0.38836083900E+04 0.  0.
        2    1    3    3  502    0 -0.13846948217E+04  0.33801922513E+03  0.16286140188E+04  0.21642597737E+04  0.25500000920E-02 0.  1.
       -2    1    3    3    0  502  0.13846948217E+04 -0.33801922513E+03 -0.10390056204E+04  0.17638507378E+04  0.25500000920E-02 0. -1.
</event>
<event>
 5   0  0.1538018E-07  0.3873501E+04  0.7818609E-02  0.8030563E-01
       -2   -1    0    0    0  501  0.00000000000E+00  0.00000000000E+00  0.26953571689E+04  0.26953571689E+04  0.25500000920E-02 0.  1.
        2   -1    0    0  501    0  0.00000000000E+00  0.00000000000E+00 -0.13916535314E+04  0.13916535314E+04  0.25500000920E-02 0. -1.
    10030    2    1    2    0    0  0.00000000000E+00  0.00000000000E+00  0.13037036376E+04  0.40870107003E+04  0.38735014250E+04 0.  0.
        1    1    3    3  502    0 -0.91273438356E+03 -0.13817503717E+04  0.17115443519E+04  0.23815335843E+04  0.50400001928E-02 0.  1.
       -1    1    3    3    0  502  0.91273438356E+03  0.13817503717E+04 -0.40784071434E+03  0.17054771159E+04  0.50400001928E-02 0. -1.
</event>
<event>
 5   0  0.4750125E-08  0.3803055E+04  0.7818609E-02  0.8045500E-01
        1   -1    0    0  501    0  0.00000000000E+00  0.00000000000E+00  0.14489486362E+04  0.14489486362E+04  0.50400001928E-02 0.  1.
       -1   -1    0    0    0  501  0.00000000000E+00  0.00000000000E+00 -0.24954688005E+04  0.24954688005E+04  0.50400001928E-02 0. -1.
    10030    2    1    2    0    0  0.00000000000E+00  0.00000000000E+00 -0.10465201643E+04  0.39444174368E+04  0.38030546224E+04 0.  0.
        4    1    3    3  502    0  0.15560926154E+04  0.10410889166E+04 -0.86805371373E+03  0.20636882572E+04  0.12699999809E+01 0. -1.
       -4    1    3    3    0  502 -0.15560926154E+04 -0.10410889166E+04 -0.17846645057E+03  0.18807291796E+04  0.12699999809E+01 0.  1.
</event>
<event>
 5   0  0.1546846E-07  0.3891907E+04  0.7818609E-02  0.8026714E-01
        2   -1    0    0  501    0  0.00000000000E+00  0.00000000000E+00  0.21032941914E+04  0.21032941914E+04  0.25500000920E-02 0.  1.
       -2   -1    0    0    0  501  0.00000000000E+00  0.00000000000E+00 -0.18003832250E+04  0.18003832250E+04  0.25500000920E-02 0. -1.
    10030    2    1    2    0    0  0.00000000000E+00  0.00000000000E+00  0.30291096646E+03  0.39036774164E+04  0.38919072853E+04 0.  0.
        2    1    3    3  502    0 -0.15273768243E+04  0.55177533241E+03  0.12267983460E+04  0.20352813473E+04  0.25500000920E-02 0.  1.
       -2    1    3    3    0  502  0.15273768243E+04 -0.55177533241E+03 -0.92388737959E+03  0.18683960691E+04  0.25500000920E-02 0. -1.
</event>
<event>
 5   0  0.4750125E-08  0.3881383E+04  0.7818609E-02  0.8028912E-01
       -1   -1    0    0    0  501  0.00000000000E+00  0.00000000000E+00  0.23715323840E+04  0.23715323840E+04  0.50400001928E-02 0. -1.
        1   -1    0    0  501    0  0.00000000000E+00  0.00000000000E+00 -0.15881219413E+04  0.15881219413E+04  0.50400001928E-02 0.  1.
    10030    2    1    2    0    0  0.00000000000E+00  0.00000000000E+00  0.78341044272E+03  0.39596543253E+04  0.38813825441E+04 0.  0.
        5    1    3    3  502    0  0.78210376745E+03  0.70484689370E+03  0.20548464163E+04  0.23088766384E+04  0.46999998093E+01 0. -1.
       -5    1    3    3    0  502 -0.78210376745E+03 -0.70484689370E+03 -0.12714359736E+04  0.16507776869E+04  0.46999998093E+01 0.  1.
</event>
<event>
 5   0  0.4750125E-08  0.3908221E+04  0.7818609E-02  0.8023322E-01
       -1   -1    0    0    0  501  0.00000000000E+00  0.00000000000E+00  0.29540958783E+04  0.29540958783E+04  0.50400001928E-02 0. -1.
        1   -1    0    0  501    0  0.00000000000E+00  0.00000000000E+00 -0.12926282657E+04  0.12926282657E+04  0.50400001928E-02 0.  1.
    10030    2    1    2    0    0  0.00000000000E+00  0.00000000000E+00  0.16614676126E+04  0.42467241440E+04  0.39082209927E+04 0.  0.
        4    1    3    3  502    0  0.17123111735E+04  0.89938102819E+03  0.52794008103E+03  0.20048985338E+04  0.12699999809E+01 0.  1.
       -4    1    3    3    0  502 -0.17123111735E+04 -0.89938102819E+03  0.11335275316E+04  0.22418256102E+04  0.12699999809E+01 0. -1.
</event>
<event>
 5   0  0.4762788E-08  0.3895876E+04  0.7818609E-02  0.8025887E-01
       -1   -1    0    0    0  501  0.00000000000E+00  0.00000000000E+00  0.14084863384E+04  0.14084863384E+04  0.50400001928E-02 0. -1.
        1   -1    0    0  501    0  0.00000000000E+00  0.00000000000E+00 -0.26940000863E+04  0.26940000863E+04  0.50400001928E-02 0.  1.
    10030    2    1    2    0    0  0.00000000000E+00  0.00000000000E+00 -0.12855137479E+04  0.41024864248E+04  0.38958759309E+04 0.  0.
        2    1    3    3  502    0 -0.64748037824E+03 -0.30116949835E+03 -0.25511970306E+04  0.26492527618E+04  0.25500000920E-02 0.  1.
       -2    1    3    3    0  502  0.64748037824E+03  0.30116949835E+03  0.12656832827E+04  0.14532336629E+04  0.25500000920E-02 0. -1.
</event>
<event>
 5   0  0.4750125E-08  0.3927891E+04  0.7818609E-02  0.8019253E-01
       -1   -1    0    0    0  501  0.00000000000E+00  0.00000000000E+00  0.24423493324E+04  0.24423493324E+04  0.50400001928E-02 0.  1.
        1   -1    0    0  501    0  0.00000000000E+00  0.00000000000E+00 -0.15792509356E+04  0.15792509356E+04  0.50400001928E-02 0. -1.
    10030    2    1    2    0    0  0.00000000000E+00  0.00000000000E+00  0.86309839684E+03  0.40216002680E+04  0.39278912756E+04 0.  0.
        5    1    3    3  502    0 -0.16350039340E+04  0.59563164718E+03 -0.50069269302E+03  0.18107264250E+04  0.46999998093E+01 0. -1.
       -5    1    3    3    0  502  0.16350039340E+04 -0.59563164718E+03  0.13637910899E+04  0.22108738431E+04  0.46999998093E+01 0.  1.
</event>
<event>
 5   0  0.1503228E-07  0.3928870E+04  0.7818609E-02  0.8019052E-01
       -2   -1    0    0    0  501  0.00000000000E+00  0.00000000000E+00  0.21801920476E+04  0.21801920476E+04  0.25500000920E-02 0. -1.
        2   -1    0    0  501    0  0.00000000000E+00  0.00000000000E+00 -0.17700295403E+04  0.17700295403E+04  0.25500000920E-02 0.  1.
    10030    2    1    2    0    0  0.00000000000E+00  0.00000000000E+00  0.41016250732E+03  0.39502215879E+04  0.39288697244E+04 0.  0.
        3    1    3    3  502    0  0.18535788315E+04 -0.37138209659E+03 -0.33198006391E+03  0.19193462218E+04  0.10100000352E+00 0.  1.
       -3    1    3    3    0  502 -0.18535788315E+04  0.37138209659E+03  0.74214257123E+03  0.20308753661E+04  0.10100000352E+00 0. -1.
</event>
<event>
 5   0  0.1520986E-07  0.3830997E+04  0.7818609E-02  0.8039535E-01
        2   -1    0    0  501    0  0.00000000000E+00  0.00000000000E+00  0.15727265829E+04  0.15727265829E+04  0.25500000920E-02 0. -1.
       -2   -1    0    0    0  501  0.00000000000E+00  0.00000000000E+00 -0.23329771678E+04  0.23329771678E+04  0.25500000920E-02 0.  1.
    10030    2    1    2    0    0  0.00000000000E+00  0.00000000000E+00 -0.76025058493E+03  0.39057037507E+04  0.38309973684E+04 0.  0.
        4    1    3    3  502    0  0.14678342782E+04  0.12105728446E+04 -0.60605340375E+03  0.19968290917E+04  0.12699999809E+01 0.  1.
       -4    1    3    3    0  502 -0.14678342782E+04 -0.12105728446E+04 -0.15419718118E+03  0.19088746590E+04  0.12699999809E+01 0. -1.
</event>
<event>
 5   0  0.1501585E-07  0.3908248E+04  0.7818609E-02  0.8023316E-01
        2   -1    0    0  501    0  0.00000000000E+00  0.00000000000E+00  0.25375269378E+04  0.25375269378E+04  0.25500000920E-02 0.  1.
       -2   -1    0    0    0  501  0.00000000000E+00  0.00000000000E+00 -0.15048512327E+04  0.15048512327E+04  0.25500000920E-02 0. -1.
    10030    2    1    2    0    0  0.00000000000E+00  0.00000000000E+00  0.10326757051E+04  0.40423781705E+04  0.39082479657E+04 0.  0.
        5    1    3    3  502    0  0.52254392246E+03  0.45307118544E+03 -0.13740220552E+04  0.15382731708E+04  0.46999998093E+01 0. -1.
       -5    1    3    3    0  502 -0.52254392246E+03 -0.45307118544E+03  0.24066977603E+04  0.25041049996E+04  0.46999998093E+01 0.  1.
</event>
<event>
 5   0  0.4762788E-08  0.3902010E+04  0.7818609E-02  0.8024611E-01
       -1   -1    0    0    0  501  0.00000000000E+00  0.00000000000E+00  0.16752653895E+04  0.16752653895E+04  0.50400001928E-02 0. -1.
        1   -1    0    0  501    0  0.00000000000E+00  0.00000000000E+00 -0.22721299327E+04  0.22721299327E+04  0.50400001928E-02 0.  1.
    10030    2    1    2    0    0  0.00000000000E+00  0.00000000000E+00 -0.59686454323E+03  0.39473953222E+04  0.39020100649E+04 0.  0.
        2    1    3    3  502    0  0.12667432426E+04 -0.86194000351E+03  0.92344140860E+03  0.17889446743E+04  0.25500000920E-02 0. -1.
       -2    1    3    3    0  502 -0.12667432426E+04  0.86194000351E+03 -0.15203059518E+04  0.21584506479E+04  0.25500000920E-02 0.  1.
</event>
<event>
 5   0  0.4762788E-08  0.3911098E+04  0.7818609E-02  0.8022725E-01
        1   -1    0    0  501    0  0.00000000000E+00  0.00000000000E+00  0.23009458775E+04  0.23009458775E+04  0.50400001928E-02 0.  1.
       -1   -1    0    0    0  501  0.00000000000E+00  0.00000000000E+00 -0.16619997298E+04  0.16619997298E+04  0.50400001928E-02 0. -1.
    10030    2    1    2    0    0  0.00000000000E+00  0.00000000000E+00  0.63894614768E+03  0.39629456073E+04  0.39110977624E+04 0.  0.
        2    1    3    3  502    0  0.18775840403E+04 -0.27841364532E+03  0.79617281865E+03  0.20583311549E+04  0.25500000920E-02 0.  1.
       -2    1    3    3    0  502 -0.18775840403E+04  0.27841364532E+03 -0.15722667098E+03  0.19046144524E+04  0.25500000920E-02 0. -1.
</event>
<event>
 5   0  0.4750125E-08  0.3505738E+04  0.7818609E-02  0.8112431E-01
        1   -1    0    0  501    0  0.00000000000E+00  0.00000000000E+00  0.22706724480E+04  0.22706724480E+04  0.50400001928E-02 0. -1.
       -1   -1    0    0    0  501  0.00000000000E+00  0.00000000000E+00 -0.13531454749E+04  0.13531454749E+04  0.50400001928E-02 0.  1.
    10030    2    1    2    0    0  0.00000000000E+00  0.00000000000E+00  0.91752697303E+03  0.36238179229E+04  0.35057382378E+04 0.  0.
        4    1    3    3  502    0 -0.16944330282E+04 -0.41046687680E+03  0.64643351492E+03  0.18594257840E+04  0.12699999809E+01 0.  1.
       -4    1    3    3    0  502  0.16944330282E+04  0.41046687680E+03  0.27109345810E+03  0.17643921389E+04  0.12699999809E+01 0. -1.
</event>
<event>
 5   0  0.4750125E-08  0.3835253E+04  0.7818609E-02  0.8038632E-01
        1   -1    0    0  501    0  0.00000000000E+00  0.00000000000E+00  0.20033046831E+04  0.20033046831E+04  0.50400001928E-02 0. -1.
       -1   -1    0    0    0  501  0.00000000000E+00  0.00000000000E+00 -0.18356127030E+04  0.18356127030E+04  0.50400001928E-02 0.  1.
    10030    2    1    2    0    0  0.00000000000E+00  0.00000000000E+00  0.16769198015E+03  0.38389173861E+04  0.38352530682E+04 0.  0.
        3    1    3    3  502    0  0.14538321438E+04  0.54146611898E+03  0.12120777573E+04  0.19687422280E+04  0.10100000352E+00 0.  1.
       -3    1    3    3    0  502 -0.14538321438E+04 -0.54146611898E+03 -0.10443857771E+04  0.18701751581E+04  0.10100000352E+00 0. -1.
</event>
<event>
 5   0  0.1520986E-07  0.3843908E+04  0.7818609E-02  0.8036798E-01
       -2   -1    0    0    0  501  0.00000000000E+00  0.00000000000E+00  0.33339746507E+04  0.33339746507E+04  0.25500000920E-02 0. -1.
        2   -1    0    0  501    0  0.00000000000E+00  0.00000000000E+00 -0.11079588655E+04  0.11079588655E+04  0.25500000920E-02 0.  1.
    10030    2    1    2    0    0  0.00000000000E+00  0.00000000000E+00  0.22260157852E+04  0.44419335162E+04  0.38439077885E+04 0.  0.
        4    1    3    3  502    0  0.94118784721E+03  0.57810256461E+03  0.29305620336E+04  0.31318097938E+04  0.12699999809E+01 0. -1.
       -4    1    3    3    0  502 -0.94118784721E+03 -0.57810256461E+03 -0.70454624839E+03  0.13101237224E+04  0.12699999809E+01 0.  1.
</event>
<event>
 5   0  0.1501585E-07  0.3905789E+04  0.7818609E-02  0.8023826E-01
        2   -1    0    0  501    0  0.00000000000E+00  0.00000000000E+00  0.23375671842E+04  0.23375671842E+04  0.25500000920E-02 0.  1.
       -2   -1    0    0    0  501  0.00000000000E+00  0.00000000000E+00 -0.16315239252E+04  0.16315239252E+04  0.25500000920E-02 0. -1.
    10030    2    1    2    0    0  0.00000000000E+00  0.00000000000E+00  0.70604325898E+03  0.39690911093E+04  0.39057889281E+04 0.  0.
        5    1    3    3  502    0 -0.81145454923E+03 -0.11225132396E+04 -0.10459825612E+04  0.17356831701E+04  0.46999998093E+01 0. -1.
       -5    1    3    3    0  502  0.81145454923E+03  0.11225132396E+04  0.17520258201E+04  0.22334079392E+04  0.46999998093E+01 0.  1.
</event>
<event>
 5   0  0.4750125E-08  0.3909204E+04  0.7818609E-02  0.8023118E-01
        1   -1    0    0  501    0  0.00000000000E+00  0.00000000000E+00  0.21274499957E+04  0.21274499958E+04  0.50400001928E-02 0.  1.
       -1   -1    0    0    0  501  0.00000000000E+00  0.00000000000E+00 -0.17957971437E+04  0.17957971438E+04  0.50400001928E-02 0. -1.
    10030    2    1    2    0    0  0.00000000000E+00  0.00000000000E+00  0.33165285200E+03  0.39232471395E+04  0.39092038196E+04 0.  0.
        5    1    3    3  502    0 -0.10708325812E+04 -0.11081390372E+04 -0.10409039916E+04  0.18596122586E+04  0.46999998093E+01 0. -1.
       -5    1    3    3    0  502  0.10708325812E+04  0.11081390372E+04  0.13725568436E+04  0.20636348809E+04  0.46999998093E+01 0.  1.
</event>
<event>
 5   0  0.1538018E-07  0.3953540E+04  0.7818609E-02  0.8013985E-01
       -2   -1    0    0    0  501  0.00000000000E+00  0.00000000000E+00  0.17848695138E+04  0.17848695138E+04  0.25500000920E-02 0.  1.
        2   -1    0    0  501    0  0.00000000000E+00  0.00000000000E+00 -0.21893029010E+04  0.21893029010E+04  0.25500000920E-02 0. -1.
    10030    2    1    2    0    0  0.00000000000E+00  0.00000000000E+00 -0.40443338724E+03  0.39741724148E+04  0.39535401880E+04 0.  0.
        1    1    3    3  502    0 -0.14575961937E+04 -0.73205290554E+03  0.92036185235E+03  0.18728465126E+04  0.50400001928E-02 0.  1.
       -1    1    3    3    0  502  0.14575961937E+04  0.73205290554E+03 -0.13247952396E+04  0.21013259022E+04  0.50400001928E-02 0. -1.
</event>
<event>
 5   0  0.1546846E-07  0.3895431E+04  0.7818609E-02  0.8025980E-01
       -2   -1    0    0    0  501  0.00000000000E+00  0.00000000000E+00  0.22104615458E+04  0.22104615458E+04  0.25500000920E-02 0. -1.
        2   -1    0    0  501    0  0.00000000000E+00  0.00000000000E+00 -0.17162003587E+04  0.17162003587E+04  0.25500000920E-02 0.  1.
    10030    2    1    2    0    0  0.00000000000E+00  0.00000000000E+00  0.49426118714E+03  0.39266619045E+04  0.38954306041E+04 0.  0.
        2    1    3    3  502    0 -0.16820330756E+04  0.13268238692E+03  0.12279450179E+04  0.20867891245E+04  0.25500000920E-02 0. -1.
       -2    1    3    3    0  502  0.16820330756E+04 -0.13268238692E+03 -0.73368383078E+03  0.18398727800E+04  0.25500000920E-02 0.  1.
</event>
<event>
 5   0  0.1546846E-07  0.3908126E+04  0.7818609E-02  0.8023341E-01
        2   -1    0    0  501    0  0.00000000000E+00  0.00000000000E+00  0.22451386940E+04  0.22451386940E+04  0.25500000920E-02 0. -1.
       -2   -1    0    0    0  501  0.00000000000E+00  0.00000000000E+00 -0.17007241626E+04  0.17007241626E+04  0.25500000920E-02 0.  1.
    10030    2    1    2    0    0  0.00000000000E+00  0.00000000000E+00  0.54441453131E+03  0.39458628566E+04  0.39081257018E+04 0.  0.
        2    1    3    3  502    0 -0.16146934124E+04 -0.56305552883E+03 -0.68248930823E+03  0.18412110146E+04  0.25500000920E-02 0.  1.
       -2    1    3    3    0  502  0.16146934124E+04  0.56305552883E+03  0.12269038395E+04  0.21046518420E+04  0.25500000920E-02 0. -1.
</event>
<event>
 5   0  0.4750125E-08  0.3795791E+04  0.7818609E-02  0.8047059E-01
       -1   -1    0    0    0  501  0.00000000000E+00  0.00000000000E+00  0.19379987336E+04  0.19379987336E+04  0.50400001928E-02 0.  1.
        1   -1    0    0  501    0  0.00000000000E+00  0.00000000000E+00 -0.18586219722E+04  0.18586219722E+04  0.50400001928E-02 0. -1.
    10030    2    1    2    0    0  0.00000000000E+00  0.00000000000E+00  0.79376761389E+02  0.37966207059E+04  0.37957908417E+04 0.  0.
        4    1    3    3  502    0  0.85185653834E+03 -0.13925591381E+04  0.10079521402E+04  0.19185540505E+04  0.12699999809E+01 0.  1.
       -4    1    3    3    0  502 -0.85185653834E+03  0.13925591381E+04 -0.92857537880E+03  0.18780666554E+04  0.12699999809E+01 0. -1.
</event>
<event>
 5   0  0.4750125E-08  0.3905752E+04  0.7818609E-02  0.8023834E-01
        1   -1    0    0  501    0  0.00000000000E+00  0.00000000000E+00  0.15490345512E+04  0.15490345512E+04  0.50400001928E-02 0. -1.
       -1   -1    0    0    0  501  0.00000000000E+00  0.00000000000E+00 -0.24620004539E+04  0.24620004539E+04  0.50400001928E-02 0.  1.
    10030    2    1    2    0    0  0.00000000000E+00  0.00000000000E+00 -0.91296590270E+03  0.40110350051E+04  0.39057515375E+04 0.  0.
        1    1    3    3  502    0  0.94642986373E+03  0.14270275056E+04 -0.14207212431E+04  0.22249911998E+04  0.50400001928E-02 0.  1.
       -1    1    3    3    0  502 -0.94642986373E+03 -0.14270275056E+04  0.50775534037E+03  0.17860438053E+04  0.50400001928E-02 0. -1.
</event>
<event>
 5   0  0.1501585E-07  0.3914044E+04  0.7818609E-02  0.8022115E-01
       -2   -1    0    0    0  501  0.00000000000E+00  0.00000000000E+00  0.23185013083E+04  0.23185013083E+04  0.25500000920E-02 0. -1.
        2   -1    0    0  501    0  0.00000000000E+00  0.00000000000E+00 -0.16519011766E+04  0.16519011766E+04  0.25500000920E-02 0.  1.
    10030    2    1    2    0    0  0.00000000000E+00  0.00000000000E+00  0.66660013178E+03  0.39704024849E+04  0.39140439645E+04 0.  0.
        5    1    3    3  502    0  0.80090729465E+03  0.21166106243E+03  0.21318670727E+04  0.22871668513E+04  0.46999998093E+01 0. -1.
       -5    1    3    3    0  502 -0.80090729465E+03 -0.21166106243E+03 -0.14652669409E+04  0.16832356336E+04  0.46999998093E+01 0.  1.
</event>
<event>
 5   0  0.4750125E-08  0.3886750E+04  0.7818609E-02  0.8027791E-01
       -1   -1    0    0    0  501  0.00000000000E+00  0.00000000000E+00  0.18785156731E+04  0.18785156731E+04  0.50400001928E-02 0. -1.
        1   -1    0    0  501    0  0.00000000000E+00  0.00000000000E+00 -0.20104734270E+04  0.20104734271E+04  0.50400001928E-02 0.  1.
    10030    2    1    2    0    0  0.00000000000E+00  0.00000000000E+00 -0.13195775397E+03  0.38889891001E+04  0.38867497182E+04 0.  0.
        5    1    3    3  502    0  0.88942924339E+03  0.23671518188E+03 -0.17785623214E+04  0.20026044236E+04  0.46999998093E+01 0.  1.
       -5    1    3    3    0  502 -0.88942924339E+03 -0.23671518188E+03  0.16466045674E+04  0.18863846765E+04  0.46999998093E+01 0. -1.
</event>
<event>
 5   0  0.1546846E-07  0.3900885E+04  0.7818609E-02  0.8024845E-01
        2   -1    0    0  501    0  0.00000000000E+00  0.00000000000E+00  0.27740751715E+04  0.27740751715E+04  0.25500000920E-02 0. -1.
       -2   -1    0    0    0  501  0.00000000000E+00  0.00000000000E+00 -0.13713492672E+04  0.13713492672E+04  0.25500000920E-02 0.  1.
    10030    2    1    2    0    0  0.00000000000E+00  0.00000000000E+00  0.14027259043E+04  0.41454244387E+04  0.39008850040E+04 0.  0.
        2    1    3    3  502    0  0.52455720031E+03 -0.17450766837E+04  0.14405029393E+04  0.23228219059E+04  0.25500000920E-02 0. -1.
       -2    1    3    3    0  502 -0.52455720031E+03  0.17450766837E+04 -0.37777034977E+02  0.18226025328E+04  0.25500000920E-02 0.  1.
</event>
<event>
 5   0  0.1520986E-07  0.3877462E+04  0.7818609E-02  0.8029733E-01
       -2   -1    0    0    0  501  0.00000000000E+00  0.00000000000E+00  0.16901721606E+04  0.16901721606E+04  0.25500000920E-02 0.  1.
        2   -1    0    0  501    0  0.00000000000E+00  0.00000000000E+00 -0.22238435648E+04  0.22238435648E+04  0.25500000920E-02 0. -1.
    10030    2    1    2    0    0  0.00000000000E+00  0.00000000000E+00 -0.53367140415E+03  0.39140157254E+04  0.38774623056E+04 0.  0.
        4    1    3    3  502    0  0.70341356760E+03 -0.14563994464E+04  0.81225413819E+03  0.18098752422E+04  0.12699999809E+01 0.  1.
       -4    1    3    3    0  502 -0.70341356760E+03  0.14563994464E+04 -0.13459255423E+04  0.21041404832E+04  0.12699999809E+01 0. -1.
</event>
<event>
 5   0  0.4750125E-08  0.3902857E+04  0.7818609E-02  0.8024435E-01
        1   -1    0    0  501    0  0.00000000000E+00  0.00000000000E+00  0.17527858038E+04  0.17527858038E+04  0.50400001928E-02 0. -1.
       -1   -1    0    0    0  501  0.00000000000E+00  0.00000000000E+00 -0.21725836714E+04  0.21725836715E+04  0.50400001928E-02 0.  1.
    10030    2    1    2    0    0  0.00000000000E+00  0.00000000000E+00 -0.41979786765E+03  0.39253694753E+04  0.39028573209E+04 0.  0.
        4    1    3    3  502    0 -0.58847902256E+02 -0.18253197367E+03 -0.21630817754E+04  0.21715674930E+04  0.12699999809E+01 0.  1.
       -4    1    3    3    0  502  0.58847902256E+02  0.18253197367E+03  0.17432839077E+04  0.17538019822E+04  0.12699999809E+01 0. -1.
</event>
<event>
 5   0  0.1501585E-07  0.3913666E+04  0.7818609E-02  0.8022193E-01
       -2   -1    0    0    0  501  0.00000000000E+00  0.00000000000E+00  0.13044922105E+04  0.13044922105E+04  0.25500000920E-02 0. -1.
        2   -1    0    0  501    0  0.00000000000E+00  0.00000000000E+00 -0.29353917057E+04  0.29353917057E+04  0.25500000920E-02 0.  1.
    10030    2    1    2    0    0  0.00000000000E+00  0.00000000000E+00 -0.16308994952E+04  0.42398839163E+04  0.39136661150E+04 0.  0.
        5    1    3    3  502    0  0.74043941816E+03 -0.46361247914E+02 -0.27771195682E+04  0.28745112774E+04  0.46999998093E+01 0.  1.
       -5    1    3    3    0  502 -0.74043941816E+03  0.46361247914E+02  0.11462200730E+04  0.13653726389E+04  0.46999998093E+01 0. -1.
</event>
<event>
 5   0  0.1503228E-07  0.3890863E+04  0.7818609E-02  0.8026932E-01
       -2   -1    0    0    0  501  0.00000000000E+00  0.00000000000E+00  0.17440841136E+04  0.17440841136E+04  0.25500000920E-02 0. -1.
        2   -1    0    0  501    0  0.00000000000E+00  0.00000000000E+00 -0.21700237568E+04  0.21700237568E+04  0.25500000920E-02 0.  1.
    10030    2    1    2    0    0  0.00000000000E+00  0.00000000000E+00 -0.42593964323E+03  0.39141078704E+04  0.38908631229E+04 0.  0.
        3    1    3    3  502    0 -0.13134970106E+04  0.86143318403E+02 -0.16540112136E+04  0.21138704248E+04  0.10100000352E+00 0.  1.
       -3    1    3    3    0  502  0.13134970106E+04 -0.86143318403E+02  0.12280715704E+04  0.18002374455E+04  0.10100000352E+00 0. -1.
</event>
<event>
 5   0  0.1520986E-07  0.3910891E+04  0.7818609E-02  0.8022768E-01
        2   -1    0    0  501    0  0.00000000000E+00  0.00000000000E+00  0.13801456579E+04  0.13801456579E+04  0.25500000920E-02 0. -1.
       -2   -1    0    0    0  501  0.00000000000E+00  0.00000000000E+00 -0.27705532999E+04  0.27705532999E+04  0.25500000920E-02 0.  1.
    10030    2    1    2    0    0  0.00000000000E+00  0.00000000000E+00 -0.13904076420E+04  0.41506989578E+04  0.39108910017E+04 0.  0.
        4    1    3    3  502    0  0.20312481103E+03  0.19414717142E+04 -0.57329820997E+03  0.20345133463E+04  0.12699999809E+01 0.  1.
       -4    1    3    3    0  502 -0.20312481103E+03 -0.19414717142E+04 -0.81710943200E+03  0.21161856115E+04  0.12699999809E+01 0. -1.
</event>
<event>
 5   0  0.4762788E-08  0.3895601E+04  0.7818609E-02  0.8025945E-01
        1   -1    0    0  501    0  0.00000000000E+00  0.00000000000E+00  0.34754102104E+04  0.34754102104E+04  0.50400001928E-02 0. -1.
       -1   -1    0    0    0  501  0.00000000000E+00  0.00000000000E+00 -0.10916487441E+04  0.10916487441E+04  0.50400001928E-02 0.  1.
    10030    2    1    2    0    0  0.00000000000E+00  0.00000000000E+00  0.23837614663E+04  0.45670589545E+04  0.38956012072E+04 0.  0.
        2    1    3    3  502    0 -0.97132007879E+03  0.16172197854E+04  0.62347847020E+03  0.19868537774E+04  0.25500000920E-02 0.  1.
       -2    1    3    3    0  502  0.97132007879E+03 -0.16172197854E+04  0.17602829961E+04  0.25802051772E+04  0.25500000920E-02 0. -1.
</event>
<event>
 5   0  0.1501585E-07  0.3946297E+04  0.7818609E-02  0.8015469E-01
        2   -1    0    0  501    0  0.00000000000E+00  0.00000000000E+00  0.18515125947E+04  0.18515125947E+04  0.25500000920E-02 0.  1.
       -2   -1    0    0    0  501  0.00000000000E+00  0.00000000000E+00 -0.21027751573E+04  0.21027751573E+04  0.25500000920E-02 0. -1.
    10030    2    1    2    0    0  0.00000000000E+00  0.00000000000E+00 -0.25126256261E+03  0.39542877520E+04  0.39462968401E+04 0.  0.
        5    1    3    3  502    0  0.13694541348E+04 -0.51187116861E+03  0.12021465886E+04  0.18927744798E+04  0.46999998093E+01 0.  1.
       -5    1    3    3    0  502 -0.13694541348E+04  0.51187116861E+03 -0.14534091512E+04  0.20615132722E+04  0.46999998093E+01 0. -1.
</event>
<event>
 5   0  0.4750125E-08  0.3904882E+04  0.7818609E-02  0.8024015E-01
        1   -1    0    0  501    0  0.00000000000E+00  0.00000000000E+00  0.19448383280E+04  0.19448383280E+04  0.50400001928E-02 0. -1.
       -1   -1    0    0    0  501  0.00000000000E+00  0.00000000000E+00 -0.19600730322E+04  0.19600730322E+04  0.50400001928E-02 0.  1.
    10030    2    1    2    0    0  0.00000000000E+00  0.00000000000E+00 -0.15234704142E+02  0.39049113602E+04  0.39048816416E+04 0.  0.
        5    1    3    3  502    0 -0.35723102953E+03  0.13426644930E+04  0.13641223319E+04  0.19471039458E+04  0.46999998093E+01 0. -1.
       -5    1    3    3    0  502  0.35723102953E+03 -0.13426644930E+04 -0.13793570361E+04  0.19578074145E+04  0.46999998093E+01 0.  1.
</event>
<event>
 5   0  0.1520986E-07  0.3904750E+04  0.7818609E-02  0.8024042E-01
       -2   -1    0    0    0  501  0.00000000000E+00  0.00000000000E+00  0.16159835706E+04  0.16159835706E+04  0.25500000920E-02 0. -1.
        2   -1    0    0  501    0  0.00000000000E+00  0.00000000000E+00 -0.23587908945E+04  0.23587908945E+04  0.25500000920E-02 0.  1.
    10030    2    1    2    0    0  0.00000000000E+00  0.00000000000E+00 -0.74280732397E+03  0.39747744651E+04  0.39047495858E+04 0.  0.
        4    1    3    3  502    0 -0.10753267876E+03  0.14426810279E+04 -0.17059735187E+04  0.22367921416E+04  0.12699999809E+01 0.  1.
       -4    1    3    3    0  502  0.10753267876E+03 -0.14426810279E+04  0.96316619475E+03  0.17379823235E+04  0.12699999809E+01 0. -1.
</event>
<event>
 5   0  0.4750125E-08  0.3842855E+04  0.7818609E-02  0.8037020E-01
        1   -1    0    0  501    0  0.00000000000E+00  0.00000000000E+00  0.26745758936E+04  0.26745758936E+04  0.50400001928E-02 0. -1.
       -1   -1    0    0    0  501  0.00000000000E+00  0.00000000000E+00 -0.13803621079E+04  0.13803621079E+04  0.50400001928E-02 0.  1.
    10030    2    1    2    0    0  0.00000000000E+00  0.00000000000E+00  0.12942137857E+04  0.40549380016E+04  0.38428547817E+04 0.  0.
        1    1    3    3  502    0 -0.60199596973E+03 -0.12059638553E+04 -0.79782222957E+03  0.15662912494E+04  0.50400001928E-02 0.  1.
       -1    1    3    3    0  502  0.60199596973E+03  0.12059638553E+04  0.20920360153E+04  0.24886467522E+04  0.50400001928E-02 0. -1.
</event>
<event>
 5   0  0.1501585E-07  0.3899090E+04  0.7818609E-02  0.8025218E-01
        2   -1    0    0  501    0  0.00000000000E+00  0.00000000000E+00  0.15873669272E+04  0.15873669272E+04  0.25500000920E-02 0. -1.
       -2   -1    0    0    0  501  0.00000000000E+00  0.00000000000E+00 -0.23943590038E+04  0.23943590038E+04  0.25500000920E-02 0.  1.
    10030    2    1    2    0    0  0.00000000000E+00  0.00000000000E+00 -0.80699207656E+03  0.39817259310E+04  0.38990903014E+04 0.  0.
        5    1    3    3  502    0 -0.10708208359E+04 -0.13006562679E+04  0.59828403199E+03  0.17878282531E+04  0.46999998093E+01 0. -1.
       -5    1    3    3    0  502  0.10708208359E+04  0.13006562679E+04 -0.14052761086E+04  0.21938976779E+04  0.46999998093E+01 0.  1.
</event>
<event>
 5   0  0.4750125E-08  0.3908181E+04  0.7818609E-02  0.8023330E-01
       -1   -1    0    0    0  501  0.00000000000E+00  0.00000000000E+00  0.18065369821E+04  0.18065369822E+04  0.50400001928E-02 0.  1.
        1   -1    0    0  501    0  0.00000000000E+00  0.00000000000E+00 -0.21136962565E+04  0.21136962565E+04  0.50400001928E-02 0. -1.
    10030    2    1    2    0    0  0.00000000000E+00  0.00000000000E+00 -0.30715927434E+03  0.39202332386E+04  0.39081813962E+04 0.  0.
        5    1    3    3  502    0  0.69048059988E+03  0.13471807282E+04 -0.13930230501E+04  0.20572298562E+04  0.46999998093E+01 0. -1.
       -5    1    3    3    0  502 -0.69048059988E+03 -0.13471807282E+04  0.10858637758E+04  0.18630033824E+04  0.46999998093E+01 0.  1.
</event>
<event>
 5   0  0.4750125E-08  0.3902290E+04  0.7818609E-02  0.8024553E-01
        1   -1    0    0  501    0  0.00000000000E+00  0.00000000000E+00  0.13123988420E+04  0.13123988420E+04  0.50400001928E-02 0.  1.
       -1   -1    0    0    0  501  0.00000000000E+00  0.00000000000E+00 -0.29007698562E+04  0.29007698562E+04  0.50400001928E-02 0. -1.
    10030    2    1    2    0    0  0.00000000000E+00  0.00000000000E+00 -0.15883710142E+04  0.42131686982E+04  0.39022900969E+04 0.  0.
        5    1    3    3  502    0  0.73621046888E+03 -0.39769560250E+03 -0.26972099049E+04  0.28240274446E+04  0.46999998093E+01 0. -1.
       -5    1    3    3    0  502 -0.73621046888E+03  0.39769560250E+03  0.11088388907E+04  0.13891412535E+04  0.46999998093E+01 0.  1.
</event>
<event>
 5   0  0.1501585E-07  0.3913653E+04  0.7818609E-02  0.8022196E-01
        2   -1    0    0  501    0  0.00000000000E+00  0.00000000000E+00  0.21795511232E+04  0.21795511232E+04  0.25500000920E-02 0. -1.
       -2   -1    0    0    0  501  0.00000000000E+00  0.00000000000E+00 -0.17568615129E+04  0.17568615129E+04  0.25500000920E-02 0.  1.
    10030    2    1    2    0    0  0.00000000000E+00  0.00000000000E+00  0.42268961030E+03  0.39364126361E+04  0.39136527612E+04 0.  0.
        5    1    3    3  502    0  0.11511508749E+04  0.86089883362E+03 -0.11241010508E+04  0.18248069490E+04  0.46999998093E+01 0.  1.
       -5    1    3    3    0  502 -0.11511508749E+04 -0.86089883362E+03  0.15467906611E+04  0.21116056871E+04  0.46999998093E+01 0. -1.
</event>
<event>
 5   0  0.4750125E-08  0.3794422E+04  0.7818609E-02  0.8047353E-01
       -1   -1    0    0    0  501  0.00000000000E+00  0.00000000000E+00  0.18498509762E+04  0.18498509762E+04  0.50400001928E-02 0.  1.
        1   -1    0    0  501    0  0.00000000000E+00  0.00000000000E+00 -0.19457832541E+04  0.19457832541E+04  0.50400001928E-02 0. -1.
    10030    2    1    2    0    0  0.00000000000E+00  0.00000000000E+00 -0.95932277887E+02  0.37956342303E+04  0.37944217225E+04 0.  0.
        1    1    3    3  502    0  0.14163631957E+04  0.20237153350E+03  0.11983734580E+04  0.18663166624E+04  0.50400001928E-02 0. -1.
       -1    1    3    3    0  502 -0.14163631957E+04 -0.20237153350E+03 -0.12943057358E+04  0.19293175678E+04  0.50400001928E-02 0.  1.
</event>
<event>
 5   0  0.4750125E-08  0.3907057E+04  0.7818609E-02  0.8023563E-01
        1   -1    0    0  501    0  0.00000000000E+00  0.00000000000E+00  0.14196104794E+04  0.14196104794E+04  0.50400001928E-02 0. -1.
       -1   -1    0    0    0  501  0.00000000000E+00  0.00000000000E+00 -0.26882540822E+04  0.26882540822E+04  0.50400001928E-02 0.  1.
    10030    2    1    2    0    0  0.00000000000E+00  0.00000000000E+00 -0.12686436028E+04  0.41078645617E+04  0.39070570339E+04 0.  0.
        4    1    3    3  502    0  0.18082060151E+03 -0.13537861567E+04 -0.21028323839E+04  0.25074566189E+04  0.12699999809E+01 0.  1.
       -4    1    3    3    0  502 -0.18082060151E+03  0.13537861567E+04  0.83418878107E+03  0.16004079428E+04  0.12699999809E+01 0. -1.
</event>
<event>
 5   0  0.4750125E-08  0.3890166E+04  0.7818609E-02  0.8027078E-01
       -1   -1    0    0    0  501  0.00000000000E+00  0.00000000000E+00  0.15058619069E+04  0.15058619069E+04  0.50400001928E-02 0. -1.
        1   -1    0    0  501    0  0.00000000000E+00  0.00000000000E+00 -0.25124140384E+04  0.25124140384E+04  0.50400001928E-02 0.  1.
    10030    2    1    2    0    0  0.00000000000E+00  0.00000000000E+00 -0.10065521315E+04  0.40182759453E+04  0.38901663691E+04 0.  0.
        5    1    3    3  502    0  0.42969214491E+02  0.15270958118E+04  0.74030608572E+03  0.16976286880E+04  0.46999998093E+01 0. -1.
       -5    1    3    3    0  502 -0.42969214491E+02 -0.15270958118E+04 -0.17468582173E+04  0.23206472573E+04  0.46999998093E+01 0.  1.
</event>
<event>
 5   0  0.4750125E-08  0.3908005E+04  0.7818609E-02  0.8023366E-01
       -1   -1    0    0    0  501  0.00000000000E+00  0.00000000000E+00  0.15154602132E+04  0.15154602132E+04  0.50400001928E-02 0. -1.
        1   -1    0    0  501    0  0.00000000000E+00  0.00000000000E+00 -0.25194493574E+04  0.25194493574E+04  0.50400001928E-02 0.  1.
    10030    2    1    2    0    0  0.00000000000E+00  0.00000000000E+00 -0.10039891442E+04  0.40349095706E+04  0.39080047392E+04 0.  0.
        4    1    3    3  502    0  0.22984941243E+03 -0.33642654625E+03  0.14711125013E+04  0.15264950631E+04  0.12699999809E+01 0. -1.
       -4    1    3    3    0  502 -0.22984941243E+03  0.33642654625E+03 -0.24751016455E+04  0.25084145075E+04  0.12699999809E+01 0.  1.
</event>
<event>
 5   0  0.4750125E-08  0.3937962E+04  0.7818609E-02  0.8017180E-01
        1   -1    0    0  501    0  0.00000000000E+00  0.00000000000E+00  0.22093819557E+04  0.22093819557E+04  0.50400001928E-02 0.  1.
       -1   -1    0    0    0  501  0.00000000000E+00  0.00000000000E+00 -0.17547378939E+04  0.17547378939E+04  0.50400001928E-02 0. -1.
    10030    2    1    2    0    0  0.00000000000E+00  0.00000000000E+00  0.45464406184E+03  0.39641198497E+04  0.39379620312E+04 0.  0.
        4    1    3    3  502    0  0.91412172686E+03 -0.14454524589E+04  0.12094735845E+04  0.20947026775E+04  0.12699999809E+01 0.  1.
       -4    1    3    3    0  502 -0.91412172686E+03  0.14454524589E+04 -0.75482952269E+03  0.18694171722E+04  0.12699999809E+01 0. -1.
</event>
<event>
 5   0  0.4750125E-08  0.3829176E+04  0.7818609E-02  0.8039923E-01
       -1   -1    0    0    0  501  0.00000000000E+00  0.00000000000E+00  0.19739042079E+04  0.19739042079E+04  0.50400001928E-02 0. -1.
        1   -1    0    0  501    0  0.00000000000E+00  0.00000000000E+00 -0.18570543320E+04  0.18570543320E+04  0.50400001928E-02 0.  1.
    10030    2    1    2    0    0  0.00000000000E+00  0.00000000000E+00  0.11684987593E+03  0.38309585398E+04  0.38291760785E+04 0.  0.
        4    1    3    3  502    0  0.14460230419E+04 -0.87538005371E+03 -0.84108917132E+03  0.18880427652E+04  0.12699999809E+01 0.  1.
       -4    1    3    3    0  502 -0.14460230419E+04  0.87538005371E+03  0.95793904725E+03  0.19429157746E+04  0.12699999809E+01 0. -1.
</event>
<event>
 5   0  0.4750125E-08  0.3908609E+04  0.7818609E-02  0.8023241E-01
        1   -1    0    0  501    0  0.00000000000E+00  0.00000000000E+00  0.28950128350E+04  0.28950128350E+04  0.50400001928E-02 0.  1.
       -1   -1    0    0    0  501  0.00000000000E+00  0.00000000000E+00 -0.13192709314E+04  0.13192709314E+04  0.50400001928E-02 0. -1.
    10030    2    1    2    0    0  0.00000000000E+00  0.00000000000E+00  0.15757419035E+04  0.42142837664E+04  0.39086091026E+04 0.  0.
        3    1    3    3  502    0 -0.17334327514E+04 -0.89259978762E+03  0.64408997846E+03  0.20533814539E+04  0.10100000352E+00 0. -1.
       -3    1    3    3    0  502  0.17334327514E+04  0.89259978762E+03  0.93165192507E+03  0.21609023125E+04  0.10100000352E+00 0.  1.
</event>
<event>
 5   0  0.1546846E-07  0.3890997E+04  0.7818609E-02  0.8026904E-01
        2   -1    0    0  501    0  0.00000000000E+00  0.00000000000E+00  0.19930146274E+04  0.19930146274E+04  0.25500000920E-02 0.  1.
       -2   -1    0    0    0  501  0.00000000000E+00  0.00000000000E+00 -0.18991153758E+04  0.18991153758E+04  0.25500000920E-02 0. -1.
    10030    2    1    2    0    0  0.00000000000E+00  0.00000000000E+00  0.93899251605E+02  0.38921300033E+04  0.38909971592E+04 0.  0.
        2    1    3    3  502    0  0.13007680900E+04 -0.10748606053E+04  0.10155505949E+04  0.19694329020E+04  0.25500000920E-02 0.  1.
       -2    1    3    3    0  502 -0.13007680900E+04  0.10748606053E+04 -0.92165134328E+03  0.19226971013E+04  0.25500000920E-02 0. -1.
</event>
<event>
 5   0  0.4750125E-08  0.3901859E+04  0.7818609E-02  0.8024643E-01
        1   -1    0    0  501    0  0.00000000000E+00  0.00000000000E+00  0.21855417455E+04  0.21855417455E+04  0.50400001928E-02 0. -1.
       -1   -1    0    0    0  501  0.00000000000E+00  0.00000000000E+00 -0.17415019316E+04  0.17415019316E+04  0.50400001928E-02 0.  1.
    10030    2    1    2    0    0  0.00000000000E+00  0.00000000000E+00  0.44403981387E+03  0.39270436771E+04  0.39018586193E+04 0.  0.
        3    1    3    3  502    0 -0.14862893238E+04 -0.48006475299E+03  0.13985851895E+04  0.20965587671E+04  0.10100000352E+00 0. -1.
       -3    1    3    3    0  502  0.14862893238E+04  0.48006475299E+03 -0.95454537567E+03  0.18304849100E+04  0.10100000352E+00 0.  1.
</event>
<event>
 5   0  0.4750125E-08  0.3901792E+04  0.7818609E-02  0.8024657E-01
       -1   -1    0    0    0  501  0.00000000000E+00  0.00000000000E+00  0.17597565845E+04  0.17597565845E+04  0.50400001928E-02 0.  1.
        1   -1    0    0  501    0  0.00000000000E+00  0.00000000000E+00 -0.21627961806E+04  0.21627961806E+04  0.50400001928E-02 0. -1.
    10030    2    1    2    0    0  0.00000000000E+00  0.00000000000E+00 -0.40303959608E+03  0.39225527651E+04  0.39017918036E+04 0.  0.
        1    1    3    3  502    0 -0.33910834567E+03 -0.18501487736E+04 -0.72191283115E+03  0.20147464084E+04  0.50400001928E-02 0. -1.
       -1    1    3    3    0  502  0.33910834567E+03  0.18501487736E+04  0.31887323507E+03  0.19078063566E+04  0.50400001928E-02 0.  1.
</event>
<event>
 5   0  0.1501585E-07  0.3891625E+04  0.7818609E-02  0.8026773E-01
        2   -1    0    0  501    0  0.00000000000E+00  0.00000000000E+00  0.28650668549E+04  0.28650668549E+04  0.25500000920E-02 0.  1.
       -2   -1    0    0    0  501  0.00000000000E+00  0.00000000000E+00 -0.13215002910E+04  0.13215002910E+04  0.25500000920E-02 0. -1.
    10030    2    1    2    0    0  0.00000000000E+00  0.00000000000E+00  0.15435665639E+04  0.41865671459E+04  0.38916252042E+04 0.  0.
        5    1    3    3  502    0 -0.17481543794E+04 -0.85339663774E+03  0.72569935890E+03  0.20762926588E+04  0.46999998093E+01 0. -1.
       -5    1    3    3    0  502  0.17481543794E+04  0.85339663774E+03  0.81786720500E+03  0.21102744870E+04  0.46999998093E+01 0.  1.
</event>
<event>
 5   0  0.4762788E-08  0.3918914E+04  0.7818609E-02  0.8021107E-01
        1   -1    0    0  501    0  0.00000000000E+00  0.00000000000E+00  0.19200520016E+04  0.19200520016E+04  0.50400001928E-02 0. -1.
       -1   -1    0    0    0  501  0.00000000000E+00  0.00000000000E+00 -0.19996708666E+04  0.19996708666E+04  0.50400001928E-02 0.  1.
    10030    2    1    2    0    0  0.00000000000E+00  0.00000000000E+00 -0.79618864990E+02  0.39197228682E+04  0.39189141608E+04 0.  0.
        2    1    3    3  502    0 -0.26668962338E+03  0.19399861266E+04  0.29505108576E+02  0.19584534914E+04  0.25500000920E-02 0.  1.
       -2    1    3    3    0  502  0.26668962338E+03 -0.19399861266E+04 -0.10912397357E+03  0.19612693768E+04  0.25500000920E-02 0. -1.
</event>
<event>
 5   0  0.4750125E-08  0.3910446E+04  0.7818609E-02  0.8022860E-01
       -1   -1    0    0    0  501  0.00000000000E+00  0.00000000000E+00  0.16267876790E+04  0.16267876790E+04  0.50400001928E-02 0. -1.
        1   -1    0    0  501    0  0.00000000000E+00  0.00000000000E+00 -0.23499667144E+04  0.23499667144E+04  0.50400001928E-02 0.  1.
    10030    2    1    2    0    0  0.00000000000E+00  0.00000000000E+00 -0.72317903544E+03  0.39767543935E+04  0.39104459578E+04 0.  0.
        5    1    3    3  502    0 -0.18361460222E+04 -0.66036814540E+03 -0.23556684984E+03  0.19654597765E+04  0.46999998093E+01 0. -1.
       -5    1    3    3    0  502  0.18361460222E+04  0.66036814540E+03 -0.48761218560E+03  0.20112946169E+04  0.46999998093E+01 0.  1.
</event>
<event>
 5   0  0.4750125E-08  0.3934691E+04  0.7818609E-02  0.8017853E-01
       -1   -1    0    0    0  501  0.00000000000E+00  0.00000000000E+00  0.21739603345E+04  0.21739603345E+04  0.50400001928E-02 0.  1.
        1   -1    0    0  501    0  0.00000000000E+00  0.00000000000E+00 -0.17803677629E+04  0.17803677629E+04  0.50400001928E-02 0. -1.
    10030    2    1    2    0    0  0.00000000000E+00  0.00000000000E+00  0.39359257156E+03  0.39543280974E+04  0.39346912954E+04 0.  0.
        4    1    3    3  502    0  0.97349165487E+03 -0.30732971488E+03  0.18869473368E+04  0.21453926029E+04  0.12699999809E+01 0.  1.
       -4    1    3    3    0  502 -0.97349165487E+03  0.30732971488E+03 -0.14933547652E+04  0.18089354946E+04  0.12699999809E+01 0. -1.
</event>
<event>
 5   0  0.4750125E-08  0.3749062E+04  0.7818609E-02  0.8057175E-01
        1   -1    0    0  501    0  0.00000000000E+00  0.00000000000E+00  0.17337744150E+04  0.17337744150E+04  0.50400001928E-02 0.  1.
       -1   -1    0    0    0  501  0.00000000000E+00  0.00000000000E+00 -0.20267144611E+04  0.20267144611E+04  0.50400001928E-02 0. -1.
    10030    2    1    2    0    0  0.00000000000E+00  0.00000000000E+00 -0.29294004611E+03  0.37604888761E+04  0.37490615781E+04 0.  0.
        4    1    3    3  502    0  0.13264680786E+04 -0.25348276080E+02  0.11818413064E+04  0.17767697051E+04  0.12699999809E+01 0.  1.
       -4    1    3    3    0  502 -0.13264680786E+04  0.25348276080E+02 -0.14747813525E+04  0.19837191710E+04  0.12699999809E+01 0. -1.
</event>
<event>
 5   0  0.1520986E-07  0.3890680E+04  0.7818609E-02  0.8026970E-01
        2   -1    0    0  501    0  0.00000000000E+00  0.00000000000E+00  0.17354815774E+04  0.17354815774E+04  0.25500000920E-02 0. -1.
       -2   -1    0    0    0  501  0.00000000000E+00  0.00000000000E+00 -0.21805750090E+04  0.21805750090E+04  0.25500000920E-02 0.  1.
    10030    2    1    2    0    0  0.00000000000E+00  0.00000000000E+00 -0.44509343158E+03  0.39160565864E+04  0.38906800209E+04 0.  0.
        4    1    3    3  502    0  0.10168297702E+04  0.10046977767E+04 -0.15506169734E+04  0.21089748731E+04  0.12699999809E+01 0.  1.
       -4    1    3    3    0  502 -0.10168297702E+04 -0.10046977767E+04  0.11055235418E+04  0.18070817133E+04  0.12699999809E+01 0. -1.
</event>
<event>
 5   0  0.4750125E-08  0.3909098E+04  0.7818609E-02  0.8023140E-01
        1   -1    0    0  501    0  0.00000000000E+00  0.00000000000E+00  0.20337190250E+04  0.20337190250E+04  0.50400001928E-02 0. -1.
       -1   -1    0    0    0  501  0.00000000000E+00  0.00000000000E+00 -0.18784609300E+04  0.18784609300E+04  0.50400001928E-02 0.  1.
    10030    2    1    2    0    0  0.00000000000E+00  0.00000000000E+00  0.15525809501E+03  0.39121799549E+04  0.39090979680E+04 0.  0.
        3    1    3    3  502    0  0.50532165020E+03  0.15174918112E+04 -0.10467024428E+04  0.19114699530E+04  0.10100000352E+00 0.  1.
       -3    1    3    3    0  502 -0.50532165020E+03 -0.15174918112E+04  0.12019605378E+04  0.20007100019E+04  0.10100000352E+00 0. -1.
</event>
<event>
 5   0  0.1546846E-07  0.3921301E+04  0.7818609E-02  0.8020613E-01
       -2   -1    0    0    0  501  0.00000000000E+00  0.00000000000E+00  0.20668405903E+04  0.20668405903E+04  0.25500000920E-02 0.  1.
        2   -1    0    0  501    0  0.00000000000E+00  0.00000000000E+00 -0.18599164159E+04  0.18599164159E+04  0.25500000920E-02 0. -1.
    10030    2    1    2    0    0  0.00000000000E+00  0.00000000000E+00  0.20692417441E+03  0.39267570061E+04  0.39213011834E+04 0.  0.
        2    1    3    3  502    0  0.80625479797E+02 -0.18807849095E+04 -0.44529524381E+03  0.19344612165E+04  0.25500000920E-02 0. -1.
       -2    1    3    3    0  502 -0.80625479797E+02  0.18807849095E+04  0.65221941823E+03  0.19922957897E+04  0.25500000920E-02 0.  1.
</event>
<event>
 5   0  0.1501585E-07  0.3908796E+04  0.7818609E-02  0.8023202E-01
        2   -1    0    0  501    0  0.00000000000E+00  0.00000000000E+00  0.20810084228E+04  0.20810084228E+04  0.25500000920E-02 0. -1.
       -2   -1    0    0    0  501  0.00000000000E+00  0.00000000000E+00 -0.18354909818E+04  0.18354909818E+04  0.25500000920E-02 0.  1.
    10030    2    1    2    0    0  0.00000000000E+00  0.00000000000E+00  0.24551744099E+03  0.39164994045E+04  0.39087963329E+04 0.  0.
        5    1    3    3  502    0 -0.10323338440E+04 -0.81645410734E+03 -0.13248513037E+04  0.18675019523E+04  0.46999998093E+01 0.  1.
       -5    1    3    3    0  502  0.10323338440E+04  0.81645410734E+03  0.15703687447E+04  0.20489974522E+04  0.46999998093E+01 0. -1.
</event>
<event>
 5   0  0.1503228E-07  0.3541908E+04  0.7818609E-02  0.8103930E-01
       -2   -1    0    0    0  501  0.00000000000E+00  0.00000000000E+00  0.16609064237E+04  0.16609064237E+04  0.25500000920E-02 0.  1.
        2   -1    0    0  501    0  0.00000000000E+00  0.00000000000E+00 -0.18882927627E+04  0.18882927627E+04  0.25500000920E-02 0. -1.
    10030    2    1    2    0    0  0.00000000000E+00  0.00000000000E+00 -0.22738633909E+03  0.35491991864E+04  0.35419077229E+04 0.  0.
        3    1    3    3  502    0  0.44822245822E+03  0.19938507516E+03 -0.18188483112E+04  0.18838436691E+04  0.10100000352E+00 0. -1.
       -3    1    3    3    0  502 -0.44822245822E+03 -0.19938507516E+03  0.15914619721E+04  0.16653555173E+04  0.10100000352E+00 0.  1.
</event>
<event>
 5   0  0.4762788E-08  0.3439050E+04  0.7818609E-02  0.8128388E-01
       -1   -1    0    0    0  501  0.00000000000E+00  0.00000000000E+00  0.13829862068E+04  0.13829862068E+04  0.50400001928E-02 0. -1.
        1   -1    0    0  501    0  0.00000000000E+00  0.00000000000E+00 -0.21379583266E+04  0.21379583266E+04  0.50400001928E-02 0.  1.
    10030    2    1    2    0    0  0.00000000000E+00  0.00000000000E+00 -0.75497211985E+03  0.35209445334E+04  0.34390503785E+04 0.  0.
        2    1    3    3  502    0  0.15905129201E+03  0.14993097741E+03 -0.21236771972E+04  0.21348961215E+04  0.25500000920E-02 0.  1.
       -2    1    3    3    0  502 -0.15905129201E+03 -0.14993097741E+03  0.13687050774E+04  0.13860484120E+04  0.25500000920E-02 0. -1.
</event>
<event>
 5   0  0.1503228E-07  0.3863372E+04  0.7818609E-02  0.8032690E-01
       -2   -1    0    0    0  501  0.00000000000E+00  0.00000000000E+00  0.17991538455E+04  0.17991538455E+04  0.25500000920E-02 0.  1.
        2   -1    0    0  501    0  0.00000000000E+00  0.00000000000E+00 -0.20739811510E+04  0.20739811510E+04  0.25500000920E-02 0. -1.
    10030    2    1    2    0    0  0.00000000000E+00  0.00000000000E+00 -0.27482730550E+03  0.38731349965E+04  0.38633721867E+04 0.  0.
        3    1    3    3  502    0 -0.98814048796E+03 -0.10896904342E+04 -0.13926016156E+04  0.20256322807E+04  0.10100000352E+00 0. -1.
       -3    1    3    3    0  502  0.98814048796E+03  0.10896904342E+04  0.11177743101E+04  0.18475027158E+04  0.10100000352E+00 0.  1.
</event>
<event>
 5   0  0.4750125E-08  0.3826186E+04  0.7818609E-02  0.8040559E-01
        1   -1    0    0  501    0  0.00000000000E+00  0.00000000000E+00  0.25703059550E+04  0.25703059550E+04  0.50400001928E-02 0. -1.
       -1   -1    0    0    0  501  0.00000000000E+00  0.00000000000E+00 -0.14239256309E+04  0.14239256309E+04  0.50400001928E-02 0.  1.
    10030    2    1    2    0    0  0.00000000000E+00  0.00000000000E+00  0.11463803241E+04  0.39942315859E+04  0.38261858442E+04 0.  0.
        5    1    3    3  502    0 -0.90740735757E+03 -0.10600101129E+04 -0.79306647282E+03  0.16049878729E+04  0.46999998093E+01 0.  1.
       -5    1    3    3    0  502  0.90740735757E+03  0.10600101129E+04  0.19394467970E+04  0.23892437130E+04  0.46999998093E+01 0. -1.
</event>
<event>
 5   0  0.4750125E-08  0.3849224E+04  0.7818609E-02  0.8035673E-01
        1   -1    0    0  501    0  0.00000000000E+00  0.00000000000E+00  0.20906383214E+04  0.20906383214E+04  0.50400001928E-02 0.  1.
       -1   -1    0    0    0  501  0.00000000000E+00  0.00000000000E+00 -0.17717701357E+04  0.17717701357E+04  0.50400001928E-02 0. -1.
    10030    2    1    2    0    0  0.00000000000E+00  0.00000000000E+00  0.31886818569E+03  0.38624084572E+04  0.38492235802E+04 0.  0.
        3    1    3    3  502    0 -0.13382612688E+04  0.55199042253E+03 -0.11131742572E+04  0.18261417216E+04  0.10100000352E+00 0. -1.
       -3    1    3    3    0  502  0.13382612688E+04 -0.55199042253E+03  0.14320424429E+04  0.20362667356E+04  0.10100000352E+00 0.  1.
</event>
<event>
 5   0  0.4750125E-08  0.3904543E+04  0.7818609E-02  0.8024085E-01
        1   -1    0    0  501    0  0.00000000000E+00  0.00000000000E+00  0.25200328274E+04  0.25200328275E+04  0.50400001928E-02 0.  1.
       -1   -1    0    0    0  501  0.00000000000E+00  0.00000000000E+00 -0.15124263178E+04  0.15124263178E+04  0.50400001928E-02 0. -1.
    10030    2    1    2    0    0  0.00000000000E+00  0.00000000000E+00  0.10076065097E+04  0.40324591452E+04  0.39045429796E+04 0.  0.
        1    1    3    3  502    0 -0.50759239011E+03 -0.57106460326E+03 -0.13516053432E+04  0.15526112905E+04  0.50400001928E-02 0. -1.
       -1    1    3    3    0  502  0.50759239011E+03  0.57106460326E+03  0.23592118529E+04  0.24798478547E+04  0.50400001928E-02 0.  1.
</event>
<event>
 5   0  0.1520986E-07  0.3900029E+04  0.7818609E-02  0.8025023E-01
        2   -1    0    0  501    0  0.00000000000E+00  0.00000000000E+00  0.13132188475E+04  0.13132188475E+04  0.25500000920E-02 0. -1.
       -2   -1    0    0    0  501  0.00000000000E+00  0.00000000000E+00 -0.28955993660E+04  0.28955993660E+04  0.25500000920E-02 0.  1.
    10030    2    1    2    0    0  0.00000000000E+00  0.00000000000E+00 -0.15823805185E+04  0.42088182135E+04  0.39000285446E+04 0.  0.
        4    1    3    3  502    0  0.64267275752E+03  0.77908572745E+03 -0.25913621046E+04  0.27812159236E+04  0.12699999809E+01 0.  1.
       -4    1    3    3    0  502 -0.64267275752E+03 -0.77908572745E+03  0.10089815860E+04  0.14276022898E+04  0.12699999809E+01 0. -1.
</event>
<event>
 5   0  0.4750125E-08  0.3913587E+04  0.7818609E-02  0.8022209E-01
        1   -1    0    0  501    0  0.00000000000E+00  0.00000000000E+00  0.26172567216E+04  0.26172567216E+04  0.50400001928E-02 0.  1.
       -1   -1    0    0    0  501  0.00000000000E+00  0.00000000000E+00 -0.14629974468E+04  0.14629974468E+04  0.50400001928E-02 0. -1.
    10030    2    1    2    0    0  0.00000000000E+00  0.00000000000E+00  0.11542592749E+04  0.40802541684E+04  0.39135865399E+04 0.  0.
        1    1    3    3  502    0 -0.15266279533E+02  0.15320123114E+04 -0.69197966725E+03  0.16811099433E+04  0.50400001928E-02 0. -1.
       -1    1    3    3    0  502  0.15266279533E+02 -0.15320123114E+04  0.18462389421E+04  0.23991442251E+04  0.50400001928E-02 0.  1.
</event>
<event>
 5   0  0.1501585E-07  0.3921180E+04  0.7818609E-02  0.8020639E-01
       -2   -1    0    0    0  501  0.00000000000E+00  0.00000000000E+00  0.21431741227E+04  0.21431741227E+04  0.25500000920E-02 0.  1.
        2   -1    0    0  501    0  0.00000000000E+00  0.00000000000E+00 -0.17935607411E+04  0.17935607411E+04  0.25500000920E-02 0. -1.
    10030    2    1    2    0    0  0.00000000000E+00  0.00000000000E+00  0.34961338167E+03  0.39367348638E+04  0.39211799080E+04 0.  0.
        5    1    3    3  502    0 -0.44407236440E+03 -0.50687645531E+03  0.20232422439E+04  0.21325232176E+04  0.46999998093E+01 0.  1.
       -5    1    3    3    0  502  0.44407236440E+03  0.50687645531E+03 -0.16736288623E+04  0.18042116462E+04  0.46999998093E+01 0. -1.
</event>
<event>
 5   0  0.4750125E-08  0.3908244E+04  0.7818609E-02  0.8023317E-01
        1   -1    0    0  501    0  0.00000000000E+00  0.00000000000E+00  0.28882762020E+04  0.28882762020E+04  0.50400001928E-02 0. -1.
       -1   -1    0    0    0  501  0.00000000000E+00  0.00000000000E+00 -0.13221009707E+04  0.13221009707E+04  0.50400001928E-02 0.  1.
    10030    2    1    2    0    0  0.00000000000E+00  0.00000000000E+00  0.15661752313E+04  0.42103771727E+04  0.39082439895E+04 0.  0.
        5    1    3    3  502    0 -0.17244551356E+04 -0.15589647256E+03 -0.19276516638E+03  0.17421910700E+04  0.46999998093E+01 0.  1.
       -5    1    3    3    0  502  0.17244551356E+04  0.15589647256E+03  0.17589403977E+04  0.24681861027E+04  0.46999998093E+01 0. -1.
</event>
<event>
 5   0  0.1546846E-07  0.3879208E+04  0.7818609E-02  0.8029368E-01
        2   -1    0    0  501    0  0.00000000000E+00  0.00000000000E+00  0.15780929269E+04  0.15780929269E+04  0.25500000920E-02 0. -1.
       -2   -1    0    0    0  501  0.00000000000E+00  0.00000000000E+00 -0.23839298575E+04  0.23839298575E+04  0.25500000920E-02 0.  1.
    10030    2    1    2    0    0  0.00000000000E+00  0.00000000000E+00 -0.80583693063E+03  0.39620227844E+04  0.38792075719E+04 0.  0.
        2    1    3    3  502    0 -0.16589331013E+04 -0.46494580760E+03 -0.13129102822E+04  0.21660948843E+04  0.25500000920E-02 0. -1.
       -2    1    3    3    0  502  0.16589331013E+04  0.46494580760E+03  0.50707335155E+03  0.17959279001E+04  0.25500000920E-02 0.  1.
</event>
<event>
 5   0  0.1520986E-07  0.3845778E+04  0.7818609E-02  0.8036402E-01
        2   -1    0    0  501    0  0.00000000000E+00  0.00000000000E+00  0.17506561402E+04  0.17506561402E+04  0.25500000920E-02 0.  1.
       -2   -1    0    0    0  501  0.00000000000E+00  0.00000000000E+00 -0.21120668084E+04  0.21120668084E+04  0.25500000920E-02 0. -1.
    10030    2    1    2    0    0  0.00000000000E+00  0.00000000000E+00 -0.36141066814E+03  0.38627229486E+04  0.38457783226E+04 0.  0.
        4    1    3    3  502    0  0.93918710626E+03 -0.37080934371E+03 -0.18243534712E+04  0.20851472827E+04  0.12699999809E+01 0.  1.
       -4    1    3    3    0  502 -0.93918710626E+03  0.37080934371E+03  0.14629428031E+04  0.17775756659E+04  0.12699999809E+01 0. -1.
</event>
<event>
 5   0  0.1546846E-07  0.3899640E+04  0.7818609E-02  0.8025104E-01
        2   -1    0    0  501    0  0.00000000000E+00  0.00000000000E+00  0.20538098631E+04  0.20538098631E+04  0.25500000920E-02 0. -1.
       -2   -1    0    0    0  501  0.00000000000E+00  0.00000000000E+00 -0.18510955330E+04  0.18510955330E+04  0.25500000920E-02 0.  1.
    10030    2    1    2    0    0  0.00000000000E+00  0.00000000000E+00  0.20271433008E+03  0.39049053961E+04  0.38996401183E+04 0.  0.
        2    1    3    3  502    0  0.18791408895E+04  0.51651098992E+03  0.16344231181E+03  0.19556757080E+04  0.25500000920E-02 0.  1.
       -2    1    3    3    0  502 -0.18791408895E+04 -0.51651098992E+03  0.39272018274E+02  0.19492296881E+04  0.25500000920E-02 0. -1.
</event>
<event>
 5   0  0.4750125E-08  0.3838748E+04  0.7818609E-02  0.8037890E-01
        1   -1    0    0  501    0  0.00000000000E+00  0.00000000000E+00  0.22843342776E+04  0.22843342776E+04  0.50400001928E-02 0.  1.
       -1   -1    0    0    0  501  0.00000000000E+00  0.00000000000E+00 -0.16127222454E+04  0.16127222454E+04  0.50400001928E-02 0. -1.
    10030    2    1    2    0    0  0.00000000000E+00  0.00000000000E+00  0.67161203215E+03  0.38970565230E+04  0.38387480800E+04 0.  0.
        4    1    3    3  502    0 -0.13385803033E+04  0.13430987696E+04  0.63744468075E+03  0.20005121512E+04  0.12699999809E+01 0. -1.
       -4    1    3    3    0  502  0.13385803033E+04 -0.13430987696E+04  0.34167351398E+02  0.18965443718E+04  0.12699999809E+01 0.  1.
</event>
<event>
 5   0  0.1501585E-07  0.3889669E+04  0.7818609E-02  0.8027181E-01
        2   -1    0    0  501    0  0.00000000000E+00  0.00000000000E+00  0.23521372066E+04  0.23521372066E+04  0.25500000920E-02 0.  1.
       -2   -1    0    0    0  501  0.00000000000E+00  0.00000000000E+00 -0.16080611487E+04  0.16080611487E+04  0.25500000920E-02 0. -1.
    10030    2    1    2    0    0  0.00000000000E+00  0.00000000000E+00  0.74407605790E+03  0.39601983553E+04  0.38896686020E+04 0.  0.
        5    1    3    3  502    0 -0.59830102609E+03  0.44588337485E+03  0.22005945931E+04  0.23236640797E+04  0.46999998093E+01 0.  1.
       -5    1    3    3    0  502  0.59830102609E+03 -0.44588337485E+03 -0.14565185352E+04  0.16365342756E+04  0.46999998093E+01 0. -1.
</event>
<event>
 5   0  0.4762788E-08  0.3925536E+04  0.7818609E-02  0.8019739E-01
       -1   -1    0    0    0  501  0.00000000000E+00  0.00000000000E+00  0.12123710322E+04  0.12123710322E+04  0.50400001928E-02 0.  1.
        1   -1    0    0  501    0  0.00000000000E+00  0.00000000000E+00 -0.31776227743E+04  0.31776227743E+04  0.50400001928E-02 0. -1.
    10030    2    1    2    0    0  0.00000000000E+00  0.00000000000E+00 -0.19652517422E+04  0.43899938066E+04  0.39255357866E+04 0.  0.
        2    1    3    3  502    0 -0.18542814241E+04 -0.30654255466E+03 -0.16153699105E+04  0.24782550081E+04  0.25500000920E-02 0. -1.
       -2    1    3    3    0  502  0.18542814241E+04  0.30654255466E+03 -0.34988183168E+03  0.19117387985E+04  0.25500000920E-02 0.  1.
</event>
<event>
 5   0  0.4750125E-08  0.3899409E+04  0.7818609E-02  0.8025152E-01
       -1   -1    0    0    0  501  0.00000000000E+00  0.00000000000E+00  0.23211386361E+04  0.23211386361E+04  0.50400001928E-02 0.  1.
        1   -1    0    0  501    0  0.00000000000E+00  0.00000000000E+00 -0.16377078945E+04  0.16377078945E+04  0.50400001928E-02 0. -1.
    10030    2    1    2    0    0  0.00000000000E+00  0.00000000000E+00  0.68343074162E+03  0.39588465306E+04  0.38994087082E+04 0.  0.
        1    1    3    3  502    0  0.24196444379E+03  0.13768737638E+04 -0.10380510787E+04  0.17412289325E+04  0.50400001928E-02 0. -1.
       -1    1    3    3    0  502 -0.24196444379E+03 -0.13768737638E+04  0.17214818203E+04  0.22176175980E+04  0.50400001928E-02 0.  1.
</event>
<event>
 5   0  0.4750125E-08  0.3887737E+04  0.7818609E-02  0.8027585E-01
        1   -1    0    0  501    0  0.00000000000E+00  0.00000000000E+00  0.12210791083E+04  0.12210791083E+04  0.50400001928E-02 0.  1.
       -1   -1    0    0    0  501  0.00000000000E+00  0.00000000000E+00 -0.30944955862E+04  0.30944955862E+04  0.50400001928E-02 0. -1.
    10030    2    1    2    0    0  0.00000000000E+00  0.00000000000E+00 -0.18734164779E+04  0.43155746945E+04  0.38877365708E+04 0.  0.
        5    1    3    3  502    0  0.86956763941E+03  0.13814441415E+04  0.23494007803E+03  0.16491678889E+04  0.46999998093E+01 0.  1.
       -5    1    3    3    0  502 -0.86956763941E+03 -0.13814441415E+04 -0.21083565560E+04  0.26664068055E+04  0.46999998093E+01 0. -1.
</event>
<event>
 5   0  0.4750125E-08  0.3936659E+04  0.7818609E-02  0.8017448E-01
        1   -1    0    0  501    0  0.00000000000E+00  0.00000000000E+00  0.15726342756E+04  0.15726342756E+04  0.50400001928E-02 0. -1.
       -1   -1    0    0    0  501  0.00000000000E+00  0.00000000000E+00 -0.24635865341E+04  0.24635865341E+04  0.50400001928E-02 0.  1.
    10030    2    1    2    0    0  0.00000000000E+00  0.00000000000E+00 -0.89095225846E+03  0.40362208097E+04  0.39366587987E+04 0.  0.
        4    1    3    3  502    0 -0.53141980563E+02 -0.25664696985E+03  0.15546632837E+04  0.15766011784E+04  0.12699999809E+01 0. -1.
       -4    1    3    3    0  502  0.53141980563E+02  0.25664696985E+03 -0.24456155422E+04  0.24596196312E+04  0.12699999809E+01 0.  1.
</event>
<event>
 5   0  0.1538018E-07  0.3916427E+04  0.7818609E-02  0.8021621E-01
       -2   -1    0    0    0  501  0.00000000000E+00  0.00000000000E+00  0.19518835839E+04  0.19518835839E+04  0.25500000920E-02 0.  1.
        2   -1    0    0  501    0  0.00000000000E+00  0.00000000000E+00 -0.19645637117E+04  0.19645637117E+04  0.25500000920E-02 0. -1.
    10030    2    1    2    0    0  0.00000000000E+00  0.00000000000E+00 -0.12680127767E+02  0.39164472956E+04  0.39164267685E+04 0.  0.
        1    1    3    3  502    0 -0.15571865059E+04 -0.46057618043E+03 -0.11007129348E+04  0.19617668559E+04  0.50400001928E-02 0. -1.
       -1    1    3    3    0  502  0.15571865059E+04  0.46057618043E+03  0.10880328070E+04  0.19546804397E+04  0.50400001928E-02 0.  1.
</event>
<event>
 5   0  0.4750125E-08  0.3751009E+04  0.7818609E-02  0.8056751E-01
        1   -1    0    0  501    0  0.00000000000E+00  0.00000000000E+00  0.23571621142E+04  0.23571621142E+04  0.50400001928E-02 0. -1.
       -1   -1    0    0    0  501  0.00000000000E+00  0.00000000000E+00 -0.14922674545E+04  0.14922674545E+04  0.50400001928E-02 0.  1.
    10030    2    1    2    0    0  0.00000000000E+00  0.00000000000E+00  0.86489465971E+03  0.38494295687E+04  0.37510085619E+04 0.  0.
        1    1    3    3  502    0  0.35573242484E+03 -0.10329601195E+04  0.19969021792E+04  0.22762184605E+04  0.50400001928E-02 0. -1.
       -1    1    3    3    0  502 -0.35573242484E+03  0.10329601195E+04 -0.11320075195E+04  0.15732111082E+04  0.50400001928E-02 0.  1.
</event>
<event>
 5   0  0.1503228E-07  0.3913846E+04  0.7818609E-02  0.8022156E-01
       -2   -1    0    0    0  501  0.00000000000E+00  0.00000000000E+00  0.19547299518E+04  0.19547299518E+04  0.25500000920E-02 0. -1.
        2   -1    0    0  501    0  0.00000000000E+00  0.00000000000E+00 -0.19591189430E+04  0.19591189430E+04  0.25500000920E-02 0.  1.
    10030    2    1    2    0    0  0.00000000000E+00  0.00000000000E+00 -0.43889912252E+01  0.39138488948E+04  0.39138464339E+04 0.  0.
        3    1    3    3  502    0 -0.45047689405E+03 -0.62663935124E+03 -0.18005121052E+04  0.19589410813E+04  0.10100000352E+00 0.  1.
       -3    1    3    3    0  502  0.45047689405E+03  0.62663935124E+03  0.17961231140E+04  0.19549078136E+04  0.10100000352E+00 0. -1.
</event>
<event>
 5   0  0.1538018E-07  0.3882888E+04  0.7818609E-02  0.8028598E-01
       -2   -1    0    0    0  501  0.00000000000E+00  0.00000000000E+00  0.14907441632E+04  0.14907441632E+04  0.25500000920E-02 0.  1.
        2   -1    0    0  501    0  0.00000000000E+00  0.00000000000E+00 -0.25284047811E+04  0.25284047811E+04  0.25500000920E-02 0. -1.
    10030    2    1    2    0    0  0.00000000000E+00  0.00000000000E+00 -0.10376606179E+04  0.40191489443E+04  0.38828879303E+04 0.  0.
        1    1    3    3  502    0  0.11272980072E+04  0.14605608760E+04  0.10666534039E+03  0.18480845122E+04  0.50400001928E-02 0. -1.
       -1    1    3    3    0  502 -0.11272980072E+04 -0.14605608760E+04 -0.11443259583E+04  0.21710644321E+04  0.50400001928E-02 0.  1.
</event>
<event>
 5   0  0.1538018E-07  0.3560965E+04  0.7818609E-02  0.8099492E-01
        2   -1    0    0  501    0  0.00000000000E+00  0.00000000000E+00  0.12540060394E+04  0.12540060394E+04  0.25500000920E-02 0. -1.
       -2   -1    0    0    0  501  0.00000000000E+00  0.00000000000E+00 -0.25279928469E+04  0.25279928469E+04  0.25500000920E-02 0.  1.
    10030    2    1    2    0    0  0.00000000000E+00  0.00000000000E+00 -0.12739868075E+04  0.37819988864E+04  0.35609652049E+04 0.  0.
        1    1    3    3  502    0 -0.90490942161E+03  0.41460814517E+03 -0.22048916976E+04  0.24191544749E+04  0.50400001928E-02 0.  1.
       -1    1    3    3    0  502  0.90490942161E+03 -0.41460814517E+03  0.93090489011E+03  0.13628444114E+04  0.50400001928E-02 0. -1.
</event>
<event>
 5   0  0.1501585E-07  0.3854459E+04  0.7818609E-02  0.8034568E-01
        2   -1    0    0  501    0  0.00000000000E+00  0.00000000000E+00  0.24630982561E+04  0.24630982561E+04  0.25500000920E-02 0.  1.
       -2   -1    0    0    0  501  0.00000000000E+00  0.00000000000E+00 -0.15079436004E+04  0.15079436004E+04  0.25500000920E-02 0. -1.
    10030    2    1    2    0    0  0.00000000000E+00  0.00000000000E+00  0.95515465577E+03  0.39710418565E+04  0.38544588479E+04 0.  0.
        5    1    3    3  502    0 -0.26968003503E+03  0.11966778273E+04 -0.10537949592E+04  0.16171799682E+04  0.46999998093E+01 0. -1.
       -5    1    3    3    0  502  0.26968003503E+03 -0.11966778273E+04  0.20089496150E+04  0.23538618883E+04  0.46999998093E+01 0.  1.
</event>
<event>
 5   0  0.4750125E-08  0.3841668E+04  0.7818609E-02  0.8037272E-01
        1   -1    0    0  501    0  0.00000000000E+00  0.00000000000E+00  0.25236773602E+04  0.25236773602E+04  0.50400001928E-02 0.  1.
       -1   -1    0    0    0  501  0.00000000000E+00  0.00000000000E+00 -0.14619949864E+04  0.14619949864E+04  0.50400001928E-02 0. -1.
    10030    2    1    2    0    0  0.00000000000E+00  0.00000000000E+00  0.10616823738E+04  0.39856723466E+04  0.38416682043E+04 0.  0.
        5    1    3    3  502    0  0.92311685448E+03 -0.30412323067E+03 -0.11880509871E+04  0.15349667438E+04  0.46999998093E+01 0. -1.
       -5    1    3    3    0  502 -0.92311685448E+03  0.30412323067E+03  0.22497333610E+04  0.24507056029E+04  0.46999998093E+01 0.  1.
</event>
<event>
 5   0  0.1503228E-07  0.3887781E+04  0.7818609E-02  0.8027575E-01
        2   -1    0    0  501    0  0.00000000000E+00  0.00000000000E+00  0.24880200004E+04  0.24880200004E+04  0.25500000920E-02 0.  1.
       -2   -1    0    0    0  501  0.00000000000E+00  0.00000000000E+00 -0.15187620063E+04  0.15187620063E+04  0.25500000920E-02 0. -1.
    10030    2    1    2    0    0  0.00000000000E+00  0.00000000000E+00  0.96925799410E+03  0.40067820067E+04  0.38877809853E+04 0.  0.
        3    1    3    3  502    0 -0.40762215143E+03 -0.16231410890E+04 -0.53456326529E+03  0.17568439623E+04  0.10100000352E+00 0. -1.
       -3    1    3    3    0  502  0.40762215143E+03  0.16231410890E+04  0.15038212594E+04  0.22499380444E+04  0.10100000352E+00 0.  1.
</event>
<event>
 5   0  0.4750125E-08  0.3892107E+04  0.7818609E-02  0.8026673E-01
        1   -1    0    0  501    0  0.00000000000E+00  0.00000000000E+00  0.16350439168E+04  0.16350439168E+04  0.50400001928E-02 0.  1.
       -1   -1    0    0    0  501  0.00000000000E+00  0.00000000000E+00 -0.23162215413E+04  0.23162215413E+04  0.50400001928E-02 0. -1.
    10030    2    1    2    0    0  0.00000000000E+00  0.00000000000E+00 -0.68117762454E+03  0.39512654581E+04  0.38921068542E+04 0.  0.
        4    1    3    3  502    0 -0.17030177473E+04  0.86081035534E+03 -0.72830791080E+03  0.20424734861E+04  0.12699999809E+01 0. -1.
       -4    1    3    3    0  502  0.17030177473E+04 -0.86081035534E+03  0.47130286257E+02  0.19087919720E+04  0.12699999809E+01 0.  1.
</event>
<event>
 5   0  0.4750125E-08  0.3799358E+04  0.7818609E-02  0.8046293E-01
        1   -1    0    0  501    0  0.00000000000E+00  0.00000000000E+00  0.20439673903E+04  0.20439673903E+04  0.50400001928E-02 0.  1.
       -1   -1    0    0    0  501  0.00000000000E+00  0.00000000000E+00 -0.17655764290E+04  0.17655764290E+04  0.50400001928E-02 0. -1.
    10030    2    1    2    0    0  0.00000000000E+00  0.00000000000E+00  0.27839096130E+03  0.38095438193E+04  0.37993581805E+04 0.  0.
        1    1    3    3  502    0  0.16728846247E+04  0.30321060000E+03 -0.71060304639E+03  0.18426709758E+04  0.50400001928E-02 0. -1.
       -1    1    3    3    0  502 -0.16728846247E+04 -0.30321060000E+03  0.98899400769E+03  0.19668728435E+04  0.50400001928E-02 0.  1.
</event>
<event>
 5   0  0.4750125E-08  0.3889441E+04  0.7818609E-02  0.8027229E-01
        1   -1    0    0  501    0  0.00000000000E+00  0.00000000000E+00  0.24328625387E+04  0.24328625387E+04  0.50400001928E-02 0.  1.
       -1   -1    0    0    0  501  0.00000000000E+00  0.00000000000E+00 -0.15545220402E+04  0.15545220402E+04  0.50400001928E-02 0. -1.
    10030    2    1    2    0    0  0.00000000000E+00  0.00000000000E+00  0.87834049857E+03  0.39873845789E+04  0.38894413157E+04 0.  0.
        3    1    3    3  502    0  0.77787064215E+03 -0.16207991437E+04 -0.32103220368E+03  0.18262350030E+04  0.10100000352E+00 0.  1.
       -3    1    3    3    0  502 -0.77787064215E+03  0.16207991437E+04  0.11993727023E+04  0.21611495759E+04  0.10100000352E+00 0. -1.
</event>
<event>
 5   0  0.4750125E-08  0.3912480E+04  0.7818609E-02  0.8022439E-01
        1   -1    0    0  501    0  0.00000000000E+00  0.00000000000E+00  0.15295076877E+04  0.15295076877E+04  0.50400001928E-02 0.  1.
       -1   -1    0    0    0  501  0.00000000000E+00  0.00000000000E+00 -0.25020311253E+04  0.25020311253E+04  0.50400001928E-02 0. -1.
    10030    2    1    2    0    0  0.00000000000E+00  0.00000000000E+00 -0.97252343758E+03  0.40315388131E+04  0.39124804619E+04 0.  0.
        3    1    3    3  502    0 -0.12193804277E+04 -0.65010147193E+03  0.94056081762E+03  0.16715786590E+04  0.10100000352E+00 0.  1.
       -3    1    3    3    0  502  0.12193804277E+04  0.65010147193E+03 -0.19130842552E+04  0.23599601541E+04  0.10100000352E+00 0. -1.
</event>
<event>
 5   0  0.1546846E-07  0.3892617E+04  0.7818609E-02  0.8026566E-01
        2   -1    0    0  501    0  0.00000000000E+00  0.00000000000E+00  0.14755796554E+04  0.14755796554E+04  0.25500000920E-02 0.  1.
       -2   -1    0    0    0  501  0.00000000000E+00  0.00000000000E+00 -0.25672058914E+04  0.25672058914E+04  0.25500000920E-02 0. -1.
    10030    2    1    2    0    0  0.00000000000E+00  0.00000000000E+00 -0.10916262360E+04  0.40427855468E+04  0.38926170038E+04 0.  0.
        2    1    3    3  502    0 -0.12381640301E+04  0.11052663901E+04  0.50999344578E+03  0.17363056393E+04  0.25500000920E-02 0.  1.
       -2    1    3    3    0  502  0.12381640301E+04 -0.11052663901E+04 -0.16016196817E+04  0.23064799074E+04  0.25500000920E-02 0. -1.
</event>
<event>
 5   0  0.4750125E-08  0.3925028E+04  0.7818609E-02  0.8019844E-01
       -1   -1    0    0    0  501  0.00000000000E+00  0.00000000000E+00  0.24761290485E+04  0.24761290485E+04  0.50400001928E-02 0.  1.
        1   -1    0    0  501    0  0.00000000000E+00  0.00000000000E+00 -0.15554366684E+04  0.15554366684E+04  0.50400001928E-02 0. -1.
    10030    2    1    2    0    0  0.00000000000E+00  0.00000000000E+00  0.92069238019E+03  0.40315657169E+04  0.39250283656E+04 0.  0.
        5    1    3    3  502    0  0.23192688633E+03 -0.16802556505E+04 -0.55355937783E+03  0.17842363090E+04  0.46999998093E+01 0. -1.
       -5    1    3    3    0  502 -0.23192688633E+03  0.16802556505E+04  0.14742517580E+04  0.22473294079E+04  0.46999998093E+01 0.  1.
</event>
<event>
 5   0  0.1501585E-07  0.3906667E+04  0.7818609E-02  0.8023644E-01
        2   -1    0    0  501    0  0.00000000000E+00  0.00000000000E+00  0.21194860698E+04  0.21194860698E+04  0.25500000920E-02 0.  1.
       -2   -1    0    0    0  501  0.00000000000E+00  0.00000000000E+00 -0.18002059323E+04  0.18002059323E+04  0.25500000920E-02 0. -1.
    10030    2    1    2    0    0  0.00000000000E+00  0.00000000000E+00  0.31928013750E+03  0.39196920021E+04  0.39066668127E+04 0.  0.
        5    1    3    3  502    0  0.83804810442E+03  0.13738815474E+04  0.12704057602E+04  0.20503238811E+04  0.46999998093E+01 0.  1.
       -5    1    3    3    0  502 -0.83804810442E+03 -0.13738815474E+04 -0.95112562273E+03  0.18693681210E+04  0.46999998093E+01 0. -1.
</event>
<event>
 5   0  0.4762788E-08  0.3899855E+04  0.7818609E-02  0.8025059E-01
        1   -1    0    0  501    0  0.00000000000E+00  0.00000000000E+00  0.24039591983E+04  0.24039591983E+04  0.50400001928E-02 0. -1.
       -1   -1    0    0    0  501  0.00000000000E+00  0.00000000000E+00 -0.15816479332E+04  0.15816479332E+04  0.50400001928E-02 0.  1.
    10030    2    1    2    0    0  0.00000000000E+00  0.00000000000E+00  0.82231126511E+03  0.39856071315E+04  0.38998549191E+04 0.  0.
        2    1    3    3  502    0 -0.17125386696E+04  0.59793094176E+03  0.11423646977E+04  0.21436667671E+04  0.25500000920E-02 0. -1.
       -2    1    3    3    0  502  0.17125386696E+04 -0.59793094176E+03 -0.32005343257E+03  0.18419403643E+04  0.25500000920E-02 0.  1.
</event>
<event>
 5   0  0.4762788E-08  0.3914126E+04  0.7818609E-02  0.8022098E-01
        1   -1    0    0  501    0  0.00000000000E+00  0.00000000000E+00  0.13500819525E+04  0.13500819525E+04  0.50400001928E-02 0.  1.
       -1   -1    0    0    0  501  0.00000000000E+00  0.00000000000E+00 -0.28369353465E+04  0.28369353465E+04  0.50400001928E-02 0. -1.
    10030    2    1    2    0    0  0.00000000000E+00  0.00000000000E+00 -0.14868533940E+04  0.41870172991E+04  0.39141258088E+04 0.  0.
        2    1    3    3  502    0  0.12081343407E+04  0.53373043704E+03 -0.22882879708E+04  0.26421049567E+04  0.25500000920E-02 0. -1.
       -2    1    3    3    0  502 -0.12081343407E+04 -0.53373043704E+03  0.80143457684E+03  0.15449123424E+04  0.25500000920E-02 0.  1.
</event>
<event>
 5   0  0.4750125E-08  0.3895471E+04  0.7818609E-02  0.8025972E-01
        1   -1    0    0  501    0  0.00000000000E+00  0.00000000000E+00  0.25698236996E+04  0.25698236997E+04  0.50400001928E-02 0.  1.
       -1   -1    0    0    0  501  0.00000000000E+00  0.00000000000E+00 -0.14762386115E+04  0.14762386115E+04  0.50400001928E-02 0. -1.
    10030    2    1    2    0    0  0.00000000000E+00  0.00000000000E+00  0.10935850882E+04  0.40460623111E+04  0.38954706879E+04 0.  0.
        1    1    3    3  502    0 -0.10137295058E+04 -0.15412569247E+04  0.11958936748E+04  0.21984726744E+04  0.50400001928E-02 0.  1.
       -1    1    3    3    0  502  0.10137295058E+04  0.15412569247E+04 -0.10230858660E+03  0.18475896367E+04  0.50400001928E-02 0. -1.
</event>
<event>
 5   0  0.4762788E-08  0.3912229E+04  0.7818609E-02  0.8022491E-01
       -1   -1    0    0    0  501  0.00000000000E+00  0.00000000000E+00  0.29657200621E+04  0.29657200621E+04  0.50400001928E-02 0. -1.
        1   -1    0    0  501    0  0.00000000000E+00  0.00000000000E+00 -0.12902043381E+04  0.12902043381E+04  0.50400001928E-02 0.  1.
    10030    2    1    2    0    0  0.00000000000E+00  0.00000000000E+00  0.16755157240E+04  0.42559244001E+04  0.39122294869E+04 0.  0.
        2    1    3    3  502    0 -0.10565967808E+04 -0.71976281535E+02 -0.95135512201E+03  0.14236059534E+04  0.25500000920E-02 0.  1.
       -2    1    3    3    0  502  0.10565967808E+04  0.71976281535E+02  0.26268708460E+04  0.28323184468E+04  0.25500000920E-02 0. -1.
</event>
<event>
 5   0  0.1538018E-07  0.3903107E+04  0.7818609E-02  0.8024383E-01
       -2   -1    0    0    0  501  0.00000000000E+00  0.00000000000E+00  0.13639051034E+04  0.13639051034E+04  0.25500000920E-02 0.  1.
        2   -1    0    0  501    0  0.00000000000E+00  0.00000000000E+00 -0.27923950572E+04  0.27923950572E+04  0.25500000920E-02 0. -1.
    10030    2    1    2    0    0  0.00000000000E+00  0.00000000000E+00 -0.14284899537E+04  0.41563001606E+04  0.39031074130E+04 0.  0.
        1    1    3    3  502    0 -0.47690128577E+03  0.14664486249E+04  0.55944558204E+03  0.16403919548E+04  0.50400001928E-02 0.  1.
       -1    1    3    3    0  502  0.47690128577E+03 -0.14664486249E+04 -0.19879355358E+04  0.25159082059E+04  0.50400001928E-02 0. -1.
</event>
<event>
 5   0  0.1538018E-07  0.3921415E+04  0.7818609E-02  0.8020590E-01
       -2   -1    0    0    0  501  0.00000000000E+00  0.00000000000E+00  0.14108347032E+04  0.14108347032E+04  0.25500000920E-02 0.  1.
        2   -1    0    0  501    0  0.00000000000E+00  0.00000000000E+00 -0.27248937280E+04  0.27248937280E+04  0.25500000920E-02 0. -1.
    10030    2    1    2    0    0  0.00000000000E+00  0.00000000000E+00 -0.13140590248E+04  0.41357284313E+04  0.39214153741E+04 0.  0.
        1    1    3    3  502    0  0.11884023373E+04  0.10665254308E+04  0.54295775029E+03  0.16865881917E+04  0.50400001928E-02 0.  1.
       -1    1    3    3    0  502 -0.11884023373E+04 -0.10665254308E+04 -0.18570167751E+04  0.24491402395E+04  0.50400001928E-02 0. -1.
</event>
<event>
 5   0  0.4750125E-08  0.3892130E+04  0.7818609E-02  0.8026668E-01
       -1   -1    0    0    0  501  0.00000000000E+00  0.00000000000E+00  0.16946590645E+04  0.16946590645E+04  0.50400001928E-02 0.  1.
        1   -1    0    0  501    0  0.00000000000E+00  0.00000000000E+00 -0.22347671213E+04  0.22347671213E+04  0.50400001928E-02 0. -1.
    10030    2    1    2    0    0  0.00000000000E+00  0.00000000000E+00 -0.54010805677E+03  0.39294261858E+04  0.38921296789E+04 0.  0.
        4    1    3    3  502    0  0.17128588597E+04 -0.86456197296E+03  0.58353517966E+02  0.19195727713E+04  0.12699999809E+01 0.  1.
       -4    1    3    3    0  502 -0.17128588597E+04  0.86456197296E+03 -0.59846157473E+03  0.20098534145E+04  0.12699999809E+01 0. -1.
</event>
<event>
 5   0  0.1501585E-07  0.3928667E+04  0.7818609E-02  0.8019093E-01
        2   -1    0    0  501    0  0.00000000000E+00  0.00000000000E+00  0.10535115194E+04  0.10535115194E+04  0.25500000920E-02 0.  1.
       -2   -1    0    0    0  501  0.00000000000E+00  0.00000000000E+00 -0.36626137771E+04  0.36626137771E+04  0.25500000920E-02 0. -1.
    10030    2    1    2    0    0  0.00000000000E+00  0.00000000000E+00 -0.26091022577E+04  0.47161252966E+04  0.39286668505E+04 0.  0.
        5    1    3    3  502    0 -0.17425605658E+03  0.15786170504E+04  0.83078974598E+02  0.15903839697E+04  0.46999998093E+01 0.  1.
       -5    1    3    3    0  502  0.17425605658E+03 -0.15786170504E+04 -0.26921812323E+04  0.31257413269E+04  0.46999998093E+01 0. -1.
</event>
<event>
 5   0  0.4750125E-08  0.3919956E+04  0.7818609E-02  0.8020892E-01
        1   -1    0    0  501    0  0.00000000000E+00  0.00000000000E+00  0.20792985193E+04  0.20792985193E+04  0.50400001928E-02 0.  1.
       -1   -1    0    0    0  501  0.00000000000E+00  0.00000000000E+00 -0.18475046710E+04  0.18475046710E+04  0.50400001928E-02 0. -1.
    10030    2    1    2    0    0  0.00000000000E+00  0.00000000000E+00  0.23179384834E+03  0.39268031903E+04  0.39199559828E+04 0.  0.
        5    1    3    3  502    0  0.73259774815E+03  0.26885641325E+03 -0.16851613970E+04  0.18570875735E+04  0.46999998093E+01 0. -1.
       -5    1    3    3    0  502 -0.73259774815E+03 -0.26885641325E+03  0.19169552454E+04  0.20697156168E+04  0.46999998093E+01 0.  1.
</event>
<event>
 5   0  0.4762788E-08  0.3939743E+04  0.7818609E-02  0.8016814E-01
        1   -1    0    0  501    0  0.00000000000E+00  0.00000000000E+00  0.18894989873E+04  0.18894989874E+04  0.50400001928E-02 0.  1.
       -1   -1    0    0    0  501  0.00000000000E+00  0.00000000000E+00 -0.20536631604E+04  0.20536631604E+04  0.50400001928E-02 0. -1.
    10030    2    1    2    0    0  0.00000000000E+00  0.00000000000E+00 -0.16416417301E+03  0.39431621477E+04  0.39397433733E+04 0.  0.
        2    1    3    3  502    0  0.55792966307E+03 -0.10340511357E+04 -0.16645446130E+04  0.20374631356E+04  0.25500000920E-02 0. -1.
       -2    1    3    3    0  502 -0.55792966307E+03  0.10340511357E+04  0.15003804400E+04  0.19056990121E+04  0.25500000920E-02 0.  1.
</event>
<event>
 5   0  0.1501585E-07  0.4030771E+04  0.7818609E-02  0.7998368E-01
       -2   -1    0    0    0  501  0.00000000000E+00  0.00000000000E+00  0.19803511225E+04  0.19803511225E+04  0.25500000920E-02 0. -1.
        2   -1    0    0  501    0  0.00000000000E+00  0.00000000000E+00 -0.20510398066E+04  0.20510398066E+04  0.25500000920E-02 0.  1.
    10030    2    1    2    0    0  0.00000000000E+00  0.00000000000E+00 -0.70688684087E+02  0.40313909291E+04  0.40307711338E+04 0.  0.
        5    1    3    3  502    0  0.34645608863E+03  0.11187336455E+04 -0.16757672985E+04  0.20444595666E+04  0.46999998093E+01 0.  1.
       -5    1    3    3    0  502 -0.34645608863E+03 -0.11187336455E+04  0.16050786144E+04  0.19869313625E+04  0.46999998093E+01 0. -1.
</event>
<event>
 5   0  0.1538018E-07  0.3862919E+04  0.7818609E-02  0.8032786E-01
        2   -1    0    0  501    0  0.00000000000E+00  0.00000000000E+00  0.14577947686E+04  0.14577947686E+04  0.25500000920E-02 0.  1.
       -2   -1    0    0    0  501  0.00000000000E+00  0.00000000000E+00 -0.25590261400E+04  0.25590261400E+04  0.25500000920E-02 0. -1.
    10030    2    1    2    0    0  0.00000000000E+00  0.00000000000E+00 -0.11012313714E+04  0.40168209086E+04  0.38629185441E+04 0.  0.
        1    1    3    3  502    0  0.45706209789E+03  0.16725610248E+04 -0.14355006514E+04  0.22510060557E+04  0.50400001928E-02 0. -1.
       -1    1    3    3    0  502 -0.45706209789E+03 -0.16725610248E+04  0.33426927997E+03  0.17658148528E+04  0.50400001928E-02 0.  1.
</event>
<event>
 5   0  0.4750125E-08  0.3887530E+04  0.7818609E-02  0.8027628E-01
        1   -1    0    0  501    0  0.00000000000E+00  0.00000000000E+00  0.21853315783E+04  0.21853315783E+04  0.50400001928E-02 0. -1.
       -1   -1    0    0    0  501  0.00000000000E+00  0.00000000000E+00 -0.17289009534E+04  0.17289009535E+04  0.50400001928E-02 0.  1.
    10030    2    1    2    0    0  0.00000000000E+00  0.00000000000E+00  0.45643062486E+03  0.39142325318E+04  0.38875297295E+04 0.  0.
        4    1    3    3  502    0 -0.17102508409E+04 -0.86212560592E+03 -0.10572793864E+03  0.19181758285E+04  0.12699999809E+01 0.  1.
       -4    1    3    3    0  502  0.17102508409E+04  0.86212560592E+03  0.56215856350E+03  0.19960567032E+04  0.12699999809E+01 0. -1.
</event>
<event>
 5   0  0.4750125E-08  0.3986103E+04  0.7818609E-02  0.8007356E-01
       -1   -1    0    0    0  501  0.00000000000E+00  0.00000000000E+00  0.16706916173E+04  0.16706916174E+04  0.50400001928E-02 0.  1.
        1   -1    0    0  501    0  0.00000000000E+00  0.00000000000E+00 -0.23776104423E+04  0.23776104423E+04  0.50400001928E-02 0. -1.
    10030    2    1    2    0    0  0.00000000000E+00  0.00000000000E+00 -0.70691882495E+03  0.40483020597E+04  0.39861027760E+04 0.  0.
        5    1    3    3  502    0 -0.17263212916E+04 -0.48917753578E+03 -0.12346104202E+04  0.21780185589E+04  0.46999998093E+01 0.  1.
       -5    1    3    3    0  502  0.17263212916E+04  0.48917753578E+03  0.52769159521E+03  0.18702835007E+04  0.46999998093E+01 0. -1.
</event>
<event>
 5   0  0.4750125E-08  0.3923137E+04  0.7818609E-02  0.8020234E-01
       -1   -1    0    0    0  501  0.00000000000E+00  0.00000000000E+00  0.19267040891E+04  0.19267040891E+04  0.50400001928E-02 0.  1.
        1   -1    0    0  501    0  0.00000000000E+00  0.00000000000E+00 -0.19970636077E+04  0.19970636077E+04  0.50400001928E-02 0. -1.
    10030    2    1    2    0    0  0.00000000000E+00  0.00000000000E+00 -0.70359518563E+02  0.39237676968E+04  0.39231368160E+04 0.  0.
        3    1    3    3  502    0 -0.91802376413E+03 -0.82180140818E+03 -0.15617362564E+04  0.19892574823E+04  0.10100000352E+00 0. -1.
       -3    1    3    3    0  502  0.91802376413E+03  0.82180140818E+03  0.14913767378E+04  0.19345102146E+04  0.10100000352E+00 0.  1.
</event>
<event>
 5   0  0.4750125E-08  0.3851435E+04  0.7818609E-02  0.8035206E-01
        3   -1    0    0  501    0  0.00000000000E+00  0.00000000000E+00  0.15367524387E+04  0.15367524420E+04  0.10100000352E+00 0.  1.
       -3   -1    0    0    0  501  0.00000000000E+00  0.00000000000E+00 -0.24131335271E+04  0.24131335293E+04  0.10100000352E+00 0. -1.
    10030    2    1    2    0    0  0.00000000000E+00  0.00000000000E+00 -0.87638108845E+03  0.39498859713E+04  0.38514354952E+04 0.  0.
        4    1    3    3  502    0  0.78441605146E+03 -0.17560799087E+04 -0.33949095972E+03  0.19530440119E+04  0.12699999809E+01 0.  1.
       -4    1    3    3    0  502 -0.78441605146E+03  0.17560799087E+04 -0.53689012873E+03  0.19968419594E+04  0.12699999809E+01 0. -1.
</event>
<event>
 5   0  0.4750125E-08  0.3891204E+04  0.7818609E-02  0.8026861E-01
       -1   -1    0    0    0  501  0.00000000000E+00  0.00000000000E+00  0.15568911826E+04  0.15568911827E+04  0.50400001928E-02 0.  1.
        1   -1    0    0  501    0  0.00000000000E+00  0.00000000000E+00 -0.24313625075E+04  0.24313625075E+04  0.50400001928E-02 0. -1.
    10030    2    1    2    0    0  0.00000000000E+00  0.00000000000E+00 -0.87447132490E+03  0.39882536902E+04  0.38912038496E+04 0.  0.
        4    1    3    3  502    0 -0.76218654901E+03 -0.17530769284E+04 -0.80842585335E+03  0.20755146412E+04  0.12699999809E+01 0. -1.
       -4    1    3    3    0  502  0.76218654901E+03  0.17530769284E+04 -0.66045471549E+02  0.19127390490E+04  0.12699999809E+01 0.  1.
</event>
<event>
 5   0  0.4750125E-08  0.3895393E+04  0.7818609E-02  0.8025988E-01
       -1   -1    0    0    0  501  0.00000000000E+00  0.00000000000E+00  0.20123492818E+04  0.20123492818E+04  0.50400001928E-02 0.  1.
        1   -1    0    0  501    0  0.00000000000E+00  0.00000000000E+00 -0.18851210417E+04  0.18851210417E+04  0.50400001928E-02 0. -1.
    10030    2    1    2    0    0  0.00000000000E+00  0.00000000000E+00  0.12722824013E+03  0.38974703235E+04  0.38953931634E+04 0.  0.
        5    1    3    3  502    0  0.12767573066E+04 -0.22152395227E+03 -0.13912306349E+04  0.19012435012E+04  0.46999998093E+01 0. -1.
       -5    1    3    3    0  502 -0.12767573066E+04  0.22152395227E+03  0.15184588750E+04  0.19962268224E+04  0.46999998093E+01 0.  1.
</event>
<event>
 5   0  0.1520986E-07  0.3866800E+04  0.7818609E-02  0.8031970E-01
       -2   -1    0    0    0  501  0.00000000000E+00  0.00000000000E+00  0.33003827410E+04  0.33003827410E+04  0.25500000920E-02 0.  1.
        2   -1    0    0  501    0  0.00000000000E+00  0.00000000000E+00 -0.11326068586E+04  0.11326068586E+04  0.25500000920E-02 0. -1.
    10030    2    1    2    0    0  0.00000000000E+00  0.00000000000E+00  0.21677758824E+04  0.44329895996E+04  0.38668002940E+04 0.  0.
        4    1    3    3  502    0  0.79785750585E+03  0.17404887131E+04  0.77593520347E+03  0.20659028566E+04  0.12699999809E+01 0.  1.
       -4    1    3    3    0  502 -0.79785750585E+03 -0.17404887131E+04  0.13918406790E+04  0.23670867430E+04  0.12699999809E+01 0. -1.
</event>
<event>
 5   0  0.4750125E-08  0.3886672E+04  0.7818609E-02  0.8027807E-01
        1   -1    0    0  501    0  0.00000000000E+00  0.00000000000E+00  0.24891290335E+04  0.24891290335E+04  0.50400001928E-02 0. -1.
       -1   -1    0    0    0  501  0.00000000000E+00  0.00000000000E+00 -0.15172195212E+04  0.15172195212E+04  0.50400001928E-02 0.  1.
    10030    2    1    2    0    0  0.00000000000E+00  0.00000000000E+00  0.97190951230E+03  0.40063485548E+04  0.38866721810E+04 0.  0.
        5    1    3    3  502    0  0.46368868964E+03 -0.10689114652E+04  0.20891434331E+04  0.23920955866E+04  0.46999998093E+01 0. -1.
       -5    1    3    3    0  502 -0.46368868964E+03  0.10689114652E+04 -0.11172339208E+04  0.16142529682E+04  0.46999998093E+01 0.  1.
</event>
<event>
 5   0  0.1503228E-07  0.3912359E+04  0.7818609E-02  0.8022464E-01
        2   -1    0    0  501    0  0.00000000000E+00  0.00000000000E+00  0.20023050152E+04  0.20023050152E+04  0.25500000920E-02 0.  1.
       -2   -1    0    0    0  501  0.00000000000E+00  0.00000000000E+00 -0.19111163443E+04  0.19111163444E+04  0.25500000920E-02 0. -1.
    10030    2    1    2    0    0  0.00000000000E+00  0.00000000000E+00  0.91188670807E+02  0.39134213595E+04  0.39123587979E+04 0.  0.
        3    1    3    3  502    0 -0.22371663339E+03  0.88684650960E+03  0.17752522068E+04  0.19970143393E+04  0.10100000352E+00 0.  1.
       -3    1    3    3    0  502  0.22371663339E+03 -0.88684650960E+03 -0.16840635360E+04  0.19164070202E+04  0.10100000352E+00 0. -1.
</event>
<event>
 5   0  0.1503228E-07  0.3884562E+04  0.7818609E-02  0.8028248E-01
       -2   -1    0    0    0  501  0.00000000000E+00  0.00000000000E+00  0.18329288627E+04  0.18329288627E+04  0.25500000920E-02 0. -1.
        2   -1    0    0  501    0  0.00000000000E+00  0.00000000000E+00 -0.20581573061E+04  0.20581573061E+04  0.25500000920E-02 0.  1.
    10030    2    1    2    0    0  0.00000000000E+00  0.00000000000E+00 -0.22522844336E+03  0.38910861689E+04  0.38845622304E+04 0.  0.
        3    1    3    3  502    0  0.75542387551E+03 -0.12599512497E+04 -0.13853044497E+04  0.20192104427E+04  0.10100000352E+00 0.  1.
       -3    1    3    3    0  502 -0.75542387551E+03  0.12599512497E+04  0.11600760064E+04  0.18718757261E+04  0.10100000352E+00 0. -1.
</event>
<event>
 5   0  0.4762788E-08  0.3965811E+04  0.7818609E-02  0.8011479E-01
       -1   -1    0    0    0  501  0.00000000000E+00  0.00000000000E+00  0.22797530634E+04  0.22797530634E+04  0.50400001928E-02 0.  1.
        1   -1    0    0  501    0  0.00000000000E+00  0.00000000000E+00 -0.17247106652E+04  0.17247106652E+04  0.50400001928E-02 0. -1.
    10030    2    1    2    0    0  0.00000000000E+00  0.00000000000E+00  0.55504239825E+03  0.40044637286E+04  0.39658111012E+04 0.  0.
        2    1    3    3  502    0  0.75459724981E+03  0.10831199132E+04  0.17715872781E+04  0.22093182748E+04  0.25500000920E-02 0.  1.
       -2    1    3    3    0  502 -0.75459724981E+03 -0.10831199132E+04 -0.12165448798E+04  0.17951454538E+04  0.25500000920E-02 0. -1.
</event>
<event>
 5   0  0.1501585E-07  0.3922287E+04  0.7818609E-02  0.8020410E-01
        2   -1    0    0  501    0  0.00000000000E+00  0.00000000000E+00  0.19729854213E+04  0.19729854213E+04  0.25500000920E-02 0. -1.
       -2   -1    0    0    0  501  0.00000000000E+00  0.00000000000E+00 -0.19493726827E+04  0.19493726827E+04  0.25500000920E-02 0.  1.
    10030    2    1    2    0    0  0.00000000000E+00  0.00000000000E+00  0.23612738623E+02  0.39223581040E+04  0.39222870285E+04 0.  0.
        5    1    3    3  502    0  0.10832924137E+04  0.61942443214E+02  0.16454523509E+04  0.19710136603E+04  0.46999998093E+01 0. -1.
       -5    1    3    3    0  502 -0.10832924137E+04 -0.61942443214E+02 -0.16218396123E+04  0.19513444437E+04  0.46999998093E+01 0.  1.
</event>
<event>
 5   0  0.4750125E-08  0.3897045E+04  0.7818609E-02  0.8025644E-01
        3   -1    0    0  501    0  0.00000000000E+00  0.00000000000E+00  0.24348250757E+04  0.24348250778E+04  0.10100000352E+00 0.  1.
       -3   -1    0    0    0  501  0.00000000000E+00  0.00000000000E+00 -0.15593481191E+04  0.15593481224E+04  0.10100000352E+00 0. -1.
    10030    2    1    2    0    0  0.00000000000E+00  0.00000000000E+00  0.87547695655E+03  0.39941732001E+04  0.38970449896E+04 0.  0.
        4    1    3    3  502    0  0.15395892705E+04 -0.81321923403E+02 -0.78350854587E+03  0.17294032588E+04  0.12699999809E+01 0. -1.
       -4    1    3    3    0  502 -0.15395892705E+04  0.81321923403E+02  0.16589855024E+04  0.22647699414E+04  0.12699999809E+01 0.  1.
</event>
<event>
 5   0  0.4762788E-08  0.3899975E+04  0.7818609E-02  0.8025034E-01
       -1   -1    0    0    0  501  0.00000000000E+00  0.00000000000E+00  0.14135906010E+04  0.14135906010E+04  0.50400001928E-02 0.  1.
        1   -1    0    0  501    0  0.00000000000E+00  0.00000000000E+00 -0.26899243561E+04  0.26899243561E+04  0.50400001928E-02 0. -1.
    10030    2    1    2    0    0  0.00000000000E+00  0.00000000000E+00 -0.12763337551E+04  0.41035149571E+04  0.38999752754E+04 0.  0.
        2    1    3    3  502    0 -0.95055620751E+03 -0.13446641601E+04  0.46074116702E+03  0.17099594235E+04  0.25500000920E-02 0.  1.
       -2    1    3    3    0  502  0.95055620751E+03  0.13446641601E+04 -0.17370749221E+04  0.23935555336E+04  0.25500000920E-02 0. -1.
</event>
<event>
 5   0  0.1501585E-07  0.3872566E+04  0.7818609E-02  0.8030759E-01
        2   -1    0    0  501    0  0.00000000000E+00  0.00000000000E+00  0.14249889509E+04  0.14249889509E+04  0.25500000920E-02 0.  1.
       -2   -1    0    0    0  501  0.00000000000E+00  0.00000000000E+00 -0.26310324885E+04  0.26310324885E+04  0.25500000920E-02 0. -1.
    10030    2    1    2    0    0  0.00000000000E+00  0.00000000000E+00 -0.12060435376E+04  0.40560214393E+04  0.38725661907E+04 0.  0.
        5    1    3    3  502    0 -0.65627445607E+02 -0.70451426978E+03 -0.24907712221E+04  0.25893263002E+04  0.46999998093E+01 0. -1.
       -5    1    3    3    0  502  0.65627445607E+02  0.70451426978E+03  0.12847276845E+04  0.14666951392E+04  0.46999998093E+01 0.  1.
</event>
<event>
 5   0  0.1538018E-07  0.3891852E+04  0.7818609E-02  0.8026726E-01
       -2   -1    0    0    0  501  0.00000000000E+00  0.00000000000E+00  0.15295978609E+04  0.15295978609E+04  0.25500000920E-02 0. -1.
        2   -1    0    0  501    0  0.00000000000E+00  0.00000000000E+00 -0.24755708341E+04  0.24755708341E+04  0.25500000920E-02 0.  1.
    10030    2    1    2    0    0  0.00000000000E+00  0.00000000000E+00 -0.94597297320E+03  0.40051686951E+04  0.38918519255E+04 0.  0.
        1    1    3    3  502    0  0.90560701044E+03 -0.15168967271E+04 -0.13125386944E+04  0.22008765441E+04  0.50400001928E-02 0.  1.
       -1    1    3    3    0  502 -0.90560701044E+03  0.15168967271E+04  0.36656572115E+03  0.18042921510E+04  0.50400001928E-02 0. -1.
</event>
<event>
 5   0  0.4762788E-08  0.3900778E+04  0.7818609E-02  0.8024867E-01
       -1   -1    0    0    0  501  0.00000000000E+00  0.00000000000E+00  0.17991214723E+04  0.17991214723E+04  0.50400001928E-02 0.  1.
        1   -1    0    0  501    0  0.00000000000E+00  0.00000000000E+00 -0.21143752047E+04  0.21143752047E+04  0.50400001928E-02 0. -1.
    10030    2    1    2    0    0  0.00000000000E+00  0.00000000000E+00 -0.31525373237E+03  0.39134966770E+04  0.39007782973E+04 0.  0.
        2    1    3    3  502    0  0.57931024607E+03 -0.75791369790E+03 -0.18643449369E+04  0.20942338882E+04  0.25500000920E-02 0. -1.
       -2    1    3    3    0  502 -0.57931024607E+03  0.75791369790E+03  0.15490912045E+04  0.18192627888E+04  0.25500000920E-02 0.  1.
</event>
<event>
 5   0  0.1538018E-07  0.3892438E+04  0.7818609E-02  0.8026604E-01
        2   -1    0    0  501    0  0.00000000000E+00  0.00000000000E+00  0.27737035596E+04  0.27737035596E+04  0.25500000920E-02 0.  1.
       -2   -1    0    0    0  501  0.00000000000E+00  0.00000000000E+00 -0.13655992781E+04  0.13655992781E+04  0.25500000920E-02 0. -1.
    10030    2    1    2    0    0  0.00000000000E+00  0.00000000000E+00  0.14081042815E+04  0.41393028377E+04  0.38924375801E+04 0.  0.
        1    1    3    3  502    0  0.64740454386E+02  0.63824733936E+03  0.26580347490E+04  0.27343554486E+04  0.50400001928E-02 0.  1.
       -1    1    3    3    0  502 -0.64740454386E+02 -0.63824733936E+03 -0.12499304674E+04  0.14049473891E+04  0.50400001928E-02 0. -1.
</event>
<event>
 5   0  0.4750125E-08  0.3889427E+04  0.7818609E-02  0.8027232E-01
       -1   -1    0    0    0  501  0.00000000000E+00  0.00000000000E+00  0.18157514219E+04  0.18157514219E+04  0.50400001928E-02 0.  1.
        1   -1    0    0  501    0  0.00000000000E+00  0.00000000000E+00 -0.20828346216E+04  0.20828346216E+04  0.50400001928E-02 0. -1.
    10030    2    1    2    0    0  0.00000000000E+00  0.00000000000E+00 -0.26708319967E+03  0.38985860434E+04  0.38894266547E+04 0.  0.
        4    1    3    3  502    0  0.75884175363E+03  0.17573001119E+04 -0.47780904434E+03  0.19728779958E+04  0.12699999809E+01 0.  1.
       -4    1    3    3    0  502 -0.75884175363E+03 -0.17573001119E+04  0.21072584467E+03  0.19257080477E+04  0.12699999809E+01 0. -1.
</event>
<event>
 5   0  0.1503228E-07  0.3847628E+04  0.7818609E-02  0.8036011E-01
        2   -1    0    0  501    0  0.00000000000E+00  0.00000000000E+00  0.16348849738E+04  0.16348849738E+04  0.25500000920E-02 0. -1.
       -2   -1    0    0    0  501  0.00000000000E+00  0.00000000000E+00 -0.22638047794E+04  0.22638047794E+04  0.25500000920E-02 0.  1.
    10030    2    1    2    0    0  0.00000000000E+00  0.00000000000E+00 -0.62891980560E+03  0.38986897531E+04  0.38476280575E+04 0.  0.
        3    1    3    3  502    0 -0.15287032235E+02 -0.19095856299E+04 -0.55059646703E+03  0.19874374080E+04  0.10100000352E+00 0.  1.
       -3    1    3    3    0  502  0.15287032235E+02  0.19095856299E+04 -0.78323338572E+02  0.19112523451E+04  0.10100000352E+00 0. -1.
</event>
<event>
 5   0  0.4750125E-08  0.3890186E+04  0.7818609E-02  0.8027073E-01
       -1   -1    0    0    0  501  0.00000000000E+00  0.00000000000E+00  0.13780424771E+04  0.13780424772E+04  0.50400001928E-02 0. -1.
        1   -1    0    0  501    0  0.00000000000E+00  0.00000000000E+00 -0.27454790764E+04  0.27454790764E+04  0.50400001928E-02 0.  1.
    10030    2    1    2    0    0  0.00000000000E+00  0.00000000000E+00 -0.13674365993E+04  0.41235215536E+04  0.38901860045E+04 0.  0.
        4    1    3    3  502    0 -0.10544060155E+04  0.75744304590E+03  0.85156874604E+03  0.15526309785E+04  0.12699999809E+01 0. -1.
       -4    1    3    3    0  502  0.10544060155E+04 -0.75744304590E+03 -0.22190053453E+04  0.25708905750E+04  0.12699999809E+01 0.  1.
</event>
<event>
 5   0  0.1503228E-07  0.3942323E+04  0.7818609E-02  0.8016284E-01
       -2   -1    0    0    0  501  0.00000000000E+00  0.00000000000E+00  0.26075246119E+04  0.26075246119E+04  0.25500000920E-02 0. -1.
        2   -1    0    0  501    0  0.00000000000E+00  0.00000000000E+00 -0.14901023703E+04  0.14901023703E+04  0.25500000920E-02 0.  1.
    10030    2    1    2    0    0  0.00000000000E+00  0.00000000000E+00  0.11174222416E+04  0.40976269822E+04  0.39423234797E+04 0.  0.
        3    1    3    3  502    0 -0.79392917391E+03 -0.31310397009E+03 -0.12881140091E+04  0.15451845650E+04  0.10100000352E+00 0.  1.
       -3    1    3    3    0  502  0.79392917391E+03  0.31310397009E+03  0.24055362507E+04  0.25524424171E+04  0.10100000352E+00 0. -1.
</event>
<event>
 5   0  0.1520986E-07  0.3873431E+04  0.7818609E-02  0.8030578E-01
       -2   -1    0    0    0  501  0.00000000000E+00  0.00000000000E+00  0.12563042997E+04  0.12563042997E+04  0.25500000920E-02 0.  1.
        2   -1    0    0  501    0  0.00000000000E+00  0.00000000000E+00 -0.29856363307E+04  0.29856363307E+04  0.25500000920E-02 0. -1.
    10030    2    1    2    0    0  0.00000000000E+00  0.00000000000E+00 -0.17293320310E+04  0.42419406304E+04  0.38734314294E+04 0.  0.
        4    1    3    3  502    0  0.62336936688E+03 -0.14785866127E+04  0.32296945319E+03  0.16368013378E+04  0.12699999809E+01 0.  1.
       -4    1    3    3    0  502 -0.62336936688E+03  0.14785866127E+04 -0.20523014842E+04  0.26051392926E+04  0.12699999809E+01 0. -1.
</event>
<event>
 5   0  0.1546846E-07  0.3904442E+04  0.7818609E-02  0.8024106E-01
        2   -1    0    0  501    0  0.00000000000E+00  0.00000000000E+00  0.22492045394E+04  0.22492045394E+04  0.25500000920E-02 0.  1.
       -2   -1    0    0    0  501  0.00000000000E+00  0.00000000000E+00 -0.16944506671E+04  0.16944506671E+04  0.25500000920E-02 0. -1.
    10030    2    1    2    0    0  0.00000000000E+00  0.00000000000E+00  0.55475387224E+03  0.39436552065E+04  0.39044416412E+04 0.  0.
        2    1    3    3  502    0 -0.11633725682E+04 -0.42723189026E+03  0.18009037680E+04  0.21861420819E+04  0.25500000920E-02 0.  1.
       -2    1    3    3    0  502  0.11633725682E+04  0.42723189026E+03 -0.12461498958E+04  0.17575131246E+04  0.25500000920E-02 0. -1.
</event>
<event>
 5   0  0.1546846E-07  0.3808722E+04  0.7818609E-02  0.8044286E-01
       -2   -1    0    0    0  501  0.00000000000E+00  0.00000000000E+00  0.14840067489E+04  0.14840067489E+04  0.25500000920E-02 0.  1.
        2   -1    0    0  501    0  0.00000000000E+00  0.00000000000E+00 -0.24437838230E+04  0.24437838230E+04  0.25500000920E-02 0. -1.
    10030    2    1    2    0    0  0.00000000000E+00  0.00000000000E+00 -0.95977707417E+03  0.39277905719E+04  0.38087224557E+04 0.  0.
        2    1    3    3  502    0 -0.13362927170E+04  0.83745384419E+03 -0.15807743306E+04  0.22329027410E+04  0.25500000920E-02 0. -1.
       -2    1    3    3    0  502  0.13362927170E+04 -0.83745384419E+03  0.62099725648E+03  0.16948878308E+04  0.25500000920E-02 0.  1.
</event>
<event>
 5   0  0.4750125E-08  0.3898956E+04  0.7818609E-02  0.8025246E-01
        1   -1    0    0  501    0  0.00000000000E+00  0.00000000000E+00  0.16672343178E+04  0.16672343178E+04  0.50400001928E-02 0.  1.
       -1   -1    0    0    0  501  0.00000000000E+00  0.00000000000E+00 -0.22795022924E+04  0.22795022925E+04  0.50400001928E-02 0. -1.
    10030    2    1    2    0    0  0.00000000000E+00  0.00000000000E+00 -0.61226797463E+03  0.39467366103E+04  0.38989559882E+04 0.  0.
        4    1    3    3  502    0 -0.53822777053E+03 -0.10378235703E+04 -0.18852824805E+04  0.22183459018E+04  0.12699999809E+01 0. -1.
       -4    1    3    3    0  502  0.53822777053E+03  0.10378235703E+04  0.12730145059E+04  0.17283907084E+04  0.12699999809E+01 0.  1.
</event>
<event>
 5   0  0.1546846E-07  0.3879162E+04  0.7818609E-02  0.8029377E-01
       -2   -1    0    0    0  501  0.00000000000E+00  0.00000000000E+00  0.23648679302E+04  0.23648679302E+04  0.25500000920E-02 0.  1.
        2   -1    0    0  501    0  0.00000000000E+00  0.00000000000E+00 -0.15907756198E+04  0.15907756198E+04  0.25500000920E-02 0. -1.
    10030    2    1    2    0    0  0.00000000000E+00  0.00000000000E+00  0.77409231040E+03  0.39556435500E+04  0.38791618926E+04 0.  0.
        2    1    3    3  502    0 -0.73202706194E+03  0.13811313226E+04  0.15579834074E+04  0.22069661636E+04  0.25500000920E-02 0. -1.
       -2    1    3    3    0  502  0.73202706194E+03 -0.13811313226E+04 -0.78389109697E+03  0.17486773864E+04  0.25500000920E-02 0.  1.
</event>
<event>
 5   0  0.1501585E-07  0.3857902E+04  0.7818609E-02  0.8033842E-01
        2   -1    0    0  501    0  0.00000000000E+00  0.00000000000E+00  0.24773359948E+04  0.24773359948E+04  0.25500000920E-02 0. -1.
       -2   -1    0    0    0  501  0.00000000000E+00  0.00000000000E+00 -0.15019570076E+04  0.15019570076E+04  0.25500000920E-02 0.  1.
    10030    2    1    2    0    0  0.00000000000E+00  0.00000000000E+00  0.97537898722E+03  0.39792930024E+04  0.38579021022E+04 0.  0.
        5    1    3    3  502    0  0.13348415812E+04  0.12667826921E+04  0.10840600157E+04  0.21358250499E+04  0.46999998093E+01 0. -1.
       -5    1    3    3    0  502 -0.13348415812E+04 -0.12667826921E+04 -0.10868102847E+03  0.18434679525E+04  0.46999998093E+01 0.  1.
</event>
<event>
 5   0  0.1501585E-07  0.3987030E+04  0.7818609E-02  0.8007168E-01
        2   -1    0    0  501    0  0.00000000000E+00  0.00000000000E+00  0.18027998536E+04  0.18027998536E+04  0.25500000920E-02 0.  1.
       -2   -1    0    0    0  501  0.00000000000E+00  0.00000000000E+00 -0.22044054963E+04  0.22044054963E+04  0.25500000920E-02 0. -1.
    10030    2    1    2    0    0  0.00000000000E+00  0.00000000000E+00 -0.40160564266E+03  0.40072053498E+04  0.39870299251E+04 0.  0.
        5    1    3    3  502    0  0.61727402426E+03 -0.18699682707E+04 -0.51264900561E+03  0.20348561736E+04  0.46999998093E+01 0.  1.
       -5    1    3    3    0  502 -0.61727402426E+03  0.18699682707E+04  0.11104336295E+03  0.19723491762E+04  0.46999998093E+01 0. -1.
</event>
<event>
 5   0  0.1503228E-07  0.3936950E+04  0.7818609E-02  0.8017388E-01
       -2   -1    0    0    0  501  0.00000000000E+00  0.00000000000E+00  0.23874771455E+04  0.23874771456E+04  0.25500000920E-02 0. -1.
        2   -1    0    0  501    0  0.00000000000E+00  0.00000000000E+00 -0.16230075741E+04  0.16230075741E+04  0.25500000920E-02 0.  1.
    10030    2    1    2    0    0  0.00000000000E+00  0.00000000000E+00  0.76446957145E+03  0.40104847196E+04  0.39369498296E+04 0.  0.
        3    1    3    3  502    0 -0.11472498197E+04  0.36046769411E+03 -0.12053267624E+04  0.17026249504E+04  0.10100000352E+00 0.  1.
       -3    1    3    3    0  502  0.11472498197E+04 -0.36046769411E+03  0.19697963339E+04  0.23078597692E+04  0.10100000352E+00 0. -1.
</event>
<event>
 5   0  0.4750125E-08  0.3895639E+04  0.7818609E-02  0.8025937E-01
        1   -1    0    0  501    0  0.00000000000E+00  0.00000000000E+00  0.16079702291E+04  0.16079702291E+04  0.50400001928E-02 0. -1.
       -1   -1    0    0    0  501  0.00000000000E+00  0.00000000000E+00 -0.23594964972E+04  0.23594964972E+04  0.50400001928E-02 0.  1.
    10030    2    1    2    0    0  0.00000000000E+00  0.00000000000E+00 -0.75152626809E+03  0.39674667263E+04  0.38956386502E+04 0.  0.
        5    1    3    3  502    0 -0.21525187521E+03 -0.19358197570E+04 -0.35977229593E+03  0.19807043435E+04  0.46999998093E+01 0. -1.
       -5    1    3    3    0  502  0.21525187521E+03  0.19358197570E+04 -0.39175397216E+03  0.19867623829E+04  0.46999998093E+01 0.  1.
</event>
<event>
 5   0  0.4750125E-08  0.3917884E+04  0.7818609E-02  0.8021320E-01
       -1   -1    0    0    0  501  0.00000000000E+00  0.00000000000E+00  0.19738363188E+04  0.19738363188E+04  0.50400001928E-02 0.  1.
        1   -1    0    0  501    0  0.00000000000E+00  0.00000000000E+00 -0.19441600022E+04  0.19441600022E+04  0.50400001928E-02 0. -1.
    10030    2    1    2    0    0  0.00000000000E+00  0.00000000000E+00  0.29676316646E+02  0.39179963210E+04  0.39178839298E+04 0.  0.
        1    1    3    3  502    0  0.12526198907E+04 -0.83428375680E+03  0.12688149754E+04  0.19684962330E+04  0.50400001928E-02 0.  1.
       -1    1    3    3    0  502 -0.12526198907E+04  0.83428375680E+03 -0.12391386587E+04  0.19495000880E+04  0.50400001928E-02 0. -1.
</event>
<event>
 5   0  0.1503228E-07  0.3926249E+04  0.7818609E-02  0.8019592E-01
        2   -1    0    0  501    0  0.00000000000E+00  0.00000000000E+00  0.20559370470E+04  0.20559370470E+04  0.25500000920E-02 0. -1.
       -2   -1    0    0    0  501  0.00000000000E+00  0.00000000000E+00 -0.18745021451E+04  0.18745021451E+04  0.25500000920E-02 0.  1.
    10030    2    1    2    0    0  0.00000000000E+00  0.00000000000E+00  0.18143490190E+03  0.39304391921E+04  0.39262493068E+04 0.  0.
        3    1    3    3  502    0 -0.36397068647E+02 -0.12743487695E+04 -0.14037148228E+04  0.18962343861E+04  0.10100000352E+00 0.  1.
       -3    1    3    3    0  502  0.36397068647E+02  0.12743487695E+04  0.15851497247E+04  0.20342048060E+04  0.10100000352E+00 0. -1.
</event>
<event>
 5   0  0.4762788E-08  0.3931859E+04  0.7818609E-02  0.8018435E-01
        1   -1    0    0  501    0  0.00000000000E+00  0.00000000000E+00  0.24719046849E+04  0.24719046849E+04  0.50400001928E-02 0. -1.
       -1   -1    0    0    0  501  0.00000000000E+00  0.00000000000E+00 -0.15635229549E+04  0.15635229549E+04  0.50400001928E-02 0.  1.
    10030    2    1    2    0    0  0.00000000000E+00  0.00000000000E+00  0.90838172995E+03  0.40354276398E+04  0.39318594671E+04 0.  0.
        2    1    3    3  502    0  0.98711366617E+03 -0.16428464064E+04  0.50075662580E+01  0.19166018837E+04  0.25500000920E-02 0.  1.
       -2    1    3    3    0  502 -0.98711366617E+03  0.16428464064E+04  0.90337416370E+03  0.21188257561E+04  0.25500000920E-02 0. -1.
</event>
<event>
 5   0  0.1520986E-07  0.3908158E+04  0.7818609E-02  0.8023335E-01
        2   -1    0    0  501    0  0.00000000000E+00  0.00000000000E+00  0.21564307952E+04  0.21564307953E+04  0.25500000920E-02 0. -1.
       -2   -1    0    0    0  501  0.00000000000E+00  0.00000000000E+00 -0.17707151977E+04  0.17707151977E+04  0.25500000920E-02 0.  1.
    10030    2    1    2    0    0  0.00000000000E+00  0.00000000000E+00  0.38571559752E+03  0.39271459930E+04  0.39081580224E+04 0.  0.
        4    1    3    3  502    0 -0.12058656366E+04 -0.10233915620E+04 -0.96031576267E+03  0.18503108387E+04  0.12699999809E+01 0.  1.
       -4    1    3    3    0  502  0.12058656366E+04  0.10233915620E+04  0.13460313602E+04  0.20768351543E+04  0.12699999809E+01 0. -1.
</event>
<event>
 5   0  0.4750125E-08  0.3894233E+04  0.7818609E-02  0.8026230E-01
       -1   -1    0    0    0  501  0.00000000000E+00  0.00000000000E+00  0.17596933664E+04  0.17596933664E+04  0.50400001928E-02 0.  1.
        1   -1    0    0  501    0  0.00000000000E+00  0.00000000000E+00 -0.21545014601E+04  0.21545014601E+04  0.50400001928E-02 0. -1.
    10030    2    1    2    0    0  0.00000000000E+00  0.00000000000E+00 -0.39480809372E+03  0.39141948264E+04  0.38942326213E+04 0.  0.
        4    1    3    3  502    0  0.15466202652E+04 -0.25017418612E+03 -0.13594615086E+04  0.20743091800E+04  0.12699999809E+01 0. -1.
       -4    1    3    3    0  502 -0.15466202652E+04  0.25017418612E+03  0.96465341491E+03  0.18398856464E+04  0.12699999809E+01 0.  1.
</event>
<event>
 5   0  0.1520986E-07  0.3895684E+04  0.7818609E-02  0.8025927E-01
        2   -1    0    0  501    0  0.00000000000E+00  0.00000000000E+00  0.18082615342E+04  0.18082615342E+04  0.25500000920E-02 0. -1.
       -2   -1    0    0    0  501  0.00000000000E+00  0.00000000000E+00 -0.20981969519E+04  0.20981969519E+04  0.25500000920E-02 0.  1.
    10030    2    1    2    0    0  0.00000000000E+00  0.00000000000E+00 -0.28993541767E+03  0.39064584861E+04  0.38956841963E+04 0.  0.
        4    1    3    3  502    0 -0.12131488682E+04 -0.14050355942E+04 -0.73671165915E+03  0.19971481865E+04  0.12699999809E+01 0.  1.
       -4    1    3    3    0  502  0.12131488682E+04  0.14050355942E+04  0.44677624148E+03  0.19093102996E+04  0.12699999809E+01 0. -1.
</event>
<event>
 5   0  0.1538018E-07  0.3808162E+04  0.7818609E-02  0.8044406E-01
       -2   -1    0    0    0  501  0.00000000000E+00  0.00000000000E+00  0.13810512076E+04  0.13810512076E+04  0.25500000920E-02 0. -1.
        2   -1    0    0  501    0  0.00000000000E+00  0.00000000000E+00 -0.26251919990E+04  0.26251919990E+04  0.25500000920E-02 0.  1.
    10030    2    1    2    0    0  0.00000000000E+00  0.00000000000E+00 -0.12441407914E+04  0.40062432066E+04  0.38081620661E+04 0.  0.
        1    1    3    3  502    0  0.14518543425E+04 -0.22009588807E+03  0.65308333822E+03  0.16071219862E+04  0.50400001928E-02 0. -1.
       -1    1    3    3    0  502 -0.14518543425E+04  0.22009588807E+03 -0.18972241297E+04  0.23991212204E+04  0.50400001928E-02 0.  1.
</event>
<event>
 5   0  0.1546846E-07  0.3801216E+04  0.7818609E-02  0.8045894E-01
        2   -1    0    0  501    0  0.00000000000E+00  0.00000000000E+00  0.20738261573E+04  0.20738261573E+04  0.25500000920E-02 0.  1.
       -2   -1    0    0    0  501  0.00000000000E+00  0.00000000000E+00 -0.17418580556E+04  0.17418580556E+04  0.25500000920E-02 0. -1.
    10030    2    1    2    0    0  0.00000000000E+00  0.00000000000E+00  0.33196810171E+03  0.38156842128E+04  0.38012160148E+04 0.  0.
        2    1    3    3  502    0  0.11482601867E+04  0.13466158861E+04 -0.52978834215E+03  0.18473092563E+04  0.25500000920E-02 0.  1.
       -2    1    3    3    0  502 -0.11482601867E+04 -0.13466158861E+04  0.86175644385E+03  0.19683749565E+04  0.25500000920E-02 0. -1.
</event>
<event>
 5   0  0.4750125E-08  0.3933098E+04  0.7818609E-02  0.8018180E-01
       -1   -1    0    0    0  501  0.00000000000E+00  0.00000000000E+00  0.16186811037E+04  0.16186811038E+04  0.50400001928E-02 0. -1.
        1   -1    0    0  501    0  0.00000000000E+00  0.00000000000E+00 -0.23891763700E+04  0.23891763700E+04  0.50400001928E-02 0.  1.
    10030    2    1    2    0    0  0.00000000000E+00  0.00000000000E+00 -0.77049526629E+03  0.40078574738E+04  0.39330978344E+04 0.  0.
        3    1    3    3  502    0  0.10931061600E+04  0.12903933257E+04  0.63748226145E+03  0.18073128274E+04  0.10100000352E+00 0. -1.
       -3    1    3    3    0  502 -0.10931061600E+04 -0.12903933257E+04 -0.14079775277E+04  0.22005446464E+04  0.10100000352E+00 0.  1.
</event>
<event>
 5   0  0.4750125E-08  0.3925103E+04  0.7818609E-02  0.8019828E-01
        1   -1    0    0  501    0  0.00000000000E+00  0.00000000000E+00  0.26081266308E+04  0.26081266308E+04  0.50400001928E-02 0. -1.
       -1   -1    0    0    0  501  0.00000000000E+00  0.00000000000E+00 -0.14767717374E+04  0.14767717374E+04  0.50400001928E-02 0.  1.
    10030    2    1    2    0    0  0.00000000000E+00  0.00000000000E+00  0.11313548934E+04  0.40848983681E+04  0.39251026462E+04 0.  0.
        1    1    3    3  502    0  0.64648672163E+03  0.12651026326E+04  0.19747473827E+04  0.24327056907E+04  0.50400001928E-02 0. -1.
       -1    1    3    3    0  502 -0.64648672163E+03 -0.12651026326E+04 -0.84339248928E+03  0.16521926774E+04  0.50400001928E-02 0.  1.
</event>
<event>
 5   0  0.4762788E-08  0.3847549E+04  0.7818609E-02  0.8036027E-01
       -1   -1    0    0    0  501  0.00000000000E+00  0.00000000000E+00  0.21089364304E+04  0.21089364304E+04  0.50400001928E-02 0.  1.
        1   -1    0    0  501    0  0.00000000000E+00  0.00000000000E+00 -0.17548691394E+04  0.17548691394E+04  0.50400001928E-02 0. -1.
    10030    2    1    2    0    0  0.00000000000E+00  0.00000000000E+00  0.35406729103E+03  0.38638055698E+04  0.38475485487E+04 0.  0.
        2    1    3    3  502    0  0.29694068242E+02  0.19026690230E+04 -0.10678449588E+03  0.19058945610E+04  0.25500000920E-02 0. -1.
       -2    1    3    3    0  502 -0.29694068242E+02 -0.19026690230E+04  0.46085178691E+03  0.19579110088E+04  0.25500000920E-02 0.  1.
</event>
<event>
 5   0  0.1546846E-07  0.3944833E+04  0.7818609E-02  0.8015769E-01
        2   -1    0    0  501    0  0.00000000000E+00  0.00000000000E+00  0.14479010053E+04  0.14479010053E+04  0.25500000920E-02 0. -1.
       -2   -1    0    0    0  501  0.00000000000E+00  0.00000000000E+00 -0.26869422077E+04  0.26869422077E+04  0.25500000920E-02 0.  1.
    10030    2    1    2    0    0  0.00000000000E+00  0.00000000000E+00 -0.12390412025E+04  0.41348432130E+04  0.39448327334E+04 0.  0.
        2    1    3    3  502    0  0.41788494481E+03 -0.15011173835E+04 -0.18870856004E+04  0.24472583209E+04  0.25500000920E-02 0.  1.
       -2    1    3    3    0  502 -0.41788494481E+03  0.15011173835E+04  0.64804439789E+03  0.16875848921E+04  0.25500000920E-02 0. -1.
</event>
<event>
 5   0  0.1501585E-07  0.3887921E+04  0.7818609E-02  0.8027546E-01
        2   -1    0    0  501    0  0.00000000000E+00  0.00000000000E+00  0.20081229892E+04  0.20081229892E+04  0.25500000920E-02 0.  1.
       -2   -1    0    0    0  501  0.00000000000E+00  0.00000000000E+00 -0.18818478028E+04  0.18818478028E+04  0.25500000920E-02 0. -1.
    10030    2    1    2    0    0  0.00000000000E+00  0.00000000000E+00  0.12627518643E+03  0.38899707921E+04  0.38879206963E+04 0.  0.
        5    1    3    3  502    0  0.18254041849E+02  0.69141942372E+03 -0.17545662885E+04  0.18859795811E+04  0.46999998093E+01 0. -1.
       -5    1    3    3    0  502 -0.18254041849E+02 -0.69141942372E+03  0.18808414750E+04  0.20039912109E+04  0.46999998093E+01 0.  1.
</event>
<event>
 5   0  0.4750125E-08  0.3883387E+04  0.7818609E-02  0.8028493E-01
        1   -1    0    0  501    0  0.00000000000E+00  0.00000000000E+00  0.21382441004E+04  0.21382441004E+04  0.50400001928E-02 0. -1.
       -1   -1    0    0    0  501  0.00000000000E+00  0.00000000000E+00 -0.17632101904E+04  0.17632101905E+04  0.50400001928E-02 0.  1.
    10030    2    1    2    0    0  0.00000000000E+00  0.00000000000E+00  0.37503390992E+03  0.39014542908E+04  0.38833870719E+04 0.  0.
        1    1    3    3  502    0  0.16378063051E+04  0.28475968890E+03  0.11955174519E+04  0.20476229026E+04  0.50400001928E-02 0. -1.
       -1    1    3    3    0  502 -0.16378063051E+04 -0.28475968890E+03 -0.82048354196E+03  0.18538313882E+04  0.50400001928E-02 0.  1.
</event>
<event>
 5   0  0.1538018E-07  0.3914224E+04  0.7818609E-02  0.8022077E-01
       -2   -1    0    0    0  501  0.00000000000E+00  0.00000000000E+00  0.20509044034E+04  0.20509044034E+04  0.25500000920E-02 0. -1.
        2   -1    0    0  501    0  0.00000000000E+00  0.00000000000E+00 -0.18676090810E+04  0.18676090810E+04  0.25500000920E-02 0.  1.
    10030    2    1    2    0    0  0.00000000000E+00  0.00000000000E+00  0.18329532235E+03  0.39185134844E+04  0.39142241572E+04 0.  0.
        1    1    3    3  502    0  0.83995181878E+03  0.78246997102E+03  0.16784743568E+04  0.20334833365E+04  0.50400001928E-02 0. -1.
       -1    1    3    3    0  502 -0.83995181878E+03 -0.78246997102E+03 -0.14951790345E+04  0.18850301479E+04  0.50400001928E-02 0.  1.
</event>
<event>
 5   0  0.4750125E-08  0.3914406E+04  0.7818609E-02  0.8022040E-01
        1   -1    0    0  501    0  0.00000000000E+00  0.00000000000E+00  0.17535440706E+04  0.17535440706E+04  0.50400001928E-02 0.  1.
       -1   -1    0    0    0  501  0.00000000000E+00  0.00000000000E+00 -0.21845146052E+04  0.21845146052E+04  0.50400001928E-02 0. -1.
    10030    2    1    2    0    0  0.00000000000E+00  0.00000000000E+00 -0.43097053459E+03  0.39380586758E+04  0.39144055146E+04 0.  0.
        1    1    3    3  502    0  0.18542583070E+04 -0.22389166856E+03  0.37306365252E+03  0.19046201293E+04  0.50400001928E-02 0.  1.
       -1    1    3    3    0  502 -0.18542583070E+04  0.22389166856E+03 -0.80403418711E+03  0.20334385465E+04  0.50400001928E-02 0. -1.
</event>
<event>
 5   0  0.1501585E-07  0.3907301E+04  0.7818609E-02  0.8023513E-01
        2   -1    0    0  501    0  0.00000000000E+00  0.00000000000E+00  0.20312001630E+04  0.20312001630E+04  0.25500000920E-02 0. -1.
       -2   -1    0    0    0  501  0.00000000000E+00  0.00000000000E+00 -0.18790611871E+04  0.18790611871E+04  0.25500000920E-02 0.  1.
    10030    2    1    2    0    0  0.00000000000E+00  0.00000000000E+00  0.15213897589E+03  0.39102613501E+04  0.39073005461E+04 0.  0.
        5    1    3    3  502    0 -0.24627699418E+03  0.18657477332E+04 -0.44878987989E+03  0.19347096444E+04  0.46999998093E+01 0.  1.
       -5    1    3    3    0  502  0.24627699418E+03 -0.18657477332E+04  0.60092885577E+03  0.19755517056E+04  0.46999998093E+01 0. -1.
</event>
<event>
 5   0  0.1538018E-07  0.3504901E+04  0.7818609E-02  0.8112629E-01
       -2   -1    0    0    0  501  0.00000000000E+00  0.00000000000E+00  0.15564982279E+04  0.15564982279E+04  0.25500000920E-02 0. -1.
        2   -1    0    0  501    0  0.00000000000E+00  0.00000000000E+00 -0.19730716235E+04  0.19730716235E+04  0.25500000920E-02 0.  1.
    10030    2    1    2    0    0  0.00000000000E+00  0.00000000000E+00 -0.41657339555E+03  0.35295698514E+04  0.35049008462E+04 0.  0.
        1    1    3    3  502    0  0.15165866154E+04  0.26065759790E+03 -0.10527021681E+04  0.18644460840E+04  0.50400001928E-02 0.  1.
       -1    1    3    3    0  502 -0.15165866154E+04 -0.26065759790E+03  0.63612877255E+03  0.16651237674E+04  0.50400001928E-02 0. -1.
</event>
<event>
 5   0  0.1501585E-07  0.3909245E+04  0.7818609E-02  0.8023109E-01
        2   -1    0    0  501    0  0.00000000000E+00  0.00000000000E+00  0.23011121545E+04  0.23011121545E+04  0.25500000920E-02 0.  1.
       -2   -1    0    0    0  501  0.00000000000E+00  0.00000000000E+00 -0.16603052907E+04  0.16603052907E+04  0.25500000920E-02 0. -1.
    10030    2    1    2    0    0  0.00000000000E+00  0.00000000000E+00  0.64080686379E+03  0.39614174451E+04  0.39092447784E+04 0.  0.
        5    1    3    3  502    0 -0.49865042084E+03  0.54403720105E+03 -0.15136961939E+04  0.16840210734E+04  0.46999998093E+01 0. -1.
       -5    1    3    3    0  502  0.49865042084E+03 -0.54403720105E+03  0.21545030577E+04  0.22773963717E+04  0.46999998093E+01 0.  1.
</event>
<event>
 5   0  0.1501585E-07  0.3910603E+04  0.7818609E-02  0.8022828E-01
        2   -1    0    0  501    0  0.00000000000E+00  0.00000000000E+00  0.28985952537E+04  0.28985952537E+04  0.25500000920E-02 0. -1.
       -2   -1    0    0    0  501  0.00000000000E+00  0.00000000000E+00 -0.13189848001E+04  0.13189848001E+04  0.25500000920E-02 0.  1.
    10030    2    1    2    0    0  0.00000000000E+00  0.00000000000E+00  0.15796104536E+04  0.42175800538E+04  0.39106025527E+04 0.  0.
        5    1    3    3  502    0  0.23084833931E+03  0.19142611817E+04  0.43951028036E+03  0.19775940443E+04  0.46999998093E+01 0. -1.
       -5    1    3    3    0  502 -0.23084833931E+03 -0.19142611817E+04  0.11401001732E+04  0.22399860095E+04  0.46999998093E+01 0.  1.
</event>
<event>
 5   0  0.4762788E-08  0.3872196E+04  0.7818609E-02  0.8030837E-01
        1   -1    0    0  501    0  0.00000000000E+00  0.00000000000E+00  0.19787581300E+04  0.19787581300E+04  0.50400001928E-02 0.  1.
       -1   -1    0    0    0  501  0.00000000000E+00  0.00000000000E+00 -0.18943579870E+04  0.18943579870E+04  0.50400001928E-02 0. -1.
    10030    2    1    2    0    0  0.00000000000E+00  0.00000000000E+00  0.84400143027E+02  0.38731161170E+04  0.38721964144E+04 0.  0.
        2    1    3    3  502    0  0.18835760353E+04  0.44776231398E+03  0.53449840600E+02  0.19368032053E+04  0.25500000920E-02 0. -1.
       -2    1    3    3    0  502 -0.18835760353E+04 -0.44776231398E+03  0.30950302427E+02  0.19363129117E+04  0.25500000920E-02 0.  1.
</event>
<event>
 5   0  0.1503228E-07  0.3601011E+04  0.7818609E-02  0.8090260E-01
        2   -1    0    0  501    0  0.00000000000E+00  0.00000000000E+00  0.18237163255E+04  0.18237163255E+04  0.25500000920E-02 0.  1.
       -2   -1    0    0    0  501  0.00000000000E+00  0.00000000000E+00 -0.17775901172E+04  0.17775901172E+04  0.25500000920E-02 0. -1.
    10030    2    1    2    0    0  0.00000000000E+00  0.00000000000E+00  0.46126208352E+02  0.36013064427E+04  0.36010110340E+04 0.  0.
        3    1    3    3  502    0  0.16419353324E+03  0.14405794240E+04 -0.10445409861E+04  0.17869791479E+04  0.10100000352E+00 0. -1.
       -3    1    3    3    0  502 -0.16419353324E+03 -0.14405794240E+04  0.10906671945E+04  0.18143272948E+04  0.10100000352E+00 0.  1.
</event>
<event>
 5   0  0.4762788E-08  0.3928430E+04  0.7818609E-02  0.8019142E-01
       -1   -1    0    0    0  501  0.00000000000E+00  0.00000000000E+00  0.29902829519E+04  0.29902829519E+04  0.50400001928E-02 0.  1.
        1   -1    0    0  501    0  0.00000000000E+00  0.00000000000E+00 -0.12902258207E+04  0.12902258207E+04  0.50400001928E-02 0. -1.
    10030    2    1    2    0    0  0.00000000000E+00  0.00000000000E+00  0.17000571312E+04  0.42805087726E+04  0.39284298521E+04 0.  0.
        2    1    3    3  502    0  0.10936389524E+04 -0.10980542840E+04 -0.46493096225E+03  0.16180019062E+04  0.25500000920E-02 0. -1.
       -2    1    3    3    0  502 -0.10936389524E+04  0.10980542840E+04  0.21649880935E+04  0.26625068664E+04  0.25500000920E-02 0.  1.
</event>
<event>
 5   0  0.1520986E-07  0.3917875E+04  0.7818609E-02  0.8021322E-01
       -2   -1    0    0    0  501  0.00000000000E+00  0.00000000000E+00  0.22456324824E+04  0.22456324824E+04  0.25500000920E-02 0. -1.
        2   -1    0    0  501    0  0.00000000000E+00  0.00000000000E+00 -0.17088442309E+04  0.17088442309E+04  0.25500000920E-02 0.  1.
    10030    2    1    2    0    0  0.00000000000E+00  0.00000000000E+00  0.53678825151E+03  0.39544767133E+04  0.39178749915E+04 0.  0.
        4    1    3    3  502    0  0.71908424677E+03  0.51351587442E+03  0.20330562876E+04  0.22167769821E+04  0.12699999809E+01 0. -1.
       -4    1    3    3    0  502 -0.71908424677E+03 -0.51351587442E+03 -0.14962680360E+04  0.17376997312E+04  0.12699999809E+01 0.  1.
</event>
<event>
 5   0  0.4750125E-08  0.3904844E+04  0.7818609E-02  0.8024022E-01
       -1   -1    0    0    0  501  0.00000000000E+00  0.00000000000E+00  0.20566597655E+04  0.20566597655E+04  0.50400001928E-02 0. -1.
        1   -1    0    0  501    0  0.00000000000E+00  0.00000000000E+00 -0.18534677482E+04  0.18534677482E+04  0.50400001928E-02 0.  1.
    10030    2    1    2    0    0  0.00000000000E+00  0.00000000000E+00  0.20319201727E+03  0.39101275137E+04  0.39048444499E+04 0.  0.
        3    1    3    3  502    0 -0.14636883005E+04  0.67442722884E+03  0.12052291611E+04  0.20124146861E+04  0.10100000352E+00 0. -1.
       -3    1    3    3    0  502  0.14636883005E+04 -0.67442722884E+03 -0.10020371439E+04  0.18977128276E+04  0.10100000352E+00 0.  1.
</event>
<event>
 5   0  0.1503228E-07  0.3936378E+04  0.7818609E-02  0.8017505E-01
        2   -1    0    0  501    0  0.00000000000E+00  0.00000000000E+00  0.23916394566E+04  0.23916394566E+04  0.25500000920E-02 0. -1.
       -2   -1    0    0    0  501  0.00000000000E+00  0.00000000000E+00 -0.16197126614E+04  0.16197126614E+04  0.25500000920E-02 0.  1.
    10030    2    1    2    0    0  0.00000000000E+00  0.00000000000E+00  0.77192679520E+03  0.40113521179E+04  0.39363783910E+04 0.  0.
        3    1    3    3  502    0 -0.97414028954E+03  0.12585650048E+04  0.15659616852E+04  0.22327496914E+04  0.10100000352E+00 0. -1.
       -3    1    3    3    0  502  0.97414028954E+03 -0.12585650048E+04 -0.79403488995E+03  0.17786024265E+04  0.10100000352E+00 0.  1.
</event>
<event>
 5   0  0.4750125E-08  0.4301679E+04  0.7818609E-02  0.7946308E-01
        1   -1    0    0  501    0  0.00000000000E+00  0.00000000000E+00  0.27937919064E+04  0.27937919064E+04  0.50400001928E-02 0.  1.
       -1   -1    0    0    0  501  0.00000000000E+00  0.00000000000E+00 -0.16558537096E+04  0.16558537096E+04  0.50400001928E-02 0. -1.
    10030    2    1    2    0    0  0.00000000000E+00  0.00000000000E+00  0.11379381968E+04  0.44496456161E+04  0.43016790639E+04 0.  0.
        4    1    3    3  502    0 -0.11774928355E+04 -0.11113362089E+04 -0.89555334235E+03  0.18502905039E+04  0.12699999809E+01 0. -1.
       -4    1    3    3    0  502  0.11774928355E+04  0.11113362089E+04  0.20334915391E+04  0.25993551122E+04  0.12699999809E+01 0.  1.
</event>
<event>
 5   0  0.1538018E-07  0.3874000E+04  0.7818609E-02  0.8030459E-01
       -2   -1    0    0    0  501  0.00000000000E+00  0.00000000000E+00  0.18460421988E+04  0.18460421988E+04  0.25500000920E-02 0. -1.
        2   -1    0    0  501    0  0.00000000000E+00  0.00000000000E+00 -0.20324392891E+04  0.20324392892E+04  0.25500000920E-02 0.  1.
    10030    2    1    2    0    0  0.00000000000E+00  0.00000000000E+00 -0.18639709031E+03  0.38784814880E+04  0.38739998422E+04 0.  0.
        1    1    3    3  502    0 -0.87798610741E+03 -0.11690575924E+04 -0.13652641377E+04  0.20003753210E+04  0.50400001928E-02 0.  1.
       -1    1    3    3    0  502  0.87798610741E+03  0.11690575924E+04  0.11788670474E+04  0.18781061670E+04  0.50400001928E-02 0. -1.
</event>
<event>
 5   0  0.4750125E-08  0.3895708E+04  0.7818609E-02  0.8025922E-01
        1   -1    0    0  501    0  0.00000000000E+00  0.00000000000E+00  0.25797501607E+04  0.25797501607E+04  0.50400001928E-02 0.  1.
       -1   -1    0    0    0  501  0.00000000000E+00  0.00000000000E+00 -0.14707374819E+04  0.14707374819E+04  0.50400001928E-02 0. -1.
    10030    2    1    2    0    0  0.00000000000E+00  0.00000000000E+00  0.11090126788E+04  0.40504876426E+04  0.38957080256E+04 0.  0.
        5    1    3    3  502    0 -0.18315708624E+04 -0.53215636071E+03  0.96552357715E+03  0.21377792412E+04  0.46999998093E+01 0.  1.
       -5    1    3    3    0  502  0.18315708624E+04  0.53215636071E+03  0.14348910165E+03  0.19127084013E+04  0.46999998093E+01 0. -1.
</event>
<event>
 5   0  0.4750125E-08  0.3893007E+04  0.7818609E-02  0.8026485E-01
        1   -1    0    0  501    0  0.00000000000E+00  0.00000000000E+00  0.17385145601E+04  0.17385145601E+04  0.50400001928E-02 0. -1.
       -1   -1    0    0    0  501  0.00000000000E+00  0.00000000000E+00 -0.21793751164E+04  0.21793751164E+04  0.50400001928E-02 0.  1.
    10030    2    1    2    0    0  0.00000000000E+00  0.00000000000E+00 -0.44086055629E+03  0.39178896766E+04  0.38930067413E+04 0.  0.
        4    1    3    3  502    0  0.24357095302E+03 -0.16154729656E+04 -0.12853972132E+04  0.20787802482E+04  0.12699999809E+01 0.  1.
       -4    1    3    3    0  502 -0.24357095302E+03  0.16154729656E+04  0.84453665693E+03  0.18391094284E+04  0.12699999809E+01 0. -1.
</event>
<event>
 5   0  0.1503228E-07  0.3876801E+04  0.7818609E-02  0.8029871E-01
        2   -1    0    0  501    0  0.00000000000E+00  0.00000000000E+00  0.28782638586E+04  0.28782638586E+04  0.25500000920E-02 0. -1.
       -2   -1    0    0    0  501  0.00000000000E+00  0.00000000000E+00 -0.13054386358E+04  0.13054386358E+04  0.25500000920E-02 0.  1.
    10030    2    1    2    0    0  0.00000000000E+00  0.00000000000E+00  0.15728252228E+04  0.41837024944E+04  0.38768011789E+04 0.  0.
        3    1    3    3  502    0 -0.70899606281E+01  0.73607466382E+03  0.27215609780E+04  0.28193528238E+04  0.10100000352E+00 0. -1.
       -3    1    3    3    0  502  0.70899606281E+01 -0.73607466382E+03 -0.11487357552E+04  0.13643496706E+04  0.10100000352E+00 0.  1.
</event>
<event>
 5   0  0.4750125E-08  0.3854183E+04  0.7818609E-02  0.8034626E-01
        3   -1    0    0  501    0  0.00000000000E+00  0.00000000000E+00  0.27964114127E+04  0.27964114145E+04  0.10100000352E+00 0.  1.
       -3   -1    0    0    0  501  0.00000000000E+00  0.00000000000E+00 -0.13280167542E+04  0.13280167581E+04  0.10100000352E+00 0. -1.
    10030    2    1    2    0    0  0.00000000000E+00  0.00000000000E+00  0.14683946585E+04  0.41244281726E+04  0.38541827769E+04 0.  0.
        3    1    3    3  502    0  0.46022370114E+03 -0.98802378277E+03  0.24348709513E+04  0.26676943997E+04  0.10100000352E+00 0.  1.
       -3    1    3    3    0  502 -0.46022370114E+03  0.98802378277E+03 -0.96647629282E+03  0.14567337729E+04  0.10100000352E+00 0. -1.
</event>
<event>
 5   0  0.4750125E-08  0.3906350E+04  0.7818609E-02  0.8023710E-01
        1   -1    0    0  501    0  0.00000000000E+00  0.00000000000E+00  0.20354453599E+04  0.20354453599E+04  0.50400001928E-02 0. -1.
       -1   -1    0    0    0  501  0.00000000000E+00  0.00000000000E+00 -0.18742301239E+04  0.18742301239E+04  0.50400001928E-02 0.  1.
    10030    2    1    2    0    0  0.00000000000E+00  0.00000000000E+00  0.16121523601E+03  0.39096754837E+04  0.39063502193E+04 0.  0.
        3    1    3    3  502    0 -0.14662775619E+04 -0.12845582317E+04  0.20250316271E+03  0.19598640974E+04  0.10100000352E+00 0.  1.
       -3    1    3    3    0  502  0.14662775619E+04  0.12845582317E+04 -0.41287926697E+02  0.19498113863E+04  0.10100000352E+00 0. -1.
</event>
<event>
 5   0  0.4762788E-08  0.3898629E+04  0.7818609E-02  0.8025314E-01
       -1   -1    0    0    0  501  0.00000000000E+00  0.00000000000E+00  0.15527564609E+04  0.15527564609E+04  0.50400001928E-02 0. -1.
        1   -1    0    0  501    0  0.00000000000E+00  0.00000000000E+00 -0.24471489352E+04  0.24471489352E+04  0.50400001928E-02 0.  1.
    10030    2    1    2    0    0  0.00000000000E+00  0.00000000000E+00 -0.89439247427E+03  0.39999053962E+04  0.38986286410E+04 0.  0.
        2    1    3    3  502    0  0.36970806968E+03 -0.27896833928E+03 -0.23898783782E+04  0.24343430435E+04  0.25500000920E-02 0.  1.
       -2    1    3    3    0  502 -0.36970806968E+03  0.27896833928E+03  0.14954859039E+04  0.15655623526E+04  0.25500000920E-02 0. -1.
</event>
<event>
 5   0  0.1546846E-07  0.3966847E+04  0.7818609E-02  0.8011268E-01
       -2   -1    0    0    0  501  0.00000000000E+00  0.00000000000E+00  0.20685036315E+04  0.20685036315E+04  0.25500000920E-02 0.  1.
        2   -1    0    0  501    0  0.00000000000E+00  0.00000000000E+00 -0.19018429293E+04  0.19018429293E+04  0.25500000920E-02 0. -1.
    10030    2    1    2    0    0  0.00000000000E+00  0.00000000000E+00  0.16666070220E+03  0.39703465608E+04  0.39668471137E+04 0.  0.
        2    1    3    3  502    0 -0.19437017407E+04 -0.27089060477E+03  0.37100490256E+03  0.19972488113E+04  0.25500000920E-02 0.  1.
       -2    1    3    3    0  502  0.19437017407E+04  0.27089060477E+03 -0.20434420036E+03  0.19730977494E+04  0.25500000920E-02 0. -1.
</event>
<event>
 5   0  0.4750125E-08  0.3896885E+04  0.7818609E-02  0.8025677E-01
       -1   -1    0    0    0  501  0.00000000000E+00  0.00000000000E+00  0.26311217998E+04  0.26311217998E+04  0.50400001928E-02 0. -1.
        1   -1    0    0  501    0  0.00000000000E+00  0.00000000000E+00 -0.14428932384E+04  0.14428932384E+04  0.50400001928E-02 0.  1.
    10030    2    1    2    0    0  0.00000000000E+00  0.00000000000E+00  0.11882285614E+04  0.40740150383E+04  0.38968848351E+04 0.  0.
        4    1    3    3  502    0  0.18397026992E+04 -0.33090228009E+03  0.19186741182E+02  0.18693239645E+04  0.12699999809E+01 0.  1.
       -4    1    3    3    0  502 -0.18397026992E+04  0.33090228009E+03  0.11690418202E+04  0.22046910738E+04  0.12699999809E+01 0. -1.
</event>
<event>
 5   0  0.4762788E-08  0.3899807E+04  0.7818609E-02  0.8025069E-01
        1   -1    0    0  501    0  0.00000000000E+00  0.00000000000E+00  0.23644870302E+04  0.23644870302E+04  0.50400001928E-02 0. -1.
       -1   -1    0    0    0  501  0.00000000000E+00  0.00000000000E+00 -0.16080121937E+04  0.16080121937E+04  0.50400001928E-02 0.  1.
    10030    2    1    2    0    0  0.00000000000E+00  0.00000000000E+00  0.75647483644E+03  0.39724992239E+04  0.38998071626E+04 0.  0.
        2    1    3    3  502    0 -0.17130446869E+04  0.78964246445E+03 -0.12500230337E+03  0.18904187094E+04  0.25500000920E-02 0.  1.
       -2    1    3    3    0  502  0.17130446869E+04 -0.78964246445E+03  0.88147713982E+03  0.20820805145E+04  0.25500000920E-02 0. -1.
</event>
<event>
 5   0  0.4750125E-08  0.3709495E+04  0.7818609E-02  0.8065861E-01
       -1   -1    0    0    0  501  0.00000000000E+00  0.00000000000E+00  0.19859308088E+04  0.19859308088E+04  0.50400001928E-02 0. -1.
        1   -1    0    0  501    0  0.00000000000E+00  0.00000000000E+00 -0.17322293541E+04  0.17322293541E+04  0.50400001928E-02 0.  1.
    10030    2    1    2    0    0  0.00000000000E+00  0.00000000000E+00  0.25370145470E+03  0.37181601630E+04  0.37094946515E+04 0.  0.
        3    1    3    3  502    0 -0.88637889810E+03  0.51803532084E+03 -0.14214452224E+04  0.17534351072E+04  0.10100000352E+00 0.  1.
       -3    1    3    3    0  502  0.88637889810E+03 -0.51803532084E+03  0.16751466771E+04  0.19647250558E+04  0.10100000352E+00 0. -1.
</event>
<event>
 5   0  0.1538018E-07  0.3898764E+04  0.7818609E-02  0.8025286E-01
       -2   -1    0    0    0  501  0.00000000000E+00  0.00000000000E+00  0.29739996737E+04  0.29739996737E+04  0.25500000920E-02 0.  1.
        2   -1    0    0  501    0  0.00000000000E+00  0.00000000000E+00 -0.12777706502E+04  0.12777706502E+04  0.25500000920E-02 0. -1.
    10030    2    1    2    0    0  0.00000000000E+00  0.00000000000E+00  0.16962290235E+04  0.42517703239E+04  0.38987636485E+04 0.  0.
        1    1    3    3  502    0  0.13145188117E+04  0.11982469038E+04 -0.21817882226E+02  0.17788286507E+04  0.50400001928E-02 0. -1.
       -1    1    3    3    0  502 -0.13145188117E+04 -0.11982469038E+04  0.17180469058E+04  0.24729416732E+04  0.50400001928E-02 0.  1.
</event>
<event>
 5   0  0.1520986E-07  0.3905600E+04  0.7818609E-02  0.8023866E-01
        2   -1    0    0  501    0  0.00000000000E+00  0.00000000000E+00  0.25777813475E+04  0.25777813475E+04  0.25500000920E-02 0.  1.
       -2   -1    0    0    0  501  0.00000000000E+00  0.00000000000E+00 -0.14793446010E+04  0.14793446010E+04  0.25500000920E-02 0. -1.
    10030    2    1    2    0    0  0.00000000000E+00  0.00000000000E+00  0.10984367465E+04  0.40571259486E+04  0.39055995285E+04 0.  0.
        4    1    3    3  502    0 -0.22324190518E+02 -0.84759068384E+03  0.23765914192E+04  0.25233106673E+04  0.12699999809E+01 0.  1.
       -4    1    3    3    0  502  0.22324190518E+02  0.84759068384E+03 -0.12781546727E+04  0.15338152813E+04  0.12699999809E+01 0. -1.
</event>
<event>
 5   0  0.4750125E-08  0.3915415E+04  0.7818609E-02  0.8021831E-01
        1   -1    0    0  501    0  0.00000000000E+00  0.00000000000E+00  0.16707216662E+04  0.16707216662E+04  0.50400001928E-02 0.  1.
       -1   -1    0    0    0  501  0.00000000000E+00  0.00000000000E+00 -0.22939899013E+04  0.22939899013E+04  0.50400001928E-02 0. -1.
    10030    2    1    2    0    0  0.00000000000E+00  0.00000000000E+00 -0.62326823513E+03  0.39647115675E+04  0.39154149870E+04 0.  0.
        3    1    3    3  502    0  0.14980559422E+04 -0.10202100506E+04  0.43769540146E+03  0.18645582394E+04  0.10100000352E+00 0. -1.
       -3    1    3    3    0  502 -0.14980559422E+04  0.10202100506E+04 -0.10609636366E+04  0.21001533281E+04  0.10100000352E+00 0.  1.
</event>
<event>
 5   0  0.1538018E-07  0.3914476E+04  0.7818609E-02  0.8022025E-01
        2   -1    0    0  501    0  0.00000000000E+00  0.00000000000E+00  0.14488971973E+04  0.14488971973E+04  0.25500000920E-02 0. -1.
       -2   -1    0    0    0  501  0.00000000000E+00  0.00000000000E+00 -0.26439288956E+04  0.26439288956E+04  0.25500000920E-02 0.  1.
    10030    2    1    2    0    0  0.00000000000E+00  0.00000000000E+00 -0.11950316983E+04  0.40928260929E+04  0.39144762954E+04 0.  0.
        1    1    3    3  502    0  0.16630319904E+04  0.26476827376E+03  0.44543041824E+03  0.17418914712E+04  0.50400001928E-02 0. -1.
       -1    1    3    3    0  502 -0.16630319904E+04 -0.26476827376E+03 -0.16404621165E+04  0.23509346217E+04  0.50400001928E-02 0.  1.
</event>
<event>
 5   0  0.1520986E-07  0.3489333E+04  0.7818609E-02  0.8116323E-01
        2   -1    0    0  501    0  0.00000000000E+00  0.00000000000E+00  0.17883914631E+04  0.17883914631E+04  0.25500000920E-02 0.  1.
       -2   -1    0    0    0  501  0.00000000000E+00  0.00000000000E+00 -0.17020105202E+04  0.17020105202E+04  0.25500000920E-02 0. -1.
    10030    2    1    2    0    0  0.00000000000E+00  0.00000000000E+00  0.86380942931E+02  0.34904019833E+04  0.34893329359E+04 0.  0.
        4    1    3    3  502    0 -0.10949668606E+04  0.27302169960E+03  0.13741492080E+04  0.17781397395E+04  0.12699999809E+01 0.  1.
       -4    1    3    3    0  502  0.10949668606E+04 -0.27302169960E+03 -0.12877682650E+04  0.17122622439E+04  0.12699999809E+01 0. -1.
</event>
<event>
 5   0  0.1501585E-07  0.3916416E+04  0.7818609E-02  0.8021624E-01
        2   -1    0    0  501    0  0.00000000000E+00  0.00000000000E+00  0.29391643104E+04  0.29391643104E+04  0.25500000920E-02 0.  1.
       -2   -1    0    0    0  501  0.00000000000E+00  0.00000000000E+00 -0.13046491840E+04  0.13046491840E+04  0.25500000920E-02 0. -1.
    10030    2    1    2    0    0  0.00000000000E+00  0.00000000000E+00  0.16345151264E+04  0.42438134944E+04  0.39164158713E+04 0.  0.
        5    1    3    3  502    0  0.19286308568E+04 -0.22581898795E+03  0.54324473662E+03  0.20163700382E+04  0.46999998093E+01 0. -1.
       -5    1    3    3    0  502 -0.19286308568E+04  0.22581898795E+03  0.10912703898E+04  0.22274434562E+04  0.46999998093E+01 0.  1.
</event>
<event>
 5   0  0.1538018E-07  0.3908382E+04  0.7818609E-02  0.8023288E-01
       -2   -1    0    0    0  501  0.00000000000E+00  0.00000000000E+00  0.15883440820E+04  0.15883440820E+04  0.25500000920E-02 0.  1.
        2   -1    0    0  501    0  0.00000000000E+00  0.00000000000E+00 -0.24043042545E+04  0.24043042545E+04  0.25500000920E-02 0. -1.
    10030    2    1    2    0    0  0.00000000000E+00  0.00000000000E+00 -0.81596017250E+03  0.39926483365E+04  0.39083819843E+04 0.  0.
        1    1    3    3  502    0 -0.18891890902E+04 -0.43142134405E+03 -0.66581562019E+03  0.20490168947E+04  0.50400001928E-02 0. -1.
       -1    1    3    3    0  502  0.18891890902E+04  0.43142134405E+03 -0.15014455231E+03  0.19436314417E+04  0.50400001928E-02 0.  1.
</event>
<event>
 5   0  0.1501585E-07  0.3908162E+04  0.7818609E-02  0.8023334E-01
       -2   -1    0    0    0  501  0.00000000000E+00  0.00000000000E+00  0.15703180759E+04  0.15703180759E+04  0.25500000920E-02 0.  1.
        2   -1    0    0  501    0  0.00000000000E+00  0.00000000000E+00 -0.24316295040E+04  0.24316295040E+04  0.25500000920E-02 0. -1.
    10030    2    1    2    0    0  0.00000000000E+00  0.00000000000E+00 -0.86131142812E+03  0.40019475799E+04  0.39081615955E+04 0.  0.
        5    1    3    3  502    0 -0.77555712109E+03  0.21240752433E+03 -0.22543500332E+04  0.23934748728E+04  0.46999998093E+01 0. -1.
       -5    1    3    3    0  502  0.77555712109E+03 -0.21240752433E+03  0.13930386051E+04  0.16084727072E+04  0.46999998093E+01 0.  1.
</event>
<event>
 5   0  0.1538018E-07  0.3906789E+04  0.7818609E-02  0.8023619E-01
        2   -1    0    0  501    0  0.00000000000E+00  0.00000000000E+00  0.18722918719E+04  0.18722918719E+04  0.25500000920E-02 0.  1.
       -2   -1    0    0    0  501  0.00000000000E+00  0.00000000000E+00 -0.20380105433E+04  0.20380105433E+04  0.25500000920E-02 0. -1.
    10030    2    1    2    0    0  0.00000000000E+00  0.00000000000E+00 -0.16571867132E+03  0.39103024152E+04  0.39067892572E+04 0.  0.
        1    1    3    3  502    0  0.56756778132E+03  0.17557903682E+04 -0.72438622867E+03  0.19823391263E+04  0.50400001928E-02 0. -1.
       -1    1    3    3    0  502 -0.56756778132E+03 -0.17557903682E+04  0.55866755735E+03  0.19279632888E+04  0.50400001928E-02 0.  1.
</event>
<event>
 5   0  0.4750125E-08  0.3616801E+04  0.7818609E-02  0.8086654E-01
        1   -1    0    0  501    0  0.00000000000E+00  0.00000000000E+00  0.10564654945E+04  0.10564654946E+04  0.50400001928E-02 0.  1.
       -1   -1    0    0    0  501  0.00000000000E+00  0.00000000000E+00 -0.30955219562E+04  0.30955219562E+04  0.50400001928E-02 0. -1.
    10030    2    1    2    0    0  0.00000000000E+00  0.00000000000E+00 -0.20390564616E+04  0.41519874508E+04  0.36168008706E+04 0.  0.
        4    1    3    3  502    0  0.67335481090E+03  0.13705196661E+04 -0.21316875466E+04  0.26221792970E+04  0.12699999809E+01 0. -1.
       -4    1    3    3    0  502 -0.67335481090E+03 -0.13705196661E+04  0.92631084995E+02  0.15298081537E+04  0.12699999809E+01 0.  1.
</event>
<event>
 5   0  0.4750125E-08  0.3906569E+04  0.7818609E-02  0.8023664E-01
        1   -1    0    0  501    0  0.00000000000E+00  0.00000000000E+00  0.20491494461E+04  0.20491494461E+04  0.50400001928E-02 0. -1.
       -1   -1    0    0    0  501  0.00000000000E+00  0.00000000000E+00 -0.18619046973E+04  0.18619046973E+04  0.50400001928E-02 0.  1.
    10030    2    1    2    0    0  0.00000000000E+00  0.00000000000E+00  0.18724474876E+03  0.39110541434E+04  0.39065693283E+04 0.  0.
        3    1    3    3  502    0 -0.15412781037E+04  0.10041484358E+04  0.75123923236E+03  0.19870109885E+04  0.10100000352E+00 0. -1.
       -3    1    3    3    0  502  0.15412781037E+04 -0.10041484358E+04 -0.56399448359E+03  0.19240431549E+04  0.10100000352E+00 0.  1.
</event>
<event>
 5   0  0.1538018E-07  0.3939239E+04  0.7818609E-02  0.8016917E-01
        2   -1    0    0  501    0  0.00000000000E+00  0.00000000000E+00  0.23585746397E+04  0.23585746397E+04  0.25500000920E-02 0. -1.
       -2   -1    0    0    0  501  0.00000000000E+00  0.00000000000E+00 -0.16448073170E+04  0.16448073170E+04  0.25500000920E-02 0.  1.
    10030    2    1    2    0    0  0.00000000000E+00  0.00000000000E+00  0.71376732276E+03  0.40033819567E+04  0.39392389240E+04 0.  0.
        1    1    3    3  502    0  0.38481947445E+02  0.15096008573E+03 -0.16385361327E+04  0.16459254133E+04  0.50400001928E-02 0.  1.
       -1    1    3    3    0  502 -0.38481947445E+02 -0.15096008573E+03  0.23523034555E+04  0.23574565435E+04  0.50400001928E-02 0. -1.
</event>
<event>
 5   0  0.4762788E-08  0.3904072E+04  0.7818609E-02  0.8024183E-01
       -1   -1    0    0    0  501  0.00000000000E+00  0.00000000000E+00  0.17630937265E+04  0.17630937265E+04  0.50400001928E-02 0. -1.
        1   -1    0    0  501    0  0.00000000000E+00  0.00000000000E+00 -0.21612263032E+04  0.21612263032E+04  0.50400001928E-02 0.  1.
    10030    2    1    2    0    0  0.00000000000E+00  0.00000000000E+00 -0.39813257675E+03  0.39243200297E+04  0.39040719956E+04 0.  0.
        2    1    3    3  502    0 -0.53858472869E+03  0.18507705941E+04  0.11078432751E+03  0.19307248559E+04  0.25500000920E-02 0. -1.
       -2    1    3    3    0  502  0.53858472869E+03 -0.18507705941E+04 -0.50891690426E+03  0.19935951739E+04  0.25500000920E-02 0.  1.
</event>
<event>
 5   0  0.1546846E-07  0.3993590E+04  0.7818609E-02  0.8005841E-01
        2   -1    0    0  501    0  0.00000000000E+00  0.00000000000E+00  0.17425848596E+04  0.17425848596E+04  0.25500000920E-02 0. -1.
       -2   -1    0    0    0  501  0.00000000000E+00  0.00000000000E+00 -0.22880892130E+04  0.22880892130E+04  0.25500000920E-02 0.  1.
    10030    2    1    2    0    0  0.00000000000E+00  0.00000000000E+00 -0.54550435347E+03  0.40306740726E+04  0.39935896735E+04 0.  0.
        2    1    3    3  502    0 -0.17164774241E+03 -0.67824499534E+03  0.16148312920E+04  0.17598748031E+04  0.25500000920E-02 0. -1.
       -2    1    3    3    0  502  0.17164774241E+03  0.67824499534E+03 -0.21603356455E+04  0.22707992695E+04  0.25500000920E-02 0.  1.
</event>
<event>
 5   0  0.4750125E-08  0.3875327E+04  0.7818609E-02  0.8030180E-01
       -1   -1    0    0    0  501  0.00000000000E+00  0.00000000000E+00  0.15950030960E+04  0.15950030960E+04  0.50400001928E-02 0. -1.
        1   -1    0    0  501    0  0.00000000000E+00  0.00000000000E+00 -0.23539392685E+04  0.23539392685E+04  0.50400001928E-02 0.  1.
    10030    2    1    2    0    0  0.00000000000E+00  0.00000000000E+00 -0.75893617254E+03  0.39489423645E+04  0.38753273003E+04 0.  0.
        4    1    3    3  502    0 -0.15584764309E+04  0.49127609233E+03 -0.14405641681E+04  0.21784002662E+04  0.12699999809E+01 0.  1.
       -4    1    3    3    0  502  0.15584764309E+04 -0.49127609233E+03  0.68162799557E+03  0.17705420983E+04  0.12699999809E+01 0. -1.
</event>
<event>
 5   0  0.1501585E-07  0.3880747E+04  0.7818609E-02  0.8029046E-01
       -2   -1    0    0    0  501  0.00000000000E+00  0.00000000000E+00  0.12279708293E+04  0.12279708293E+04  0.25500000920E-02 0.  1.
        2   -1    0    0  501    0  0.00000000000E+00  0.00000000000E+00 -0.30660731299E+04  0.30660731299E+04  0.25500000920E-02 0. -1.
    10030    2    1    2    0    0  0.00000000000E+00  0.00000000000E+00 -0.18381023006E+04  0.42940439592E+04  0.38807465075E+04 0.  0.
        5    1    3    3  502    0 -0.98341599493E+03  0.11344076251E+04 -0.22792079889E+04  0.27292487658E+04  0.46999998093E+01 0. -1.
       -5    1    3    3    0  502  0.98341599493E+03 -0.11344076251E+04  0.44110568830E+03  0.15647951934E+04  0.46999998093E+01 0.  1.
</event>
<event>
 5   0  0.4750125E-08  0.3901747E+04  0.7818609E-02  0.8024666E-01
        1   -1    0    0  501    0  0.00000000000E+00  0.00000000000E+00  0.24731673287E+04  0.24731673287E+04  0.50400001928E-02 0. -1.
       -1   -1    0    0    0  501  0.00000000000E+00  0.00000000000E+00 -0.15388796896E+04  0.15388796896E+04  0.50400001928E-02 0.  1.
    10030    2    1    2    0    0  0.00000000000E+00  0.00000000000E+00  0.93428763908E+03  0.40120470183E+04  0.39017467735E+04 0.  0.
        1    1    3    3  502    0 -0.15032356388E+04  0.86757046903E+03  0.13831184138E+04  0.22193270266E+04  0.50400001928E-02 0. -1.
       -1    1    3    3    0  502  0.15032356388E+04 -0.86757046903E+03 -0.44883077472E+03  0.17927199917E+04  0.50400001928E-02 0.  1.
</event>
<event>
 5   0  0.1538018E-07  0.3895308E+04  0.7818609E-02  0.8026006E-01
       -2   -1    0    0    0  501  0.00000000000E+00  0.00000000000E+00  0.15800391606E+04  0.15800391606E+04  0.25500000920E-02 0. -1.
        2   -1    0    0  501    0  0.00000000000E+00  0.00000000000E+00 -0.24007992748E+04  0.24007992748E+04  0.25500000920E-02 0.  1.
    10030    2    1    2    0    0  0.00000000000E+00  0.00000000000E+00 -0.82076011422E+03  0.39808384354E+04  0.38953083939E+04 0.  0.
        1    1    3    3  502    0  0.14979579857E+04  0.12038571818E+04 -0.73388500965E+03  0.20571187249E+04  0.50400001928E-02 0.  1.
       -1    1    3    3    0  502 -0.14979579857E+04 -0.12038571818E+04 -0.86875104565E+02  0.19237197105E+04  0.50400001928E-02 0. -1.
</event>
<event>
 5   0  0.4762788E-08  0.3892125E+04  0.7818609E-02  0.8026669E-01
        1   -1    0    0  501    0  0.00000000000E+00  0.00000000000E+00  0.22084582782E+04  0.22084582782E+04  0.50400001928E-02 0. -1.
       -1   -1    0    0    0  501  0.00000000000E+00  0.00000000000E+00 -0.17148432488E+04  0.17148432488E+04  0.50400001928E-02 0.  1.
    10030    2    1    2    0    0  0.00000000000E+00  0.00000000000E+00  0.49361502938E+03  0.39233015269E+04  0.38921252644E+04 0.  0.
        2    1    3    3  502    0 -0.18986509921E+04 -0.33170959555E+03 -0.24144627454E+02  0.19275605849E+04  0.25500000920E-02 0.  1.
       -2    1    3    3    0  502  0.18986509921E+04  0.33170959555E+03  0.51775965683E+03  0.19957409420E+04  0.25500000920E-02 0. -1.
</event>
<event>
 5   0  0.4762788E-08  0.3881722E+04  0.7818609E-02  0.8028841E-01
        1   -1    0    0  501    0  0.00000000000E+00  0.00000000000E+00  0.28741300176E+04  0.28741300176E+04  0.50400001928E-02 0.  1.
       -1   -1    0    0    0  501  0.00000000000E+00  0.00000000000E+00 -0.13106369673E+04  0.13106369673E+04  0.50400001928E-02 0. -1.
    10030    2    1    2    0    0  0.00000000000E+00  0.00000000000E+00  0.15634930503E+04  0.41847669849E+04  0.38817218086E+04 0.  0.
        2    1    3    3  502    0  0.38077410627E+03 -0.15752620640E+04  0.19330632535E+04  0.25225330587E+04  0.25500000920E-02 0.  1.
       -2    1    3    3    0  502 -0.38077410627E+03  0.15752620640E+04 -0.36957020323E+03  0.16622339262E+04  0.25500000920E-02 0. -1.
</event>
<event>
 5   0  0.4750125E-08  0.3913639E+04  0.7818609E-02  0.8022199E-01
        1   -1    0    0  501    0  0.00000000000E+00  0.00000000000E+00  0.15349838741E+04  0.15349838741E+04  0.50400001928E-02 0.  1.
       -1   -1    0    0    0  501  0.00000000000E+00  0.00000000000E+00 -0.24945810353E+04  0.24945810353E+04  0.50400001928E-02 0. -1.
    10030    2    1    2    0    0  0.00000000000E+00  0.00000000000E+00 -0.95959716119E+03  0.40295649095E+04  0.39136385433E+04 0.  0.
        5    1    3    3  502    0 -0.13223330997E+04  0.12940742887E+04 -0.11357944960E+04  0.21710007642E+04  0.46999998093E+01 0. -1.
       -5    1    3    3    0  502  0.13223330997E+04 -0.12940742887E+04  0.17619733479E+03  0.18585641452E+04  0.46999998093E+01 0.  1.
</event>
<event>
 5   0  0.4750125E-08  0.3878634E+04  0.7818609E-02  0.8029488E-01
       -1   -1    0    0    0  501  0.00000000000E+00  0.00000000000E+00  0.18926165817E+04  0.18926165818E+04  0.50400001928E-02 0.  1.
        1   -1    0    0  501    0  0.00000000000E+00  0.00000000000E+00 -0.19871702434E+04  0.19871702434E+04  0.50400001928E-02 0. -1.
    10030    2    1    2    0    0  0.00000000000E+00  0.00000000000E+00 -0.94553661681E+02  0.38797868252E+04  0.38786344780E+04 0.  0.
        5    1    3    3  502    0 -0.17359904734E+03 -0.82643588131E+03  0.16990357545E+04  0.18973343090E+04  0.46999998093E+01 0.  1.
       -5    1    3    3    0  502  0.17359904734E+03  0.82643588131E+03 -0.17935894162E+04  0.19824525162E+04  0.46999998093E+01 0. -1.
</event>
<event>
 5   0  0.4750125E-08  0.3918197E+04  0.7818609E-02  0.8021255E-01
       -1   -1    0    0    0  501  0.00000000000E+00  0.00000000000E+00  0.17788093427E+04  0.17788093427E+04  0.50400001928E-02 0. -1.
        1   -1    0    0  501    0  0.00000000000E+00  0.00000000000E+00 -0.21576601969E+04  0.21576601969E+04  0.50400001928E-02 0.  1.
    10030    2    1    2    0    0  0.00000000000E+00  0.00000000000E+00 -0.37885085418E+03  0.39364695397E+04  0.39181965835E+04 0.  0.
        4    1    3    3  502    0 -0.60935192481E+03 -0.97998746513E+03  0.14011126538E+04  0.18151593543E+04  0.12699999809E+01 0. -1.
       -4    1    3    3    0  502  0.60935192481E+03  0.97998746513E+03 -0.17799635079E+04  0.21213101854E+04  0.12699999809E+01 0.  1.
</event>
<event>
 5   0  0.1520986E-07  0.3887314E+04  0.7818609E-02  0.8027673E-01
        2   -1    0    0  501    0  0.00000000000E+00  0.00000000000E+00  0.24398154687E+04  0.24398154687E+04  0.25500000920E-02 0.  1.
       -2   -1    0    0    0  501  0.00000000000E+00  0.00000000000E+00 -0.15483972167E+04  0.15483972167E+04  0.25500000920E-02 0. -1.
    10030    2    1    2    0    0  0.00000000000E+00  0.00000000000E+00  0.89141825193E+03  0.39882126854E+04  0.38873144874E+04 0.  0.
        4    1    3    3  502    0 -0.87009150218E+03  0.48198851732E+03  0.21589107789E+04  0.23770295575E+04  0.12699999809E+01 0.  1.
       -4    1    3    3    0  502  0.87009150218E+03 -0.48198851732E+03 -0.12674925270E+04  0.16111831280E+04  0.12699999809E+01 0. -1.
</event>
<event>
 5   0  0.1538018E-07  0.3913588E+04  0.7818609E-02  0.8022209E-01
       -2   -1    0    0    0  501  0.00000000000E+00  0.00000000000E+00  0.20656419901E+04  0.20656419901E+04  0.25500000920E-02 0. -1.
        2   -1    0    0  501    0  0.00000000000E+00  0.00000000000E+00 -0.18536820253E+04  0.18536820253E+04  0.25500000920E-02 0.  1.
    10030    2    1    2    0    0  0.00000000000E+00  0.00000000000E+00  0.21195996472E+03  0.39193240154E+04  0.39135883420E+04 0.  0.
        1    1    3    3  502    0  0.14471199020E+04  0.12910156050E+04  0.36744905643E+03  0.19738024502E+04  0.50400001928E-02 0. -1.
       -1    1    3    3    0  502 -0.14471199020E+04 -0.12910156050E+04 -0.15548909171E+03  0.19455215652E+04  0.50400001928E-02 0.  1.
</event>
<event>
 5   0  0.1501585E-07  0.3900747E+04  0.7818609E-02  0.8024874E-01
        2   -1    0    0  501    0  0.00000000000E+00  0.00000000000E+00  0.18662673255E+04  0.18662673255E+04  0.25500000920E-02 0.  1.
       -2   -1    0    0    0  501  0.00000000000E+00  0.00000000000E+00 -0.20382698467E+04  0.20382698467E+04  0.25500000920E-02 0. -1.
    10030    2    1    2    0    0  0.00000000000E+00  0.00000000000E+00 -0.17200252127E+03  0.39045371722E+04  0.39007468082E+04 0.  0.
        5    1    3    3  502    0  0.14565083697E+04 -0.28464609500E+03  0.11807300281E+04  0.18964665881E+04  0.46999998093E+01 0.  1.
       -5    1    3    3    0  502 -0.14565083697E+04  0.28464609500E+03 -0.13527325494E+04  0.20080705841E+04  0.46999998093E+01 0. -1.
</event>
<event>
 5   0  0.1546846E-07  0.3914737E+04  0.7818609E-02  0.8021971E-01
        2   -1    0    0  501    0  0.00000000000E+00  0.00000000000E+00  0.18147219202E+04  0.18147219202E+04  0.25500000920E-02 0.  1.
       -2   -1    0    0    0  501  0.00000000000E+00  0.00000000000E+00 -0.21112274575E+04  0.21112274575E+04  0.25500000920E-02 0. -1.
    10030    2    1    2    0    0  0.00000000000E+00  0.00000000000E+00 -0.29650553736E+03  0.39259493777E+04  0.39147366428E+04 0.  0.
        2    1    3    3  502    0 -0.16745173394E+04 -0.90996878776E+03 -0.59589347532E+03  0.19967825492E+04  0.25500000920E-02 0. -1.
       -2    1    3    3    0  502  0.16745173394E+04  0.90996878776E+03  0.29938793796E+03  0.19291668285E+04  0.25500000920E-02 0.  1.
</event>
<event>
 5   0  0.4762788E-08  0.3875067E+04  0.7818609E-02  0.8030235E-01
        1   -1    0    0  501    0  0.00000000000E+00  0.00000000000E+00  0.32328498690E+04  0.32328498690E+04  0.50400001928E-02 0. -1.
       -1   -1    0    0    0  501  0.00000000000E+00  0.00000000000E+00 -0.11612156804E+04  0.11612156804E+04  0.50400001928E-02 0.  1.
    10030    2    1    2    0    0  0.00000000000E+00  0.00000000000E+00  0.20716341886E+04  0.43940655494E+04  0.38750669467E+04 0.  0.
        2    1    3    3  502    0 -0.41142571581E+03  0.86639532697E+03  0.29447767219E+04  0.30970343757E+04  0.25500000920E-02 0. -1.
       -2    1    3    3    0  502  0.41142571581E+03 -0.86639532697E+03 -0.87314253332E+03  0.12970311738E+04  0.25500000920E-02 0.  1.
</event>
<event>
 5   0  0.4750125E-08  0.3892274E+04  0.7818609E-02  0.8026638E-01
       -1   -1    0    0    0  501  0.00000000000E+00  0.00000000000E+00  0.23928674600E+04  0.23928674600E+04  0.50400001928E-02 0. -1.
        1   -1    0    0  501    0  0.00000000000E+00  0.00000000000E+00 -0.15828081630E+04  0.15828081630E+04  0.50400001928E-02 0.  1.
    10030    2    1    2    0    0  0.00000000000E+00  0.00000000000E+00  0.81005929704E+03  0.39756756230E+04  0.38922744758E+04 0.  0.
        1    1    3    3  502    0 -0.52898977537E+03 -0.10581279428E+04 -0.11733929935E+04  0.16662280885E+04  0.50400001928E-02 0.  1.
       -1    1    3    3    0  502  0.52898977537E+03  0.10581279428E+04  0.19834522905E+04  0.23094475345E+04  0.50400001928E-02 0. -1.
</event>
<event>
 5   0  0.1501585E-07  0.3899432E+04  0.7818609E-02  0.8025147E-01
        2   -1    0    0  501    0  0.00000000000E+00  0.00000000000E+00  0.32400049312E+04  0.32400049312E+04  0.25500000920E-02 0. -1.
       -2   -1    0    0    0  501  0.00000000000E+00  0.00000000000E+00 -0.11732676516E+04  0.11732676516E+04  0.25500000920E-02 0.  1.
    10030    2    1    2    0    0  0.00000000000E+00  0.00000000000E+00  0.20667372796E+04  0.44132725828E+04  0.38994322545E+04 0.  0.
        5    1    3    3  502    0  0.11206304467E+04 -0.12846167905E+04  0.21042664441E+04  0.27081381528E+04  0.46999998093E+01 0. -1.
       -5    1    3    3    0  502 -0.11206304467E+04  0.12846167905E+04 -0.37529164541E+02  0.17051344301E+04  0.46999998093E+01 0.  1.
</event>
<event>
 5   0  0.1538018E-07  0.3961651E+04  0.7818609E-02  0.8012328E-01
        2   -1    0    0  501    0  0.00000000000E+00  0.00000000000E+00  0.21354050761E+04  0.21354050761E+04  0.25500000920E-02 0.  1.
       -2   -1    0    0    0  501  0.00000000000E+00  0.00000000000E+00 -0.18374353848E+04  0.18374353848E+04  0.25500000920E-02 0. -1.
    10030    2    1    2    0    0  0.00000000000E+00  0.00000000000E+00  0.29796969135E+03  0.39728404609E+04  0.39616505892E+04 0.  0.
        1    1    3    3  502    0 -0.16103300327E+04  0.91672210078E+03 -0.55308303268E+03  0.19337639632E+04  0.50400001928E-02 0. -1.
       -1    1    3    3    0  502  0.16103300327E+04 -0.91672210078E+03  0.85105272403E+03  0.20390764977E+04  0.50400001928E-02 0.  1.
</event>
<event>
 5   0  0.4750125E-08  0.3886439E+04  0.7818609E-02  0.8027856E-01
        3   -1    0    0  501    0  0.00000000000E+00  0.00000000000E+00  0.30093254978E+04  0.30093254995E+04  0.10100000352E+00 0.  1.
       -3   -1    0    0    0  501  0.00000000000E+00  0.00000000000E+00 -0.12548000454E+04  0.12548000494E+04  0.10100000352E+00 0. -1.
    10030    2    1    2    0    0  0.00000000000E+00  0.00000000000E+00  0.17545254524E+04  0.42641255489E+04  0.38864388756E+04 0.  0.
        5    1    3    3  502    0 -0.11159053028E+04  0.53898737911E+03 -0.76496700849E+03  0.14563477104E+04  0.46999998093E+01 0. -1.
       -5    1    3    3    0  502  0.11159053028E+04 -0.53898737911E+03  0.25194924609E+04  0.28077778384E+04  0.46999998093E+01 0.  1.
</event>
<event>
 5   0  0.4750125E-08  0.3896512E+04  0.7818609E-02  0.8025755E-01
        1   -1    0    0  501    0  0.00000000000E+00  0.00000000000E+00  0.18224160222E+04  0.18224160223E+04  0.50400001928E-02 0. -1.
       -1   -1    0    0    0  501  0.00000000000E+00  0.00000000000E+00 -0.20827856123E+04  0.20827856123E+04  0.50400001928E-02 0.  1.
    10030    2    1    2    0    0  0.00000000000E+00  0.00000000000E+00 -0.26036959008E+03  0.39052016346E+04  0.38965122203E+04 0.  0.
        3    1    3    3  502    0 -0.48172717851E+03  0.14687432907E+04 -0.13187611538E+04  0.20318461849E+04  0.10100000352E+00 0.  1.
       -3    1    3    3    0  502  0.48172717851E+03 -0.14687432907E+04  0.10583915637E+04  0.18733554496E+04  0.10100000352E+00 0. -1.
</event>
<event>
 5   0  0.1501585E-07  0.3902530E+04  0.7818609E-02  0.8024503E-01
       -2   -1    0    0    0  501  0.00000000000E+00  0.00000000000E+00  0.19139053506E+04  0.19139053506E+04  0.25500000920E-02 0.  1.
        2   -1    0    0  501    0  0.00000000000E+00  0.00000000000E+00 -0.19893539758E+04  0.19893539758E+04  0.25500000920E-02 0. -1.
    10030    2    1    2    0    0  0.00000000000E+00  0.00000000000E+00 -0.75448625165E+02  0.39032593264E+04  0.39025300606E+04 0.  0.
        5    1    3    3  502    0  0.63830205924E+03 -0.12524190061E+04  0.13158320348E+04  0.19254658967E+04  0.46999998093E+01 0.  1.
       -5    1    3    3    0  502 -0.63830205924E+03  0.12524190061E+04 -0.13912806600E+04  0.19777934297E+04  0.46999998093E+01 0. -1.
</event>
<event>
 5   0  0.4750125E-08  0.3923397E+04  0.7818609E-02  0.8020181E-01
       -1   -1    0    0    0  501  0.00000000000E+00  0.00000000000E+00  0.32920083318E+04  0.32920083318E+04  0.50400001928E-02 0. -1.
        1   -1    0    0  501    0  0.00000000000E+00  0.00000000000E+00 -0.11689704908E+04  0.11689704908E+04  0.50400001928E-02 0.  1.
    10030    2    1    2    0    0  0.00000000000E+00  0.00000000000E+00  0.21230378410E+04  0.44609788226E+04  0.39233967912E+04 0.  0.
        3    1    3    3  502    0 -0.52149357362E+03 -0.18713161742E+04  0.13718248945E+04  0.23781680601E+04  0.10100000352E+00 0. -1.
       -3    1    3    3    0  502  0.52149357362E+03  0.18713161742E+04  0.75121294656E+03  0.20828107625E+04  0.10100000352E+00 0.  1.
</event>
<event>
 5   0  0.1501585E-07  0.3909249E+04  0.7818609E-02  0.8023108E-01
        2   -1    0    0  501    0  0.00000000000E+00  0.00000000000E+00  0.12168666408E+04  0.12168666408E+04  0.25500000920E-02 0. -1.
       -2   -1    0    0    0  501  0.00000000000E+00  0.00000000000E+00 -0.31396674685E+04  0.31396674685E+04  0.25500000920E-02 0.  1.
    10030    2    1    2    0    0  0.00000000000E+00  0.00000000000E+00 -0.19228008277E+04  0.43565341093E+04  0.39092488309E+04 0.  0.
        5    1    3    3  502    0  0.12936088930E+04  0.62840115586E+03 -0.24365716458E+04  0.28293489456E+04  0.46999998093E+01 0.  1.
       -5    1    3    3    0  502 -0.12936088930E+04 -0.62840115586E+03  0.51377081808E+03  0.15271851637E+04  0.46999998093E+01 0. -1.
</event>
<event>
 5   0  0.4762788E-08  0.3903087E+04  0.7818609E-02  0.8024388E-01
        1   -1    0    0  501    0  0.00000000000E+00  0.00000000000E+00  0.14294367286E+04  0.14294367286E+04  0.50400001928E-02 0. -1.
       -1   -1    0    0    0  501  0.00000000000E+00  0.00000000000E+00 -0.26643511800E+04  0.26643511800E+04  0.50400001928E-02 0.  1.
    10030    2    1    2    0    0  0.00000000000E+00  0.00000000000E+00 -0.12349144514E+04  0.40937879086E+04  0.39030866937E+04 0.  0.
        2    1    3    3  502    0  0.15532334691E+03  0.11194509016E+04 -0.22861738132E+04  0.25502718222E+04  0.25500000920E-02 0.  1.
       -2    1    3    3    0  502 -0.15532334691E+03 -0.11194509016E+04  0.10512593618E+04  0.15435160864E+04  0.25500000920E-02 0. -1.
</event>
<event>
 5   0  0.1538018E-07  0.3907786E+04  0.7818609E-02  0.8023412E-01
        2   -1    0    0  501    0  0.00000000000E+00  0.00000000000E+00  0.16781011505E+04  0.16781011505E+04  0.25500000920E-02 0. -1.
       -2   -1    0    0    0  501  0.00000000000E+00  0.00000000000E+00 -0.22750111116E+04  0.22750111117E+04  0.25500000920E-02 0.  1.
    10030    2    1    2    0    0  0.00000000000E+00  0.00000000000E+00 -0.59690996111E+03  0.39531122622E+04  0.39077864650E+04 0.  0.
        1    1    3    3  502    0 -0.10038191047E+04  0.15726709052E+04  0.28857940371E+03  0.18879154227E+04  0.50400001928E-02 0.  1.
       -1    1    3    3    0  502  0.10038191047E+04 -0.15726709052E+04 -0.88548936482E+03  0.20651968395E+04  0.50400001928E-02 0. -1.
</event>
<event>
 5   0  0.4762788E-08  0.3920689E+04  0.7818609E-02  0.8020740E-01
       -1   -1    0    0    0  501  0.00000000000E+00  0.00000000000E+00  0.31105774530E+04  0.31105774530E+04  0.50400001928E-02 0.  1.
        1   -1    0    0  501    0  0.00000000000E+00  0.00000000000E+00 -0.12354462365E+04  0.12354462365E+04  0.50400001928E-02 0. -1.
    10030    2    1    2    0    0  0.00000000000E+00  0.00000000000E+00  0.18751312165E+04  0.43460236895E+04  0.39206893311E+04 0.  0.
        2    1    3    3  502    0 -0.34938814306E+03 -0.19243901737E+04  0.79050185728E+03  0.21095598597E+04  0.25500000920E-02 0. -1.
       -2    1    3    3    0  502  0.34938814306E+03  0.19243901737E+04  0.10846293593E+04  0.22364638298E+04  0.25500000920E-02 0.  1.
</event>
<event>
 5   0  0.1520986E-07  0.3893253E+04  0.7818609E-02  0.8026434E-01
       -2   -1    0    0    0  501  0.00000000000E+00  0.00000000000E+00  0.21846984557E+04  0.21846984557E+04  0.25500000920E-02 0. -1.
        2   -1    0    0  501    0  0.00000000000E+00  0.00000000000E+00 -0.17344982420E+04  0.17344982420E+04  0.25500000920E-02 0.  1.
    10030    2    1    2    0    0  0.00000000000E+00  0.00000000000E+00  0.45020021369E+03  0.39191966977E+04  0.38932534624E+04 0.  0.
        4    1    3    3  502    0  0.13491181567E+04  0.13655256382E+04  0.55063394226E+03  0.19969925940E+04  0.12699999809E+01 0. -1.
       -4    1    3    3    0  502 -0.13491181567E+04 -0.13655256382E+04 -0.10043372856E+03  0.19222041036E+04  0.12699999809E+01 0.  1.
</event>
<event>
 5   0  0.4750125E-08  0.3935403E+04  0.7818609E-02  0.8017706E-01
       -1   -1    0    0    0  501  0.00000000000E+00  0.00000000000E+00  0.14490322816E+04  0.14490322816E+04  0.50400001928E-02 0. -1.
        1   -1    0    0  501    0  0.00000000000E+00  0.00000000000E+00 -0.26720244881E+04  0.26720244881E+04  0.50400001928E-02 0.  1.
    10030    2    1    2    0    0  0.00000000000E+00  0.00000000000E+00 -0.12229922065E+04  0.41210567697E+04  0.39354032782E+04 0.  0.
        4    1    3    3  502    0 -0.32224600460E+03 -0.18333112136E+04 -0.12795377817E+04  0.22587808749E+04  0.12699999809E+01 0.  1.
       -4    1    3    3    0  502  0.32224600460E+03  0.18333112136E+04  0.56545575165E+02  0.18622758948E+04  0.12699999809E+01 0. -1.
</event>
<event>
 5   0  0.4762788E-08  0.3900899E+04  0.7818609E-02  0.8024842E-01
        1   -1    0    0  501    0  0.00000000000E+00  0.00000000000E+00  0.14127936166E+04  0.14127936166E+04  0.50400001928E-02 0. -1.
       -1   -1    0    0    0  501  0.00000000000E+00  0.00000000000E+00 -0.26927164802E+04  0.26927164802E+04  0.50400001928E-02 0.  1.
    10030    2    1    2    0    0  0.00000000000E+00  0.00000000000E+00 -0.12799228635E+04  0.41055100968E+04  0.39008986937E+04 0.  0.
        2    1    3    3  502    0  0.37223005752E+03  0.19143591699E+04 -0.60792799972E+03  0.20427683912E+04  0.25500000920E-02 0.  1.
       -2    1    3    3    0  502 -0.37223005752E+03 -0.19143591699E+04 -0.67199486382E+03  0.20627417056E+04  0.25500000920E-02 0. -1.
</event>
<event>
 5   0  0.4750125E-08  0.3852066E+04  0.7818609E-02  0.8035073E-01
        1   -1    0    0  501    0  0.00000000000E+00  0.00000000000E+00  0.25678126793E+04  0.25678126793E+04  0.50400001928E-02 0. -1.
       -1   -1    0    0    0  501  0.00000000000E+00  0.00000000000E+00 -0.14446546146E+04  0.14446546146E+04  0.50400001928E-02 0.  1.
    10030    2    1    2    0    0  0.00000000000E+00  0.00000000000E+00  0.11231580647E+04  0.40124672939E+04  0.38520656466E+04 0.  0.
        5    1    3    3  502    0  0.21867158130E+03  0.15992703916E+04 -0.53293541803E+03  0.16998603754E+04  0.46999998093E+01 0.  1.
       -5    1    3    3    0  502 -0.21867158130E+03 -0.15992703916E+04  0.16560934827E+04  0.23126069185E+04  0.46999998093E+01 0. -1.
</event>
<event>
 5   0  0.4762788E-08  0.3899532E+04  0.7818609E-02  0.8025127E-01
        1   -1    0    0  501    0  0.00000000000E+00  0.00000000000E+00  0.18747405639E+04  0.18747405639E+04  0.50400001928E-02 0. -1.
       -1   -1    0    0    0  501  0.00000000000E+00  0.00000000000E+00 -0.20277939549E+04  0.20277939549E+04  0.50400001928E-02 0.  1.
    10030    2    1    2    0    0  0.00000000000E+00  0.00000000000E+00 -0.15305339101E+03  0.39025345187E+04  0.38995320655E+04 0.  0.
        2    1    3    3  502    0 -0.21332355480E+03 -0.77084630723E+03 -0.18560624429E+04  0.20210588216E+04  0.25500000920E-02 0.  1.
       -2    1    3    3    0  502  0.21332355480E+03  0.77084630723E+03  0.17030090519E+04  0.18814756972E+04  0.25500000920E-02 0. -1.
</event>
<event>
 5   0  0.4750125E-08  0.3960060E+04  0.7818609E-02  0.8012653E-01
       -1   -1    0    0    0  501  0.00000000000E+00  0.00000000000E+00  0.15917202312E+04  0.15917202312E+04  0.50400001928E-02 0. -1.
        1   -1    0    0  501    0  0.00000000000E+00  0.00000000000E+00 -0.24630698819E+04  0.24630698819E+04  0.50400001928E-02 0.  1.
    10030    2    1    2    0    0  0.00000000000E+00  0.00000000000E+00 -0.87134965071E+03  0.40547901131E+04  0.39600596772E+04 0.  0.
        3    1    3    3  502    0 -0.12113693963E+04  0.32254728321E+03  0.11336549670E+04  0.16901556611E+04  0.10100000352E+00 0. -1.
       -3    1    3    3    0  502  0.12113693963E+04 -0.32254728321E+03 -0.20050046177E+04  0.23646344520E+04  0.10100000352E+00 0.  1.
</event>
<event>
 5   0  0.4750125E-08  0.3902814E+04  0.7818609E-02  0.8024444E-01
        1   -1    0    0  501    0  0.00000000000E+00  0.00000000000E+00  0.13099834599E+04  0.13099834599E+04  0.50400001928E-02 0. -1.
       -1   -1    0    0    0  501  0.00000000000E+00  0.00000000000E+00 -0.29068992520E+04  0.29068992520E+04  0.50400001928E-02 0.  1.
    10030    2    1    2    0    0  0.00000000000E+00  0.00000000000E+00 -0.15969157922E+04  0.42168827119E+04  0.39028143382E+04 0.  0.
        5    1    3    3  502    0  0.12264606215E+04  0.13877885420E+04 -0.13433635011E+03  0.18569413126E+04  0.46999998093E+01 0. -1.
       -5    1    3    3    0  502 -0.12264606215E+04 -0.13877885420E+04 -0.14625794421E+04  0.23599413993E+04  0.46999998093E+01 0.  1.
</event>
<event>
 5   0  0.4750125E-08  0.3877779E+04  0.7818609E-02  0.8029667E-01
        1   -1    0    0  501    0  0.00000000000E+00  0.00000000000E+00  0.16479601237E+04  0.16479601237E+04  0.50400001928E-02 0. -1.
       -1   -1    0    0    0  501  0.00000000000E+00  0.00000000000E+00 -0.22811791871E+04  0.22811791871E+04  0.50400001928E-02 0.  1.
    10030    2    1    2    0    0  0.00000000000E+00  0.00000000000E+00 -0.63321906344E+03  0.39291393108E+04  0.38777789185E+04 0.  0.
        5    1    3    3  502    0 -0.41586573740E+03 -0.18472159343E+04 -0.73941222573E+03  0.20327084269E+04  0.46999998093E+01 0.  1.
       -5    1    3    3    0  502  0.41586573740E+03  0.18472159343E+04  0.10619316229E+03  0.18964308838E+04  0.46999998093E+01 0. -1.
</event>
<event>
 5   0  0.4750125E-08  0.3776925E+04  0.7818609E-02  0.8051125E-01
        1   -1    0    0  501    0  0.00000000000E+00  0.00000000000E+00  0.18194679657E+04  0.18194679657E+04  0.50400001928E-02 0. -1.
       -1   -1    0    0    0  501  0.00000000000E+00  0.00000000000E+00 -0.19600734757E+04  0.19600734757E+04  0.50400001928E-02 0.  1.
    10030    2    1    2    0    0  0.00000000000E+00  0.00000000000E+00 -0.14060551000E+03  0.37795414414E+04  0.37769251512E+04 0.  0.
        5    1    3    3  502    0 -0.10841031943E+04  0.58565639349E+03  0.13617705509E+04  0.18364951049E+04  0.46999998093E+01 0. -1.
       -5    1    3    3    0  502  0.10841031943E+04 -0.58565639349E+03 -0.15023760609E+04  0.19430463364E+04  0.46999998093E+01 0.  1.
</event>
<event>
 5   0  0.1520986E-07  0.3901500E+04  0.7818609E-02  0.8024717E-01
       -2   -1    0    0    0  501  0.00000000000E+00  0.00000000000E+00  0.20640488386E+04  0.20640488386E+04  0.25500000920E-02 0. -1.
        2   -1    0    0  501    0  0.00000000000E+00  0.00000000000E+00 -0.18436701188E+04  0.18436701188E+04  0.25500000920E-02 0.  1.
    10030    2    1    2    0    0  0.00000000000E+00  0.00000000000E+00  0.22037871983E+03  0.39077189574E+04  0.39014997975E+04 0.  0.
        4    1    3    3  502    0  0.49649221274E+03  0.16152484363E+04  0.10863667395E+04  0.20089117288E+04  0.12699999809E+01 0. -1.
       -4    1    3    3    0  502 -0.49649221274E+03 -0.16152484363E+04 -0.86598801965E+03  0.18988072286E+04  0.12699999809E+01 0.  1.
</event>
<event>
 5   0  0.4750125E-08  0.3975700E+04  0.7818609E-02  0.8009467E-01
       -1   -1    0    0    0  501  0.00000000000E+00  0.00000000000E+00  0.25219871559E+04  0.25219871559E+04  0.50400001928E-02 0. -1.
        1   -1    0    0  501    0  0.00000000000E+00  0.00000000000E+00 -0.15668389395E+04  0.15668389395E+04  0.50400001928E-02 0.  1.
    10030    2    1    2    0    0  0.00000000000E+00  0.00000000000E+00  0.95514821637E+03  0.40888260954E+04  0.39757000293E+04 0.  0.
        4    1    3    3  502    0  0.14592645015E+04 -0.13480478882E+04  0.54927201173E+03  0.20611616506E+04  0.12699999809E+01 0. -1.
       -4    1    3    3    0  502 -0.14592645015E+04  0.13480478882E+04  0.40587620464E+03  0.20276644448E+04  0.12699999809E+01 0.  1.
</event>
<event>
 5   0  0.1503228E-07  0.3883478E+04  0.7818609E-02  0.8028474E-01
        2   -1    0    0  501    0  0.00000000000E+00  0.00000000000E+00  0.12859727396E+04  0.12859727396E+04  0.25500000920E-02 0.  1.
       -2   -1    0    0    0  501  0.00000000000E+00  0.00000000000E+00 -0.29319050643E+04  0.29319050643E+04  0.25500000920E-02 0. -1.
    10030    2    1    2    0    0  0.00000000000E+00  0.00000000000E+00 -0.16459323247E+04  0.42178778039E+04  0.38834778165E+04 0.  0.
        3    1    3    3  502    0 -0.38413798797E+03 -0.64667797566E+03 -0.27672505086E+04  0.28676523125E+04  0.10100000352E+00 0. -1.
       -3    1    3    3    0  502  0.38413798797E+03  0.64667797566E+03  0.11213181839E+04  0.13502254914E+04  0.10100000352E+00 0.  1.
</event>
<event>
 5   0  0.1538018E-07  0.3938368E+04  0.7818609E-02  0.8017096E-01
       -2   -1    0    0    0  501  0.00000000000E+00  0.00000000000E+00  0.13577074157E+04  0.13577074157E+04  0.25500000920E-02 0.  1.
        2   -1    0    0  501    0  0.00000000000E+00  0.00000000000E+00 -0.28560545264E+04  0.28560545264E+04  0.25500000920E-02 0. -1.
    10030    2    1    2    0    0  0.00000000000E+00  0.00000000000E+00 -0.14983471107E+04  0.42137619421E+04  0.39383683983E+04 0.  0.
        1    1    3    3  502    0  0.33430940660E+03  0.18978306256E+04 -0.11826751504E+04  0.22610272829E+04  0.50400001928E-02 0.  1.
       -1    1    3    3    0  502 -0.33430940660E+03 -0.18978306256E+04 -0.31567196031E+03  0.19527346592E+04  0.50400001928E-02 0. -1.
</event>
<event>
 5   0  0.4750125E-08  0.3891036E+04  0.7818609E-02  0.8026896E-01
       -1   -1    0    0    0  501  0.00000000000E+00  0.00000000000E+00  0.17783494002E+04  0.17783494003E+04  0.50400001928E-02 0. -1.
        1   -1    0    0  501    0  0.00000000000E+00  0.00000000000E+00 -0.21284012067E+04  0.21284012067E+04  0.50400001928E-02 0.  1.
    10030    2    1    2    0    0  0.00000000000E+00  0.00000000000E+00 -0.35005180642E+03  0.39067506069E+04  0.38910363706E+04 0.  0.
        4    1    3    3  502    0  0.57864643416E+02  0.58699277367E+02  0.17765951004E+04  0.17785065886E+04  0.12699999809E+01 0. -1.
       -4    1    3    3    0  502 -0.57864643416E+02 -0.58699277367E+02 -0.21266469068E+04  0.21282440183E+04  0.12699999809E+01 0.  1.
</event>
<event>
 5   0  0.1538018E-07  0.3898883E+04  0.7818609E-02  0.8025262E-01
        2   -1    0    0  501    0  0.00000000000E+00  0.00000000000E+00  0.15559010428E+04  0.15559010428E+04  0.25500000920E-02 0. -1.
       -2   -1    0    0    0  501  0.00000000000E+00  0.00000000000E+00 -0.24425213293E+04  0.24425213293E+04  0.25500000920E-02 0.  1.
    10030    2    1    2    0    0  0.00000000000E+00  0.00000000000E+00 -0.88662028649E+03  0.39984223720E+04  0.38988826518E+04 0.  0.
        1    1    3    3  502    0 -0.75558610293E+02 -0.10557755163E+04 -0.21221601084E+04  0.23714836221E+04  0.50400001928E-02 0.  1.
       -1    1    3    3    0  502  0.75558610293E+02  0.10557755163E+04  0.12355398219E+04  0.16269387499E+04  0.50400001928E-02 0. -1.
</event>
<event>
 5   0  0.1503228E-07  0.3893246E+04  0.7818609E-02  0.8026435E-01
        2   -1    0    0  501    0  0.00000000000E+00  0.00000000000E+00  0.25566682610E+04  0.25566682610E+04  0.25500000920E-02 0.  1.
       -2   -1    0    0    0  501  0.00000000000E+00  0.00000000000E+00 -0.14821399766E+04  0.14821399766E+04  0.25500000920E-02 0. -1.
    10030    2    1    2    0    0  0.00000000000E+00  0.00000000000E+00  0.10745282844E+04  0.40388082376E+04  0.38932455544E+04 0.  0.
        3    1    3    3  502    0 -0.19155753370E+04 -0.13677476992E+03  0.86728418222E+03  0.21072062244E+04  0.10100000352E+00 0.  1.
       -3    1    3    3    0  502  0.19155753370E+04  0.13677476992E+03  0.20724410217E+03  0.19316020132E+04  0.10100000352E+00 0. -1.
</event>
<event>
 5   0  0.4762788E-08  0.3856454E+04  0.7818609E-02  0.8034147E-01
       -1   -1    0    0    0  501  0.00000000000E+00  0.00000000000E+00  0.21942676545E+04  0.21942676545E+04  0.50400001928E-02 0.  1.
        1   -1    0    0  501    0  0.00000000000E+00  0.00000000000E+00 -0.16944420643E+04  0.16944420643E+04  0.50400001928E-02 0. -1.
    10030    2    1    2    0    0  0.00000000000E+00  0.00000000000E+00  0.49982559022E+03  0.38887097189E+04  0.38564540263E+04 0.  0.
        2    1    3    3  502    0 -0.60915076811E+03 -0.62294055083E+03  0.19844572454E+04  0.21673001977E+04  0.25500000920E-02 0.  1.
       -2    1    3    3    0  502  0.60915076811E+03  0.62294055083E+03 -0.14846316552E+04  0.17214095212E+04  0.25500000920E-02 0. -1.
</event>
<event>
 5   0  0.1503228E-07  0.3896072E+04  0.7818609E-02  0.8025847E-01
        2   -1    0    0  501    0  0.00000000000E+00  0.00000000000E+00  0.17589935730E+04  0.17589935731E+04  0.25500000920E-02 0. -1.
       -2   -1    0    0    0  501  0.00000000000E+00  0.00000000000E+00 -0.21573952140E+04  0.21573952140E+04  0.25500000920E-02 0.  1.
    10030    2    1    2    0    0  0.00000000000E+00  0.00000000000E+00 -0.39840164093E+03  0.39163887870E+04  0.38960720301E+04 0.  0.
        3    1    3    3  502    0  0.73898143844E+03  0.29141817470E+03 -0.19871910003E+04  0.21400808865E+04  0.10100000352E+00 0.  1.
       -3    1    3    3    0  502 -0.73898143844E+03 -0.29141817470E+03  0.15887893594E+04  0.17763079005E+04  0.10100000352E+00 0. -1.
</event>
<event>
 5   0  0.4750125E-08  0.3920925E+04  0.7818609E-02  0.8020691E-01
       -1   -1    0    0    0  501  0.00000000000E+00  0.00000000000E+00  0.23133232897E+04  0.23133232897E+04  0.50400001928E-02 0. -1.
        1   -1    0    0  501    0  0.00000000000E+00  0.00000000000E+00 -0.16614249393E+04  0.16614249393E+04  0.50400001928E-02 0.  1.
    10030    2    1    2    0    0  0.00000000000E+00  0.00000000000E+00  0.65189835041E+03  0.39747482291E+04  0.39209248941E+04 0.  0.
        1    1    3    3  502    0 -0.88773719156E+03  0.27627061069E+03 -0.14237246655E+04  0.17004101549E+04  0.50400001928E-02 0.  1.
       -1    1    3    3    0  502  0.88773719156E+03 -0.27627061069E+03  0.20756230159E+04  0.22743380742E+04  0.50400001928E-02 0. -1.
</event>
<event>
 5   0  0.4762788E-08  0.3912254E+04  0.7818609E-02  0.8022485E-01
       -1   -1    0    0    0  501  0.00000000000E+00  0.00000000000E+00  0.15728540762E+04  0.15728540762E+04  0.50400001928E-02 0. -1.
        1   -1    0    0  501    0  0.00000000000E+00  0.00000000000E+00 -0.24327955478E+04  0.24327955478E+04  0.50400001928E-02 0.  1.
    10030    2    1    2    0    0  0.00000000000E+00  0.00000000000E+00 -0.85994147156E+03  0.40056496240E+04  0.39122537719E+04 0.  0.
        2    1    3    3  502    0  0.57836178844E+03  0.12293714848E+04 -0.18708967216E+04  0.23121659000E+04  0.25500000920E-02 0.  1.
       -2    1    3    3    0  502 -0.57836178844E+03 -0.12293714848E+04  0.10109552501E+04  0.16934837241E+04  0.25500000920E-02 0. -1.
</event>
<event>
 5   0  0.4750125E-08  0.3858311E+04  0.7818609E-02  0.8033756E-01
        1   -1    0    0  501    0  0.00000000000E+00  0.00000000000E+00  0.31407255037E+04  0.31407255037E+04  0.50400001928E-02 0. -1.
       -1   -1    0    0    0  501  0.00000000000E+00  0.00000000000E+00 -0.11849621083E+04  0.11849621083E+04  0.50400001928E-02 0.  1.
    10030    2    1    2    0    0  0.00000000000E+00  0.00000000000E+00  0.19557633954E+04  0.43256876120E+04  0.38583108815E+04 0.  0.
        1    1    3    3  502    0  0.20603261653E+03  0.14277677741E+04 -0.45816517067E+03  0.15135671705E+04  0.50400001928E-02 0.  1.
       -1    1    3    3    0  502 -0.20603261653E+03 -0.14277677741E+04  0.24139285661E+04  0.28121204416E+04  0.50400001928E-02 0. -1.
</event>
<event>
 5   0  0.1538018E-07  0.3887234E+04  0.7818609E-02  0.8027689E-01
       -2   -1    0    0    0  501  0.00000000000E+00  0.00000000000E+00  0.18925403307E+04  0.18925403307E+04  0.25500000920E-02 0. -1.
        2   -1    0    0  501    0  0.00000000000E+00  0.00000000000E+00 -0.19960726376E+04  0.19960726376E+04  0.25500000920E-02 0.  1.
    10030    2    1    2    0    0  0.00000000000E+00  0.00000000000E+00 -0.10353230685E+03  0.38886129683E+04  0.38872344769E+04 0.  0.
        1    1    3    3  502    0 -0.16839886337E+04 -0.46703324377E+03 -0.90277941750E+03  0.19669642717E+04  0.50400001928E-02 0.  1.
       -1    1    3    3    0  502  0.16839886337E+04  0.46703324377E+03  0.79924711065E+03  0.19216486966E+04  0.50400001928E-02 0. -1.
</event>
<event>
 5   0  0.4750125E-08  0.3909844E+04  0.7818609E-02  0.8022985E-01
        1   -1    0    0  501    0  0.00000000000E+00  0.00000000000E+00  0.20180533737E+04  0.20180533737E+04  0.50400001928E-02 0.  1.
       -1   -1    0    0    0  501  0.00000000000E+00  0.00000000000E+00 -0.18937651919E+04  0.18937651919E+04  0.50400001928E-02 0. -1.
    10030    2    1    2    0    0  0.00000000000E+00  0.00000000000E+00  0.12428818182E+03  0.39118185656E+04  0.39098435951E+04 0.  0.
        1    1    3    3  502    0  0.19315736878E+04 -0.35599868626E+02  0.36141886068E+03  0.19654179848E+04  0.50400001928E-02 0. -1.
       -1    1    3    3    0  502 -0.19315736878E+04  0.35599868626E+02 -0.23713067886E+03  0.19464005808E+04  0.50400001928E-02 0.  1.
</event>
<event>
 5   0  0.4750125E-08  0.3891354E+04  0.7818609E-02  0.8026830E-01
       -1   -1    0    0    0  501  0.00000000000E+00  0.00000000000E+00  0.14541659962E+04  0.14541659962E+04  0.50400001928E-02 0. -1.
        1   -1    0    0  501    0  0.00000000000E+00  0.00000000000E+00 -0.26033194332E+04  0.26033194332E+04  0.50400001928E-02 0.  1.
    10030    2    1    2    0    0  0.00000000000E+00  0.00000000000E+00 -0.11491534370E+04  0.40574854294E+04  0.38913537989E+04 0.  0.
        4    1    3    3  502    0 -0.97393235947E+03 -0.36063347179E+03  0.11409792458E+04  0.15428661621E+04  0.12699999809E+01 0. -1.
       -4    1    3    3    0  502  0.97393235947E+03  0.36063347179E+03 -0.22901326828E+04  0.25146192673E+04  0.12699999809E+01 0.  1.
</event>
<event>
 5   0  0.1546846E-07  0.3919125E+04  0.7818609E-02  0.8021063E-01
        2   -1    0    0  501    0  0.00000000000E+00  0.00000000000E+00  0.24766975957E+04  0.24766975957E+04  0.25500000920E-02 0. -1.
       -2   -1    0    0    0  501  0.00000000000E+00  0.00000000000E+00 -0.15504057123E+04  0.15504057123E+04  0.25500000920E-02 0.  1.
    10030    2    1    2    0    0  0.00000000000E+00  0.00000000000E+00  0.92629188348E+03  0.40271033080E+04  0.39191254636E+04 0.  0.
        2    1    3    3  502    0 -0.59690879936E+03 -0.78115729875E+03 -0.12786612536E+04  0.16129108598E+04  0.25500000920E-02 0.  1.
       -2    1    3    3    0  502  0.59690879936E+03  0.78115729875E+03  0.22049531371E+04  0.24141924482E+04  0.25500000920E-02 0. -1.
</event>
<event>
 5   0  0.1546846E-07  0.3892437E+04  0.7818609E-02  0.8026604E-01
        2   -1    0    0  501    0  0.00000000000E+00  0.00000000000E+00  0.19105758965E+04  0.19105758965E+04  0.25500000920E-02 0. -1.
       -2   -1    0    0    0  501  0.00000000000E+00  0.00000000000E+00 -0.19825257398E+04  0.19825257398E+04  0.25500000920E-02 0.  1.
    10030    2    1    2    0    0  0.00000000000E+00  0.00000000000E+00 -0.71949843293E+02  0.38931016363E+04  0.38924367138E+04 0.  0.
        2    1    3    3  502    0  0.38142564556E+03  0.13422003388E+04  0.13210098141E+04  0.19214718841E+04  0.25500000920E-02 0. -1.
       -2    1    3    3    0  502 -0.38142564556E+03 -0.13422003388E+04 -0.13929596574E+04  0.19716297522E+04  0.25500000920E-02 0.  1.
</event>
<event>
 5   0  0.4750125E-08  0.3900319E+04  0.7818609E-02  0.8024963E-01
        4   -1    0    0  501    0  0.00000000000E+00  0.00000000000E+00  0.23154572633E+04  0.23154576116E+04  0.12699999809E+01 0.  1.
       -4   -1    0    0    0  501  0.00000000000E+00  0.00000000000E+00 -0.16424925388E+04  0.16424930298E+04  0.12699999809E+01 0. -1.
    10030    2    1    2    0    0  0.00000000000E+00  0.00000000000E+00  0.67296472449E+03  0.39579506414E+04  0.39003194432E+04 0.  0.
        2    1    3    3  502    0  0.11709172526E+04  0.12937478027E+04 -0.54718442720E+03  0.18287267119E+04  0.25500000920E-02 0. -1.
       -2    1    3    3    0  502 -0.11709172526E+04 -0.12937478027E+04  0.12201491517E+04  0.21292239295E+04  0.25500000920E-02 0.  1.
</event>
<event>
 5   0  0.1538018E-07  0.3878478E+04  0.7818609E-02  0.8029520E-01
       -2   -1    0    0    0  501  0.00000000000E+00  0.00000000000E+00  0.18977477180E+04  0.18977477180E+04  0.25500000920E-02 0. -1.
        2   -1    0    0  501    0  0.00000000000E+00  0.00000000000E+00 -0.19816371552E+04  0.19816371552E+04  0.25500000920E-02 0.  1.
    10030    2    1    2    0    0  0.00000000000E+00  0.00000000000E+00 -0.83889437219E+02  0.38793848731E+04  0.38784777370E+04 0.  0.
        1    1    3    3  502    0  0.16445360111E+04 -0.87550786052E+03 -0.58024777875E+03  0.19513329266E+04  0.50400001928E-02 0. -1.
       -1    1    3    3    0  502 -0.16445360111E+04  0.87550786052E+03  0.49635834153E+03  0.19280519466E+04  0.50400001928E-02 0.  1.
</event>
<event>
 5   0  0.4750125E-08  0.3913655E+04  0.7818609E-02  0.8022195E-01
        1   -1    0    0  501    0  0.00000000000E+00  0.00000000000E+00  0.22788328987E+04  0.22788328987E+04  0.50400001928E-02 0. -1.
       -1   -1    0    0    0  501  0.00000000000E+00  0.00000000000E+00 -0.16803226278E+04  0.16803226278E+04  0.50400001928E-02 0.  1.
    10030    2    1    2    0    0  0.00000000000E+00  0.00000000000E+00  0.59851027085E+03  0.39591555265E+04  0.39136553168E+04 0.  0.
        3    1    3    3  502    0 -0.17157085917E+04 -0.61650290376E+03 -0.41995523518E+03  0.18708538723E+04  0.10100000352E+00 0.  1.
       -3    1    3    3    0  502  0.17157085917E+04  0.61650290376E+03  0.10184655060E+04  0.20883016542E+04  0.10100000352E+00 0. -1.
</event>
<event>
 5   0  0.1520986E-07  0.3867147E+04  0.7818609E-02  0.8031897E-01
        2   -1    0    0  501    0  0.00000000000E+00  0.00000000000E+00  0.20287874646E+04  0.20287874646E+04  0.25500000920E-02 0. -1.
       -2   -1    0    0    0  501  0.00000000000E+00  0.00000000000E+00 -0.18428277735E+04  0.18428277735E+04  0.25500000920E-02 0.  1.
    10030    2    1    2    0    0  0.00000000000E+00  0.00000000000E+00  0.18595969112E+03  0.38716152381E+04  0.38671466930E+04 0.  0.
        4    1    3    3  502    0 -0.67954518320E+02 -0.10464998882E+02  0.20275628128E+04  0.20287286427E+04  0.12699999809E+01 0. -1.
       -4    1    3    3    0  502  0.67954518320E+02  0.10464998882E+02 -0.18416031217E+04  0.18428865954E+04  0.12699999809E+01 0.  1.
</event>
<event>
 5   0  0.1501585E-07  0.3905984E+04  0.7818609E-02  0.8023786E-01
        2   -1    0    0  501    0  0.00000000000E+00  0.00000000000E+00  0.12411084945E+04  0.12411084945E+04  0.25500000920E-02 0.  1.
       -2   -1    0    0    0  501  0.00000000000E+00  0.00000000000E+00 -0.30732025968E+04  0.30732025968E+04  0.25500000920E-02 0. -1.
    10030    2    1    2    0    0  0.00000000000E+00  0.00000000000E+00 -0.18320941023E+04  0.43143110914E+04  0.39059840493E+04 0.  0.
        5    1    3    3  502    0 -0.19237462774E+04  0.22004369296E+03 -0.11975133519E+04  0.22766816389E+04  0.46999998093E+01 0.  1.
       -5    1    3    3    0  502  0.19237462774E+04 -0.22004369296E+03 -0.63458075037E+03  0.20376294525E+04  0.46999998093E+01 0. -1.
</event>
<event>
 5   0  0.1503228E-07  0.3809242E+04  0.7818609E-02  0.8044174E-01
        2   -1    0    0  501    0  0.00000000000E+00  0.00000000000E+00  0.24516797103E+04  0.24516797103E+04  0.25500000920E-02 0. -1.
       -2   -1    0    0    0  501  0.00000000000E+00  0.00000000000E+00 -0.14796312081E+04  0.14796312081E+04  0.25500000920E-02 0.  1.
    10030    2    1    2    0    0  0.00000000000E+00  0.00000000000E+00  0.97204850226E+03  0.39313109184E+04  0.38092423454E+04 0.  0.
        3    1    3    3  502    0  0.10003353256E+04 -0.16168201071E+04  0.60280409116E+03  0.19945302216E+04  0.10100000352E+00 0.  1.
       -3    1    3    3    0  502 -0.10003353256E+04  0.16168201071E+04  0.36924441110E+03  0.19367806968E+04  0.10100000352E+00 0. -1.
</event>
<event>
 5   0  0.4750125E-08  0.3889314E+04  0.7818609E-02  0.8027255E-01
        1   -1    0    0  501    0  0.00000000000E+00  0.00000000000E+00  0.16957978989E+04  0.16957978989E+04  0.50400001928E-02 0.  1.
       -1   -1    0    0    0  501  0.00000000000E+00  0.00000000000E+00 -0.22300357799E+04  0.22300357799E+04  0.50400001928E-02 0. -1.
    10030    2    1    2    0    0  0.00000000000E+00  0.00000000000E+00 -0.53423788103E+03  0.39258336788E+04  0.38893135590E+04 0.  0.
        1    1    3    3  502    0  0.16794886922E+04 -0.35260195809E+03 -0.11904097744E+04  0.20885607100E+04  0.50400001928E-02 0. -1.
       -1    1    3    3    0  502 -0.16794886922E+04  0.35260195809E+03  0.65617189341E+03  0.18372729688E+04  0.50400001928E-02 0.  1.
</event>
<event>
 5   0  0.4762788E-08  0.3879536E+04  0.7818609E-02  0.8029299E-01
        1   -1    0    0  501    0  0.00000000000E+00  0.00000000000E+00  0.20070912962E+04  0.20070912962E+04  0.50400001928E-02 0. -1.
       -1   -1    0    0    0  501  0.00000000000E+00  0.00000000000E+00 -0.18747025395E+04  0.18747025395E+04  0.50400001928E-02 0.  1.
    10030    2    1    2    0    0  0.00000000000E+00  0.00000000000E+00  0.13238875665E+03  0.38817938357E+04  0.38795356166E+04 0.  0.
        2    1    3    3  502    0  0.59474017676E+02 -0.74375180962E+03  0.18577659360E+04  0.20019985479E+04  0.25500000920E-02 0. -1.
       -2    1    3    3    0  502 -0.59474017676E+02  0.74375180962E+03 -0.17253771793E+04  0.18797952878E+04  0.25500000920E-02 0.  1.
</event>
<event>
 5   0  0.4762788E-08  0.3925334E+04  0.7818609E-02  0.8019781E-01
        1   -1    0    0  501    0  0.00000000000E+00  0.00000000000E+00  0.13508727704E+04  0.13508727704E+04  0.50400001928E-02 0. -1.
       -1   -1    0    0    0  501  0.00000000000E+00  0.00000000000E+00 -0.28515360607E+04  0.28515360607E+04  0.50400001928E-02 0.  1.
    10030    2    1    2    0    0  0.00000000000E+00  0.00000000000E+00 -0.15006632903E+04  0.42024088311E+04  0.39253343390E+04 0.  0.
        2    1    3    3  502    0  0.11311423081E+04  0.11485556456E+04  0.44824660523E+03  0.16731969434E+04  0.25500000920E-02 0. -1.
       -2    1    3    3    0  502 -0.11311423081E+04 -0.11485556456E+04 -0.19489098955E+04  0.25292118877E+04  0.25500000920E-02 0.  1.
</event>
<event>
 5   0  0.1546846E-07  0.3885259E+04  0.7818609E-02  0.8028102E-01
       -2   -1    0    0    0  501  0.00000000000E+00  0.00000000000E+00  0.16696760051E+04  0.16696760051E+04  0.25500000920E-02 0. -1.
        2   -1    0    0  501    0  0.00000000000E+00  0.00000000000E+00 -0.22602044227E+04  0.22602044227E+04  0.25500000920E-02 0.  1.
    10030    2    1    2    0    0  0.00000000000E+00  0.00000000000E+00 -0.59052841759E+03  0.39298804278E+04  0.38852588543E+04 0.  0.
        2    1    3    3  502    0 -0.22205209897E+03 -0.19296539764E+04 -0.26429413774E+03  0.19602864573E+04  0.25500000920E-02 0.  1.
       -2    1    3    3    0  502  0.22205209897E+03  0.19296539764E+04 -0.32623427985E+03  0.19695939705E+04  0.25500000920E-02 0. -1.
</event>
<event>
 5   0  0.1520986E-07  0.3880936E+04  0.7818609E-02  0.8029006E-01
        2   -1    0    0  501    0  0.00000000000E+00  0.00000000000E+00  0.24785854138E+04  0.24785854138E+04  0.25500000920E-02 0. -1.
       -2   -1    0    0    0  501  0.00000000000E+00  0.00000000000E+00 -0.15191792683E+04  0.15191792683E+04  0.25500000920E-02 0.  1.
    10030    2    1    2    0    0  0.00000000000E+00  0.00000000000E+00  0.95940614550E+03  0.39977646820E+04  0.38809357507E+04 0.  0.
        4    1    3    3  502    0 -0.28869996874E+03  0.12204941845E+04  0.20049727506E+04  0.23649251722E+04  0.12699999809E+01 0. -1.
       -4    1    3    3    0  502  0.28869996874E+03 -0.12204941845E+04 -0.10455666051E+04  0.16328395099E+04  0.12699999809E+01 0.  1.
</event>
<event>
 5   0  0.1501585E-07  0.3895502E+04  0.7818609E-02  0.8025965E-01
        2   -1    0    0  501    0  0.00000000000E+00  0.00000000000E+00  0.26003612985E+04  0.26003612985E+04  0.25500000920E-02 0.  1.
       -2   -1    0    0    0  501  0.00000000000E+00  0.00000000000E+00 -0.14589255088E+04  0.14589255088E+04  0.25500000920E-02 0. -1.
    10030    2    1    2    0    0  0.00000000000E+00  0.00000000000E+00  0.11414357897E+04  0.40592868074E+04  0.38955017293E+04 0.  0.
        5    1    3    3  502    0 -0.13648262169E+04  0.12395367004E+04  0.12252260651E+04  0.22136853514E+04  0.46999998093E+01 0.  1.
       -5    1    3    3    0  502  0.13648262169E+04 -0.12395367004E+04 -0.83790275452E+02  0.18456014560E+04  0.46999998093E+01 0. -1.
</event>
<event>
 5   0  0.4750125E-08  0.3909821E+04  0.7818609E-02  0.8022990E-01
        1   -1    0    0  501    0  0.00000000000E+00  0.00000000000E+00  0.12451136774E+04  0.12451136775E+04  0.50400001928E-02 0.  1.
       -1   -1    0    0    0  501  0.00000000000E+00  0.00000000000E+00 -0.30693383156E+04  0.30693383156E+04  0.50400001928E-02 0. -1.
    10030    2    1    2    0    0  0.00000000000E+00  0.00000000000E+00 -0.18242246382E+04  0.43144519931E+04  0.39098210279E+04 0.  0.
        1    1    3    3  502    0 -0.15034954133E+04  0.11286371595E+04 -0.15036439975E+04  0.24073357819E+04  0.50400001928E-02 0. -1.
       -1    1    3    3    0  502  0.15034954133E+04 -0.11286371595E+04 -0.32058064066E+03  0.19071162112E+04  0.50400001928E-02 0.  1.
</event>
<event>
 5   0  0.4750125E-08  0.3867247E+04  0.7818609E-02  0.8031876E-01
       -1   -1    0    0    0  501  0.00000000000E+00  0.00000000000E+00  0.12447942009E+04  0.12447942009E+04  0.50400001928E-02 0. -1.
        1   -1    0    0  501    0  0.00000000000E+00  0.00000000000E+00 -0.30036293769E+04  0.30036293769E+04  0.50400001928E-02 0.  1.
    10030    2    1    2    0    0  0.00000000000E+00  0.00000000000E+00 -0.17588351760E+04  0.42484235778E+04  0.38672473052E+04 0.  0.
        4    1    3    3  502    0  0.64260109933E+02  0.19317665023E+04 -0.94006431875E+03  0.21493193615E+04  0.12699999809E+01 0.  1.
       -4    1    3    3    0  502 -0.64260109933E+02 -0.19317665023E+04 -0.81877085729E+03  0.20991042163E+04  0.12699999809E+01 0. -1.
</event>
<event>
 5   0  0.1546846E-07  0.3908475E+04  0.7818609E-02  0.8023269E-01
        2   -1    0    0  501    0  0.00000000000E+00  0.00000000000E+00  0.25164575351E+04  0.25164575351E+04  0.25500000920E-02 0. -1.
       -2   -1    0    0    0  501  0.00000000000E+00  0.00000000000E+00 -0.15176274752E+04  0.15176274752E+04  0.25500000920E-02 0.  1.
    10030    2    1    2    0    0  0.00000000000E+00  0.00000000000E+00  0.99883005992E+03  0.40340850102E+04  0.39084754548E+04 0.  0.
        2    1    3    3  502    0 -0.77452665624E+03  0.12749187333E+04 -0.80358917724E+03  0.16944216959E+04  0.25500000920E-02 0.  1.
       -2    1    3    3    0  502  0.77452665624E+03 -0.12749187333E+04  0.18024192372E+04  0.23396633143E+04  0.25500000920E-02 0. -1.
</event>
<event>
 5   0  0.1538018E-07  0.3883394E+04  0.7818609E-02  0.8028492E-01
       -2   -1    0    0    0  501  0.00000000000E+00  0.00000000000E+00  0.30158254728E+04  0.30158254728E+04  0.25500000920E-02 0. -1.
        2   -1    0    0  501    0  0.00000000000E+00  0.00000000000E+00 -0.12501342437E+04  0.12501342437E+04  0.25500000920E-02 0.  1.
    10030    2    1    2    0    0  0.00000000000E+00  0.00000000000E+00  0.17656912291E+04  0.42659597165E+04  0.38833937203E+04 0.  0.
        1    1    3    3  502    0 -0.46713224448E+03 -0.15810657287E+04 -0.24397704982E+03  0.16665851833E+04  0.50400001928E-02 0.  1.
       -1    1    3    3    0  502  0.46713224448E+03  0.15810657287E+04  0.20096682790E+04  0.25993745332E+04  0.50400001928E-02 0. -1.
</event>
<event>
 5   0  0.1538018E-07  0.3922085E+04  0.7818609E-02  0.8020452E-01
       -2   -1    0    0    0  501  0.00000000000E+00  0.00000000000E+00  0.15247597029E+04  0.15247597029E+04  0.25500000920E-02 0. -1.
        2   -1    0    0  501    0  0.00000000000E+00  0.00000000000E+00 -0.25221592991E+04  0.25221592991E+04  0.25500000920E-02 0.  1.
    10030    2    1    2    0    0  0.00000000000E+00  0.00000000000E+00 -0.99739959621E+03  0.40469190021E+04  0.39220845803E+04 0.  0.
        1    1    3    3  502    0 -0.96437549656E+03 -0.39008905253E+03  0.12165883197E+04  0.16007113128E+04  0.50400001928E-02 0. -1.
       -1    1    3    3    0  502  0.96437549656E+03  0.39008905253E+03 -0.22139879159E+04  0.24462076893E+04  0.50400001928E-02 0.  1.
</event>
<event>
 5   0  0.4762788E-08  0.3910223E+04  0.7818609E-02  0.8022906E-01
        1   -1    0    0  501    0  0.00000000000E+00  0.00000000000E+00  0.11965939497E+04  0.11965939497E+04  0.50400001928E-02 0.  1.
       -1   -1    0    0    0  501  0.00000000000E+00  0.00000000000E+00 -0.31944516582E+04  0.31944516582E+04  0.50400001928E-02 0. -1.
    10030    2    1    2    0    0  0.00000000000E+00  0.00000000000E+00 -0.19978577085E+04  0.43910456079E+04  0.39102232810E+04 0.  0.
        2    1    3    3  502    0  0.33326939352E+03 -0.10644958610E+04  0.80420595143E+03  0.13751244085E+04  0.25500000920E-02 0.  1.
       -2    1    3    3    0  502 -0.33326939352E+03  0.10644958610E+04 -0.28020636599E+04  0.30159211994E+04  0.25500000920E-02 0. -1.
</event>
<event>
 5   0  0.1501585E-07  0.3790188E+04  0.7818609E-02  0.8048264E-01
        2   -1    0    0  501    0  0.00000000000E+00  0.00000000000E+00  0.19328517659E+04  0.19328517659E+04  0.25500000920E-02 0.  1.
       -2   -1    0    0    0  501  0.00000000000E+00  0.00000000000E+00 -0.18580738645E+04  0.18580738645E+04  0.25500000920E-02 0. -1.
    10030    2    1    2    0    0  0.00000000000E+00  0.00000000000E+00  0.74777901332E+02  0.37909256304E+04  0.37901880429E+04 0.  0.
        5    1    3    3  502    0  0.24177770896E+03 -0.16824014895E+04 -0.80088394389E+03  0.18789274637E+04  0.46999998093E+01 0. -1.
       -5    1    3    3    0  502 -0.24177770896E+03  0.16824014895E+04  0.87566184522E+03  0.19119981667E+04  0.46999998093E+01 0.  1.
</event>
<event>
 5   0  0.4750125E-08  0.3924677E+04  0.7818609E-02  0.8019916E-01
        1   -1    0    0  501    0  0.00000000000E+00  0.00000000000E+00  0.17938340346E+04  0.17938340346E+04  0.50400001928E-02 0.  1.
       -1   -1    0    0    0  501  0.00000000000E+00  0.00000000000E+00 -0.21466720068E+04  0.21466720068E+04  0.50400001928E-02 0. -1.
    10030    2    1    2    0    0  0.00000000000E+00  0.00000000000E+00 -0.35283797222E+03  0.39405060414E+04  0.39246774680E+04 0.  0.
        4    1    3    3  502    0 -0.55130283056E+03 -0.16846559321E+03 -0.20597389142E+04  0.21388879060E+04  0.12699999809E+01 0. -1.
       -4    1    3    3    0  502  0.55130283056E+03  0.16846559321E+03  0.17069009420E+04  0.18016181354E+04  0.12699999809E+01 0.  1.
</event>
<event>
 5   0  0.4750125E-08  0.3922050E+04  0.7818609E-02  0.8020459E-01
       -1   -1    0    0    0  501  0.00000000000E+00  0.00000000000E+00  0.18896969159E+04  0.18896969159E+04  0.50400001928E-02 0. -1.
        1   -1    0    0  501    0  0.00000000000E+00  0.00000000000E+00 -0.20350459313E+04  0.20350459314E+04  0.50400001928E-02 0.  1.
    10030    2    1    2    0    0  0.00000000000E+00  0.00000000000E+00 -0.14534901543E+03  0.39247428473E+04  0.39220504944E+04 0.  0.
        1    1    3    3  502    0 -0.52540770671E+01 -0.17039663164E+04 -0.10439546310E+04  0.19983418337E+04  0.50400001928E-02 0.  1.
       -1    1    3    3    0  502  0.52540770671E+01  0.17039663164E+04  0.89860561559E+03  0.19264010136E+04  0.50400001928E-02 0. -1.
</event>
<event>
 5   0  0.4750125E-08  0.3920801E+04  0.7818609E-02  0.8020717E-01
       -1   -1    0    0    0  501  0.00000000000E+00  0.00000000000E+00  0.16632015977E+04  0.16632015977E+04  0.50400001928E-02 0. -1.
        1   -1    0    0  501    0  0.00000000000E+00  0.00000000000E+00 -0.23107061145E+04  0.23107061145E+04  0.50400001928E-02 0.  1.
    10030    2    1    2    0    0  0.00000000000E+00  0.00000000000E+00 -0.64750451681E+03  0.39739077121E+04  0.39208009903E+04 0.  0.
        1    1    3    3  502    0 -0.48517948488E+03 -0.17823177428E+04  0.34173425542E+03  0.18785201543E+04  0.50400001928E-02 0. -1.
       -1    1    3    3    0  502  0.48517948488E+03  0.17823177428E+04 -0.98923877223E+03  0.20953875578E+04  0.50400001928E-02 0.  1.
</event>
<event>
 5   0  0.4762788E-08  0.3966086E+04  0.7818609E-02  0.8011423E-01
        1   -1    0    0  501    0  0.00000000000E+00  0.00000000000E+00  0.19228188428E+04  0.19228188428E+04  0.50400001928E-02 0. -1.
       -1   -1    0    0    0  501  0.00000000000E+00  0.00000000000E+00 -0.20451529292E+04  0.20451529292E+04  0.50400001928E-02 0.  1.
    10030    2    1    2    0    0  0.00000000000E+00  0.00000000000E+00 -0.12233408643E+03  0.39679717721E+04  0.39660855204E+04 0.  0.
        2    1    3    3  502    0 -0.17017642843E+04  0.96985516129E+03  0.24855712030E+03  0.19744369717E+04  0.25500000920E-02 0. -1.
       -2    1    3    3    0  502  0.17017642843E+04 -0.96985516129E+03 -0.37089120673E+03  0.19935348004E+04  0.25500000920E-02 0.  1.
</event>
<event>
 5   0  0.4750125E-08  0.3928161E+04  0.7818609E-02  0.8019198E-01
       -1   -1    0    0    0  501  0.00000000000E+00  0.00000000000E+00  0.17196496624E+04  0.17196496624E+04  0.50400001928E-02 0.  1.
        1   -1    0    0  501    0  0.00000000000E+00  0.00000000000E+00 -0.22432549624E+04  0.22432549624E+04  0.50400001928E-02 0. -1.
    10030    2    1    2    0    0  0.00000000000E+00  0.00000000000E+00 -0.52360529998E+03  0.39629046248E+04  0.39281612181E+04 0.  0.
        3    1    3    3  502    0  0.64632244712E+03  0.16820435028E+04  0.52652384445E+03  0.18772933761E+04  0.10100000352E+00 0.  1.
       -3    1    3    3    0  502 -0.64632244712E+03 -0.16820435028E+04 -0.10501291444E+04  0.20856112488E+04  0.10100000352E+00 0. -1.
</event>
<event>
 5   0  0.1503228E-07  0.3929742E+04  0.7818609E-02  0.8018872E-01
       -2   -1    0    0    0  501  0.00000000000E+00  0.00000000000E+00  0.14450118787E+04  0.14450118788E+04  0.25500000920E-02 0.  1.
        2   -1    0    0  501    0  0.00000000000E+00  0.00000000000E+00 -0.26717546902E+04  0.26717546902E+04  0.25500000920E-02 0. -1.
    10030    2    1    2    0    0  0.00000000000E+00  0.00000000000E+00 -0.12267428114E+04  0.41167665689E+04  0.39297416019E+04 0.  0.
        3    1    3    3  502    0 -0.13623025434E+04 -0.12547396283E+04 -0.13007048491E+04  0.22631996972E+04  0.10100000352E+00 0. -1.
       -3    1    3    3    0  502  0.13623025434E+04  0.12547396283E+04  0.73962037700E+02  0.18535668717E+04  0.10100000352E+00 0.  1.
</event>
<event>
 5   0  0.4750125E-08  0.3861720E+04  0.7818609E-02  0.8033038E-01
       -1   -1    0    0    0  501  0.00000000000E+00  0.00000000000E+00  0.22613016014E+04  0.22613016014E+04  0.50400001928E-02 0.  1.
        1   -1    0    0  501    0  0.00000000000E+00  0.00000000000E+00 -0.16487053153E+04  0.16487053153E+04  0.50400001928E-02 0. -1.
    10030    2    1    2    0    0  0.00000000000E+00  0.00000000000E+00  0.61259628604E+03  0.39100069167E+04  0.38617198085E+04 0.  0.
        3    1    3    3  502    0  0.10920117386E+04 -0.14220950309E+04 -0.41916368501E+03  0.18413424774E+04  0.10100000352E+00 0. -1.
       -3    1    3    3    0  502 -0.10920117386E+04  0.14220950309E+04  0.10317599711E+04  0.20686644393E+04  0.10100000352E+00 0.  1.
</event>
<event>
 5   0  0.1520986E-07  0.3892821E+04  0.7818609E-02  0.8026524E-01
       -2   -1    0    0    0  501  0.00000000000E+00  0.00000000000E+00  0.28128856158E+04  0.28128856158E+04  0.25500000920E-02 0. -1.
        2   -1    0    0  501    0  0.00000000000E+00  0.00000000000E+00 -0.13468423451E+04  0.13468423451E+04  0.25500000920E-02 0.  1.
    10030    2    1    2    0    0  0.00000000000E+00  0.00000000000E+00  0.14660432707E+04  0.41597279608E+04  0.38928208072E+04 0.  0.
        4    1    3    3  502    0 -0.13375448661E+04  0.12703477270E+04  0.13966525229E+04  0.23137522553E+04  0.12699999809E+01 0.  1.
       -4    1    3    3    0  502  0.13375448661E+04 -0.12703477270E+04  0.69390747808E+02  0.18459757055E+04  0.12699999809E+01 0. -1.
</event>
<event>
 5   0  0.1503228E-07  0.3931370E+04  0.7818609E-02  0.8018536E-01
        2   -1    0    0  501    0  0.00000000000E+00  0.00000000000E+00  0.20119707716E+04  0.20119707716E+04  0.25500000920E-02 0. -1.
       -2   -1    0    0    0  501  0.00000000000E+00  0.00000000000E+00 -0.19204639254E+04  0.19204639254E+04  0.25500000920E-02 0.  1.
    10030    2    1    2    0    0  0.00000000000E+00  0.00000000000E+00  0.91506846180E+02  0.39324346971E+04  0.39313698813E+04 0.  0.
        3    1    3    3  502    0 -0.14950136824E+04 -0.11002523734E+04 -0.60117988297E+03  0.19511633601E+04  0.10100000352E+00 0.  1.
       -3    1    3    3    0  502  0.14950136824E+04  0.11002523734E+04  0.69268672915E+03  0.19812713370E+04  0.10100000352E+00 0. -1.
</event>
<event>
 5   0  0.1546846E-07  0.3867630E+04  0.7818609E-02  0.8031795E-01
       -2   -1    0    0    0  501  0.00000000000E+00  0.00000000000E+00  0.16394462995E+04  0.16394462995E+04  0.25500000920E-02 0. -1.
        2   -1    0    0  501    0  0.00000000000E+00  0.00000000000E+00 -0.22810384193E+04  0.22810384193E+04  0.25500000920E-02 0.  1.
    10030    2    1    2    0    0  0.00000000000E+00  0.00000000000E+00 -0.64159211976E+03  0.39204847188E+04  0.38676297628E+04 0.  0.
        2    1    3    3  502    0  0.80051431540E+03 -0.14905520074E+04  0.62852339482E+03  0.18048850694E+04  0.25500000920E-02 0. -1.
       -2    1    3    3    0  502 -0.80051431540E+03  0.14905520074E+04 -0.12701155146E+04  0.21155996493E+04  0.25500000920E-02 0.  1.
</event>
<event>
 5   0  0.4750125E-08  0.3864526E+04  0.7818609E-02  0.8032448E-01
        1   -1    0    0  501    0  0.00000000000E+00  0.00000000000E+00  0.11935705791E+04  0.11935705791E+04  0.50400001928E-02 0.  1.
       -1   -1    0    0    0  501  0.00000000000E+00  0.00000000000E+00 -0.31281267720E+04  0.31281267720E+04  0.50400001928E-02 0. -1.
    10030    2    1    2    0    0  0.00000000000E+00  0.00000000000E+00 -0.19345561929E+04  0.43216973511E+04  0.38645258870E+04 0.  0.
        5    1    3    3  502    0 -0.89217070784E+02 -0.18366668842E+04 -0.30350063410E+03  0.18637166239E+04  0.46999998093E+01 0.  1.
       -5    1    3    3    0  502  0.89217070784E+02  0.18366668842E+04 -0.16310555588E+04  0.24579807272E+04  0.46999998093E+01 0. -1.
</event>
<event>
 5   0  0.4750125E-08  0.3833631E+04  0.7818609E-02  0.8038976E-01
        1   -1    0    0  501    0  0.00000000000E+00  0.00000000000E+00  0.14057474910E+04  0.14057474910E+04  0.50400001928E-02 0. -1.
       -1   -1    0    0    0  501  0.00000000000E+00  0.00000000000E+00 -0.26136860073E+04  0.26136860073E+04  0.50400001928E-02 0.  1.
    10030    2    1    2    0    0  0.00000000000E+00  0.00000000000E+00 -0.12079385163E+04  0.40194334984E+04  0.38336314623E+04 0.  0.
        1    1    3    3  502    0 -0.14495974617E+04  0.92104387845E+02  0.70739621360E+03  0.16156192071E+04  0.50400001928E-02 0. -1.
       -1    1    3    3    0  502  0.14495974617E+04 -0.92104387845E+02 -0.19153347299E+04  0.24038142913E+04  0.50400001928E-02 0.  1.
</event>
<event>
 5   0  0.1520986E-07  0.3824787E+04  0.7818609E-02  0.8040856E-01
        2   -1    0    0  501    0  0.00000000000E+00  0.00000000000E+00  0.22381134584E+04  0.22381134584E+04  0.25500000920E-02 0. -1.
       -2   -1    0    0    0  501  0.00000000000E+00  0.00000000000E+00 -0.16340766840E+04  0.16340766840E+04  0.25500000920E-02 0.  1.
    10030    2    1    2    0    0  0.00000000000E+00  0.00000000000E+00  0.60403677441E+03  0.38721901424E+04  0.38247870626E+04 0.  0.
        4    1    3    3  502    0 -0.74152803617E+03  0.13847353276E+04 -0.80232242349E+03  0.17638250027E+04  0.12699999809E+01 0.  1.
       -4    1    3    3    0  502  0.74152803617E+03 -0.13847353276E+04  0.14063591979E+04  0.21083651397E+04  0.12699999809E+01 0. -1.
</event>
<event>
 5   0  0.1520986E-07  0.3415215E+04  0.7818609E-02  0.8134182E-01
       -2   -1    0    0    0  501  0.00000000000E+00  0.00000000000E+00  0.12939581293E+04  0.12939581293E+04  0.25500000920E-02 0.  1.
        2   -1    0    0  501    0  0.00000000000E+00  0.00000000000E+00 -0.22534916709E+04  0.22534916709E+04  0.25500000920E-02 0. -1.
    10030    2    1    2    0    0  0.00000000000E+00  0.00000000000E+00 -0.95953354162E+03  0.35474498003E+04  0.34152152887E+04 0.  0.
        4    1    3    3  502    0 -0.32217876054E+03 -0.12271133755E+04 -0.16669623563E+04  0.20948440276E+04  0.12699999809E+01 0. -1.
       -4    1    3    3    0  502  0.32217876054E+03  0.12271133755E+04  0.70742881464E+03  0.14526057726E+04  0.12699999809E+01 0.  1.
</event>
<event>
 5   0  0.1501585E-07  0.3907303E+04  0.7818609E-02  0.8023512E-01
        2   -1    0    0  501    0  0.00000000000E+00  0.00000000000E+00  0.15995384240E+04  0.15995384240E+04  0.25500000920E-02 0.  1.
       -2   -1    0    0    0  501  0.00000000000E+00  0.00000000000E+00 -0.23861591916E+04  0.23861591916E+04  0.25500000920E-02 0. -1.
    10030    2    1    2    0    0  0.00000000000E+00  0.00000000000E+00 -0.78662076761E+03  0.39856976156E+04  0.39073025543E+04 0.  0.
        5    1    3    3  502    0  0.91060089889E+03  0.52815666460E+03 -0.20721096149E+04  0.23241780924E+04  0.46999998093E+01 0. -1.
       -5    1    3    3    0  502 -0.91060089889E+03 -0.52815666460E+03  0.12854888472E+04  0.16615195231E+04  0.46999998093E+01 0.  1.
</event>
<event>
 5   0  0.1503228E-07  0.3960686E+04  0.7818609E-02  0.8012525E-01
       -2   -1    0    0    0  501  0.00000000000E+00  0.00000000000E+00  0.16165027631E+04  0.16165027631E+04  0.25500000920E-02 0. -1.
        2   -1    0    0  501    0  0.00000000000E+00  0.00000000000E+00 -0.24260760710E+04  0.24260760710E+04  0.25500000920E-02 0.  1.
    10030    2    1    2    0    0  0.00000000000E+00  0.00000000000E+00 -0.80957330792E+03  0.40425788341E+04  0.39606861387E+04 0.  0.
        3    1    3    3  502    0  0.12632550146E+04 -0.81943137233E+02 -0.19591768553E+04  0.23325740868E+04  0.10100000352E+00 0.  1.
       -3    1    3    3    0  502 -0.12632550146E+04  0.81943137233E+02  0.11496035474E+04  0.17100047474E+04  0.10100000352E+00 0. -1.
</event>
<event>
 5   0  0.1520986E-07  0.3926564E+04  0.7818609E-02  0.8019527E-01
        2   -1    0    0  501    0  0.00000000000E+00  0.00000000000E+00  0.24657586316E+04  0.24657586316E+04  0.25500000920E-02 0.  1.
       -2   -1    0    0    0  501  0.00000000000E+00  0.00000000000E+00 -0.15632008499E+04  0.15632008499E+04  0.25500000920E-02 0. -1.
    10030    2    1    2    0    0  0.00000000000E+00  0.00000000000E+00  0.90255778171E+03  0.40289594815E+04  0.39265638865E+04 0.  0.
        4    1    3    3  502    0  0.68534570957E+03 -0.54375570027E+03 -0.13521399112E+04  0.16104822121E+04  0.12699999809E+01 0. -1.
       -4    1    3    3    0  502 -0.68534570957E+03  0.54375570027E+03  0.22546976929E+04  0.24184772694E+04  0.12699999809E+01 0.  1.
</event>
<event>
 5   0  0.4750125E-08  0.3875327E+04  0.7818609E-02  0.8030180E-01
       -1   -1    0    0    0  501  0.00000000000E+00  0.00000000000E+00  0.13212306839E+04  0.13212306839E+04  0.50400001928E-02 0.  1.
        1   -1    0    0  501    0  0.00000000000E+00  0.00000000000E+00 -0.28416989255E+04  0.28416989255E+04  0.50400001928E-02 0. -1.
    10030    2    1    2    0    0  0.00000000000E+00  0.00000000000E+00 -0.15204682416E+04  0.41629296093E+04  0.38753269873E+04 0.  0.
        5    1    3    3  502    0 -0.13080858502E+04  0.54949211538E+03  0.65735672993E+03  0.15637039799E+04  0.46999998093E+01 0.  1.
       -5    1    3    3    0  502  0.13080858502E+04 -0.54949211538E+03 -0.21778249716E+04  0.25992256295E+04  0.46999998093E+01 0. -1.
</event>
<event>
 5   0  0.4762788E-08  0.3890551E+04  0.7818609E-02  0.8026997E-01
        1   -1    0    0  501    0  0.00000000000E+00  0.00000000000E+00  0.14985224969E+04  0.14985224969E+04  0.50400001928E-02 0.  1.
       -1   -1    0    0    0  501  0.00000000000E+00  0.00000000000E+00 -0.25252184308E+04  0.25252184308E+04  0.50400001928E-02 0. -1.
    10030    2    1    2    0    0  0.00000000000E+00  0.00000000000E+00 -0.10266959339E+04  0.40237409277E+04  0.38905509266E+04 0.  0.
        2    1    3    3  502    0  0.13461484640E+04  0.14035690869E+04 -0.46738839411E+03  0.20001434398E+04  0.25500000920E-02 0. -1.
       -2    1    3    3    0  502 -0.13461484640E+04 -0.14035690869E+04 -0.55930753980E+03  0.20235974879E+04  0.25500000920E-02 0.  1.
</event>
<event>
 5   0  0.1520986E-07  0.3894410E+04  0.7818609E-02  0.8026193E-01
       -2   -1    0    0    0  501  0.00000000000E+00  0.00000000000E+00  0.14189811078E+04  0.14189811078E+04  0.25500000920E-02 0. -1.
        2   -1    0    0  501    0  0.00000000000E+00  0.00000000000E+00 -0.26720634351E+04  0.26720634351E+04  0.25500000920E-02 0.  1.
    10030    2    1    2    0    0  0.00000000000E+00  0.00000000000E+00 -0.12530823273E+04  0.40910445429E+04  0.38944101137E+04 0.  0.
        4    1    3    3  502    0 -0.14776068338E+04 -0.81222357644E+03 -0.16496663577E+04  0.23589043640E+04  0.12699999809E+01 0.  1.
       -4    1    3    3    0  502  0.14776068338E+04  0.81222357644E+03  0.39658403047E+03  0.17321401790E+04  0.12699999809E+01 0. -1.
</event>
<event>
 5   0  0.1503228E-07  0.3894315E+04  0.7818609E-02  0.8026213E-01
       -2   -1    0    0    0  501  0.00000000000E+00  0.00000000000E+00  0.21362900983E+04  0.21362900983E+04  0.25500000920E-02 0. -1.
        2   -1    0    0  501    0  0.00000000000E+00  0.00000000000E+00 -0.17747695976E+04  0.17747695976E+04  0.25500000920E-02 0.  1.
    10030    2    1    2    0    0  0.00000000000E+00  0.00000000000E+00  0.36152050069E+03  0.39110596959E+04  0.38943151994E+04 0.  0.
        3    1    3    3  502    0  0.14670160293E+04 -0.10349104127E+04 -0.57630265146E+03  0.18855504100E+04  0.10100000352E+00 0. -1.
       -3    1    3    3    0  502 -0.14670160293E+04  0.10349104127E+04  0.93782315215E+03  0.20255092859E+04  0.10100000352E+00 0.  1.
</event>
<event>
 5   0  0.1546846E-07  0.3849528E+04  0.7818609E-02  0.8035609E-01
       -2   -1    0    0    0  501  0.00000000000E+00  0.00000000000E+00  0.17367505676E+04  0.17367505676E+04  0.25500000920E-02 0.  1.
        2   -1    0    0  501    0  0.00000000000E+00  0.00000000000E+00 -0.21331308914E+04  0.21331308914E+04  0.25500000920E-02 0. -1.
    10030    2    1    2    0    0  0.00000000000E+00  0.00000000000E+00 -0.39638032386E+03  0.38698814590E+04  0.38495279121E+04 0.  0.
        2    1    3    3  502    0 -0.14272296059E+03 -0.74966504286E+03 -0.19745497938E+04  0.21168879064E+04  0.25500000920E-02 0. -1.
       -2    1    3    3    0  502  0.14272296059E+03  0.74966504286E+03  0.15781694699E+04  0.17529935527E+04  0.25500000920E-02 0.  1.
</event>
<event>
 5   0  0.1520986E-07  0.3872717E+04  0.7818609E-02  0.8030728E-01
       -2   -1    0    0    0  501  0.00000000000E+00  0.00000000000E+00  0.26326976653E+04  0.26326976653E+04  0.25500000920E-02 0.  1.
        2   -1    0    0  501    0  0.00000000000E+00  0.00000000000E+00 -0.14241982378E+04  0.14241982378E+04  0.25500000920E-02 0. -1.
    10030    2    1    2    0    0  0.00000000000E+00  0.00000000000E+00  0.12084994275E+04  0.40568959031E+04  0.38727165534E+04 0.  0.
        4    1    3    3  502    0 -0.19115397002E+04 -0.24625325505E+03  0.40867009236E+03  0.19701871862E+04  0.12699999809E+01 0.  1.
       -4    1    3    3    0  502  0.19115397002E+04  0.24625325505E+03  0.79982933514E+03  0.20867087170E+04  0.12699999809E+01 0. -1.
</event>
<event>
 5   0  0.4750125E-08  0.3912148E+04  0.7818609E-02  0.8022507E-01
        1   -1    0    0  501    0  0.00000000000E+00  0.00000000000E+00  0.20588926781E+04  0.20588926782E+04  0.50400001928E-02 0.  1.
       -1   -1    0    0    0  501  0.00000000000E+00  0.00000000000E+00 -0.18583901097E+04  0.18583901097E+04  0.50400001928E-02 0. -1.
    10030    2    1    2    0    0  0.00000000000E+00  0.00000000000E+00  0.20050256847E+03  0.39172827878E+04  0.39121481516E+04 0.  0.
        1    1    3    3  502    0 -0.13414571691E+04  0.46676701741E+03  0.14469503191E+04  0.20275709632E+04  0.50400001928E-02 0.  1.
       -1    1    3    3    0  502  0.13414571691E+04 -0.46676701741E+03 -0.12464477506E+04  0.18897118246E+04  0.50400001928E-02 0. -1.
</event>
<event>
 5   0  0.1546846E-07  0.3881720E+04  0.7818609E-02  0.8028842E-01
       -2   -1    0    0    0  501  0.00000000000E+00  0.00000000000E+00  0.14046513088E+04  0.14046513088E+04  0.25500000920E-02 0. -1.
        2   -1    0    0  501    0  0.00000000000E+00  0.00000000000E+00 -0.26817597752E+04  0.26817597752E+04  0.25500000920E-02 0.  1.
    10030    2    1    2    0    0  0.00000000000E+00  0.00000000000E+00 -0.12771084664E+04  0.40864110840E+04  0.38817199168E+04 0.  0.
        2    1    3    3  502    0  0.18101528432E+04  0.22142427427E+03  0.60744676554E+02  0.18246566638E+04  0.25500000920E-02 0. -1.
       -2    1    3    3    0  502 -0.18101528432E+04 -0.22142427427E+03 -0.13378531430E+04  0.22617544202E+04  0.25500000920E-02 0.  1.
</event>
<event>
 5   0  0.4750125E-08  0.3971870E+04  0.7818609E-02  0.8010246E-01
        1   -1    0    0  501    0  0.00000000000E+00  0.00000000000E+00  0.12488869369E+04  0.12488869369E+04  0.50400001928E-02 0.  1.
       -1   -1    0    0    0  501  0.00000000000E+00  0.00000000000E+00 -0.31579614802E+04  0.31579614802E+04  0.50400001928E-02 0. -1.
    10030    2    1    2    0    0  0.00000000000E+00  0.00000000000E+00 -0.19090745433E+04  0.44068484171E+04  0.39718695044E+04 0.  0.
        5    1    3    3  502    0  0.11645145966E+04 -0.71964567371E+02  0.82851966982E+03  0.14309926897E+04  0.46999998093E+01 0.  1.
       -5    1    3    3    0  502 -0.11645145966E+04  0.71964567371E+02 -0.27375942131E+04  0.29758557274E+04  0.46999998093E+01 0. -1.
</event>
<event>
 5   0  0.4750125E-08  0.3899992E+04  0.7818609E-02  0.8025031E-01
       -1   -1    0    0    0  501  0.00000000000E+00  0.00000000000E+00  0.16528305169E+04  0.16528305169E+04  0.50400001928E-02 0.  1.
        1   -1    0    0  501    0  0.00000000000E+00  0.00000000000E+00 -0.23005891221E+04  0.23005891221E+04  0.50400001928E-02 0. -1.
    10030    2    1    2    0    0  0.00000000000E+00  0.00000000000E+00 -0.64775860514E+03  0.39534196390E+04  0.38999917476E+04 0.  0.
        3    1    3    3  502    0 -0.68146225320E+03  0.64199950264E+03  0.14100890769E+04  0.16926031368E+04  0.10100000352E+00 0.  1.
       -3    1    3    3    0  502  0.68146225320E+03 -0.64199950264E+03 -0.20578476820E+04  0.22608165022E+04  0.10100000352E+00 0. -1.
</event>
<event>
 5   0  0.1501585E-07  0.3903094E+04  0.7818609E-02  0.8024386E-01
        2   -1    0    0  501    0  0.00000000000E+00  0.00000000000E+00  0.14015596116E+04  0.14015596116E+04  0.25500000920E-02 0.  1.
       -2   -1    0    0    0  501  0.00000000000E+00  0.00000000000E+00 -0.27173555734E+04  0.27173555734E+04  0.25500000920E-02 0. -1.
    10030    2    1    2    0    0  0.00000000000E+00  0.00000000000E+00 -0.13157959618E+04  0.41189151850E+04  0.39030940660E+04 0.  0.
        5    1    3    3  502    0 -0.16346329916E+04 -0.62858829054E+03  0.25073816671E+03  0.17691918987E+04  0.46999998093E+01 0.  1.
       -5    1    3    3    0  502  0.16346329916E+04  0.62858829054E+03 -0.15665341285E+04  0.23497232863E+04  0.46999998093E+01 0. -1.
</event>
<event>
 5   0  0.4750125E-08  0.3904369E+04  0.7818609E-02  0.8024121E-01
        1   -1    0    0  501    0  0.00000000000E+00  0.00000000000E+00  0.18751461648E+04  0.18751461648E+04  0.50400001928E-02 0. -1.
       -1   -1    0    0    0  501  0.00000000000E+00  0.00000000000E+00 -0.20323874562E+04  0.20323874562E+04  0.50400001928E-02 0.  1.
    10030    2    1    2    0    0  0.00000000000E+00  0.00000000000E+00 -0.15724129139E+03  0.39075336211E+04  0.39043686015E+04 0.  0.
        5    1    3    3  502    0 -0.14402441434E+04 -0.11633853670E+04  0.54093913766E+03  0.19288353858E+04  0.46999998093E+01 0. -1.
       -5    1    3    3    0  502  0.14402441434E+04  0.11633853670E+04 -0.69818042905E+03  0.19786982353E+04  0.46999998093E+01 0.  1.
</event>
<event>
 5   0  0.1503228E-07  0.4140226E+04  0.7818609E-02  0.7976841E-01
       -2   -1    0    0    0  501  0.00000000000E+00  0.00000000000E+00  0.20627808176E+04  0.20627808176E+04  0.25500000920E-02 0. -1.
        2   -1    0    0  501    0  0.00000000000E+00  0.00000000000E+00 -0.20774711895E+04  0.20774711895E+04  0.25500000920E-02 0.  1.
    10030    2    1    2    0    0  0.00000000000E+00  0.00000000000E+00 -0.14690371927E+02  0.41402520071E+04  0.41402259450E+04 0.  0.
        3    1    3    3  502    0 -0.20525290819E+02  0.18637780655E+04  0.89337006183E+03  0.20669301010E+04  0.10100000352E+00 0. -1.
       -3    1    3    3    0  502  0.20525290819E+02 -0.18637780655E+04 -0.90806043375E+03  0.20733219061E+04  0.10100000352E+00 0.  1.
</event>
<event>
 5   0  0.4750125E-08  0.3966356E+04  0.7818609E-02  0.8011368E-01
       -1   -1    0    0    0  501  0.00000000000E+00  0.00000000000E+00  0.14454171699E+04  0.14454171699E+04  0.50400001928E-02 0. -1.
        1   -1    0    0  501    0  0.00000000000E+00  0.00000000000E+00 -0.27210100053E+04  0.27210100053E+04  0.50400001928E-02 0.  1.
    10030    2    1    2    0    0  0.00000000000E+00  0.00000000000E+00 -0.12755928354E+04  0.41664271752E+04  0.39663557991E+04 0.  0.
        1    1    3    3  502    0  0.18261551127E+04 -0.14698745688E+03 -0.14354042288E+04  0.23274090977E+04  0.50400001928E-02 0. -1.
       -1    1    3    3    0  502 -0.18261551127E+04  0.14698745688E+03  0.15981139342E+03  0.18390180775E+04  0.50400001928E-02 0.  1.
</event>
<event>
 5   0  0.4750125E-08  0.3906838E+04  0.7818609E-02  0.8023609E-01
       -1   -1    0    0    0  501  0.00000000000E+00  0.00000000000E+00  0.16105650581E+04  0.16105650581E+04  0.50400001928E-02 0. -1.
        1   -1    0    0  501    0  0.00000000000E+00  0.00000000000E+00 -0.23692592277E+04  0.23692592277E+04  0.50400001928E-02 0.  1.
    10030    2    1    2    0    0  0.00000000000E+00  0.00000000000E+00 -0.75869416956E+03  0.39798242858E+04  0.39068381721E+04 0.  0.
        5    1    3    3  502    0  0.50593128257E+03 -0.10052119300E+04  0.12471677326E+04  0.16798413408E+04  0.46999998093E+01 0. -1.
       -5    1    3    3    0  502 -0.50593128257E+03  0.10052119300E+04 -0.20058619022E+04  0.22999829451E+04  0.46999998093E+01 0.  1.
</event>
<event>
 5   0  0.1503228E-07  0.3902503E+04  0.7818609E-02  0.8024509E-01
       -2   -1    0    0    0  501  0.00000000000E+00  0.00000000000E+00  0.12421839663E+04  0.12421839663E+04  0.25500000920E-02 0. -1.
        2   -1    0    0  501    0  0.00000000000E+00  0.00000000000E+00 -0.30650720773E+04  0.30650720773E+04  0.25500000920E-02 0.  1.
    10030    2    1    2    0    0  0.00000000000E+00  0.00000000000E+00 -0.18228881110E+04  0.43072560437E+04  0.39025034991E+04 0.  0.
        3    1    3    3  502    0  0.15570176317E+04 -0.11038653204E+03 -0.22037322336E+04  0.27005415863E+04  0.10100000352E+00 0.  1.
       -3    1    3    3    0  502 -0.15570176317E+04  0.11038653204E+03  0.38084412258E+03  0.16067144574E+04  0.10100000352E+00 0. -1.
</event>
<event>
 5   0  0.1501585E-07  0.3878312E+04  0.7818609E-02  0.8029555E-01
        2   -1    0    0  501    0  0.00000000000E+00  0.00000000000E+00  0.17652743687E+04  0.17652743687E+04  0.25500000920E-02 0.  1.
       -2   -1    0    0    0  501  0.00000000000E+00  0.00000000000E+00 -0.21301656150E+04  0.21301656150E+04  0.25500000920E-02 0. -1.
    10030    2    1    2    0    0  0.00000000000E+00  0.00000000000E+00 -0.36489124632E+03  0.38954399837E+04  0.38783123966E+04 0.  0.
        5    1    3    3  502    0 -0.72478999631E+03 -0.16268014572E+04  0.58808053636E+03  0.18755437417E+04  0.46999998093E+01 0.  1.
       -5    1    3    3    0  502  0.72478999631E+03  0.16268014572E+04 -0.95297178269E+03  0.20198962420E+04  0.46999998093E+01 0. -1.
</event>
<event>
 5   0  0.1501585E-07  0.3864887E+04  0.7818609E-02  0.8032372E-01
       -2   -1    0    0    0  501  0.00000000000E+00  0.00000000000E+00  0.15325235315E+04  0.15325235315E+04  0.25500000920E-02 0. -1.
        2   -1    0    0  501    0  0.00000000000E+00  0.00000000000E+00 -0.24367245171E+04  0.24367245171E+04  0.25500000920E-02 0.  1.
    10030    2    1    2    0    0  0.00000000000E+00  0.00000000000E+00 -0.90420098554E+03  0.39692480486E+04  0.38648868870E+04 0.  0.
        5    1    3    3  502    0 -0.87007870511E+02 -0.14595674396E+04 -0.17497081875E+04  0.22802211102E+04  0.46999998093E+01 0.  1.
       -5    1    3    3    0  502  0.87007870511E+02  0.14595674396E+04  0.84550720192E+03  0.16890269384E+04  0.46999998093E+01 0. -1.
</event>
<event>
 5   0  0.4750125E-08  0.3965297E+04  0.7818609E-02  0.8011584E-01
       -1   -1    0    0    0  501  0.00000000000E+00  0.00000000000E+00  0.18981949034E+04  0.18981949035E+04  0.50400001928E-02 0.  1.
        1   -1    0    0  501    0  0.00000000000E+00  0.00000000000E+00 -0.20708591490E+04  0.20708591490E+04  0.50400001928E-02 0. -1.
    10030    2    1    2    0    0  0.00000000000E+00  0.00000000000E+00 -0.17266424553E+03  0.39690540524E+04  0.39652966004E+04 0.  0.
        4    1    3    3  502    0  0.57797140804E+03  0.18861749303E+04 -0.28447387102E+03  0.19931467112E+04  0.12699999809E+01 0. -1.
       -4    1    3    3    0  502 -0.57797140804E+03 -0.18861749303E+04  0.11180962549E+03  0.19759073413E+04  0.12699999809E+01 0.  1.
</event>
<event>
 5   0  0.4750125E-08  0.3907336E+04  0.7818609E-02  0.8023505E-01
        1   -1    0    0  501    0  0.00000000000E+00  0.00000000000E+00  0.15989030025E+04  0.15989030025E+04  0.50400001928E-02 0. -1.
       -1   -1    0    0    0  501  0.00000000000E+00  0.00000000000E+00 -0.23871480203E+04  0.23871480203E+04  0.50400001928E-02 0.  1.
    10030    2    1    2    0    0  0.00000000000E+00  0.00000000000E+00 -0.78824501772E+03  0.39860510228E+04  0.39073357353E+04 0.  0.
        4    1    3    3  502    0 -0.59912627237E+03  0.16794206473E+04 -0.12085862199E+04  0.21540864107E+04  0.12699999809E+01 0.  1.
       -4    1    3    3    0  502  0.59912627237E+03 -0.16794206473E+04  0.42034120213E+03  0.18319646121E+04  0.12699999809E+01 0. -1.
</event>
<event>
 5   0  0.4750125E-08  0.3882464E+04  0.7818609E-02  0.8028686E-01
       -1   -1    0    0    0  501  0.00000000000E+00  0.00000000000E+00  0.31678918986E+04  0.31678918986E+04  0.50400001928E-02 0.  1.
        1   -1    0    0  501    0  0.00000000000E+00  0.00000000000E+00 -0.11895550560E+04  0.11895550560E+04  0.50400001928E-02 0. -1.
    10030    2    1    2    0    0  0.00000000000E+00  0.00000000000E+00  0.19783368426E+04  0.43574469546E+04  0.38824640757E+04 0.  0.
        3    1    3    3  502    0 -0.12392895916E+04 -0.57898039185E+03 -0.55678180790E+03  0.14768422319E+04  0.10100000352E+00 0. -1.
       -3    1    3    3    0  502  0.12392895916E+04  0.57898039185E+03  0.25351186505E+04  0.28806047227E+04  0.10100000352E+00 0.  1.
</event>
<event>
 5   0  0.4750125E-08  0.3890734E+04  0.7818609E-02  0.8026959E-01
        1   -1    0    0  501    0  0.00000000000E+00  0.00000000000E+00  0.26260602488E+04  0.26260602488E+04  0.50400001928E-02 0.  1.
       -1   -1    0    0    0  501  0.00000000000E+00  0.00000000000E+00 -0.14411138555E+04  0.14411138555E+04  0.50400001928E-02 0. -1.
    10030    2    1    2    0    0  0.00000000000E+00  0.00000000000E+00  0.11849463933E+04  0.40671741043E+04  0.38907335093E+04 0.  0.
        1    1    3    3  502    0 -0.15850459671E+04  0.94759367785E+03 -0.46941470590E+02  0.18472974849E+04  0.50400001928E-02 0. -1.
       -1    1    3    3    0  502  0.15850459671E+04 -0.94759367785E+03  0.12318878639E+04  0.22198766194E+04  0.50400001928E-02 0.  1.
</event>
<event>
 5   0  0.1503228E-07  0.3937475E+04  0.7818609E-02  0.8017280E-01
        2   -1    0    0  501    0  0.00000000000E+00  0.00000000000E+00  0.18204282922E+04  0.18204282922E+04  0.25500000920E-02 0. -1.
       -2   -1    0    0    0  501  0.00000000000E+00  0.00000000000E+00 -0.21291292218E+04  0.21291292218E+04  0.25500000920E-02 0.  1.
    10030    2    1    2    0    0  0.00000000000E+00  0.00000000000E+00 -0.30870092966E+03  0.39495575140E+04  0.39374748624E+04 0.  0.
        3    1    3    3  502    0 -0.18296177928E+04  0.34045876576E+03 -0.79859359554E+03  0.20251333733E+04  0.10100000352E+00 0.  1.
       -3    1    3    3    0  502  0.18296177928E+04 -0.34045876576E+03  0.48989266588E+03  0.19244241406E+04  0.10100000352E+00 0. -1.
</event>
<event>
 5   0  0.1501585E-07  0.3905796E+04  0.7818609E-02  0.8023825E-01
        2   -1    0    0  501    0  0.00000000000E+00  0.00000000000E+00  0.12403485345E+04  0.12403485345E+04  0.25500000920E-02 0.  1.
       -2   -1    0    0    0  501  0.00000000000E+00  0.00000000000E+00 -0.30747896954E+04  0.30747896954E+04  0.25500000920E-02 0. -1.
    10030    2    1    2    0    0  0.00000000000E+00  0.00000000000E+00 -0.18344411609E+04  0.43151382299E+04  0.39057961507E+04 0.  0.
        5    1    3    3  502    0 -0.22416059708E+03 -0.14726840595E+04  0.47795999833E+03  0.15644533110E+04  0.46999998093E+01 0.  1.
       -5    1    3    3    0  502  0.22416059708E+03  0.14726840595E+04 -0.23124011592E+04  0.27506849189E+04  0.46999998093E+01 0. -1.
</event>
<event>
 5   0  0.1501585E-07  0.3888404E+04  0.7818609E-02  0.8027445E-01
       -2   -1    0    0    0  501  0.00000000000E+00  0.00000000000E+00  0.17983706263E+04  0.17983706263E+04  0.25500000920E-02 0.  1.
        2   -1    0    0  501    0  0.00000000000E+00  0.00000000000E+00 -0.21018594451E+04  0.21018594451E+04  0.25500000920E-02 0. -1.
    10030    2    1    2    0    0  0.00000000000E+00  0.00000000000E+00 -0.30348881878E+03  0.39002300714E+04  0.38884044474E+04 0.  0.
        5    1    3    3  502    0  0.66708925033E+03 -0.92490766895E+03  0.14276675269E+04  0.18272161671E+04  0.46999998093E+01 0.  1.
       -5    1    3    3    0  502 -0.66708925033E+03  0.92490766895E+03 -0.17311563457E+04  0.20730139043E+04  0.46999998093E+01 0. -1.
</event>
<event>
 5   0  0.4750125E-08  0.3873647E+04  0.7818609E-02  0.8030533E-01
        1   -1    0    0  501    0  0.00000000000E+00  0.00000000000E+00  0.16488212230E+04  0.16488212230E+04  0.50400001928E-02 0.  1.
       -1   -1    0    0    0  501  0.00000000000E+00  0.00000000000E+00 -0.22751312830E+04  0.22751312830E+04  0.50400001928E-02 0. -1.
    10030    2    1    2    0    0  0.00000000000E+00  0.00000000000E+00 -0.62631006005E+03  0.39239525061E+04  0.38736467287E+04 0.  0.
        1    1    3    3  502    0 -0.15274264635E+04  0.42584519223E+03 -0.14397624536E+04  0.21417963609E+04  0.50400001928E-02 0. -1.
       -1    1    3    3    0  502  0.15274264635E+04 -0.42584519223E+03  0.81345239352E+03  0.17821561451E+04  0.50400001928E-02 0.  1.
</event>
<event>
 5   0  0.1538018E-07  0.3894380E+04  0.7818609E-02  0.8026199E-01
       -2   -1    0    0    0  501  0.00000000000E+00  0.00000000000E+00  0.18143497110E+04  0.18143497110E+04  0.25500000920E-02 0. -1.
        2   -1    0    0  501    0  0.00000000000E+00  0.00000000000E+00 -0.20897563763E+04  0.20897563763E+04  0.25500000920E-02 0.  1.
    10030    2    1    2    0    0  0.00000000000E+00  0.00000000000E+00 -0.27540666525E+03  0.39041060873E+04  0.38943799904E+04 0.  0.
        1    1    3    3  502    0  0.88184601991E+03 -0.10729584829E+04  0.12304969612E+04  0.18555363323E+04  0.50400001928E-02 0. -1.
       -1    1    3    3    0  502 -0.88184601991E+03  0.10729584829E+04 -0.15059036265E+04  0.20485697550E+04  0.50400001928E-02 0.  1.
</event>
<event>
 5   0  0.1538018E-07  0.3902849E+04  0.7818609E-02  0.8024437E-01
        2   -1    0    0  501    0  0.00000000000E+00  0.00000000000E+00  0.22351934402E+04  0.22351934402E+04  0.25500000920E-02 0.  1.
       -2   -1    0    0    0  501  0.00000000000E+00  0.00000000000E+00 -0.17036813469E+04  0.17036813469E+04  0.25500000920E-02 0. -1.
    10030    2    1    2    0    0  0.00000000000E+00  0.00000000000E+00  0.53151209323E+03  0.39388747871E+04  0.39028488932E+04 0.  0.
        1    1    3    3  502    0  0.95601513335E+03  0.94431597196E+03 -0.11623534100E+04  0.17767281840E+04  0.50400001928E-02 0. -1.
       -1    1    3    3    0  502 -0.95601513335E+03 -0.94431597196E+03  0.16938655032E+04  0.21621466031E+04  0.50400001928E-02 0.  1.
</event>
<event>
 5   0  0.4750125E-08  0.3883958E+04  0.7818609E-02  0.8028374E-01
        1   -1    0    0  501    0  0.00000000000E+00  0.00000000000E+00  0.17279343344E+04  0.17279343344E+04  0.50400001928E-02 0.  1.
       -1   -1    0    0    0  501  0.00000000000E+00  0.00000000000E+00 -0.21825386018E+04  0.21825386018E+04  0.50400001928E-02 0. -1.
    10030    2    1    2    0    0  0.00000000000E+00  0.00000000000E+00 -0.45460426743E+03  0.39104729363E+04  0.38839584891E+04 0.  0.
        3    1    3    3  502    0 -0.79086961295E+03  0.50110977652E+03  0.14856937020E+04  0.17560955382E+04  0.10100000352E+00 0.  1.
       -3    1    3    3    0  502  0.79086961295E+03 -0.50110977652E+03 -0.19402979695E+04  0.21543773981E+04  0.10100000352E+00 0. -1.
</event>
<event>
 5   0  0.1520986E-07  0.3906655E+04  0.7818609E-02  0.8023647E-01
        2   -1    0    0  501    0  0.00000000000E+00  0.00000000000E+00  0.19770673588E+04  0.19770673588E+04  0.25500000920E-02 0. -1.
       -2   -1    0    0    0  501  0.00000000000E+00  0.00000000000E+00 -0.19298726764E+04  0.19298726764E+04  0.25500000920E-02 0.  1.
    10030    2    1    2    0    0  0.00000000000E+00  0.00000000000E+00  0.47194682409E+02  0.39069400353E+04  0.39066549760E+04 0.  0.
        4    1    3    3  502    0 -0.41103530083E+03 -0.59547132882E+03 -0.17909083682E+04  0.19315513243E+04  0.12699999809E+01 0.  1.
       -4    1    3    3    0  502  0.41103530083E+03  0.59547132882E+03  0.18381030506E+04  0.19753887110E+04  0.12699999809E+01 0. -1.
</event>
<event>
 5   0  0.4762788E-08  0.3904413E+04  0.7818609E-02  0.8024112E-01
        1   -1    0    0  501    0  0.00000000000E+00  0.00000000000E+00  0.20770175146E+04  0.20770175147E+04  0.50400001928E-02 0.  1.
       -1   -1    0    0    0  501  0.00000000000E+00  0.00000000000E+00 -0.18348958162E+04  0.18348958162E+04  0.50400001928E-02 0. -1.
    10030    2    1    2    0    0  0.00000000000E+00  0.00000000000E+00  0.24212169842E+03  0.39119133309E+04  0.39044132711E+04 0.  0.
        2    1    3    3  502    0  0.80890432679E+03  0.15145097698E+04  0.10518473751E+04  0.20135662277E+04  0.25500000920E-02 0.  1.
       -2    1    3    3    0  502 -0.80890432679E+03 -0.15145097698E+04 -0.80972567663E+03  0.18983471032E+04  0.25500000920E-02 0. -1.
</event>
<event>
 5   0  0.1546846E-07  0.3894780E+04  0.7818609E-02  0.8026116E-01
        2   -1    0    0  501    0  0.00000000000E+00  0.00000000000E+00  0.18054496587E+04  0.18054496587E+04  0.25500000920E-02 0. -1.
       -2   -1    0    0    0  501  0.00000000000E+00  0.00000000000E+00 -0.21004896195E+04  0.21004896195E+04  0.25500000920E-02 0.  1.
    10030    2    1    2    0    0  0.00000000000E+00  0.00000000000E+00 -0.29503996079E+03  0.39059392782E+04  0.38947802334E+04 0.  0.
        2    1    3    3  502    0  0.16586532066E+04 -0.13982466427E+01  0.87579361678E+03  0.18756723792E+04  0.25500000920E-02 0. -1.
       -2    1    3    3    0  502 -0.16586532066E+04  0.13982466427E+01 -0.11708335776E+04  0.20302668990E+04  0.25500000920E-02 0.  1.
</event>
<event>
 5   0  0.4750125E-08  0.3929729E+04  0.7818609E-02  0.8018874E-01
       -1   -1    0    0    0  501  0.00000000000E+00  0.00000000000E+00  0.22034134578E+04  0.22034134578E+04  0.50400001928E-02 0.  1.
        1   -1    0    0  501    0  0.00000000000E+00  0.00000000000E+00 -0.17521412745E+04  0.17521412745E+04  0.50400001928E-02 0. -1.
    10030    2    1    2    0    0  0.00000000000E+00  0.00000000000E+00  0.45127218337E+03  0.39555547323E+04  0.39297285729E+04 0.  0.
        3    1    3    3  502    0 -0.90989429636E+03  0.13234306485E+04  0.13650272806E+04  0.21077655939E+04  0.10100000352E+00 0.  1.
       -3    1    3    3    0  502  0.90989429636E+03 -0.13234306485E+04 -0.91375509720E+03  0.18477891384E+04  0.10100000352E+00 0. -1.
</event>
<event>
 5   0  0.1546846E-07  0.3889904E+04  0.7818609E-02  0.8027132E-01
        2   -1    0    0  501    0  0.00000000000E+00  0.00000000000E+00  0.20337029251E+04  0.20337029251E+04  0.25500000920E-02 0.  1.
       -2   -1    0    0    0  501  0.00000000000E+00  0.00000000000E+00 -0.18600743517E+04  0.18600743517E+04  0.25500000920E-02 0. -1.
    10030    2    1    2    0    0  0.00000000000E+00  0.00000000000E+00  0.17362857344E+03  0.38937772768E+04  0.38899041890E+04 0.  0.
        2    1    3    3  502    0 -0.28261743423E+03 -0.11968407815E+04 -0.14215165375E+04  0.18796302128E+04  0.25500000920E-02 0. -1.
       -2    1    3    3    0  502  0.28261743423E+03  0.11968407815E+04  0.15951451110E+04  0.20141470640E+04  0.25500000920E-02 0.  1.
</event>
<event>
 5   0  0.1501585E-07  0.3900223E+04  0.7818609E-02  0.8024983E-01
        2   -1    0    0  501    0  0.00000000000E+00  0.00000000000E+00  0.16747605600E+04  0.16747605600E+04  0.25500000920E-02 0.  1.
       -2   -1    0    0    0  501  0.00000000000E+00  0.00000000000E+00 -0.22707335699E+04  0.22707335699E+04  0.25500000920E-02 0. -1.
    10030    2    1    2    0    0  0.00000000000E+00  0.00000000000E+00 -0.59597300988E+03  0.39454941300E+04  0.39002230835E+04 0.  0.
        5    1    3    3  502    0  0.12146075767E+04 -0.34269658430E+03 -0.18019170565E+04  0.21999181082E+04  0.46999998093E+01 0. -1.
       -5    1    3    3    0  502 -0.12146075767E+04  0.34269658430E+03  0.12059440466E+04  0.17455760218E+04  0.46999998093E+01 0.  1.
</event>
<event>
 5   0  0.1501585E-07  0.3885648E+04  0.7818609E-02  0.8028021E-01
       -2   -1    0    0    0  501  0.00000000000E+00  0.00000000000E+00  0.16714202988E+04  0.16714202988E+04  0.25500000920E-02 0.  1.
        2   -1    0    0  501    0  0.00000000000E+00  0.00000000000E+00 -0.22582980706E+04  0.22582980706E+04  0.25500000920E-02 0. -1.
    10030    2    1    2    0    0  0.00000000000E+00  0.00000000000E+00 -0.58687777187E+03  0.39297183694E+04  0.38856480725E+04 0.  0.
        5    1    3    3  502    0  0.97629311971E+02 -0.18129811455E+04  0.40585920838E+03  0.18604235817E+04  0.46999998093E+01 0. -1.
       -5    1    3    3    0  502 -0.97629311971E+02  0.18129811455E+04 -0.99273698025E+03  0.20692947877E+04  0.46999998093E+01 0.  1.
</event>
<event>
 5   0  0.1501585E-07  0.3879170E+04  0.7818609E-02  0.8029375E-01
       -2   -1    0    0    0  501  0.00000000000E+00  0.00000000000E+00  0.17027369429E+04  0.17027369429E+04  0.25500000920E-02 0. -1.
        2   -1    0    0  501    0  0.00000000000E+00  0.00000000000E+00 -0.22093784328E+04  0.22093784328E+04  0.25500000920E-02 0.  1.
    10030    2    1    2    0    0  0.00000000000E+00  0.00000000000E+00 -0.50664148989E+03  0.39121153757E+04  0.38791701579E+04 0.  0.
        5    1    3    3  502    0 -0.13254171423E+03 -0.13985209659E+04 -0.16020418451E+04  0.21307248441E+04  0.46999998093E+01 0.  1.
       -5    1    3    3    0  502  0.13254171423E+03  0.13985209659E+04  0.10954003552E+04  0.17813905316E+04  0.46999998093E+01 0. -1.
</event>
<event>
 5   0  0.4750125E-08  0.3870995E+04  0.7818609E-02  0.8031089E-01
        1   -1    0    0  501    0  0.00000000000E+00  0.00000000000E+00  0.19139807779E+04  0.19139807779E+04  0.50400001928E-02 0.  1.
       -1   -1    0    0    0  501  0.00000000000E+00  0.00000000000E+00 -0.19572559238E+04  0.19572559238E+04  0.50400001928E-02 0. -1.
    10030    2    1    2    0    0  0.00000000000E+00  0.00000000000E+00 -0.43275145911E+02  0.38712367016E+04  0.38709948155E+04 0.  0.
        3    1    3    3  502    0  0.18109639816E+03  0.18198953454E+03 -0.19401510745E+04  0.19570647149E+04  0.10100000352E+00 0. -1.
       -3    1    3    3    0  502 -0.18109639816E+03 -0.18198953454E+03  0.18968759286E+04  0.19141719867E+04  0.10100000352E+00 0.  1.
</event>
<event>
 5   0  0.4750125E-08  0.3890917E+04  0.7818609E-02  0.8026921E-01
       -1   -1    0    0    0  501  0.00000000000E+00  0.00000000000E+00  0.13241881151E+04  0.13241881151E+04  0.50400001928E-02 0. -1.
        1   -1    0    0  501    0  0.00000000000E+00  0.00000000000E+00 -0.28582107241E+04  0.28582107242E+04  0.50400001928E-02 0.  1.
    10030    2    1    2    0    0  0.00000000000E+00  0.00000000000E+00 -0.15340226091E+04  0.41823988392E+04  0.38909169466E+04 0.  0.
        3    1    3    3  502    0  0.67004108429E+03 -0.37988970409E+03  0.11533080319E+04  0.13868636085E+04  0.10100000352E+00 0. -1.
       -3    1    3    3    0  502 -0.67004108429E+03  0.37988970409E+03 -0.26873306410E+04  0.27955352307E+04  0.10100000352E+00 0.  1.
</event>
<event>
 5   0  0.4750125E-08  0.3895231E+04  0.7818609E-02  0.8026022E-01
       -1   -1    0    0    0  501  0.00000000000E+00  0.00000000000E+00  0.20054940211E+04  0.20054940211E+04  0.50400001928E-02 0. -1.
        1   -1    0    0  501    0  0.00000000000E+00  0.00000000000E+00 -0.18914075063E+04  0.18914075063E+04  0.50400001928E-02 0.  1.
    10030    2    1    2    0    0  0.00000000000E+00  0.00000000000E+00  0.11408651474E+03  0.38969015274E+04  0.38952311589E+04 0.  0.
        5    1    3    3  502    0  0.31603124520E+03  0.14975983101E+04 -0.11478435426E+04  0.19131762425E+04  0.46999998093E+01 0.  1.
       -5    1    3    3    0  502 -0.31603124520E+03 -0.14975983101E+04  0.12619300573E+04  0.19837252849E+04  0.46999998093E+01 0. -1.
</event>
<event>
 5   0  0.1538018E-07  0.3887824E+04  0.7818609E-02  0.8027566E-01
       -2   -1    0    0    0  501  0.00000000000E+00  0.00000000000E+00  0.18811081288E+04  0.18811081288E+04  0.25500000920E-02 0. -1.
        2   -1    0    0  501    0  0.00000000000E+00  0.00000000000E+00 -0.20088129374E+04  0.20088129374E+04  0.25500000920E-02 0.  1.
    10030    2    1    2    0    0  0.00000000000E+00  0.00000000000E+00 -0.12770480860E+03  0.38899210662E+04  0.38878242480E+04 0.  0.
        1    1    3    3  502    0 -0.22103682077E+03  0.18858342760E+04 -0.48068980963E+03  0.19586451658E+04  0.50400001928E-02 0. -1.
       -1    1    3    3    0  502  0.22103682077E+03 -0.18858342760E+04  0.35298500104E+03  0.19312759004E+04  0.50400001928E-02 0.  1.
</event>
<event>
 5   0  0.4750125E-08  0.3890959E+04  0.7818609E-02  0.8026912E-01
       -1   -1    0    0    0  501  0.00000000000E+00  0.00000000000E+00  0.22775791029E+04  0.22775791029E+04  0.50400001928E-02 0. -1.
        1   -1    0    0  501    0  0.00000000000E+00  0.00000000000E+00 -0.16618043606E+04  0.16618043606E+04  0.50400001928E-02 0.  1.
    10030    2    1    2    0    0  0.00000000000E+00  0.00000000000E+00  0.61577474234E+03  0.39393834635E+04  0.38909592056E+04 0.  0.
        5    1    3    3  502    0  0.15482536241E+04 -0.11708468907E+04  0.17628089349E+03  0.19491199987E+04  0.46999998093E+01 0.  1.
       -5    1    3    3    0  502 -0.15482536241E+04  0.11708468907E+04  0.43949384885E+03  0.19902634648E+04  0.46999998093E+01 0. -1.
</event>
<event>
 5   0  0.1538018E-07  0.3900598E+04  0.7818609E-02  0.8024905E-01
       -2   -1    0    0    0  501  0.00000000000E+00  0.00000000000E+00  0.12296831933E+04  0.12296831933E+04  0.25500000920E-02 0.  1.
        2   -1    0    0  501    0  0.00000000000E+00  0.00000000000E+00 -0.30932076672E+04  0.30932076672E+04  0.25500000920E-02 0. -1.
    10030    2    1    2    0    0  0.00000000000E+00  0.00000000000E+00 -0.18635244740E+04  0.43228908605E+04  0.39005976371E+04 0.  0.
        1    1    3    3  502    0 -0.72986382938E+03  0.89238793006E+03  0.81163490154E+03  0.14098966773E+04  0.50400001928E-02 0.  1.
       -1    1    3    3    0  502  0.72986382938E+03 -0.89238793006E+03 -0.26751593755E+04  0.29129941832E+04  0.50400001928E-02 0. -1.
</event>
<event>
 5   0  0.1503228E-07  0.3878124E+04  0.7818609E-02  0.8029595E-01
        2   -1    0    0  501    0  0.00000000000E+00  0.00000000000E+00  0.15849315782E+04  0.15849315782E+04  0.25500000920E-02 0.  1.
       -2   -1    0    0    0  501  0.00000000000E+00  0.00000000000E+00 -0.23723172209E+04  0.23723172209E+04  0.25500000920E-02 0. -1.
    10030    2    1    2    0    0  0.00000000000E+00  0.00000000000E+00 -0.78738564271E+03  0.39572487990E+04  0.38781235033E+04 0.  0.
        3    1    3    3  502    0  0.15680567045E+04 -0.58099405983E+03 -0.13953546851E+04  0.21779280598E+04  0.10100000352E+00 0.  1.
       -3    1    3    3    0  502 -0.15680567045E+04  0.58099405983E+03  0.60796904243E+03  0.17793207392E+04  0.10100000352E+00 0. -1.
</event>
<event>
 5   0  0.1546846E-07  0.3903370E+04  0.7818609E-02  0.8024329E-01
        2   -1    0    0  501    0  0.00000000000E+00  0.00000000000E+00  0.22364629491E+04  0.22364629491E+04  0.25500000920E-02 0. -1.
       -2   -1    0    0    0  501  0.00000000000E+00  0.00000000000E+00 -0.17031692545E+04  0.17031692545E+04  0.25500000920E-02 0.  1.
    10030    2    1    2    0    0  0.00000000000E+00  0.00000000000E+00  0.53329369452E+03  0.39396322036E+04  0.39033703046E+04 0.  0.
        2    1    3    3  502    0  0.75422415741E+03 -0.17954746883E+04  0.13703461966E+03  0.19522709656E+04  0.25500000920E-02 0.  1.
       -2    1    3    3    0  502 -0.75422415741E+03  0.17954746883E+04  0.39625907486E+03  0.19873612380E+04  0.25500000920E-02 0. -1.
</event>
<event>
 5   0  0.4750125E-08  0.3923607E+04  0.7818609E-02  0.8020137E-01
       -1   -1    0    0    0  501  0.00000000000E+00  0.00000000000E+00  0.20757512152E+04  0.20757512152E+04  0.50400001928E-02 0.  1.
        1   -1    0    0  501    0  0.00000000000E+00  0.00000000000E+00 -0.18541112067E+04  0.18541112067E+04  0.50400001928E-02 0. -1.
    10030    2    1    2    0    0  0.00000000000E+00  0.00000000000E+00  0.22164000855E+03  0.39298624219E+04  0.39236073149E+04 0.  0.
        4    1    3    3  502    0 -0.26738273910E+03  0.11402163174E+04  0.16872049662E+04  0.20538376252E+04  0.12699999809E+01 0.  1.
       -4    1    3    3    0  502  0.26738273910E+03 -0.11402163174E+04 -0.14655649577E+04  0.18760247967E+04  0.12699999809E+01 0. -1.
</event>
<event>
 5   0  0.1501585E-07  0.3892520E+04  0.7818609E-02  0.8026587E-01
       -2   -1    0    0    0  501  0.00000000000E+00  0.00000000000E+00  0.14880736508E+04  0.14880736508E+04  0.25500000920E-02 0. -1.
        2   -1    0    0  501    0  0.00000000000E+00  0.00000000000E+00 -0.25455240875E+04  0.25455240875E+04  0.25500000920E-02 0.  1.
    10030    2    1    2    0    0  0.00000000000E+00  0.00000000000E+00 -0.10574504366E+04  0.40335977383E+04  0.38925196581E+04 0.  0.
        5    1    3    3  502    0 -0.17323218861E+04  0.29994147212E+03  0.33639914388E+03  0.17899973401E+04  0.46999998093E+01 0.  1.
       -5    1    3    3    0  502  0.17323218861E+04 -0.29994147212E+03 -0.13938495805E+04  0.22436003982E+04  0.46999998093E+01 0. -1.
</event>
<event>
 5   0  0.1501585E-07  0.3920489E+04  0.7818609E-02  0.8020781E-01
       -2   -1    0    0    0  501  0.00000000000E+00  0.00000000000E+00  0.14713053231E+04  0.14713053231E+04  0.25500000920E-02 0. -1.
        2   -1    0    0  501    0  0.00000000000E+00  0.00000000000E+00 -0.26116669059E+04  0.26116669059E+04  0.25500000920E-02 0.  1.
    10030    2    1    2    0    0  0.00000000000E+00  0.00000000000E+00 -0.11403615828E+04  0.40829722290E+04  0.39204894698E+04 0.  0.
        5    1    3    3  502    0 -0.18772920696E+04  0.43440241028E+03 -0.19525156586E+03  0.19367695352E+04  0.46999998093E+01 0.  1.
       -5    1    3    3    0  502  0.18772920696E+04 -0.43440241028E+03 -0.94511001696E+03  0.21462026938E+04  0.46999998093E+01 0. -1.
</event>
<event>
 5   0  0.1538018E-07  0.3916982E+04  0.7818609E-02  0.8021507E-01
       -2   -1    0    0    0  501  0.00000000000E+00  0.00000000000E+00  0.21715048844E+04  0.21715048844E+04  0.25500000920E-02 0. -1.
        2   -1    0    0  501    0  0.00000000000E+00  0.00000000000E+00 -0.17663726673E+04  0.17663726673E+04  0.25500000920E-02 0.  1.
    10030    2    1    2    0    0  0.00000000000E+00  0.00000000000E+00  0.40513221711E+03  0.39378775517E+04  0.39169819375E+04 0.  0.
        1    1    3    3  502    0 -0.13797876510E+04  0.13444729263E+04  0.55695970057E+03  0.20053990923E+04  0.50400001928E-02 0.  1.
       -1    1    3    3    0  502  0.13797876510E+04 -0.13444729263E+04 -0.15182748346E+03  0.19324784594E+04  0.50400001928E-02 0. -1.
</event>
<event>
 5   0  0.1520986E-07  0.3898243E+04  0.7818609E-02  0.8025395E-01
       -2   -1    0    0    0  501  0.00000000000E+00  0.00000000000E+00  0.18755630040E+04  0.18755630040E+04  0.25500000920E-02 0.  1.
        2   -1    0    0  501    0  0.00000000000E+00  0.00000000000E+00 -0.20255650395E+04  0.20255650395E+04  0.25500000920E-02 0. -1.
    10030    2    1    2    0    0  0.00000000000E+00  0.00000000000E+00 -0.15000203559E+03  0.39011280435E+04  0.38982431172E+04 0.  0.
        4    1    3    3  502    0 -0.10060762574E+04  0.14800409759E+03 -0.17390540796E+04  0.20145484242E+04  0.12699999809E+01 0. -1.
       -4    1    3    3    0  502  0.10060762574E+04 -0.14800409759E+03  0.15890520440E+04  0.18865796193E+04  0.12699999809E+01 0.  1.
</event>
<event>
 5   0  0.4762788E-08  0.3897160E+04  0.7818609E-02  0.8025620E-01
       -1   -1    0    0    0  501  0.00000000000E+00  0.00000000000E+00  0.20221514713E+04  0.20221514713E+04  0.50400001928E-02 0. -1.
        1   -1    0    0  501    0  0.00000000000E+00  0.00000000000E+00 -0.18776854742E+04  0.18776854742E+04  0.50400001928E-02 0.  1.
    10030    2    1    2    0    0  0.00000000000E+00  0.00000000000E+00  0.14446599708E+03  0.38998369455E+04  0.38971602196E+04 0.  0.
        2    1    3    3  502    0 -0.11012566215E+04  0.96895392260E+02  0.16779564369E+04  0.20094010718E+04  0.25500000920E-02 0. -1.
       -2    1    3    3    0  502  0.11012566215E+04 -0.96895392260E+02 -0.15334904398E+04  0.18904358737E+04  0.25500000920E-02 0.  1.
</event>
<event>
 5   0  0.4762788E-08  0.3901743E+04  0.7818609E-02  0.8024667E-01
       -1   -1    0    0    0  501  0.00000000000E+00  0.00000000000E+00  0.16302941434E+04  0.16302941434E+04  0.50400001928E-02 0. -1.
        1   -1    0    0  501    0  0.00000000000E+00  0.00000000000E+00 -0.23344860057E+04  0.23344860057E+04  0.50400001928E-02 0.  1.
    10030    2    1    2    0    0  0.00000000000E+00  0.00000000000E+00 -0.70419186225E+03  0.39647801491E+04  0.39017426173E+04 0.  0.
        2    1    3    3  502    0 -0.11588223190E+04 -0.13486483127E+04  0.46347782689E+03  0.18375345260E+04  0.25500000920E-02 0. -1.
       -2    1    3    3    0  502  0.11588223190E+04  0.13486483127E+04 -0.11676696891E+04  0.21272456231E+04  0.25500000920E-02 0.  1.
</event>
<event>
 5   0  0.1501585E-07  0.3890043E+04  0.7818609E-02  0.8027103E-01
       -2   -1    0    0    0  501  0.00000000000E+00  0.00000000000E+00  0.18273988043E+04  0.18273988043E+04  0.25500000920E-02 0.  1.
        2   -1    0    0  501    0  0.00000000000E+00  0.00000000000E+00 -0.20702151693E+04  0.20702151693E+04  0.25500000920E-02 0. -1.
    10030    2    1    2    0    0  0.00000000000E+00  0.00000000000E+00 -0.24281636503E+03  0.38976139736E+04  0.38900430460E+04 0.  0.
        5    1    3    3  502    0  0.94025406957E+02 -0.13108932059E+04  0.13151901592E+04  0.18593087477E+04  0.46999998093E+01 0.  1.
       -5    1    3    3    0  502 -0.94025406957E+02  0.13108932059E+04 -0.15580065242E+04  0.20383052259E+04  0.46999998093E+01 0. -1.
</event>
<event>
 5   0  0.1503228E-07  0.3907055E+04  0.7818609E-02  0.8023563E-01
        2   -1    0    0  501    0  0.00000000000E+00  0.00000000000E+00  0.20805924422E+04  0.20805924422E+04  0.25500000920E-02 0. -1.
       -2   -1    0    0    0  501  0.00000000000E+00  0.00000000000E+00 -0.18342226690E+04  0.18342226690E+04  0.25500000920E-02 0.  1.
    10030    2    1    2    0    0  0.00000000000E+00  0.00000000000E+00  0.24636977318E+03  0.39148151112E+04  0.39070550661E+04 0.  0.
        3    1    3    3  502    0 -0.13048320898E+04  0.80157799420E+03  0.13385060212E+04  0.20338909613E+04  0.10100000352E+00 0. -1.
       -3    1    3    3    0  502  0.13048320898E+04 -0.80157799420E+03 -0.10921362480E+04  0.18809241499E+04  0.10100000352E+00 0.  1.
</event>
<event>
 5   0  0.4762788E-08  0.3873487E+04  0.7818609E-02  0.8030566E-01
        1   -1    0    0  501    0  0.00000000000E+00  0.00000000000E+00  0.13070627939E+04  0.13070627939E+04  0.50400001928E-02 0.  1.
       -1   -1    0    0    0  501  0.00000000000E+00  0.00000000000E+00 -0.28697745446E+04  0.28697745446E+04  0.50400001928E-02 0. -1.
    10030    2    1    2    0    0  0.00000000000E+00  0.00000000000E+00 -0.15627117507E+04  0.41768373385E+04  0.38734870771E+04 0.  0.
        2    1    3    3  502    0 -0.14496572155E+04  0.37994872055E+03 -0.21042629830E+04  0.25833679131E+04  0.25500000920E-02 0. -1.
       -2    1    3    3    0  502  0.14496572155E+04 -0.37994872055E+03  0.54155123227E+03  0.15934694255E+04  0.25500000920E-02 0.  1.
</event>
<event>
 5   0  0.1520986E-07  0.3899608E+04  0.7818609E-02  0.8025111E-01
        2   -1    0    0  501    0  0.00000000000E+00  0.00000000000E+00  0.16998048969E+04  0.16998048969E+04  0.25500000920E-02 0. -1.
       -2   -1    0    0    0  501  0.00000000000E+00  0.00000000000E+00 -0.22365721203E+04  0.22365721203E+04  0.25500000920E-02 0.  1.
    10030    2    1    2    0    0  0.00000000000E+00  0.00000000000E+00 -0.53676722344E+03  0.39363770172E+04  0.38996083098E+04 0.  0.
        4    1    3    3  502    0 -0.46884685712E+03  0.16755674250E+04  0.61990862200E+03  0.18470603357E+04  0.12699999809E+01 0. -1.
       -4    1    3    3    0  502  0.46884685712E+03 -0.16755674250E+04 -0.11566758454E+04  0.20893166815E+04  0.12699999809E+01 0.  1.
</event>
<event>
 5   0  0.4750125E-08  0.3858195E+04  0.7818609E-02  0.8033780E-01
       -1   -1    0    0    0  501  0.00000000000E+00  0.00000000000E+00  0.18384275018E+04  0.18384275018E+04  0.50400001928E-02 0. -1.
        1   -1    0    0  501    0  0.00000000000E+00  0.00000000000E+00 -0.20242397360E+04  0.20242397360E+04  0.50400001928E-02 0.  1.
    10030    2    1    2    0    0  0.00000000000E+00  0.00000000000E+00 -0.18581223411E+03  0.38626672378E+04  0.38581954336E+04 0.  0.
        4    1    3    3  502    0  0.50910849828E+02 -0.53574046394E+03 -0.19475668525E+04  0.20205514142E+04  0.12699999809E+01 0.  1.
       -4    1    3    3    0  502 -0.50910849828E+02  0.53574046394E+03  0.17617546184E+04  0.18421158236E+04  0.12699999809E+01 0. -1.
</event>
<event>
 5   0  0.4750125E-08  0.3923274E+04  0.7818609E-02  0.8020206E-01
        1   -1    0    0  501    0  0.00000000000E+00  0.00000000000E+00  0.20745965663E+04  0.20745965663E+04  0.50400001928E-02 0.  1.
       -1   -1    0    0    0  501  0.00000000000E+00  0.00000000000E+00 -0.18548282699E+04  0.18548282699E+04  0.50400001928E-02 0. -1.
    10030    2    1    2    0    0  0.00000000000E+00  0.00000000000E+00  0.21976829637E+03  0.39294248363E+04  0.39232743263E+04 0.  0.
        5    1    3    3  502    0  0.12588409017E+04 -0.14557778590E+04  0.48999021287E+03  0.19859713213E+04  0.46999998093E+01 0. -1.
       -5    1    3    3    0  502 -0.12588409017E+04  0.14557778590E+04 -0.27022191650E+03  0.19434535149E+04  0.46999998093E+01 0.  1.
</event>
<event>
 5   0  0.1538018E-07  0.3844232E+04  0.7818609E-02  0.8036729E-01
        2   -1    0    0  501    0  0.00000000000E+00  0.00000000000E+00  0.34085149582E+04  0.34085149582E+04  0.25500000920E-02 0.  1.
       -2   -1    0    0    0  501  0.00000000000E+00  0.00000000000E+00 -0.10839118424E+04  0.10839118424E+04  0.25500000920E-02 0. -1.
    10030    2    1    2    0    0  0.00000000000E+00  0.00000000000E+00  0.23246031158E+04  0.44924268006E+04  0.38442319015E+04 0.  0.
        1    1    3    3  502    0 -0.10247743298E+04  0.12737348678E+04  0.23436821233E+04  0.28575179502E+04  0.50400001928E-02 0.  1.
       -1    1    3    3    0  502  0.10247743298E+04 -0.12737348678E+04 -0.19079007499E+02  0.16349088504E+04  0.50400001928E-02 0. -1.
</event>
<event>
 5   0  0.4762788E-08  0.3830689E+04  0.7818609E-02  0.8039601E-01
       -1   -1    0    0    0  501  0.00000000000E+00  0.00000000000E+00  0.28141493222E+04  0.28141493222E+04  0.50400001928E-02 0. -1.
        1   -1    0    0  501    0  0.00000000000E+00  0.00000000000E+00 -0.13036069594E+04  0.13036069594E+04  0.50400001928E-02 0.  1.
    10030    2    1    2    0    0  0.00000000000E+00  0.00000000000E+00  0.15105423628E+04  0.41177562817E+04  0.38306890458E+04 0.  0.
        2    1    3    3  502    0  0.58666956262E+03  0.14404637546E+04  0.19568141126E+04  0.24996476702E+04  0.25500000920E-02 0. -1.
       -2    1    3    3    0  502 -0.58666956262E+03 -0.14404637546E+04 -0.44627174978E+03  0.16181086115E+04  0.25500000920E-02 0.  1.
</event>
<event>
 5   0  0.1538018E-07  0.3931426E+04  0.7818609E-02  0.8018525E-01
        2   -1    0    0  501    0  0.00000000000E+00  0.00000000000E+00  0.17770008309E+04  0.17770008309E+04  0.25500000920E-02 0. -1.
       -2   -1    0    0    0  501  0.00000000000E+00  0.00000000000E+00 -0.21744653107E+04  0.21744653107E+04  0.25500000920E-02 0.  1.
    10030    2    1    2    0    0  0.00000000000E+00  0.00000000000E+00 -0.39746447973E+03  0.39514661416E+04  0.39314255246E+04 0.  0.
        1    1    3    3  502    0 -0.92212023367E+03  0.16265518256E+04  0.41103161976E+03  0.19143990073E+04  0.50400001928E-02 0. -1.
       -1    1    3    3    0  502  0.92212023367E+03 -0.16265518256E+04 -0.80849609949E+03  0.20370671343E+04  0.50400001928E-02 0.  1.
</event>
<event>
 5   0  0.1503228E-07  0.3892384E+04  0.7818609E-02  0.8026615E-01
       -2   -1    0    0    0  501  0.00000000000E+00  0.00000000000E+00  0.16016471285E+04  0.16016471286E+04  0.25500000920E-02 0.  1.
        2   -1    0    0  501    0  0.00000000000E+00  0.00000000000E+00 -0.23648551371E+04  0.23648551371E+04  0.25500000920E-02 0. -1.
    10030    2    1    2    0    0  0.00000000000E+00  0.00000000000E+00 -0.76320800851E+03  0.39665022656E+04  0.38923840713E+04 0.  0.
        3    1    3    3  502    0  0.33763727996E+03  0.19166177571E+04 -0.39741951822E+03  0.19862942489E+04  0.10100000352E+00 0.  1.
       -3    1    3    3    0  502 -0.33763727996E+03 -0.19166177571E+04 -0.36578849029E+03  0.19802080167E+04  0.10100000352E+00 0. -1.
</event>
<event>
 5   0  0.4750125E-08  0.3912832E+04  0.7818609E-02  0.8022366E-01
       -1   -1    0    0    0  501  0.00000000000E+00  0.00000000000E+00  0.12910354198E+04  0.12910354198E+04  0.50400001928E-02 0.  1.
        1   -1    0    0  501    0  0.00000000000E+00  0.00000000000E+00 -0.29647233747E+04  0.29647233747E+04  0.50400001928E-02 0. -1.
    10030    2    1    2    0    0  0.00000000000E+00  0.00000000000E+00 -0.16736879549E+04  0.42557587945E+04  0.39128316532E+04 0.  0.
        3    1    3    3  502    0  0.16430928746E+04 -0.73299668358E+03 -0.10392592163E+01  0.17991774296E+04  0.10100000352E+00 0.  1.
       -3    1    3    3    0  502 -0.16430928746E+04  0.73299668358E+03 -0.16726486957E+04  0.24565813649E+04  0.10100000352E+00 0. -1.
</event>
<event>
 5   0  0.4750125E-08  0.3893656E+04  0.7818609E-02  0.8026350E-01
        1   -1    0    0  501    0  0.00000000000E+00  0.00000000000E+00  0.25099343977E+04  0.25099343977E+04  0.50400001928E-02 0.  1.
       -1   -1    0    0    0  501  0.00000000000E+00  0.00000000000E+00 -0.15100549256E+04  0.15100549256E+04  0.50400001928E-02 0. -1.
    10030    2    1    2    0    0  0.00000000000E+00  0.00000000000E+00  0.99987947216E+03  0.40199893233E+04  0.38936557630E+04 0.  0.
        1    1    3    3  502    0 -0.17820145411E+03  0.17030894811E+04 -0.45632446990E+03  0.17721460325E+04  0.50400001928E-02 0. -1.
       -1    1    3    3    0  502  0.17820145411E+03 -0.17030894811E+04  0.14562039421E+04  0.22478432907E+04  0.50400001928E-02 0.  1.
</event>
<event>
 5   0  0.1538018E-07  0.3922097E+04  0.7818609E-02  0.8020449E-01
        2   -1    0    0  501    0  0.00000000000E+00  0.00000000000E+00  0.30637314453E+04  0.30637314453E+04  0.25500000920E-02 0. -1.
       -2   -1    0    0    0  501  0.00000000000E+00  0.00000000000E+00 -0.12552374524E+04  0.12552374524E+04  0.25500000920E-02 0.  1.
    10030    2    1    2    0    0  0.00000000000E+00  0.00000000000E+00  0.18084939929E+04  0.43189688977E+04  0.39220966099E+04 0.  0.
        1    1    3    3  502    0  0.63310988562E+03  0.17176267026E+03  0.29393261207E+04  0.30116388539E+04  0.50400001928E-02 0. -1.
       -1    1    3    3    0  502 -0.63310988562E+03 -0.17176267026E+03 -0.11308321278E+04  0.13073300438E+04  0.50400001928E-02 0.  1.
</event>
<event>
 5   0  0.4762788E-08  0.3800549E+04  0.7818609E-02  0.8046037E-01
       -1   -1    0    0    0  501  0.00000000000E+00  0.00000000000E+00  0.31468743338E+04  0.31468743338E+04  0.50400001928E-02 0. -1.
        1   -1    0    0  501    0  0.00000000000E+00  0.00000000000E+00 -0.11475013506E+04  0.11475013506E+04  0.50400001928E-02 0.  1.
    10030    2    1    2    0    0  0.00000000000E+00  0.00000000000E+00  0.19993729832E+04  0.42943756844E+04  0.38005486700E+04 0.  0.
        2    1    3    3  502    0  0.95485273886E+03 -0.15744656952E+04  0.15301026410E+04  0.23941386907E+04  0.25500000920E-02 0. -1.
       -2    1    3    3    0  502 -0.95485273886E+03  0.15744656952E+04  0.46927034215E+03  0.19002369937E+04  0.25500000920E-02 0.  1.
</event>
<event>
 5   0  0.4750125E-08  0.3914192E+04  0.7818609E-02  0.8022084E-01
        1   -1    0    0  501    0  0.00000000000E+00  0.00000000000E+00  0.21796212558E+04  0.21796212558E+04  0.50400001928E-02 0. -1.
       -1   -1    0    0    0  501  0.00000000000E+00  0.00000000000E+00 -0.17572887684E+04  0.17572887684E+04  0.50400001928E-02 0.  1.
    10030    2    1    2    0    0  0.00000000000E+00  0.00000000000E+00  0.42233248743E+03  0.39369100242E+04  0.39141915907E+04 0.  0.
        1    1    3    3  502    0 -0.16607441136E+04 -0.69088747166E+03 -0.56456075710E+03  0.18852388066E+04  0.50400001928E-02 0.  1.
       -1    1    3    3    0  502  0.16607441136E+04  0.69088747166E+03  0.98689324453E+03  0.20516712177E+04  0.50400001928E-02 0. -1.
</event>
<event>
 5   0  0.1503228E-07  0.3906947E+04  0.7818609E-02  0.8023586E-01
       -2   -1    0    0    0  501  0.00000000000E+00  0.00000000000E+00  0.26067655131E+04  0.26067655131E+04  0.25500000920E-02 0. -1.
        2   -1    0    0  501    0  0.00000000000E+00  0.00000000000E+00 -0.14639054876E+04  0.14639054876E+04  0.25500000920E-02 0.  1.
    10030    2    1    2    0    0  0.00000000000E+00  0.00000000000E+00  0.11428600255E+04  0.40706710007E+04  0.39069468076E+04 0.  0.
        3    1    3    3  502    0 -0.61492421054E+03  0.17845902643E+04  0.47190690526E+02  0.18881528454E+04  0.10100000352E+00 0. -1.
       -3    1    3    3    0  502  0.61492421054E+03 -0.17845902643E+04  0.10956693350E+04  0.21825181552E+04  0.10100000352E+00 0.  1.
</event>
<event>
 5   0  0.4750125E-08  0.3864825E+04  0.7818609E-02  0.8032385E-01
       -1   -1    0    0    0  501  0.00000000000E+00  0.00000000000E+00  0.28624783195E+04  0.28624783195E+04  0.50400001928E-02 0. -1.
        1   -1    0    0  501    0  0.00000000000E+00  0.00000000000E+00 -0.13045399119E+04  0.13045399119E+04  0.50400001928E-02 0.  1.
    10030    2    1    2    0    0  0.00000000000E+00  0.00000000000E+00  0.15579384076E+04  0.41670182315E+04  0.38648245574E+04 0.  0.
        4    1    3    3  502    0  0.86031676140E+03 -0.69912676537E+03  0.24855420467E+04  0.27215517711E+04  0.12699999809E+01 0. -1.
       -4    1    3    3    0  502 -0.86031676140E+03  0.69912676537E+03 -0.92760363908E+03  0.14454664604E+04  0.12699999809E+01 0.  1.
</event>
<event>
 5   0  0.4750125E-08  0.3898924E+04  0.7818609E-02  0.8025253E-01
       -1   -1    0    0    0  501  0.00000000000E+00  0.00000000000E+00  0.17652312945E+04  0.17652312945E+04  0.50400001928E-02 0. -1.
        1   -1    0    0  501    0  0.00000000000E+00  0.00000000000E+00 -0.21529202237E+04  0.21529202237E+04  0.50400001928E-02 0.  1.
    10030    2    1    2    0    0  0.00000000000E+00  0.00000000000E+00 -0.38768892921E+03  0.39181515182E+04  0.38989240328E+04 0.  0.
        1    1    3    3  502    0 -0.26674614914E+03  0.63605752350E+03  0.16385178196E+04  0.17777691995E+04  0.50400001928E-02 0. -1.
       -1    1    3    3    0  502  0.26674614914E+03 -0.63605752350E+03 -0.20262067488E+04  0.21403823187E+04  0.50400001928E-02 0.  1.
</event>
<event>
 5   0  0.4750125E-08  0.3908462E+04  0.7818609E-02  0.8023272E-01
        1   -1    0    0  501    0  0.00000000000E+00  0.00000000000E+00  0.20656315723E+04  0.20656315723E+04  0.50400001928E-02 0.  1.
       -1   -1    0    0    0  501  0.00000000000E+00  0.00000000000E+00 -0.18488382004E+04  0.18488382004E+04  0.50400001928E-02 0. -1.
    10030    2    1    2    0    0  0.00000000000E+00  0.00000000000E+00  0.21679337192E+03  0.39144697727E+04  0.39084618759E+04 0.  0.
        1    1    3    3  502    0 -0.72460772943E+03  0.91495676305E+03 -0.14614361460E+04  0.18702935194E+04  0.50400001928E-02 0. -1.
       -1    1    3    3    0  502  0.72460772943E+03 -0.91495676305E+03  0.16782295179E+04  0.20441762533E+04  0.50400001928E-02 0.  1.
</event>
<event>
 5   0  0.1546846E-07  0.3428207E+04  0.7818609E-02  0.8131018E-01
        2   -1    0    0  501    0  0.00000000000E+00  0.00000000000E+00  0.20655976848E+04  0.20655976848E+04  0.25500000920E-02 0.  1.
       -2   -1    0    0    0  501  0.00000000000E+00  0.00000000000E+00 -0.14224214210E+04  0.14224214210E+04  0.25500000920E-02 0. -1.
    10030    2    1    2    0    0  0.00000000000E+00  0.00000000000E+00  0.64317626376E+03  0.34880191058E+04  0.34282067581E+04 0.  0.
        2    1    3    3  502    0  0.13770379773E+04  0.90779630952E+03 -0.15326945437E+03  0.16564477825E+04  0.25500000920E-02 0. -1.
       -2    1    3    3    0  502 -0.13770379773E+04 -0.90779630952E+03  0.79644571812E+03  0.18315713233E+04  0.25500000920E-02 0.  1.
</event>
<event>
 5   0  0.1520986E-07  0.3880092E+04  0.7818609E-02  0.8029182E-01
       -2   -1    0    0    0  501  0.00000000000E+00  0.00000000000E+00  0.15388434070E+04  0.15388434070E+04  0.25500000920E-02 0. -1.
        2   -1    0    0  501    0  0.00000000000E+00  0.00000000000E+00 -0.24458487403E+04  0.24458487403E+04  0.25500000920E-02 0.  1.
    10030    2    1    2    0    0  0.00000000000E+00  0.00000000000E+00 -0.90700533331E+03  0.39846921473E+04  0.38800918589E+04 0.  0.
        4    1    3    3  502    0  0.13174439098E+04  0.27213133670E+03 -0.18890648564E+04  0.23191122363E+04  0.12699999809E+01 0.  1.
       -4    1    3    3    0  502 -0.13174439098E+04 -0.27213133670E+03  0.98205952314E+03  0.16655799110E+04  0.12699999809E+01 0. -1.
</event>
<event>
 5   0  0.1503228E-07  0.3797756E+04  0.7818609E-02  0.8046637E-01
       -2   -1    0    0    0  501  0.00000000000E+00  0.00000000000E+00  0.14771078578E+04  0.14771078578E+04  0.25500000920E-02 0. -1.
        2   -1    0    0  501    0  0.00000000000E+00  0.00000000000E+00 -0.24410794126E+04  0.24410794126E+04  0.25500000920E-02 0.  1.
    10030    2    1    2    0    0  0.00000000000E+00  0.00000000000E+00 -0.96397155480E+03  0.39181872704E+04  0.37977559594E+04 0.  0.
        3    1    3    3  502    0  0.44101924617E+03 -0.16133327843E+04 -0.14096065414E+04  0.21873114228E+04  0.10100000352E+00 0.  1.
       -3    1    3    3    0  502 -0.44101924617E+03  0.16133327843E+04  0.44563498661E+03  0.17308758476E+04  0.10100000352E+00 0. -1.
</event>
<event>
 5   0  0.4750125E-08  0.3898211E+04  0.7818609E-02  0.8025401E-01
       -1   -1    0    0    0  501  0.00000000000E+00  0.00000000000E+00  0.34728170549E+04  0.34728170549E+04  0.50400001928E-02 0.  1.
        1   -1    0    0  501    0  0.00000000000E+00  0.00000000000E+00 -0.10939281455E+04  0.10939281455E+04  0.50400001928E-02 0. -1.
    10030    2    1    2    0    0  0.00000000000E+00  0.00000000000E+00  0.23788889094E+04  0.45667452004E+04  0.38982110362E+04 0.  0.
        5    1    3    3  502    0  0.63718758445E+03  0.51455457796E+03 -0.88255571619E+03  0.12040353457E+04  0.46999998093E+01 0. -1.
       -5    1    3    3    0  502 -0.63718758445E+03 -0.51455457796E+03  0.32614446256E+04  0.33627098547E+04  0.46999998093E+01 0.  1.
</event>
<event>
 5   0  0.1501585E-07  0.3894715E+04  0.7818609E-02  0.8026129E-01
        2   -1    0    0  501    0  0.00000000000E+00  0.00000000000E+00  0.27491461889E+04  0.27491461889E+04  0.25500000920E-02 0.  1.
       -2   -1    0    0    0  501  0.00000000000E+00  0.00000000000E+00 -0.13794105707E+04  0.13794105707E+04  0.25500000920E-02 0. -1.
    10030    2    1    2    0    0  0.00000000000E+00  0.00000000000E+00  0.13697356182E+04  0.41285567596E+04  0.38947150413E+04 0.  0.
        5    1    3    3  502    0 -0.78148132253E+03  0.93497024251E+03 -0.92531173427E+03  0.15300674192E+04  0.46999998093E+01 0. -1.
       -5    1    3    3    0  502  0.78148132253E+03 -0.93497024251E+03  0.22950473524E+04  0.25984893403E+04  0.46999998093E+01 0.  1.
</event>
<event>
 5   0  0.1546846E-07  0.3905600E+04  0.7818609E-02  0.8023866E-01
        2   -1    0    0  501    0  0.00000000000E+00  0.00000000000E+00  0.18754213400E+04  0.18754213400E+04  0.25500000920E-02 0.  1.
       -2   -1    0    0    0  501  0.00000000000E+00  0.00000000000E+00 -0.20333708957E+04  0.20333708957E+04  0.25500000920E-02 0. -1.
    10030    2    1    2    0    0  0.00000000000E+00  0.00000000000E+00 -0.15794955571E+03  0.39087922356E+04  0.39055996568E+04 0.  0.
        2    1    3    3  502    0 -0.22638933138E+03 -0.16094918319E+04  0.10043661032E+04  0.19106196261E+04  0.25500000920E-02 0.  1.
       -2    1    3    3    0  502  0.22638933138E+03  0.16094918319E+04 -0.11623156590E+04  0.19981726095E+04  0.25500000920E-02 0. -1.
</event>
<event>
 5   0  0.4750125E-08  0.3849770E+04  0.7818609E-02  0.8035558E-01
       -1   -1    0    0    0  501  0.00000000000E+00  0.00000000000E+00  0.14226076155E+04  0.14226076156E+04  0.50400001928E-02 0. -1.
        1   -1    0    0  501    0  0.00000000000E+00  0.00000000000E+00 -0.26045003888E+04  0.26045003888E+04  0.50400001928E-02 0.  1.
    10030    2    1    2    0    0  0.00000000000E+00  0.00000000000E+00 -0.11818927732E+04  0.40271080043E+04  0.38497699088E+04 0.  0.
        3    1    3    3  502    0  0.53734724370E+03 -0.18332478963E+04 -0.34419447539E+03  0.19411362025E+04  0.10100000352E+00 0. -1.
       -3    1    3    3    0  502 -0.53734724370E+03  0.18332478963E+04 -0.83769829782E+03  0.20859718018E+04  0.10100000352E+00 0.  1.
</event>
<event>
 5   0  0.1501585E-07  0.3809056E+04  0.7818609E-02  0.8044214E-01
        2   -1    0    0  501    0  0.00000000000E+00  0.00000000000E+00  0.24246750403E+04  0.24246750403E+04  0.25500000920E-02 0.  1.
       -2   -1    0    0    0  501  0.00000000000E+00  0.00000000000E+00 -0.14959642191E+04  0.14959642192E+04  0.25500000920E-02 0. -1.
    10030    2    1    2    0    0  0.00000000000E+00  0.00000000000E+00  0.92871082117E+03  0.39206392595E+04  0.38090561053E+04 0.  0.
        5    1    3    3  502    0 -0.12285013663E+04 -0.72768336095E+02 -0.10317349760E+04  0.16059296337E+04  0.46999998093E+01 0. -1.
       -5    1    3    3    0  502  0.12285013663E+04  0.72768336095E+02  0.19604457972E+04  0.23147096257E+04  0.46999998093E+01 0.  1.
</event>
<event>
 5   0  0.1501585E-07  0.3739894E+04  0.7818609E-02  0.8059178E-01
       -2   -1    0    0    0  501  0.00000000000E+00  0.00000000000E+00  0.28256177780E+04  0.28256177780E+04  0.25500000920E-02 0. -1.
        2   -1    0    0  501    0  0.00000000000E+00  0.00000000000E+00 -0.12375001499E+04  0.12375001499E+04  0.25500000920E-02 0.  1.
    10030    2    1    2    0    0  0.00000000000E+00  0.00000000000E+00  0.15881176281E+04  0.40631179279E+04  0.37398943429E+04 0.  0.
        5    1    3    3  502    0  0.12696725268E+04 -0.13716149245E+04  0.85632255668E+03  0.20558954831E+04  0.46999998093E+01 0. -1.
       -5    1    3    3    0  502 -0.12696725268E+04  0.13716149245E+04  0.73179507140E+03  0.20072224448E+04  0.46999998093E+01 0.  1.
</event>
<event>
 5   0  0.1538018E-07  0.3953707E+04  0.7818609E-02  0.8013951E-01
        2   -1    0    0  501    0  0.00000000000E+00  0.00000000000E+00  0.27356439540E+04  0.27356439540E+04  0.25500000920E-02 0. -1.
       -2   -1    0    0    0  501  0.00000000000E+00  0.00000000000E+00 -0.14285299342E+04  0.14285299342E+04  0.25500000920E-02 0.  1.
    10030    2    1    2    0    0  0.00000000000E+00  0.00000000000E+00  0.13071140198E+04  0.41641738882E+04  0.39537067557E+04 0.  0.
        1    1    3    3  502    0 -0.80648945874E+03  0.68575659594E+03 -0.11048252461E+04  0.15301392683E+04  0.50400001928E-02 0.  1.
       -1    1    3    3    0  502  0.80648945874E+03 -0.68575659594E+03  0.24119392659E+04  0.26340346198E+04  0.50400001928E-02 0. -1.
</event>
<event>
 5   0  0.1520986E-07  0.3876568E+04  0.7818609E-02  0.8029920E-01
        2   -1    0    0  501    0  0.00000000000E+00  0.00000000000E+00  0.14570826115E+04  0.14570826115E+04  0.25500000920E-02 0.  1.
       -2   -1    0    0    0  501  0.00000000000E+00  0.00000000000E+00 -0.25784025963E+04  0.25784025963E+04  0.25500000920E-02 0. -1.
    10030    2    1    2    0    0  0.00000000000E+00  0.00000000000E+00 -0.11213199848E+04  0.40354852078E+04  0.38765683735E+04 0.  0.
        4    1    3    3  502    0 -0.59805687296E+03 -0.11984316785E+04 -0.20191792343E+04  0.24230140124E+04  0.12699999809E+01 0. -1.
       -4    1    3    3    0  502  0.59805687296E+03  0.11984316785E+04  0.89785924953E+03  0.16124711954E+04  0.12699999809E+01 0.  1.
</event>
<event>
 5   0  0.4750125E-08  0.3929452E+04  0.7818609E-02  0.8018932E-01
        1   -1    0    0  501    0  0.00000000000E+00  0.00000000000E+00  0.27198658150E+04  0.27198658150E+04  0.50400001928E-02 0. -1.
       -1   -1    0    0    0  501  0.00000000000E+00  0.00000000000E+00 -0.14192419612E+04  0.14192419613E+04  0.50400001928E-02 0.  1.
    10030    2    1    2    0    0  0.00000000000E+00  0.00000000000E+00  0.13006238538E+04  0.41391077763E+04  0.39294517143E+04 0.  0.
        3    1    3    3  502    0  0.85612030936E+03 -0.58573979120E+03  0.24079049991E+04  0.26218389695E+04  0.10100000352E+00 0. -1.
       -3    1    3    3    0  502 -0.85612030936E+03  0.58573979120E+03 -0.11072811453E+04  0.15172688068E+04  0.10100000352E+00 0.  1.
</event>
<event>
 5   0  0.4750125E-08  0.3903981E+04  0.7818609E-02  0.8024202E-01
       -1   -1    0    0    0  501  0.00000000000E+00  0.00000000000E+00  0.15649323144E+04  0.15649323144E+04  0.50400001928E-02 0.  1.
        1   -1    0    0  501    0  0.00000000000E+00  0.00000000000E+00 -0.24347802262E+04  0.24347802262E+04  0.50400001928E-02 0. -1.
    10030    2    1    2    0    0  0.00000000000E+00  0.00000000000E+00 -0.86984791180E+03  0.39997125407E+04  0.39039806632E+04 0.  0.
        4    1    3    3  502    0 -0.15349630939E+04 -0.11546528696E+04 -0.78647111675E+02  0.19223740348E+04  0.12699999809E+01 0.  1.
       -4    1    3    3    0  502  0.15349630939E+04  0.11546528696E+04 -0.79120080012E+03  0.20773385058E+04  0.12699999809E+01 0. -1.
</event>
<event>
 5   0  0.1538018E-07  0.3906488E+04  0.7818609E-02  0.8023681E-01
       -2   -1    0    0    0  501  0.00000000000E+00  0.00000000000E+00  0.15765024584E+04  0.15765024584E+04  0.25500000920E-02 0. -1.
        2   -1    0    0  501    0  0.00000000000E+00  0.00000000000E+00 -0.24200164323E+04  0.24200164323E+04  0.25500000920E-02 0.  1.
    10030    2    1    2    0    0  0.00000000000E+00  0.00000000000E+00 -0.84351397393E+03  0.39965188908E+04  0.39064878625E+04 0.  0.
        1    1    3    3  502    0 -0.14229866664E+04 -0.31007630194E+03  0.90982503454E+03  0.17172128463E+04  0.50400001928E-02 0. -1.
       -1    1    3    3    0  502  0.14229866664E+04  0.31007630194E+03 -0.17533390085E+04  0.22793060445E+04  0.50400001928E-02 0.  1.
</event>
<event>
 5   0  0.4750125E-08  0.3893247E+04  0.7818609E-02  0.8026435E-01
       -1   -1    0    0    0  501  0.00000000000E+00  0.00000000000E+00  0.16924163829E+04  0.16924163830E+04  0.50400001928E-02 0. -1.
        1   -1    0    0  501    0  0.00000000000E+00  0.00000000000E+00 -0.22390129129E+04  0.22390129130E+04  0.50400001928E-02 0.  1.
    10030    2    1    2    0    0  0.00000000000E+00  0.00000000000E+00 -0.54659653000E+03  0.39314292959E+04  0.38932465298E+04 0.  0.
        1    1    3    3  502    0 -0.16732256776E+03 -0.36096418766E+03 -0.21975181038E+04  0.22332437850E+04  0.50400001928E-02 0.  1.
       -1    1    3    3    0  502  0.16732256776E+03  0.36096418766E+03  0.16509215738E+04  0.16981855109E+04  0.50400001928E-02 0. -1.
</event>
<event>
 5   0  0.1520986E-07  0.3897114E+04  0.7818609E-02  0.8025630E-01
        2   -1    0    0  501    0  0.00000000000E+00  0.00000000000E+00  0.20333102179E+04  0.20333102179E+04  0.25500000920E-02 0. -1.
       -2   -1    0    0    0  501  0.00000000000E+00  0.00000000000E+00 -0.18673368500E+04  0.18673368500E+04  0.25500000920E-02 0.  1.
    10030    2    1    2    0    0  0.00000000000E+00  0.00000000000E+00  0.16597336791E+03  0.39006470679E+04  0.38971143670E+04 0.  0.
        4    1    3    3  502    0  0.72302467428E+03  0.96025030398E+03 -0.14520358821E+04  0.18850079951E+04  0.12699999809E+01 0.  1.
       -4    1    3    3    0  502 -0.72302467428E+03 -0.96025030398E+03  0.16180092500E+04  0.20156390728E+04  0.12699999809E+01 0. -1.
</event>
<event>
 5   0  0.1501585E-07  0.3872923E+04  0.7818609E-02  0.8030684E-01
       -2   -1    0    0    0  501  0.00000000000E+00  0.00000000000E+00  0.14363308581E+04  0.14363308581E+04  0.25500000920E-02 0. -1.
        2   -1    0    0  501    0  0.00000000000E+00  0.00000000000E+00 -0.26107380349E+04  0.26107380349E+04  0.25500000920E-02 0.  1.
    10030    2    1    2    0    0  0.00000000000E+00  0.00000000000E+00 -0.11744071768E+04  0.40470688930E+04  0.38729232380E+04 0.  0.
        5    1    3    3  502    0  0.58441143699E+03 -0.58719575555E+03  0.12417912858E+04  0.14927837320E+04  0.46999998093E+01 0. -1.
       -5    1    3    3    0  502 -0.58441143699E+03  0.58719575555E+03 -0.24161984626E+04  0.25542851610E+04  0.46999998093E+01 0.  1.
</event>
<event>
 5   0  0.1501585E-07  0.3937225E+04  0.7818609E-02  0.8017331E-01
        2   -1    0    0  501    0  0.00000000000E+00  0.00000000000E+00  0.12470023482E+04  0.12470023482E+04  0.25500000920E-02 0.  1.
       -2   -1    0    0    0  501  0.00000000000E+00  0.00000000000E+00 -0.31078005320E+04  0.31078005320E+04  0.25500000920E-02 0. -1.
    10030    2    1    2    0    0  0.00000000000E+00  0.00000000000E+00 -0.18607981839E+04  0.43548028802E+04  0.39372246881E+04 0.  0.
        5    1    3    3  502    0  0.83664087556E+03 -0.17258562512E+04 -0.43964690348E+03  0.19677040540E+04  0.46999998093E+01 0.  1.
       -5    1    3    3    0  502 -0.83664087556E+03  0.17258562512E+04 -0.14211512804E+04  0.23870988262E+04  0.46999998093E+01 0. -1.
</event>
<event>
 5   0  0.4750125E-08  0.3811870E+04  0.7818609E-02  0.8043612E-01
       -1   -1    0    0    0  501  0.00000000000E+00  0.00000000000E+00  0.15804707849E+04  0.15804707849E+04  0.50400001928E-02 0. -1.
        1   -1    0    0  501    0  0.00000000000E+00  0.00000000000E+00 -0.22984214266E+04  0.22984214266E+04  0.50400001928E-02 0.  1.
    10030    2    1    2    0    0  0.00000000000E+00  0.00000000000E+00 -0.71795064161E+03  0.38788922115E+04  0.38118698384E+04 0.  0.
        4    1    3    3  502    0  0.19611974977E+03  0.10047594206E+04  0.12769549712E+04  0.16366490341E+04  0.12699999809E+01 0. -1.
       -4    1    3    3    0  502 -0.19611974977E+03 -0.10047594206E+04 -0.19949056128E+04  0.22422431774E+04  0.12699999809E+01 0.  1.
</event>
<event>
 5   0  0.4750125E-08  0.3887744E+04  0.7818609E-02  0.8027583E-01
        1   -1    0    0  501    0  0.00000000000E+00  0.00000000000E+00  0.26936673302E+04  0.26936673302E+04  0.50400001928E-02 0. -1.
       -1   -1    0    0    0  501  0.00000000000E+00  0.00000000000E+00 -0.14027858000E+04  0.14027858000E+04  0.50400001928E-02 0.  1.
    10030    2    1    2    0    0  0.00000000000E+00  0.00000000000E+00  0.12908815302E+04  0.40964531303E+04  0.38877439632E+04 0.  0.
        4    1    3    3  502    0 -0.87023904961E+03 -0.40188952815E+03 -0.11364397585E+04  0.14867172340E+04  0.12699999809E+01 0.  1.
       -4    1    3    3    0  502  0.87023904961E+03  0.40188952815E+03  0.24273212887E+04  0.26097358962E+04  0.12699999809E+01 0. -1.
</event>
<event>
 5   0  0.4750125E-08  0.3991836E+04  0.7818609E-02  0.8006195E-01
        1   -1    0    0  501    0  0.00000000000E+00  0.00000000000E+00  0.11988696535E+04  0.11988696535E+04  0.50400001928E-02 0. -1.
       -1   -1    0    0    0  501  0.00000000000E+00  0.00000000000E+00 -0.33228707968E+04  0.33228707968E+04  0.50400001928E-02 0.  1.
    10030    2    1    2    0    0  0.00000000000E+00  0.00000000000E+00 -0.21240011433E+04  0.45217404503E+04  0.39918361493E+04 0.  0.
        1    1    3    3  502    0  0.15466623831E+04 -0.38983326204E+03 -0.24210866793E+04  0.28992749452E+04  0.50400001928E-02 0.  1.
       -1    1    3    3    0  502 -0.15466623831E+04  0.38983326204E+03  0.29708553600E+03  0.16224655051E+04  0.50400001928E-02 0. -1.
</event>
<event>
 5   0  0.1501585E-07  0.3913647E+04  0.7818609E-02  0.8022197E-01
        2   -1    0    0  501    0  0.00000000000E+00  0.00000000000E+00  0.22519401980E+04  0.22519401980E+04  0.25500000920E-02 0.  1.
       -2   -1    0    0    0  501  0.00000000000E+00  0.00000000000E+00 -0.17003821296E+04  0.17003821296E+04  0.25500000920E-02 0. -1.
    10030    2    1    2    0    0  0.00000000000E+00  0.00000000000E+00  0.55155806835E+03  0.39523223276E+04  0.39136473370E+04 0.  0.
        5    1    3    3  502    0 -0.35479140522E+03 -0.10012442143E+04 -0.13838631184E+04  0.17445532776E+04  0.46999998093E+01 0. -1.
       -5    1    3    3    0  502  0.35479140522E+03  0.10012442143E+04  0.19354211868E+04  0.22077690500E+04  0.46999998093E+01 0.  1.
</event>
<event>
 5   0  0.1520986E-07  0.4005708E+04  0.7818609E-02  0.8003396E-01
        2   -1    0    0  501    0  0.00000000000E+00  0.00000000000E+00  0.15120286525E+04  0.15120286525E+04  0.25500000920E-02 0. -1.
       -2   -1    0    0    0  501  0.00000000000E+00  0.00000000000E+00 -0.26530075213E+04  0.26530075213E+04  0.25500000920E-02 0.  1.
    10030    2    1    2    0    0  0.00000000000E+00  0.00000000000E+00 -0.11409788689E+04  0.41650361738E+04  0.40057076216E+04 0.  0.
        4    1    3    3  502    0 -0.22036229222E+03 -0.85540513587E+03  0.12985467395E+04  0.15705103418E+04  0.12699999809E+01 0. -1.
       -4    1    3    3    0  502  0.22036229222E+03  0.85540513587E+03 -0.24395256083E+04  0.25945258320E+04  0.12699999809E+01 0.  1.
</event>
<event>
 5   0  0.1538018E-07  0.3905006E+04  0.7818609E-02  0.8023989E-01
        2   -1    0    0  501    0  0.00000000000E+00  0.00000000000E+00  0.21678561788E+04  0.21678561788E+04  0.25500000920E-02 0.  1.
       -2   -1    0    0    0  501  0.00000000000E+00  0.00000000000E+00 -0.17585430149E+04  0.17585430149E+04  0.25500000920E-02 0. -1.
    10030    2    1    2    0    0  0.00000000000E+00  0.00000000000E+00  0.40931316390E+03  0.39263991937E+04  0.39050061923E+04 0.  0.
        1    1    3    3  502    0 -0.13443680607E+04  0.58521373345E+03  0.15010873776E+04  0.20983479005E+04  0.50400001928E-02 0.  1.
       -1    1    3    3    0  502  0.13443680607E+04 -0.58521373345E+03 -0.10917742137E+04  0.18280512931E+04  0.50400001928E-02 0. -1.
</event>
<event>
 5   0  0.1538018E-07  0.3902953E+04  0.7818609E-02  0.8024415E-01
        2   -1    0    0  501    0  0.00000000000E+00  0.00000000000E+00  0.12779075877E+04  0.12779075877E+04  0.25500000920E-02 0.  1.
       -2   -1    0    0    0  501  0.00000000000E+00  0.00000000000E+00 -0.29800750147E+04  0.29800750147E+04  0.25500000920E-02 0. -1.
    10030    2    1    2    0    0  0.00000000000E+00  0.00000000000E+00 -0.17021674270E+04  0.42579826024E+04  0.39029529709E+04 0.  0.
        1    1    3    3  502    0  0.16122994571E+04  0.29053477538E+03 -0.20078869301E+04  0.25914339504E+04  0.50400001928E-02 0.  1.
       -1    1    3    3    0  502 -0.16122994571E+04 -0.29053477538E+03  0.30571950310E+03  0.16665486520E+04  0.50400001928E-02 0. -1.
</event>
<event>
 5   0  0.4762788E-08  0.3897033E+04  0.7818609E-02  0.8025646E-01
        1   -1    0    0  501    0  0.00000000000E+00  0.00000000000E+00  0.13741787300E+04  0.13741787300E+04  0.50400001928E-02 0. -1.
       -1   -1    0    0    0  501  0.00000000000E+00  0.00000000000E+00 -0.27628992006E+04  0.27628992006E+04  0.50400001928E-02 0.  1.
    10030    2    1    2    0    0  0.00000000000E+00  0.00000000000E+00 -0.13887204705E+04  0.41370779306E+04  0.38970333920E+04 0.  0.
        2    1    3    3  502    0 -0.10386118205E+04  0.66146868479E+03 -0.22974985461E+04  0.26066750669E+04  0.25500000920E-02 0.  1.
       -2    1    3    3    0  502  0.10386118205E+04 -0.66146868479E+03  0.90877807560E+03  0.15304028638E+04  0.25500000920E-02 0. -1.
</event>
<event>
 5   0  0.4750125E-08  0.3832148E+04  0.7818609E-02  0.8039291E-01
        3   -1    0    0  501    0  0.00000000000E+00  0.00000000000E+00  0.19447882997E+04  0.19447883023E+04  0.10100000352E+00 0.  1.
       -3   -1    0    0    0  501  0.00000000000E+00  0.00000000000E+00 -0.18877840345E+04  0.18877840372E+04  0.10100000352E+00 0. -1.
    10030    2    1    2    0    0  0.00000000000E+00  0.00000000000E+00  0.57004265156E+02  0.38325723395E+04  0.38321483858E+04 0.  0.
        4    1    3    3  502    0  0.91519596243E+03 -0.47795169145E+03  0.16427802125E+04  0.19402963456E+04  0.12699999809E+01 0.  1.
       -4    1    3    3    0  502 -0.91519596243E+03  0.47795169145E+03 -0.15857759474E+04  0.18922759939E+04  0.12699999809E+01 0. -1.
</event>
<event>
 5   0  0.1501585E-07  0.3896526E+04  0.7818609E-02  0.8025752E-01
        2   -1    0    0  501    0  0.00000000000E+00  0.00000000000E+00  0.15484193310E+04  0.15484193311E+04  0.25500000920E-02 0. -1.
       -2   -1    0    0    0  501  0.00000000000E+00  0.00000000000E+00 -0.24513573241E+04  0.24513573241E+04  0.25500000920E-02 0.  1.
    10030    2    1    2    0    0  0.00000000000E+00  0.00000000000E+00 -0.90293799305E+03  0.39997766551E+04  0.38965261800E+04 0.  0.
        5    1    3    3  502    0 -0.17839229356E+04 -0.42752040143E+03 -0.11250209056E+04  0.21519407198E+04  0.46999998093E+01 0.  1.
       -5    1    3    3    0  502  0.17839229356E+04  0.42752040143E+03  0.22208291253E+03  0.18478359353E+04  0.46999998093E+01 0. -1.
</event>
<event>
 5   0  0.4750125E-08  0.3898132E+04  0.7818609E-02  0.8025418E-01
        1   -1    0    0  501    0  0.00000000000E+00  0.00000000000E+00  0.17855525310E+04  0.17855525310E+04  0.50400001928E-02 0.  1.
       -1   -1    0    0    0  501  0.00000000000E+00  0.00000000000E+00 -0.21275537812E+04  0.21275537812E+04  0.50400001928E-02 0. -1.
    10030    2    1    2    0    0  0.00000000000E+00  0.00000000000E+00 -0.34200125021E+03  0.39131063123E+04  0.38981323933E+04 0.  0.
        4    1    3    3  502    0  0.15243980875E+04 -0.31120917697E+03  0.10074837345E+04  0.18535549005E+04  0.12699999809E+01 0.  1.
       -4    1    3    3    0  502 -0.15243980875E+04  0.31120917697E+03 -0.13494849847E+04  0.20595514118E+04  0.12699999809E+01 0. -1.
</event>
<event>
 5   0  0.1546846E-07  0.3917815E+04  0.7818609E-02  0.8021334E-01
       -2   -1    0    0    0  501  0.00000000000E+00  0.00000000000E+00  0.14914853322E+04  0.14914853322E+04  0.25500000920E-02 0. -1.
        2   -1    0    0  501    0  0.00000000000E+00  0.00000000000E+00 -0.25728162153E+04  0.25728162153E+04  0.25500000920E-02 0.  1.
    10030    2    1    2    0    0  0.00000000000E+00  0.00000000000E+00 -0.10813308830E+04  0.40643015475E+04  0.39178145171E+04 0.  0.
        2    1    3    3  502    0  0.82874568550E+03 -0.10187073418E+04  0.96720636076E+03  0.16309727784E+04  0.25500000920E-02 0. -1.
       -2    1    3    3    0  502 -0.82874568550E+03  0.10187073418E+04 -0.20485372438E+04  0.24333287691E+04  0.25500000920E-02 0.  1.
</event>
<event>
 5   0  0.4750125E-08  0.3914174E+04  0.7818609E-02  0.8022088E-01
       -1   -1    0    0    0  501  0.00000000000E+00  0.00000000000E+00  0.33897209505E+04  0.33897209505E+04  0.50400001928E-02 0.  1.
        1   -1    0    0  501    0  0.00000000000E+00  0.00000000000E+00 -0.11299425544E+04  0.11299425544E+04  0.50400001928E-02 0. -1.
    10030    2    1    2    0    0  0.00000000000E+00  0.00000000000E+00  0.22597783961E+04  0.45196635048E+04  0.39141742165E+04 0.  0.
        1    1    3    3  502    0  0.94885766473E+03 -0.40851270464E+03  0.30492408115E+04  0.32194849005E+04  0.50400001928E-02 0.  1.
       -1    1    3    3    0  502 -0.94885766473E+03  0.40851270464E+03 -0.78946241543E+03  0.13001786043E+04  0.50400001928E-02 0. -1.
</event>
<event>
 5   0  0.1503228E-07  0.3765963E+04  0.7818609E-02  0.8053499E-01
       -2   -1    0    0    0  501  0.00000000000E+00  0.00000000000E+00  0.14934650720E+04  0.14934650720E+04  0.25500000920E-02 0. -1.
        2   -1    0    0  501    0  0.00000000000E+00  0.00000000000E+00 -0.23740888342E+04  0.23740888342E+04  0.25500000920E-02 0.  1.
    10030    2    1    2    0    0  0.00000000000E+00  0.00000000000E+00 -0.88062376221E+03  0.38675539062E+04  0.37659626932E+04 0.  0.
        3    1    3    3  502    0  0.90171732991E+03  0.14950529756E+04 -0.11645603414E+04  0.20986849077E+04  0.10100000352E+00 0.  1.
       -3    1    3    3    0  502 -0.90171732991E+03 -0.14950529756E+04  0.28393657914E+03  0.17688689985E+04  0.10100000352E+00 0. -1.
</event>
<event>
 5   0  0.1501585E-07  0.3901285E+04  0.7818609E-02  0.8024762E-01
       -2   -1    0    0    0  501  0.00000000000E+00  0.00000000000E+00  0.14122976859E+04  0.14122976859E+04  0.25500000920E-02 0.  1.
        2   -1    0    0  501    0  0.00000000000E+00  0.00000000000E+00 -0.26941961850E+04  0.26941961850E+04  0.25500000920E-02 0. -1.
    10030    2    1    2    0    0  0.00000000000E+00  0.00000000000E+00 -0.12818984991E+04  0.41064938709E+04  0.39012854484E+04 0.  0.
        5    1    3    3  502    0  0.12507557009E+04 -0.14738220057E+04 -0.91632809223E+03  0.21392102258E+04  0.46999998093E+01 0. -1.
       -5    1    3    3    0  502 -0.12507557009E+04  0.14738220057E+04 -0.36557040684E+03  0.19672836450E+04  0.46999998093E+01 0.  1.
</event>
<event>
 5   0  0.4750125E-08  0.3925671E+04  0.7818609E-02  0.8019711E-01
        1   -1    0    0  501    0  0.00000000000E+00  0.00000000000E+00  0.18785966149E+04  0.18785966149E+04  0.50400001928E-02 0.  1.
       -1   -1    0    0    0  501  0.00000000000E+00  0.00000000000E+00 -0.20508516081E+04  0.20508516081E+04  0.50400001928E-02 0. -1.
    10030    2    1    2    0    0  0.00000000000E+00  0.00000000000E+00 -0.17225499317E+03  0.39294482230E+04  0.39256708414E+04 0.  0.
        3    1    3    3  502    0  0.40095054129E+03 -0.18963988439E+04 -0.39567086428E+03  0.19782935461E+04  0.10100000352E+00 0. -1.
       -3    1    3    3    0  502 -0.40095054129E+03  0.18963988439E+04  0.22341587111E+03  0.19511546769E+04  0.10100000352E+00 0.  1.
</event>
<event>
 5   0  0.4750125E-08  0.3968499E+04  0.7818609E-02  0.8010932E-01
        1   -1    0    0  501    0  0.00000000000E+00  0.00000000000E+00  0.23648256813E+04  0.23648256813E+04  0.50400001928E-02 0. -1.
       -1   -1    0    0    0  501  0.00000000000E+00  0.00000000000E+00 -0.16649198526E+04  0.16649198526E+04  0.50400001928E-02 0.  1.
    10030    2    1    2    0    0  0.00000000000E+00  0.00000000000E+00  0.69990582869E+03  0.40297455339E+04  0.39684985699E+04 0.  0.
        4    1    3    3  502    0 -0.10869591985E+04  0.17148159040E+03  0.20266043543E+04  0.23060817541E+04  0.12699999809E+01 0. -1.
       -4    1    3    3    0  502  0.10869591985E+04 -0.17148159040E+03 -0.13266985256E+04  0.17236637798E+04  0.12699999809E+01 0.  1.
</event>
<event>
 5   0  0.4750125E-08  0.3925481E+04  0.7818609E-02  0.8019750E-01
        1   -1    0    0  501    0  0.00000000000E+00  0.00000000000E+00  0.20468312323E+04  0.20468312323E+04  0.50400001928E-02 0.  1.
       -1   -1    0    0    0  501  0.00000000000E+00  0.00000000000E+00 -0.18821048400E+04  0.18821048400E+04  0.50400001928E-02 0. -1.
    10030    2    1    2    0    0  0.00000000000E+00  0.00000000000E+00  0.16472639230E+03  0.39289360724E+04  0.39254813560E+04 0.  0.
        5    1    3    3  502    0  0.15239663045E+04  0.10206425892E+04 -0.61692492167E+03  0.19351493589E+04  0.46999998093E+01 0. -1.
       -5    1    3    3    0  502 -0.15239663045E+04 -0.10206425892E+04  0.78165131397E+03  0.19937867135E+04  0.46999998093E+01 0.  1.
</event>
<event>
 5   0  0.1501585E-07  0.3896683E+04  0.7818609E-02  0.8025719E-01
        2   -1    0    0  501    0  0.00000000000E+00  0.00000000000E+00  0.13500706269E+04  0.13500706269E+04  0.25500000920E-02 0. -1.
       -2   -1    0    0    0  501  0.00000000000E+00  0.00000000000E+00 -0.28117309908E+04  0.28117309908E+04  0.25500000920E-02 0.  1.
    10030    2    1    2    0    0  0.00000000000E+00  0.00000000000E+00 -0.14616603639E+04  0.41618016177E+04  0.38966834213E+04 0.  0.
        5    1    3    3  502    0  0.35610296586E+03 -0.91379268578E+03  0.10672145703E+04  0.14494120960E+04  0.46999998093E+01 0. -1.
       -5    1    3    3    0  502 -0.35610296586E+03  0.91379268578E+03 -0.25288749342E+04  0.27123895217E+04  0.46999998093E+01 0.  1.
</event>
<event>
 5   0  0.1501585E-07  0.3903576E+04  0.7818609E-02  0.8024286E-01
        2   -1    0    0  501    0  0.00000000000E+00  0.00000000000E+00  0.22822341316E+04  0.22822341316E+04  0.25500000920E-02 0. -1.
       -2   -1    0    0    0  501  0.00000000000E+00  0.00000000000E+00 -0.16691874380E+04  0.16691874380E+04  0.25500000920E-02 0.  1.
    10030    2    1    2    0    0  0.00000000000E+00  0.00000000000E+00  0.61304669361E+03  0.39514215696E+04  0.39035760748E+04 0.  0.
        5    1    3    3  502    0 -0.79316790146E+03 -0.63459363252E+03  0.19935732140E+04  0.22374495856E+04  0.46999998093E+01 0. -1.
       -5    1    3    3    0  502  0.79316790146E+03  0.63459363252E+03 -0.13805265204E+04  0.17139719840E+04  0.46999998093E+01 0.  1.
</event>
<event>
 5   0  0.1503228E-07  0.3895220E+04  0.7818609E-02  0.8026024E-01
       -2   -1    0    0    0  501  0.00000000000E+00  0.00000000000E+00  0.24875026908E+04  0.24875026908E+04  0.25500000920E-02 0. -1.
        2   -1    0    0  501    0  0.00000000000E+00  0.00000000000E+00 -0.15248969254E+04  0.15248969254E+04  0.25500000920E-02 0.  1.
    10030    2    1    2    0    0  0.00000000000E+00  0.00000000000E+00  0.96260576540E+03  0.40123996162E+04  0.38952202531E+04 0.  0.
        3    1    3    3  502    0  0.39179812532E+03 -0.35247383660E+02  0.24461537505E+04  0.24775827596E+04  0.10100000352E+00 0. -1.
       -3    1    3    3    0  502 -0.39179812532E+03  0.35247383660E+02 -0.14835479851E+04  0.15348168566E+04  0.10100000352E+00 0.  1.
</event>
<event>
 5   0  0.1501585E-07  0.3854185E+04  0.7818609E-02  0.8034626E-01
        2   -1    0    0  501    0  0.00000000000E+00  0.00000000000E+00  0.13676523010E+04  0.13676523010E+04  0.25500000920E-02 0. -1.
       -2   -1    0    0    0  501  0.00000000000E+00  0.00000000000E+00 -0.27153724677E+04  0.27153724677E+04  0.25500000920E-02 0.  1.
    10030    2    1    2    0    0  0.00000000000E+00  0.00000000000E+00 -0.13477201667E+04  0.40830247687E+04  0.38541849481E+04 0.  0.
        5    1    3    3  502    0 -0.12816490354E+04 -0.54216761647E+03 -0.20860873195E+04  0.25076587425E+04  0.46999998093E+01 0.  1.
       -5    1    3    3    0  502  0.12816490354E+04  0.54216761647E+03  0.73836715280E+03  0.15753660262E+04  0.46999998093E+01 0. -1.
</event>
<event>
 5   0  0.4762788E-08  0.3896017E+04  0.7818609E-02  0.8025858E-01
       -1   -1    0    0    0  501  0.00000000000E+00  0.00000000000E+00  0.23499934973E+04  0.23499934973E+04  0.50400001928E-02 0.  1.
        1   -1    0    0  501    0  0.00000000000E+00  0.00000000000E+00 -0.16147865389E+04  0.16147865389E+04  0.50400001928E-02 0. -1.
    10030    2    1    2    0    0  0.00000000000E+00  0.00000000000E+00  0.73520695844E+03  0.39647800362E+04  0.38960173849E+04 0.  0.
        2    1    3    3  502    0 -0.17627729851E+04 -0.63717820457E+03 -0.17220484841E+03  0.18822909369E+04  0.25500000920E-02 0. -1.
       -2    1    3    3    0  502  0.17627729851E+04  0.63717820457E+03  0.90741180685E+03  0.20824890993E+04  0.25500000920E-02 0.  1.
</event>
<event>
 5   0  0.1503228E-07  0.3917534E+04  0.7818609E-02  0.8021392E-01
        2   -1    0    0  501    0  0.00000000000E+00  0.00000000000E+00  0.20912091977E+04  0.20912091977E+04  0.25500000920E-02 0. -1.
       -2   -1    0    0    0  501  0.00000000000E+00  0.00000000000E+00 -0.18347124054E+04  0.18347124054E+04  0.25500000920E-02 0.  1.
    10030    2    1    2    0    0  0.00000000000E+00  0.00000000000E+00  0.25649679224E+03  0.39259216031E+04  0.39175336411E+04 0.  0.
        3    1    3    3  502    0  0.29996814505E+03  0.71603197759E+03  0.19304550453E+04  0.20807064601E+04  0.10100000352E+00 0. -1.
       -3    1    3    3    0  502 -0.29996814505E+03 -0.71603197759E+03 -0.16739582530E+04  0.18452151430E+04  0.10100000352E+00 0.  1.
</event>
<event>
 5   0  0.1520986E-07  0.3948060E+04  0.7818609E-02  0.8015107E-01
        2   -1    0    0  501    0  0.00000000000E+00  0.00000000000E+00  0.30591164940E+04  0.30591164940E+04  0.25500000920E-02 0.  1.
       -2   -1    0    0    0  501  0.00000000000E+00  0.00000000000E+00 -0.12738301125E+04  0.12738301125E+04  0.25500000920E-02 0. -1.
    10030    2    1    2    0    0  0.00000000000E+00  0.00000000000E+00  0.17852863815E+04  0.43329466065E+04  0.39480601351E+04 0.  0.
        4    1    3    3  502    0  0.12875162910E+04  0.11256083684E+04  0.19747128143E+04  0.26123140528E+04  0.12699999809E+01 0.  1.
       -4    1    3    3    0  502 -0.12875162910E+04 -0.11256083684E+04 -0.18942643279E+03  0.17206325537E+04  0.12699999809E+01 0. -1.
</event>
<event>
 5   0  0.1503228E-07  0.3903194E+04  0.7818609E-02  0.8024365E-01
        2   -1    0    0  501    0  0.00000000000E+00  0.00000000000E+00  0.13043174716E+04  0.13043174716E+04  0.25500000920E-02 0.  1.
       -2   -1    0    0    0  501  0.00000000000E+00  0.00000000000E+00 -0.29200944719E+04  0.29200944719E+04  0.25500000920E-02 0. -1.
    10030    2    1    2    0    0  0.00000000000E+00  0.00000000000E+00 -0.16157770004E+04  0.42244119435E+04  0.39031936864E+04 0.  0.
        3    1    3    3  502    0 -0.29933283224E+03 -0.13515988213E+04  0.68093214652E+03  0.15427534205E+04  0.10100000352E+00 0.  1.
       -3    1    3    3    0  502  0.29933283224E+03  0.13515988213E+04 -0.22967091469E+04  0.26816585230E+04  0.10100000352E+00 0. -1.
</event>
<event>
 5   0  0.4762788E-08  0.3840603E+04  0.7818609E-02  0.8037497E-01
       -1   -1    0    0    0  501  0.00000000000E+00  0.00000000000E+00  0.17398078515E+04  0.17398078515E+04  0.50400001928E-02 0.  1.
        1   -1    0    0  501    0  0.00000000000E+00  0.00000000000E+00 -0.21195200216E+04  0.21195200216E+04  0.50400001928E-02 0. -1.
    10030    2    1    2    0    0  0.00000000000E+00  0.00000000000E+00 -0.37971217010E+03  0.38593278730E+04  0.38406028562E+04 0.  0.
        2    1    3    3  502    0  0.15240634496E+04 -0.76983214334E+03  0.69314689760E+03  0.18427868974E+04  0.25500000920E-02 0.  1.
       -2    1    3    3    0  502 -0.15240634496E+04  0.76983214334E+03 -0.10728590677E+04  0.20165409757E+04  0.25500000920E-02 0. -1.
</event>
<event>
 5   0  0.1546846E-07  0.3908141E+04  0.7818609E-02  0.8023338E-01
       -2   -1    0    0    0  501  0.00000000000E+00  0.00000000000E+00  0.15860132110E+04  0.15860132110E+04  0.25500000920E-02 0. -1.
        2   -1    0    0  501    0  0.00000000000E+00  0.00000000000E+00 -0.24075405003E+04  0.24075405003E+04  0.25500000920E-02 0.  1.
    10030    2    1    2    0    0  0.00000000000E+00  0.00000000000E+00 -0.82152728934E+03  0.39935537113E+04  0.39081407546E+04 0.  0.
        2    1    3    3  502    0 -0.10421254818E+04  0.16385671967E+04 -0.63338519768E+03  0.20425730798E+04  0.25500000920E-02 0.  1.
       -2    1    3    3    0  502  0.10421254818E+04 -0.16385671967E+04 -0.18814209165E+03  0.19509806315E+04  0.25500000920E-02 0. -1.
</event>
<event>
 5   0  0.4750125E-08  0.3886130E+04  0.7818609E-02  0.8027920E-01
        1   -1    0    0  501    0  0.00000000000E+00  0.00000000000E+00  0.15166005469E+04  0.15166005469E+04  0.50400001928E-02 0. -1.
       -1   -1    0    0    0  501  0.00000000000E+00  0.00000000000E+00 -0.24894508447E+04  0.24894508447E+04  0.50400001928E-02 0.  1.
    10030    2    1    2    0    0  0.00000000000E+00  0.00000000000E+00 -0.97285029780E+03  0.40060513916E+04  0.38861304726E+04 0.  0.
        4    1    3    3  502    0 -0.16910508576E+03  0.21751574067E+03 -0.24692119167E+04  0.24845359185E+04  0.12699999809E+01 0.  1.
       -4    1    3    3    0  502  0.16910508576E+03 -0.21751574067E+03  0.14963616189E+04  0.15215154731E+04  0.12699999809E+01 0. -1.
</event>
<event>
 5   0  0.4750125E-08  0.3887528E+04  0.7818609E-02  0.8027628E-01
        1   -1    0    0  501    0  0.00000000000E+00  0.00000000000E+00  0.16940398668E+04  0.16940398668E+04  0.50400001928E-02 0. -1.
       -1   -1    0    0    0  501  0.00000000000E+00  0.00000000000E+00 -0.22303003310E+04  0.22303003310E+04  0.50400001928E-02 0.  1.
    10030    2    1    2    0    0  0.00000000000E+00  0.00000000000E+00 -0.53626046415E+03  0.39243401978E+04  0.38875275823E+04 0.  0.
        4    1    3    3  502    0  0.83323094528E+02 -0.64270180108E+03  0.15817641922E+04  0.17093823199E+04  0.12699999809E+01 0. -1.
       -4    1    3    3    0  502 -0.83323094528E+02  0.64270180108E+03 -0.21180246563E+04  0.22149578779E+04  0.12699999809E+01 0.  1.
</event>
<event>
 5   0  0.1520986E-07  0.4068361E+04  0.7818609E-02  0.7990896E-01
        2   -1    0    0  501    0  0.00000000000E+00  0.00000000000E+00  0.30214212266E+04  0.30214212266E+04  0.25500000920E-02 0. -1.
       -2   -1    0    0    0  501  0.00000000000E+00  0.00000000000E+00 -0.13695177309E+04  0.13695177309E+04  0.25500000920E-02 0.  1.
    10030    2    1    2    0    0  0.00000000000E+00  0.00000000000E+00  0.16519034957E+04  0.43909389575E+04  0.40683608209E+04 0.  0.
        4    1    3    3  502    0 -0.13263945945E+04  0.90402265342E+03  0.21745491951E+04  0.27028217465E+04  0.12699999809E+01 0. -1.
       -4    1    3    3    0  502  0.13263945945E+04 -0.90402265342E+03 -0.52264569938E+03  0.16881172110E+04  0.12699999809E+01 0.  1.
</event>
<event>
 5   0  0.4750125E-08  0.3879093E+04  0.7818609E-02  0.8029392E-01
        1   -1    0    0  501    0  0.00000000000E+00  0.00000000000E+00  0.18773679754E+04  0.18773679754E+04  0.50400001928E-02 0. -1.
       -1   -1    0    0    0  501  0.00000000000E+00  0.00000000000E+00 -0.20037840055E+04  0.20037840055E+04  0.50400001928E-02 0.  1.
    10030    2    1    2    0    0  0.00000000000E+00  0.00000000000E+00 -0.12641603011E+03  0.38811519809E+04  0.38790926369E+04 0.  0.
        5    1    3    3  502    0 -0.75269135956E+03  0.14155092425E+04  0.10289790919E+04  0.19050015118E+04  0.46999998093E+01 0. -1.
       -5    1    3    3    0  502  0.75269135956E+03 -0.14155092425E+04 -0.11553951220E+04  0.19761504691E+04  0.46999998093E+01 0.  1.
</event>
<event>
 5   0  0.4762788E-08  0.3889169E+04  0.7818609E-02  0.8027286E-01
        1   -1    0    0  501    0  0.00000000000E+00  0.00000000000E+00  0.20076970255E+04  0.20076970255E+04  0.50400001928E-02 0.  1.
       -1   -1    0    0    0  501  0.00000000000E+00  0.00000000000E+00 -0.18834562422E+04  0.18834562422E+04  0.50400001928E-02 0. -1.
    10030    2    1    2    0    0  0.00000000000E+00  0.00000000000E+00  0.12424078328E+03  0.38911532677E+04  0.38891693176E+04 0.  0.
        2    1    3    3  502    0  0.50648927171E+01  0.11784246297E+04 -0.14855039145E+04  0.18961624775E+04  0.25500000920E-02 0. -1.
       -2    1    3    3    0  502 -0.50648927171E+01 -0.11784246297E+04  0.16097446978E+04  0.19949907902E+04  0.25500000920E-02 0.  1.
</event>
<event>
 5   0  0.1503228E-07  0.3818452E+04  0.7818609E-02  0.8042207E-01
       -2   -1    0    0    0  501  0.00000000000E+00  0.00000000000E+00  0.15495598904E+04  0.15495598904E+04  0.25500000920E-02 0.  1.
        2   -1    0    0  501    0  0.00000000000E+00  0.00000000000E+00 -0.23523731248E+04  0.23523731248E+04  0.25500000920E-02 0. -1.
    10030    2    1    2    0    0  0.00000000000E+00  0.00000000000E+00 -0.80281323434E+03  0.39019330152E+04  0.38184515404E+04 0.  0.
        3    1    3    3  502    0 -0.36397799643E+03 -0.70952074176E+03 -0.21740492175E+04  0.23156834143E+04  0.10100000352E+00 0. -1.
       -3    1    3    3    0  502  0.36397799643E+03  0.70952074176E+03  0.13712359831E+04  0.15862496010E+04  0.10100000352E+00 0.  1.
</event>
<event>
 5   0  0.1503228E-07  0.3907754E+04  0.7818609E-02  0.8023418E-01
       -2   -1    0    0    0  501  0.00000000000E+00  0.00000000000E+00  0.15283661762E+04  0.15283661762E+04  0.25500000920E-02 0. -1.
        2   -1    0    0  501    0  0.00000000000E+00  0.00000000000E+00 -0.24978544260E+04  0.24978544260E+04  0.25500000920E-02 0.  1.
    10030    2    1    2    0    0  0.00000000000E+00  0.00000000000E+00 -0.96948824987E+03  0.40262206022E+04  0.39077544537E+04 0.  0.
        3    1    3    3  502    0 -0.13330007947E+04 -0.12992513354E+04  0.12713765812E+03  0.18657730691E+04  0.10100000352E+00 0. -1.
       -3    1    3    3    0  502  0.13330007947E+04  0.12992513354E+04 -0.10966259080E+04  0.21604475331E+04  0.10100000352E+00 0.  1.
</event>
<event>
 5   0  0.1520986E-07  0.3898240E+04  0.7818609E-02  0.8025395E-01
        2   -1    0    0  501    0  0.00000000000E+00  0.00000000000E+00  0.15829106841E+04  0.15829106841E+04  0.25500000920E-02 0.  1.
       -2   -1    0    0    0  501  0.00000000000E+00  0.00000000000E+00 -0.24000522322E+04  0.24000522322E+04  0.25500000920E-02 0. -1.
    10030    2    1    2    0    0  0.00000000000E+00  0.00000000000E+00 -0.81714154818E+03  0.39829629163E+04  0.38982397672E+04 0.  0.
        4    1    3    3  502    0 -0.13064305126E+04 -0.99508650153E+03  0.66405929103E+03  0.17714215152E+04  0.12699999809E+01 0.  1.
       -4    1    3    3    0  502  0.13064305126E+04  0.99508650153E+03 -0.14812008392E+04  0.22115414011E+04  0.12699999809E+01 0. -1.
</event>
<event>
 5   0  0.4750125E-08  0.3901314E+04  0.7818609E-02  0.8024756E-01
        1   -1    0    0  501    0  0.00000000000E+00  0.00000000000E+00  0.25924778819E+04  0.25924778820E+04  0.50400001928E-02 0.  1.
       -1   -1    0    0    0  501  0.00000000000E+00  0.00000000000E+00 -0.14677320001E+04  0.14677320001E+04  0.50400001928E-02 0. -1.
    10030    2    1    2    0    0  0.00000000000E+00  0.00000000000E+00  0.11247458818E+04  0.40602098821E+04  0.39013140078E+04 0.  0.
        1    1    3    3  502    0  0.78497391353E+03  0.14729660864E+04 -0.48832493394E+03  0.17390440988E+04  0.50400001928E-02 0. -1.
       -1    1    3    3    0  502 -0.78497391353E+03 -0.14729660864E+04  0.16130708158E+04  0.23211657832E+04  0.50400001928E-02 0.  1.
</event>
<event>
 5   0  0.1520986E-07  0.3902614E+04  0.7818609E-02  0.8024486E-01
        2   -1    0    0  501    0  0.00000000000E+00  0.00000000000E+00  0.24508148334E+04  0.24508148334E+04  0.25500000920E-02 0. -1.
       -2   -1    0    0    0  501  0.00000000000E+00  0.00000000000E+00 -0.15536050150E+04  0.15536050150E+04  0.25500000920E-02 0.  1.
    10030    2    1    2    0    0  0.00000000000E+00  0.00000000000E+00  0.89720981838E+03  0.40044198485E+04  0.39026135941E+04 0.  0.
        4    1    3    3  502    0 -0.42218675466E+03 -0.17479235018E+04  0.12260769453E+04  0.21764063299E+04  0.12699999809E+01 0. -1.
       -4    1    3    3    0  502  0.42218675466E+03  0.17479235018E+04 -0.32886712692E+03  0.18280135186E+04  0.12699999809E+01 0.  1.
</event>
<event>
 5   0  0.4750125E-08  0.3667712E+04  0.7818609E-02  0.8075155E-01
       -1   -1    0    0    0  501  0.00000000000E+00  0.00000000000E+00  0.14681967460E+04  0.14681967460E+04  0.50400001928E-02 0.  1.
        1   -1    0    0  501    0  0.00000000000E+00  0.00000000000E+00 -0.22905840380E+04  0.22905840380E+04  0.50400001928E-02 0. -1.
    10030    2    1    2    0    0  0.00000000000E+00  0.00000000000E+00 -0.82238729198E+03  0.37587807840E+04  0.36677121104E+04 0.  0.
        3    1    3    3  502    0 -0.52240135120E+03  0.17225500999E+04 -0.51850831398E+02  0.18007694292E+04  0.10100000352E+00 0.  1.
       -3    1    3    3    0  502  0.52240135120E+03 -0.17225500999E+04 -0.77053646058E+03  0.19580113548E+04  0.10100000352E+00 0. -1.
</event>
<event>
 5   0  0.1503228E-07  0.3921681E+04  0.7818609E-02  0.8020535E-01
        2   -1    0    0  501    0  0.00000000000E+00  0.00000000000E+00  0.12537477788E+04  0.12537477788E+04  0.25500000920E-02 0. -1.
       -2   -1    0    0    0  501  0.00000000000E+00  0.00000000000E+00 -0.30667212141E+04  0.30667212141E+04  0.25500000920E-02 0.  1.
    10030    2    1    2    0    0  0.00000000000E+00  0.00000000000E+00 -0.18129734353E+04  0.43204689929E+04  0.39216807164E+04 0.  0.
        3    1    3    3  502    0  0.18981029539E+04 -0.47678460076E+03 -0.77256692734E+03  0.21040385088E+04  0.10100000352E+00 0.  1.
       -3    1    3    3    0  502 -0.18981029539E+04  0.47678460076E+03 -0.10404065079E+04  0.22164304841E+04  0.10100000352E+00 0. -1.
</event>
<event>
 5   0  0.1503228E-07  0.3865511E+04  0.7818609E-02  0.8032241E-01
       -2   -1    0    0    0  501  0.00000000000E+00  0.00000000000E+00  0.23955026891E+04  0.23955026891E+04  0.25500000920E-02 0.  1.
        2   -1    0    0  501    0  0.00000000000E+00  0.00000000000E+00 -0.15593990357E+04  0.15593990357E+04  0.25500000920E-02 0. -1.
    10030    2    1    2    0    0  0.00000000000E+00  0.00000000000E+00  0.83610365338E+03  0.39549017248E+04  0.38655113935E+04 0.  0.
        3    1    3    3  502    0 -0.15055897512E+04  0.12055658889E+04  0.29127113726E+03  0.19506482248E+04  0.10100000352E+00 0.  1.
       -3    1    3    3    0  502  0.15055897512E+04 -0.12055658889E+04  0.54483251612E+03  0.20042535000E+04  0.10100000352E+00 0. -1.
</event>
<event>
 5   0  0.4750125E-08  0.3901545E+04  0.7818609E-02  0.8024708E-01
       -1   -1    0    0    0  501  0.00000000000E+00  0.00000000000E+00  0.18613277157E+04  0.18613277157E+04  0.50400001928E-02 0. -1.
        1   -1    0    0  501    0  0.00000000000E+00  0.00000000000E+00 -0.20445158355E+04  0.20445158355E+04  0.50400001928E-02 0.  1.
    10030    2    1    2    0    0  0.00000000000E+00  0.00000000000E+00 -0.18318811978E+03  0.39058435513E+04  0.39015453297E+04 0.  0.
        1    1    3    3  502    0 -0.16626737938E+04  0.31313453054E+03  0.88054556819E+03  0.19073274173E+04  0.50400001928E-02 0. -1.
       -1    1    3    3    0  502  0.16626737938E+04 -0.31313453054E+03 -0.10637336880E+04  0.19985161340E+04  0.50400001928E-02 0.  1.
</event>
<event>
 5   0  0.4750125E-08  0.3991677E+04  0.7818609E-02  0.8006228E-01
        1   -1    0    0  501    0  0.00000000000E+00  0.00000000000E+00  0.23814152175E+04  0.23814152175E+04  0.50400001928E-02 0.  1.
       -1   -1    0    0    0  501  0.00000000000E+00  0.00000000000E+00 -0.16726910928E+04  0.16726910928E+04  0.50400001928E-02 0. -1.
    10030    2    1    2    0    0  0.00000000000E+00  0.00000000000E+00  0.70872412479E+03  0.40541063103E+04  0.39916773530E+04 0.  0.
        1    1    3    3  502    0  0.98661775767E+03 -0.32445071734E+03  0.20853320364E+04  0.23296550323E+04  0.50400001928E-02 0.  1.
       -1    1    3    3    0  502 -0.98661775767E+03  0.32445071734E+03 -0.13766079116E+04  0.17244512780E+04  0.50400001928E-02 0. -1.
</event>
<event>
 5   0  0.1538018E-07  0.3902929E+04  0.7818609E-02  0.8024420E-01
        2   -1    0    0  501    0  0.00000000000E+00  0.00000000000E+00  0.28386722152E+04  0.28386722152E+04  0.25500000920E-02 0. -1.
       -2   -1    0    0    0  501  0.00000000000E+00  0.00000000000E+00 -0.13415474889E+04  0.13415474889E+04  0.25500000920E-02 0.  1.
    10030    2    1    2    0    0  0.00000000000E+00  0.00000000000E+00  0.14971247262E+04  0.41802197041E+04  0.39029289423E+04 0.  0.
        1    1    3    3  502    0  0.38835542396E+03  0.17201827613E+04  0.16436172536E+04  0.24106692730E+04  0.50400001928E-02 0. -1.
       -1    1    3    3    0  502 -0.38835542396E+03 -0.17201827613E+04 -0.14649252737E+03  0.17695504311E+04  0.50400001928E-02 0.  1.
</event>
<event>
 5   0  0.4750125E-08  0.3902295E+04  0.7818609E-02  0.8024552E-01
       -1   -1    0    0    0  501  0.00000000000E+00  0.00000000000E+00  0.18573627408E+04  0.18573627408E+04  0.50400001928E-02 0. -1.
        1   -1    0    0  501    0  0.00000000000E+00  0.00000000000E+00 -0.20496674782E+04  0.20496674782E+04  0.50400001928E-02 0.  1.
    10030    2    1    2    0    0  0.00000000000E+00  0.00000000000E+00 -0.19230473745E+03  0.39070302190E+04  0.39022947122E+04 0.  0.
        4    1    3    3  502    0 -0.56213075644E+03  0.18274930417E+04 -0.48553637674E+03  0.19726806612E+04  0.12699999809E+01 0.  1.
       -4    1    3    3    0  502  0.56213075644E+03 -0.18274930417E+04  0.29323163929E+03  0.19343495579E+04  0.12699999809E+01 0. -1.
</event>
<event>
 5   0  0.1501585E-07  0.3843801E+04  0.7818609E-02  0.8036820E-01
        2   -1    0    0  501    0  0.00000000000E+00  0.00000000000E+00  0.26356543218E+04  0.26356543218E+04  0.25500000920E-02 0. -1.
       -2   -1    0    0    0  501  0.00000000000E+00  0.00000000000E+00 -0.14014365312E+04  0.14014365312E+04  0.25500000920E-02 0.  1.
    10030    2    1    2    0    0  0.00000000000E+00  0.00000000000E+00  0.12342177906E+04  0.40370908529E+04  0.38438013736E+04 0.  0.
        5    1    3    3  502    0 -0.79792285175E+03 -0.72305595284E+03 -0.10548558589E+04  0.15073930348E+04  0.46999998093E+01 0.  1.
       -5    1    3    3    0  502  0.79792285175E+03  0.72305595284E+03  0.22890736495E+04  0.25296978181E+04  0.46999998093E+01 0. -1.
</event>
<event>
 5   0  0.4762788E-08  0.3940854E+04  0.7818609E-02  0.8016586E-01
        1   -1    0    0  501    0  0.00000000000E+00  0.00000000000E+00  0.27327399309E+04  0.27327399309E+04  0.50400001928E-02 0. -1.
       -1   -1    0    0    0  501  0.00000000000E+00  0.00000000000E+00 -0.14207653850E+04  0.14207653850E+04  0.50400001928E-02 0.  1.
    10030    2    1    2    0    0  0.00000000000E+00  0.00000000000E+00  0.13119745459E+04  0.41535053159E+04  0.39408538669E+04 0.  0.
        2    1    3    3  502    0 -0.79625563410E+03  0.16375276429E+04  0.14496571507E+04  0.23274504658E+04  0.25500000920E-02 0. -1.
       -2    1    3    3    0  502  0.79625563410E+03 -0.16375276429E+04 -0.13768260478E+03  0.18260548502E+04  0.25500000920E-02 0.  1.
</event>
<event>
 5   0  0.4750125E-08  0.3904040E+04  0.7818609E-02  0.8024189E-01
       -1   -1    0    0    0  501  0.00000000000E+00  0.00000000000E+00  0.17765129501E+04  0.17765129501E+04  0.50400001928E-02 0.  1.
        1   -1    0    0  501    0  0.00000000000E+00  0.00000000000E+00 -0.21448661495E+04  0.21448661495E+04  0.50400001928E-02 0. -1.
    10030    2    1    2    0    0  0.00000000000E+00  0.00000000000E+00 -0.36835319937E+03  0.39213790996E+04  0.39040402102E+04 0.  0.
        5    1    3    3  502    0  0.93617497510E+03  0.58163755792E+01  0.15362946605E+04  0.17990777604E+04  0.46999998093E+01 0.  1.
       -5    1    3    3    0  502 -0.93617497510E+03 -0.58163755792E+01 -0.19046478598E+04  0.21223013392E+04  0.46999998093E+01 0. -1.
</event>
<event>
 5   0  0.4750125E-08  0.3411022E+04  0.7818609E-02  0.8135207E-01
       -1   -1    0    0    0  501  0.00000000000E+00  0.00000000000E+00  0.12230819726E+04  0.12230819726E+04  0.50400001928E-02 0.  1.
        1   -1    0    0  501    0  0.00000000000E+00  0.00000000000E+00 -0.23782273747E+04  0.23782273747E+04  0.50400001928E-02 0. -1.
    10030    2    1    2    0    0  0.00000000000E+00  0.00000000000E+00 -0.11551454021E+04  0.36013093473E+04  0.34110215647E+04 0.  0.
        3    1    3    3  502    0  0.13419429464E+04  0.93732964876E+03 -0.10832152195E+04  0.19628430818E+04  0.10100000352E+00 0. -1.
       -3    1    3    3    0  502 -0.13419429464E+04 -0.93732964876E+03 -0.71930182631E+02  0.16384662655E+04  0.10100000352E+00 0.  1.
</event>
<event>
 5   0  0.1501585E-07  0.3890263E+04  0.7818609E-02  0.8027057E-01
        2   -1    0    0  501    0  0.00000000000E+00  0.00000000000E+00  0.25697334462E+04  0.25697334462E+04  0.25500000920E-02 0. -1.
       -2   -1    0    0    0  501  0.00000000000E+00  0.00000000000E+00 -0.14723459923E+04  0.14723459923E+04  0.25500000920E-02 0.  1.
    10030    2    1    2    0    0  0.00000000000E+00  0.00000000000E+00  0.10973874540E+04  0.40420794385E+04  0.38902630969E+04 0.  0.
        5    1    3    3  502    0  0.18002622716E+03 -0.18709634725E+04  0.28557410098E+02  0.18798274850E+04  0.46999998093E+01 0.  1.
       -5    1    3    3    0  502 -0.18002622716E+03  0.18709634725E+04  0.10688300439E+04  0.21622519535E+04  0.46999998093E+01 0. -1.
</event>
<event>
 5   0  0.4762788E-08  0.3927871E+04  0.7818609E-02  0.8019257E-01
       -1   -1    0    0    0  501  0.00000000000E+00  0.00000000000E+00  0.20117874185E+04  0.20117874185E+04  0.50400001928E-02 0. -1.
        1   -1    0    0  501    0  0.00000000000E+00  0.00000000000E+00 -0.19172219143E+04  0.19172219143E+04  0.50400001928E-02 0.  1.
    10030    2    1    2    0    0  0.00000000000E+00  0.00000000000E+00  0.94565504178E+02  0.39290093328E+04  0.39278711413E+04 0.  0.
        2    1    3    3  502    0  0.29708666187E+03 -0.89082376980E+03 -0.16780983585E+04  0.19229772683E+04  0.25500000920E-02 0.  1.
       -2    1    3    3    0  502 -0.29708666187E+03  0.89082376980E+03  0.17726638627E+04  0.20060320645E+04  0.25500000920E-02 0. -1.
</event>
<event>
 5   0  0.4750125E-08  0.3901051E+04  0.7818609E-02  0.8024811E-01
       -1   -1    0    0    0  501  0.00000000000E+00  0.00000000000E+00  0.25605677746E+04  0.25605677746E+04  0.50400001928E-02 0.  1.
        1   -1    0    0  501    0  0.00000000000E+00  0.00000000000E+00 -0.14858226215E+04  0.14858226215E+04  0.50400001928E-02 0. -1.
    10030    2    1    2    0    0  0.00000000000E+00  0.00000000000E+00  0.10747451531E+04  0.40463903961E+04  0.39010508961E+04 0.  0.
        3    1    3    3  502    0 -0.64833601163E+03  0.93415971958E+03 -0.11064599086E+04  0.15865835954E+04  0.10100000352E+00 0. -1.
       -3    1    3    3    0  502  0.64833601163E+03 -0.93415971958E+03  0.21812050616E+04  0.24598068007E+04  0.10100000352E+00 0.  1.
</event>
<event>
 5   0  0.1503228E-07  0.3895791E+04  0.7818609E-02  0.8025905E-01
        2   -1    0    0  501    0  0.00000000000E+00  0.00000000000E+00  0.26925054711E+04  0.26925054711E+04  0.25500000920E-02 0. -1.
       -2   -1    0    0    0  501  0.00000000000E+00  0.00000000000E+00 -0.14092068499E+04  0.14092068499E+04  0.25500000920E-02 0.  1.
    10030    2    1    2    0    0  0.00000000000E+00  0.00000000000E+00  0.12832986212E+04  0.41017123210E+04  0.38957911409E+04 0.  0.
        3    1    3    3  502    0  0.67733541283E+03  0.18217029863E+04  0.50472881988E+03  0.20080179839E+04  0.10100000352E+00 0.  1.
       -3    1    3    3    0  502 -0.67733541283E+03 -0.18217029863E+04  0.77856980129E+03  0.20936943371E+04  0.10100000352E+00 0. -1.
</event>
<event>
 5   0  0.1501585E-07  0.3898192E+04  0.7818609E-02  0.8025405E-01
       -2   -1    0    0    0  501  0.00000000000E+00  0.00000000000E+00  0.15399177420E+04  0.15399177420E+04  0.25500000920E-02 0. -1.
        2   -1    0    0  501    0  0.00000000000E+00  0.00000000000E+00 -0.24669993345E+04  0.24669993345E+04  0.25500000920E-02 0.  1.
    10030    2    1    2    0    0  0.00000000000E+00  0.00000000000E+00 -0.92708159251E+03  0.40069170765E+04  0.38981924245E+04 0.  0.
        5    1    3    3  502    0  0.14809003593E+04  0.11944489888E+04 -0.28438398650E+02  0.19027887675E+04  0.46999998093E+01 0.  1.
       -5    1    3    3    0  502 -0.14809003593E+04 -0.11944489888E+04 -0.89864319386E+03  0.21041283090E+04  0.46999998093E+01 0. -1.
</event>
<event>
 5   0  0.1538018E-07  0.3968899E+04  0.7818609E-02  0.8010850E-01
       -2   -1    0    0    0  501  0.00000000000E+00  0.00000000000E+00  0.15898535222E+04  0.15898535223E+04  0.25500000920E-02 0. -1.
        2   -1    0    0  501    0  0.00000000000E+00  0.00000000000E+00 -0.24769824014E+04  0.24769824014E+04  0.25500000920E-02 0.  1.
    10030    2    1    2    0    0  0.00000000000E+00  0.00000000000E+00 -0.88712887920E+03  0.40668359237E+04  0.39688986863E+04 0.  0.
        1    1    3    3  502    0 -0.10917181598E+04 -0.13805656368E+04 -0.13828237693E+04  0.22383055187E+04  0.50400001928E-02 0.  1.
       -1    1    3    3    0  502  0.10917181598E+04  0.13805656368E+04  0.49569489006E+03  0.18285304050E+04  0.50400001928E-02 0. -1.
</event>
<event>
 5   0  0.4750125E-08  0.3885171E+04  0.7818609E-02  0.8028120E-01
       -1   -1    0    0    0  501  0.00000000000E+00  0.00000000000E+00  0.23509863820E+04  0.23509863820E+04  0.50400001928E-02 0.  1.
        1   -1    0    0  501    0  0.00000000000E+00  0.00000000000E+00 -0.16051302277E+04  0.16051302277E+04  0.50400001928E-02 0. -1.
    10030    2    1    2    0    0  0.00000000000E+00  0.00000000000E+00  0.74585615432E+03  0.39561166097E+04  0.38851714540E+04 0.  0.
        4    1    3    3  502    0  0.14090091800E+04 -0.11907405317E+03 -0.98336745625E+03  0.17223526545E+04  0.12699999809E+01 0. -1.
       -4    1    3    3    0  502 -0.14090091800E+04  0.11907405317E+03  0.17292236106E+04  0.22337639552E+04  0.12699999809E+01 0.  1.
</event>
<event>
 5   0  0.4750125E-08  0.3896540E+04  0.7818609E-02  0.8025749E-01
       -1   -1    0    0    0  501  0.00000000000E+00  0.00000000000E+00  0.33178545294E+04  0.33178545294E+04  0.50400001928E-02 0.  1.
        1   -1    0    0  501    0  0.00000000000E+00  0.00000000000E+00 -0.11440394081E+04  0.11440394081E+04  0.50400001928E-02 0. -1.
    10030    2    1    2    0    0  0.00000000000E+00  0.00000000000E+00  0.21738151213E+04  0.44618939375E+04  0.38965401741E+04 0.  0.
        5    1    3    3  502    0  0.32847073416E+03 -0.28695859806E+03  0.32612232131E+04  0.32902640010E+04  0.46999998093E+01 0.  1.
       -5    1    3    3    0  502 -0.32847073416E+03  0.28695859806E+03 -0.10874080918E+04  0.11716299366E+04  0.46999998093E+01 0. -1.
</event>
<event>
 5   0  0.4750125E-08  0.3955727E+04  0.7818609E-02  0.8013538E-01
        1   -1    0    0  501    0  0.00000000000E+00  0.00000000000E+00  0.25795077829E+04  0.25795077829E+04  0.50400001928E-02 0. -1.
       -1   -1    0    0    0  501  0.00000000000E+00  0.00000000000E+00 -0.15165465009E+04  0.15165465009E+04  0.50400001928E-02 0.  1.
    10030    2    1    2    0    0  0.00000000000E+00  0.00000000000E+00  0.10629612819E+04  0.40960542838E+04  0.39557267359E+04 0.  0.
        3    1    3    3  502    0 -0.44344096410E+03  0.99750104197E+03  0.22393216768E+04  0.24912265653E+04  0.10100000352E+00 0. -1.
       -3    1    3    3    0  502  0.44344096410E+03 -0.99750104197E+03 -0.11763603948E+04  0.16048277185E+04  0.10100000352E+00 0.  1.
</event>
<event>
 5   0  0.1546846E-07  0.3898449E+04  0.7818609E-02  0.8025352E-01
       -2   -1    0    0    0  501  0.00000000000E+00  0.00000000000E+00  0.33206080991E+04  0.33206080991E+04  0.25500000920E-02 0.  1.
        2   -1    0    0  501    0  0.00000000000E+00  0.00000000000E+00 -0.11442111470E+04  0.11442111470E+04  0.25500000920E-02 0. -1.
    10030    2    1    2    0    0  0.00000000000E+00  0.00000000000E+00  0.21763969520E+04  0.44648192461E+04  0.38984493337E+04 0.  0.
        2    1    3    3  502    0  0.40059642567E+03 -0.34073965999E+03 -0.10614224718E+04  0.11845668727E+04  0.25500000920E-02 0. -1.
       -2    1    3    3    0  502 -0.40059642567E+03  0.34073965999E+03  0.32378194238E+04  0.32802523734E+04  0.25500000920E-02 0.  1.
</event>
<event>
 5   0  0.4750125E-08  0.3918029E+04  0.7818609E-02  0.8021290E-01
        1   -1    0    0  501    0  0.00000000000E+00  0.00000000000E+00  0.12709172698E+04  0.12709172698E+04  0.50400001928E-02 0. -1.
       -1   -1    0    0    0  501  0.00000000000E+00  0.00000000000E+00 -0.30196598131E+04  0.30196598131E+04  0.50400001928E-02 0.  1.
    10030    2    1    2    0    0  0.00000000000E+00  0.00000000000E+00 -0.17487425433E+04  0.42905770830E+04  0.39180289971E+04 0.  0.
        3    1    3    3  502    0  0.77431402829E+03 -0.17575126234E+04 -0.45120186166E+03  0.19728142249E+04  0.10100000352E+00 0. -1.
       -3    1    3    3    0  502 -0.77431402829E+03  0.17575126234E+04 -0.12975406816E+04  0.23177628581E+04  0.10100000352E+00 0.  1.
</event>
<event>
 5   0  0.4762788E-08  0.3869276E+04  0.7818609E-02  0.8031450E-01
        1   -1    0    0  501    0  0.00000000000E+00  0.00000000000E+00  0.22536474102E+04  0.22536474102E+04  0.50400001928E-02 0.  1.
       -1   -1    0    0    0  501  0.00000000000E+00  0.00000000000E+00 -0.16607848391E+04  0.16607848391E+04  0.50400001928E-02 0. -1.
    10030    2    1    2    0    0  0.00000000000E+00  0.00000000000E+00  0.59286257106E+03  0.39144322493E+04  0.38692756178E+04 0.  0.
        2    1    3    3  502    0 -0.18326811983E+04 -0.50704434731E+03 -0.64111280122E+02  0.19026099445E+04  0.25500000920E-02 0.  1.
       -2    1    3    3    0  502  0.18326811983E+04  0.50704434731E+03  0.65697385118E+03  0.20118223048E+04  0.25500000920E-02 0. -1.
</event>
<event>
 5   0  0.4750125E-08  0.3905357E+04  0.7818609E-02  0.8023916E-01
       -1   -1    0    0    0  501  0.00000000000E+00  0.00000000000E+00  0.23336681048E+04  0.23336681048E+04  0.50400001928E-02 0. -1.
        1   -1    0    0  501    0  0.00000000000E+00  0.00000000000E+00 -0.16338882838E+04  0.16338882838E+04  0.50400001928E-02 0.  1.
    10030    2    1    2    0    0  0.00000000000E+00  0.00000000000E+00  0.69977982103E+03  0.39675563887E+04  0.39053568210E+04 0.  0.
        4    1    3    3  502    0  0.11423762368E+04  0.14259785979E+04 -0.34993019409E+03  0.18603470595E+04  0.12699999809E+01 0.  1.
       -4    1    3    3    0  502 -0.11423762368E+04 -0.14259785979E+04  0.10497100151E+04  0.21072093292E+04  0.12699999809E+01 0. -1.
</event>
<event>
 5   0  0.1503228E-07  0.3906315E+04  0.7818609E-02  0.8023717E-01
        2   -1    0    0  501    0  0.00000000000E+00  0.00000000000E+00  0.20387563479E+04  0.20387563479E+04  0.25500000920E-02 0.  1.
       -2   -1    0    0    0  501  0.00000000000E+00  0.00000000000E+00 -0.18711523465E+04  0.18711523465E+04  0.25500000920E-02 0. -1.
    10030    2    1    2    0    0  0.00000000000E+00  0.00000000000E+00  0.16760400140E+03  0.39099086944E+04  0.39063147463E+04 0.  0.
        3    1    3    3  502    0  0.15559679559E+04 -0.11305268311E+04  0.42425685270E+03  0.19695484464E+04  0.10100000352E+00 0. -1.
       -3    1    3    3    0  502 -0.15559679559E+04  0.11305268311E+04 -0.25665285131E+03  0.19403602480E+04  0.10100000352E+00 0.  1.
</event>
<event>
 5   0  0.1503228E-07  0.3897601E+04  0.7818609E-02  0.8025528E-01
        2   -1    0    0  501    0  0.00000000000E+00  0.00000000000E+00  0.23591688437E+04  0.23591688437E+04  0.25500000920E-02 0.  1.
       -2   -1    0    0    0  501  0.00000000000E+00  0.00000000000E+00 -0.16098139875E+04  0.16098139875E+04  0.25500000920E-02 0. -1.
    10030    2    1    2    0    0  0.00000000000E+00  0.00000000000E+00  0.74935485619E+03  0.39689828313E+04  0.38976008023E+04 0.  0.
        3    1    3    3  502    0 -0.13758319048E+04 -0.87241253229E+03  0.14637530515E+04  0.21901118836E+04  0.10100000352E+00 0.  1.
       -3    1    3    3    0  502  0.13758319048E+04  0.87241253229E+03 -0.71439819533E+03  0.17788709476E+04  0.10100000352E+00 0. -1.
</event>
<event>
 5   0  0.4762788E-08  0.3853878E+04  0.7818609E-02  0.8034691E-01
        1   -1    0    0  501    0  0.00000000000E+00  0.00000000000E+00  0.22806275553E+04  0.22806275553E+04  0.50400001928E-02 0. -1.
       -1   -1    0    0    0  501  0.00000000000E+00  0.00000000000E+00 -0.16281015603E+04  0.16281015603E+04  0.50400001928E-02 0.  1.
    10030    2    1    2    0    0  0.00000000000E+00  0.00000000000E+00  0.65252599501E+03  0.39087291156E+04  0.38538776738E+04 0.  0.
        2    1    3    3  502    0  0.13020349090E+04 -0.32051120781E+03  0.17298200852E+04  0.21886753678E+04  0.25500000920E-02 0. -1.
       -2    1    3    3    0  502 -0.13020349090E+04  0.32051120781E+03 -0.10772940902E+04  0.17200537478E+04  0.25500000920E-02 0.  1.
</event>
<event>
 5   0  0.4750125E-08  0.3943253E+04  0.7818609E-02  0.8016093E-01
       -1   -1    0    0    0  501  0.00000000000E+00  0.00000000000E+00  0.23474103878E+04  0.23474103878E+04  0.50400001928E-02 0.  1.
        1   -1    0    0  501    0  0.00000000000E+00  0.00000000000E+00 -0.16559995840E+04  0.16559995840E+04  0.50400001928E-02 0. -1.
    10030    2    1    2    0    0  0.00000000000E+00  0.00000000000E+00  0.69141080371E+03  0.40034099718E+04  0.39432527820E+04 0.  0.
        5    1    3    3  502    0  0.40906524194E+03  0.11056146165E+04  0.19501854641E+04  0.22788074703E+04  0.46999998093E+01 0.  1.
       -5    1    3    3    0  502 -0.40906524194E+03 -0.11056146165E+04 -0.12587746604E+04  0.17246025015E+04  0.46999998093E+01 0. -1.
</event>
<event>
 5   0  0.1501585E-07  0.3943274E+04  0.7818609E-02  0.8016089E-01
       -2   -1    0    0    0  501  0.00000000000E+00  0.00000000000E+00  0.16082554952E+04  0.16082554952E+04  0.25500000920E-02 0.  1.
        2   -1    0    0  501    0  0.00000000000E+00  0.00000000000E+00 -0.24171242391E+04  0.24171242391E+04  0.25500000920E-02 0. -1.
    10030    2    1    2    0    0  0.00000000000E+00  0.00000000000E+00 -0.80886874390E+03  0.40253797343E+04  0.39432744465E+04 0.  0.
        5    1    3    3  502    0 -0.14635852148E+04 -0.10772761905E+04 -0.11850296098E+04  0.21695444079E+04  0.46999998093E+01 0.  1.
       -5    1    3    3    0  502  0.14635852148E+04  0.10772761905E+04  0.37616086588E+03  0.18558353264E+04  0.46999998093E+01 0. -1.
</event>
<event>
 5   0  0.1538018E-07  0.3958641E+04  0.7818609E-02  0.8012942E-01
       -2   -1    0    0    0  501  0.00000000000E+00  0.00000000000E+00  0.15823467390E+04  0.15823467390E+04  0.25500000920E-02 0. -1.
        2   -1    0    0  501    0  0.00000000000E+00  0.00000000000E+00 -0.24758855824E+04  0.24758855824E+04  0.25500000920E-02 0.  1.
    10030    2    1    2    0    0  0.00000000000E+00  0.00000000000E+00 -0.89353884337E+03  0.40582323215E+04  0.39586409171E+04 0.  0.
        1    1    3    3  502    0  0.19461970992E+04  0.37370384433E+02 -0.79096569130E+02  0.19481622011E+04  0.50400001928E-02 0. -1.
       -1    1    3    3    0  502 -0.19461970992E+04 -0.37370384433E+02 -0.81444227424E+03  0.21100701203E+04  0.50400001928E-02 0.  1.
</event>
<event>
 5   0  0.4750125E-08  0.4067351E+04  0.7818609E-02  0.7991096E-01
       -1   -1    0    0    0  501  0.00000000000E+00  0.00000000000E+00  0.14383454764E+04  0.14383454764E+04  0.50400001928E-02 0.  1.
        1   -1    0    0  501    0  0.00000000000E+00  0.00000000000E+00 -0.28754120080E+04  0.28754120081E+04  0.50400001928E-02 0. -1.
    10030    2    1    2    0    0  0.00000000000E+00  0.00000000000E+00 -0.14370665316E+04  0.43137574845E+04  0.40673509092E+04 0.  0.
        4    1    3    3  502    0  0.15177289133E+04 -0.48590649255E+03  0.62142587215E+03  0.17104905441E+04  0.12699999809E+01 0.  1.
       -4    1    3    3    0  502 -0.15177289133E+04  0.48590649255E+03 -0.20584924038E+04  0.26032669404E+04  0.12699999809E+01 0. -1.
</event>
<event>
 5   0  0.1520986E-07  0.4004138E+04  0.7818609E-02  0.8003712E-01
       -2   -1    0    0    0  501  0.00000000000E+00  0.00000000000E+00  0.17997325812E+04  0.17997325812E+04  0.25500000920E-02 0. -1.
        2   -1    0    0  501    0  0.00000000000E+00  0.00000000000E+00 -0.22271535651E+04  0.22271535651E+04  0.25500000920E-02 0.  1.
    10030    2    1    2    0    0  0.00000000000E+00  0.00000000000E+00 -0.42742098396E+03  0.40268861463E+04  0.40041382766E+04 0.  0.
        4    1    3    3  502    0 -0.38197464328E+03  0.39021305139E+02  0.17623573797E+04  0.18036996527E+04  0.12699999809E+01 0. -1.
       -4    1    3    3    0  502  0.38197464328E+03 -0.39021305139E+02 -0.21897783637E+04  0.22231864936E+04  0.12699999809E+01 0.  1.
</event>
<event>
 5   0  0.1503228E-07  0.3921844E+04  0.7818609E-02  0.8020501E-01
       -2   -1    0    0    0  501  0.00000000000E+00  0.00000000000E+00  0.18331402298E+04  0.18331402298E+04  0.25500000920E-02 0. -1.
        2   -1    0    0  501    0  0.00000000000E+00  0.00000000000E+00 -0.20976106342E+04  0.20976106342E+04  0.25500000920E-02 0.  1.
    10030    2    1    2    0    0  0.00000000000E+00  0.00000000000E+00 -0.26447040431E+03  0.39307508640E+04  0.39218436685E+04 0.  0.
        3    1    3    3  502    0  0.32158168035E+03 -0.13975296122E+04  0.12082292002E+04  0.18751857520E+04  0.10100000352E+00 0. -1.
       -3    1    3    3    0  502 -0.32158168035E+03  0.13975296122E+04 -0.14726996046E+04  0.20555651120E+04  0.10100000352E+00 0.  1.
</event>
<event>
 5   0  0.1501585E-07  0.3631370E+04  0.7818609E-02  0.8083344E-01
        2   -1    0    0  501    0  0.00000000000E+00  0.00000000000E+00  0.22492579478E+04  0.22492579478E+04  0.25500000920E-02 0.  1.
       -2   -1    0    0    0  501  0.00000000000E+00  0.00000000000E+00 -0.14656885275E+04  0.14656885275E+04  0.25500000920E-02 0. -1.
    10030    2    1    2    0    0  0.00000000000E+00  0.00000000000E+00  0.78356942028E+03  0.37149464753E+04  0.36313697523E+04 0.  0.
        5    1    3    3  502    0  0.14436217206E+04 -0.22720099698E+03  0.14940927397E+04  0.20899758779E+04  0.46999998093E+01 0.  1.
       -5    1    3    3    0  502 -0.14436217206E+04  0.22720099698E+03 -0.71052331943E+03  0.16249705975E+04  0.46999998093E+01 0. -1.
</event>
<event>
 5   0  0.1501585E-07  0.4314649E+04  0.7818609E-02  0.7943915E-01
        2   -1    0    0  501    0  0.00000000000E+00  0.00000000000E+00  0.25448332573E+04  0.25448332573E+04  0.25500000920E-02 0.  1.
       -2   -1    0    0    0  501  0.00000000000E+00  0.00000000000E+00 -0.18288229346E+04  0.18288229346E+04  0.25500000920E-02 0. -1.
    10030    2    1    2    0    0  0.00000000000E+00  0.00000000000E+00  0.71601032276E+03  0.43736561919E+04  0.43146491981E+04 0.  0.
        5    1    3    3  502    0  0.15094553203E+04  0.18458938579E+03  0.19091277154E+04  0.24407620386E+04  0.46999998093E+01 0.  1.
       -5    1    3    3    0  502 -0.15094553203E+04 -0.18458938579E+03 -0.11931173926E+04  0.19328941533E+04  0.46999998093E+01 0. -1.
</event>
<event>
 5   0  0.1501585E-07  0.3827739E+04  0.7818609E-02  0.8040228E-01
       -2   -1    0    0    0  501  0.00000000000E+00  0.00000000000E+00  0.22670394686E+04  0.22670394686E+04  0.25500000920E-02 0.  1.
        2   -1    0    0  501    0  0.00000000000E+00  0.00000000000E+00 -0.16157180596E+04  0.16157180596E+04  0.25500000920E-02 0. -1.
    10030    2    1    2    0    0  0.00000000000E+00  0.00000000000E+00  0.65132140892E+03  0.38827575282E+04  0.38277390775E+04 0.  0.
        5    1    3    3  502    0  0.50320424707E+03 -0.65797654446E+03  0.20757791361E+04  0.22349560978E+04  0.46999998093E+01 0.  1.
       -5    1    3    3    0  502 -0.50320424707E+03  0.65797654446E+03 -0.14244577272E+04  0.16478014304E+04  0.46999998093E+01 0. -1.
</event>
<event>
 5   0  0.4750125E-08  0.3884478E+04  0.7818609E-02  0.8028265E-01
        1   -1    0    0  501    0  0.00000000000E+00  0.00000000000E+00  0.28371158626E+04  0.28371158626E+04  0.50400001928E-02 0.  1.
       -1   -1    0    0    0  501  0.00000000000E+00  0.00000000000E+00 -0.13296222219E+04  0.13296222219E+04  0.50400001928E-02 0. -1.
    10030    2    1    2    0    0  0.00000000000E+00  0.00000000000E+00  0.15074936406E+04  0.41667380845E+04  0.38844779814E+04 0.  0.
        5    1    3    3  502    0  0.18012070025E+04 -0.72518393294E+03  0.70539592553E+03  0.20658760621E+04  0.46999998093E+01 0. -1.
       -5    1    3    3    0  502 -0.18012070025E+04  0.72518393294E+03  0.80209771509E+03  0.21008620223E+04  0.46999998093E+01 0.  1.
</event>
<event>
 5   0  0.1538018E-07  0.3912640E+04  0.7818609E-02  0.8022405E-01
        2   -1    0    0  501    0  0.00000000000E+00  0.00000000000E+00  0.10810470406E+04  0.10810470406E+04  0.25500000920E-02 0. -1.
       -2   -1    0    0    0  501  0.00000000000E+00  0.00000000000E+00 -0.35402609046E+04  0.35402609046E+04  0.25500000920E-02 0.  1.
    10030    2    1    2    0    0  0.00000000000E+00  0.00000000000E+00 -0.24592138640E+04  0.46213079451E+04  0.39126403227E+04 0.  0.
        1    1    3    3  502    0  0.11913329006E+04 -0.41305242639E+03 -0.29962845471E+04  0.32507856703E+04  0.50400001928E-02 0.  1.
       -1    1    3    3    0  502 -0.11913329006E+04  0.41305242639E+03  0.53707068311E+03  0.13705222748E+04  0.50400001928E-02 0. -1.
</event>
<event>
 5   0  0.4762788E-08  0.3433618E+04  0.7818609E-02  0.8129704E-01
        1   -1    0    0  501    0  0.00000000000E+00  0.00000000000E+00  0.15720971926E+04  0.15720971926E+04  0.50400001928E-02 0. -1.
       -1   -1    0    0    0  501  0.00000000000E+00  0.00000000000E+00 -0.18748418526E+04  0.18748418526E+04  0.50400001928E-02 0.  1.
    10030    2    1    2    0    0  0.00000000000E+00  0.00000000000E+00 -0.30274466001E+03  0.34469390452E+04  0.34336182741E+04 0.  0.
        2    1    3    3  502    0 -0.58401791268E+03 -0.31254213034E+03  0.14386518014E+04  0.15838177014E+04  0.25500000920E-02 0. -1.
       -2    1    3    3    0  502  0.58401791268E+03  0.31254213034E+03 -0.17413964615E+04  0.18631213437E+04  0.25500000920E-02 0.  1.
</event>
<event>
 5   0  0.4750125E-08  0.3894599E+04  0.7818609E-02  0.8026153E-01
        1   -1    0    0  501    0  0.00000000000E+00  0.00000000000E+00  0.14679219927E+04  0.14679219927E+04  0.50400001928E-02 0.  1.
       -1   -1    0    0    0  501  0.00000000000E+00  0.00000000000E+00 -0.25832273032E+04  0.25832273032E+04  0.50400001928E-02 0. -1.
    10030    2    1    2    0    0  0.00000000000E+00  0.00000000000E+00 -0.11153053105E+04  0.40511492959E+04  0.38945994251E+04 0.  0.
        4    1    3    3  502    0 -0.10179570366E+04  0.84432852988E+03 -0.20443871303E+04  0.24348814234E+04  0.12699999809E+01 0. -1.
       -4    1    3    3    0  502  0.10179570366E+04 -0.84432852988E+03  0.92908181974E+03  0.16162678724E+04  0.12699999809E+01 0.  1.
</event>
<event>
 5   0  0.4750125E-08  0.3900796E+04  0.7818609E-02  0.8024864E-01
       -1   -1    0    0    0  501  0.00000000000E+00  0.00000000000E+00  0.23485995381E+04  0.23485995381E+04  0.50400001928E-02 0.  1.
        1   -1    0    0  501    0  0.00000000000E+00  0.00000000000E+00 -0.16197112504E+04  0.16197112504E+04  0.50400001928E-02 0. -1.
    10030    2    1    2    0    0  0.00000000000E+00  0.00000000000E+00  0.72888828765E+03  0.39683107885E+04  0.39007963774E+04 0.  0.
        3    1    3    3  502    0 -0.13789496890E+04  0.13855489100E+02 -0.10386881503E+04  0.17264319573E+04  0.10100000352E+00 0. -1.
       -3    1    3    3    0  502  0.13789496890E+04 -0.13855489100E+02  0.17675764380E+04  0.22418788312E+04  0.10100000352E+00 0.  1.
</event>
<event>
 5   0  0.1538018E-07  0.3882356E+04  0.7818609E-02  0.8028709E-01
       -2   -1    0    0    0  501  0.00000000000E+00  0.00000000000E+00  0.14837249407E+04  0.14837249407E+04  0.25500000920E-02 0.  1.
        2   -1    0    0  501    0  0.00000000000E+00  0.00000000000E+00 -0.25396707457E+04  0.25396707457E+04  0.25500000920E-02 0. -1.
    10030    2    1    2    0    0  0.00000000000E+00  0.00000000000E+00 -0.10559458051E+04  0.40233956864E+04  0.38823564116E+04 0.  0.
        1    1    3    3  502    0  0.16384215312E+04 -0.71721562597E+03  0.25399116959E+03  0.18064702827E+04  0.50400001928E-02 0.  1.
       -1    1    3    3    0  502 -0.16384215312E+04  0.71721562597E+03 -0.13099369746E+04  0.22169254037E+04  0.50400001928E-02 0. -1.
</event>
<event>
 5   0  0.4750125E-08  0.3899688E+04  0.7818609E-02  0.8025094E-01
       -1   -1    0    0    0  501  0.00000000000E+00  0.00000000000E+00  0.12484657321E+04  0.12484657321E+04  0.50400001928E-02 0.  1.
        1   -1    0    0  501    0  0.00000000000E+00  0.00000000000E+00 -0.30452512816E+04  0.30452512816E+04  0.50400001928E-02 0. -1.
    10030    2    1    2    0    0  0.00000000000E+00  0.00000000000E+00 -0.17967855495E+04  0.42937170138E+04  0.38996881264E+04 0.  0.
        4    1    3    3  502    0  0.58479745628E+03  0.14158208078E+04  0.42988164519E+03  0.15910174312E+04  0.12699999809E+01 0.  1.
       -4    1    3    3    0  502 -0.58479745628E+03 -0.14158208078E+04 -0.22266671947E+04  0.27026995826E+04  0.12699999809E+01 0. -1.
</event>
<event>
 5   0  0.4750125E-08  0.3709768E+04  0.7818609E-02  0.8065800E-01
        1   -1    0    0  501    0  0.00000000000E+00  0.00000000000E+00  0.29772139176E+04  0.29772139176E+04  0.50400001928E-02 0.  1.
       -1   -1    0    0    0  501  0.00000000000E+00  0.00000000000E+00 -0.11556426130E+04  0.11556426130E+04  0.50400001928E-02 0. -1.
    10030    2    1    2    0    0  0.00000000000E+00  0.00000000000E+00  0.18215713046E+04  0.41328565306E+04  0.37097683331E+04 0.  0.
        4    1    3    3  502    0 -0.16038798180E+04  0.34658089591E+03  0.18743203624E+04  0.24911096366E+04  0.12699999809E+01 0.  1.
       -4    1    3    3    0  502  0.16038798180E+04 -0.34658089591E+03 -0.52749057774E+02  0.16417468940E+04  0.12699999809E+01 0. -1.
</event>
<event>
 5   0  0.4750125E-08  0.3943092E+04  0.7818609E-02  0.8016126E-01
        1   -1    0    0  501    0  0.00000000000E+00  0.00000000000E+00  0.25573192240E+04  0.25573192240E+04  0.50400001928E-02 0. -1.
       -1   -1    0    0    0  501  0.00000000000E+00  0.00000000000E+00 -0.15199484134E+04  0.15199484134E+04  0.50400001928E-02 0.  1.
    10030    2    1    2    0    0  0.00000000000E+00  0.00000000000E+00  0.10373708106E+04  0.40772676374E+04  0.39430918311E+04 0.  0.
        5    1    3    3  502    0 -0.19300467786E+04 -0.20609554418E+03  0.16136135005E+03  0.19477205950E+04  0.46999998093E+01 0. -1.
       -5    1    3    3    0  502  0.19300467786E+04  0.20609554418E+03  0.87600946051E+03  0.21295470424E+04  0.46999998093E+01 0.  1.
</event>
<event>
 5   0  0.1546846E-07  0.3872396E+04  0.7818609E-02  0.8030795E-01
       -2   -1    0    0    0  501  0.00000000000E+00  0.00000000000E+00  0.13252789616E+04  0.13252789616E+04  0.25500000920E-02 0.  1.
        2   -1    0    0  501    0  0.00000000000E+00  0.00000000000E+00 -0.28287348031E+04  0.28287348031E+04  0.25500000920E-02 0. -1.
    10030    2    1    2    0    0  0.00000000000E+00  0.00000000000E+00 -0.15034558416E+04  0.41540137647E+04  0.38723960141E+04 0.  0.
        2    1    3    3  502    0 -0.15013236847E+04  0.90397898838E+03  0.13137378600E+03  0.17573872337E+04  0.25500000920E-02 0.  1.
       -2    1    3    3    0  502  0.15013236847E+04 -0.90397898838E+03 -0.16348296276E+04  0.23966265309E+04  0.25500000920E-02 0. -1.
</event>
<event>
 5   0  0.1520986E-07  0.3914947E+04  0.7818609E-02  0.8021928E-01
       -2   -1    0    0    0  501  0.00000000000E+00  0.00000000000E+00  0.18276328083E+04  0.18276328083E+04  0.25500000920E-02 0. -1.
        2   -1    0    0  501    0  0.00000000000E+00  0.00000000000E+00 -0.20965383746E+04  0.20965383746E+04  0.25500000920E-02 0.  1.
    10030    2    1    2    0    0  0.00000000000E+00  0.00000000000E+00 -0.26890556625E+03  0.39241711829E+04  0.39149469050E+04 0.  0.
        4    1    3    3  502    0 -0.12432387155E+04 -0.56222912824E+03 -0.15413112149E+04  0.20584911878E+04  0.12699999809E+01 0.  1.
       -4    1    3    3    0  502  0.12432387155E+04  0.56222912824E+03  0.12724056486E+04  0.18656799950E+04  0.12699999809E+01 0. -1.
</event>
<event>
 5   0  0.1501585E-07  0.3896476E+04  0.7818609E-02  0.8025763E-01
       -2   -1    0    0    0  501  0.00000000000E+00  0.00000000000E+00  0.21522356185E+04  0.21522356185E+04  0.25500000920E-02 0.  1.
        2   -1    0    0  501    0  0.00000000000E+00  0.00000000000E+00 -0.17635758607E+04  0.17635758607E+04  0.25500000920E-02 0. -1.
    10030    2    1    2    0    0  0.00000000000E+00  0.00000000000E+00  0.38865975774E+03  0.39158114792E+04  0.38964757324E+04 0.  0.
        5    1    3    3  502    0  0.11693093681E+04  0.45951144664E+03  0.16907365702E+04  0.21064300149E+04  0.46999998093E+01 0.  1.
       -5    1    3    3    0  502 -0.11693093681E+04 -0.45951144664E+03 -0.13020768124E+04  0.18093814643E+04  0.46999998093E+01 0. -1.
</event>
<event>
 5   0  0.1503228E-07  0.3897268E+04  0.7818609E-02  0.8025598E-01
       -2   -1    0    0    0  501  0.00000000000E+00  0.00000000000E+00  0.17359155858E+04  0.17359155858E+04  0.25500000920E-02 0. -1.
        2   -1    0    0  501    0  0.00000000000E+00  0.00000000000E+00 -0.21874191334E+04  0.21874191334E+04  0.25500000920E-02 0.  1.
    10030    2    1    2    0    0  0.00000000000E+00  0.00000000000E+00 -0.45150354758E+03  0.39233347193E+04  0.38972682569E+04 0.  0.
        3    1    3    3  502    0 -0.20896950567E+03 -0.54496220972E+03  0.16458557402E+04  0.17462798149E+04  0.10100000352E+00 0. -1.
       -3    1    3    3    0  502  0.20896950567E+03  0.54496220972E+03 -0.20973592878E+04  0.21770549043E+04  0.10100000352E+00 0.  1.
</event>
<event>
 5   0  0.1501585E-07  0.3887066E+04  0.7818609E-02  0.8027725E-01
       -2   -1    0    0    0  501  0.00000000000E+00  0.00000000000E+00  0.13102209187E+04  0.13102209187E+04  0.25500000920E-02 0. -1.
        2   -1    0    0  501    0  0.00000000000E+00  0.00000000000E+00 -0.28829651028E+04  0.28829651028E+04  0.25500000920E-02 0.  1.
    10030    2    1    2    0    0  0.00000000000E+00  0.00000000000E+00 -0.15727441841E+04  0.41931860215E+04  0.38870663414E+04 0.  0.
        5    1    3    3  502    0  0.10519446844E+04 -0.78465653507E+03  0.76005978905E+03  0.15165706281E+04  0.46999998093E+01 0. -1.
       -5    1    3    3    0  502 -0.10519446844E+04  0.78465653507E+03 -0.23328039732E+04  0.26766153934E+04  0.46999998093E+01 0.  1.
</event>
<event>
 5   0  0.1546846E-07  0.3627574E+04  0.7818609E-02  0.8084205E-01
       -2   -1    0    0    0  501  0.00000000000E+00  0.00000000000E+00  0.20624897210E+04  0.20624897210E+04  0.25500000920E-02 0. -1.
        2   -1    0    0  501    0  0.00000000000E+00  0.00000000000E+00 -0.15950733552E+04  0.15950733552E+04  0.25500000920E-02 0.  1.
    10030    2    1    2    0    0  0.00000000000E+00  0.00000000000E+00  0.46741636581E+03  0.36575630763E+04  0.36275735138E+04 0.  0.
        2    1    3    3  502    0 -0.11093980496E+03 -0.17218532320E+04  0.79755961038E+03  0.19008386372E+04  0.25500000920E-02 0. -1.
       -2    1    3    3    0  502  0.11093980496E+03  0.17218532320E+04 -0.33014324456E+03  0.17567244390E+04  0.25500000920E-02 0.  1.
</event>
<event>
 5   0  0.4750125E-08  0.3926155E+04  0.7818609E-02  0.8019611E-01
        1   -1    0    0  501    0  0.00000000000E+00  0.00000000000E+00  0.26898655471E+04  0.26898655471E+04  0.50400001928E-02 0.  1.
       -1   -1    0    0    0  501  0.00000000000E+00  0.00000000000E+00 -0.14326641956E+04  0.14326641956E+04  0.50400001928E-02 0. -1.
    10030    2    1    2    0    0  0.00000000000E+00  0.00000000000E+00  0.12572013514E+04  0.41225297427E+04  0.39261554021E+04 0.  0.
        1    1    3    3  502    0  0.18841186508E+04 -0.51333379176E+03  0.83928387234E+03  0.21255145472E+04  0.50400001928E-02 0. -1.
       -1    1    3    3    0  502 -0.18841186508E+04  0.51333379176E+03  0.41791747909E+03  0.19970151955E+04  0.50400001928E-02 0.  1.
</event>
<event>
 5   0  0.4750125E-08  0.3941524E+04  0.7818609E-02  0.8016448E-01
       -1   -1    0    0    0  501  0.00000000000E+00  0.00000000000E+00  0.21069412829E+04  0.21069412829E+04  0.50400001928E-02 0. -1.
        1   -1    0    0  501    0  0.00000000000E+00  0.00000000000E+00 -0.18433846865E+04  0.18433846865E+04  0.50400001928E-02 0.  1.
    10030    2    1    2    0    0  0.00000000000E+00  0.00000000000E+00  0.26355659637E+03  0.39503259695E+04  0.39415242211E+04 0.  0.
        4    1    3    3  502    0 -0.14811436005E+04 -0.25572383155E+03 -0.11457133896E+04  0.18899316991E+04  0.12699999809E+01 0.  1.
       -4    1    3    3    0  502  0.14811436005E+04  0.25572383155E+03  0.14092699859E+04  0.20603942704E+04  0.12699999809E+01 0. -1.
</event>
<event>
 5   0  0.1520986E-07  0.3828351E+04  0.7818609E-02  0.8040098E-01
        2   -1    0    0  501    0  0.00000000000E+00  0.00000000000E+00  0.13601938289E+04  0.13601938289E+04  0.25500000920E-02 0.  1.
       -2   -1    0    0    0  501  0.00000000000E+00  0.00000000000E+00 -0.26937833756E+04  0.26937833756E+04  0.25500000920E-02 0. -1.
    10030    2    1    2    0    0  0.00000000000E+00  0.00000000000E+00 -0.13335895467E+04  0.40539772045E+04  0.38283508323E+04 0.  0.
        4    1    3    3  502    0 -0.53297336003E+03 -0.28342371164E+03  0.12567630307E+04  0.13942182509E+04  0.12699999809E+01 0.  1.
       -4    1    3    3    0  502  0.53297336003E+03  0.28342371164E+03 -0.25903525774E+04  0.26597589536E+04  0.12699999809E+01 0. -1.
</event>
<event>
 5   0  0.1520986E-07  0.3887313E+04  0.7818609E-02  0.8027673E-01
       -2   -1    0    0    0  501  0.00000000000E+00  0.00000000000E+00  0.13223155841E+04  0.13223155841E+04  0.25500000920E-02 0.  1.
        2   -1    0    0  501    0  0.00000000000E+00  0.00000000000E+00 -0.28569588400E+04  0.28569588400E+04  0.25500000920E-02 0. -1.
    10030    2    1    2    0    0  0.00000000000E+00  0.00000000000E+00 -0.15346432558E+04  0.41792744241E+04  0.38873133125E+04 0.  0.
        4    1    3    3  502    0  0.10968366624E+04  0.93079581377E+03 -0.21725343301E+04  0.26056359184E+04  0.12699999809E+01 0. -1.
       -4    1    3    3    0  502 -0.10968366624E+04 -0.93079581377E+03  0.63789107428E+03  0.15736385057E+04  0.12699999809E+01 0.  1.
</event>
<event>
 5   0  0.4762788E-08  0.3860829E+04  0.7818609E-02  0.8033226E-01
       -1   -1    0    0    0  501  0.00000000000E+00  0.00000000000E+00  0.17553923809E+04  0.17553923809E+04  0.50400001928E-02 0. -1.
        1   -1    0    0  501    0  0.00000000000E+00  0.00000000000E+00 -0.21228878113E+04  0.21228878113E+04  0.50400001928E-02 0.  1.
    10030    2    1    2    0    0  0.00000000000E+00  0.00000000000E+00 -0.36749543038E+03  0.38782801922E+04  0.38608294909E+04 0.  0.
        2    1    3    3  502    0 -0.14878320651E+04 -0.17263639857E+03 -0.14070589679E+04  0.20550577898E+04  0.25500000920E-02 0.  1.
       -2    1    3    3    0  502  0.14878320651E+04  0.17263639857E+03  0.10395635376E+04  0.18232224024E+04  0.25500000920E-02 0. -1.
</event>
<event>
 5   0  0.4762788E-08  0.3800227E+04  0.7818609E-02  0.8046106E-01
       -1   -1    0    0    0  501  0.00000000000E+00  0.00000000000E+00  0.16788972730E+04  0.16788972730E+04  0.50400001928E-02 0.  1.
        1   -1    0    0  501    0  0.00000000000E+00  0.00000000000E+00 -0.21504780255E+04  0.21504780255E+04  0.50400001928E-02 0. -1.
    10030    2    1    2    0    0  0.00000000000E+00  0.00000000000E+00 -0.47158075255E+03  0.38293752985E+04  0.38002271999E+04 0.  0.
        2    1    3    3  502    0  0.71972173018E+03  0.19041302860E+03  0.15258104010E+04  0.16977496488E+04  0.25500000920E-02 0.  1.
       -2    1    3    3    0  502 -0.71972173018E+03 -0.19041302860E+03 -0.19973911535E+04  0.21316256497E+04  0.25500000920E-02 0. -1.
</event>
<event>
 5   0  0.1546846E-07  0.3751649E+04  0.7818609E-02  0.8056611E-01
        2   -1    0    0  501    0  0.00000000000E+00  0.00000000000E+00  0.27421126369E+04  0.27421126369E+04  0.25500000920E-02 0.  1.
       -2   -1    0    0    0  501  0.00000000000E+00  0.00000000000E+00 -0.12832143342E+04  0.12832143342E+04  0.25500000920E-02 0. -1.
    10030    2    1    2    0    0  0.00000000000E+00  0.00000000000E+00  0.14588983027E+04  0.40253269712E+04  0.37516493663E+04 0.  0.
        2    1    3    3  502    0 -0.15808067637E+04 -0.63146998055E+03  0.15749802299E+04  0.23191091145E+04  0.25500000920E-02 0.  1.
       -2    1    3    3    0  502  0.15808067637E+04  0.63146998055E+03 -0.11608192718E+03  0.17062178567E+04  0.25500000920E-02 0. -1.
</event>
<event>
 5   0  0.1503228E-07  0.3874755E+04  0.7818609E-02  0.8030300E-01
       -2   -1    0    0    0  501  0.00000000000E+00  0.00000000000E+00  0.20826713858E+04  0.20826713858E+04  0.25500000920E-02 0. -1.
        2   -1    0    0  501    0  0.00000000000E+00  0.00000000000E+00 -0.18022194123E+04  0.18022194123E+04  0.25500000920E-02 0.  1.
    10030    2    1    2    0    0  0.00000000000E+00  0.00000000000E+00  0.28045197348E+03  0.38848907981E+04  0.38747545992E+04 0.  0.
        3    1    3    3  502    0 -0.61798325681E+03  0.39781034816E+03 -0.16570241319E+04  0.18127011234E+04  0.10100000352E+00 0.  1.
       -3    1    3    3    0  502  0.61798325681E+03 -0.39781034816E+03  0.19374761054E+04  0.20721896747E+04  0.10100000352E+00 0. -1.
</event>
<event>
 5   0  0.1546846E-07  0.3920225E+04  0.7818609E-02  0.8020836E-01
       -2   -1    0    0    0  501  0.00000000000E+00  0.00000000000E+00  0.12221158098E+04  0.12221158098E+04  0.25500000920E-02 0.  1.
        2   -1    0    0  501    0  0.00000000000E+00  0.00000000000E+00 -0.31437611687E+04  0.31437611687E+04  0.25500000920E-02 0. -1.
    10030    2    1    2    0    0  0.00000000000E+00  0.00000000000E+00 -0.19216453589E+04  0.43658769785E+04  0.39202245989E+04 0.  0.
        2    1    3    3  502    0 -0.40675923460E+03 -0.42218886231E+03 -0.30438347333E+04  0.30997784427E+04  0.25500000920E-02 0. -1.
       -2    1    3    3    0  502  0.40675923460E+03  0.42218886231E+03  0.11221893744E+04  0.12660985358E+04  0.25500000920E-02 0.  1.
</event>
<event>
 5   0  0.1538018E-07  0.3904652E+04  0.7818609E-02  0.8024062E-01
       -2   -1    0    0    0  501  0.00000000000E+00  0.00000000000E+00  0.17448646757E+04  0.17448646757E+04  0.25500000920E-02 0.  1.
        2   -1    0    0  501    0  0.00000000000E+00  0.00000000000E+00 -0.21844545586E+04  0.21844545586E+04  0.25500000920E-02 0. -1.
    10030    2    1    2    0    0  0.00000000000E+00  0.00000000000E+00 -0.43958988285E+03  0.39293192343E+04  0.39046524020E+04 0.  0.
        1    1    3    3  502    0 -0.18675341796E+03 -0.15577957739E+04  0.94942843670E+03  0.18338535571E+04  0.50400001928E-02 0.  1.
       -1    1    3    3    0  502  0.18675341796E+03  0.15577957739E+04 -0.13890183196E+04  0.20954656772E+04  0.50400001928E-02 0. -1.
</event>
<event>
 5   0  0.4750125E-08  0.3923293E+04  0.7818609E-02  0.8020202E-01
        1   -1    0    0  501    0  0.00000000000E+00  0.00000000000E+00  0.17240740207E+04  0.17240740207E+04  0.50400001928E-02 0. -1.
       -1   -1    0    0    0  501  0.00000000000E+00  0.00000000000E+00 -0.22319561929E+04  0.22319561929E+04  0.50400001928E-02 0.  1.
    10030    2    1    2    0    0  0.00000000000E+00  0.00000000000E+00 -0.50788217224E+03  0.39560302136E+04  0.39232933551E+04 0.  0.
        5    1    3    3  502    0 -0.40636480578E+03  0.45608962632E+03  0.16257179040E+04  0.17367011533E+04  0.46999998093E+01 0. -1.
       -5    1    3    3    0  502  0.40636480578E+03 -0.45608962632E+03 -0.21336000762E+04  0.22193290603E+04  0.46999998093E+01 0.  1.
</event>
<event>
 5   0  0.1501585E-07  0.3878563E+04  0.7818609E-02  0.8029503E-01
        2   -1    0    0  501    0  0.00000000000E+00  0.00000000000E+00  0.16043646762E+04  0.16043646762E+04  0.25500000920E-02 0.  1.
       -2   -1    0    0    0  501  0.00000000000E+00  0.00000000000E+00 -0.23441132143E+04  0.23441132143E+04  0.25500000920E-02 0. -1.
    10030    2    1    2    0    0  0.00000000000E+00  0.00000000000E+00 -0.73974853815E+03  0.39484778905E+04  0.38785628462E+04 0.  0.
        5    1    3    3  502    0  0.96485958946E+03  0.16804835978E+04 -0.44747962851E+03  0.19887783330E+04  0.46999998093E+01 0.  1.
       -5    1    3    3    0  502 -0.96485958946E+03 -0.16804835978E+04 -0.29226890964E+03  0.19596995575E+04  0.46999998093E+01 0. -1.
</event>
<event>
 5   0  0.1520986E-07  0.3947018E+04  0.7818609E-02  0.8015321E-01
       -2   -1    0    0    0  501  0.00000000000E+00  0.00000000000E+00  0.22883378156E+04  0.22883378156E+04  0.25500000920E-02 0.  1.
        2   -1    0    0  501    0  0.00000000000E+00  0.00000000000E+00 -0.17019941511E+04  0.17019941511E+04  0.25500000920E-02 0. -1.
    10030    2    1    2    0    0  0.00000000000E+00  0.00000000000E+00  0.58634366442E+03  0.39903319667E+04  0.39470179011E+04 0.  0.
        4    1    3    3  502    0  0.10766306884E+04  0.93202535021E+03 -0.10881792531E+04  0.17921887714E+04  0.12699999809E+01 0. -1.
       -4    1    3    3    0  502 -0.10766306884E+04 -0.93202535021E+03  0.16745229175E+04  0.21981431953E+04  0.12699999809E+01 0.  1.
</event>
<event>
 5   0  0.1546846E-07  0.3864500E+04  0.7818609E-02  0.8032453E-01
       -2   -1    0    0    0  501  0.00000000000E+00  0.00000000000E+00  0.14419588411E+04  0.14419588411E+04  0.25500000920E-02 0.  1.
        2   -1    0    0  501    0  0.00000000000E+00  0.00000000000E+00 -0.25892480833E+04  0.25892480833E+04  0.25500000920E-02 0. -1.
    10030    2    1    2    0    0  0.00000000000E+00  0.00000000000E+00 -0.11472892422E+04  0.40312069244E+04  0.38644995358E+04 0.  0.
        2    1    3    3  502    0  0.40374021057E+03 -0.16682816458E+04 -0.14992905077E+04  0.22790440614E+04  0.25500000920E-02 0. -1.
       -2    1    3    3    0  502 -0.40374021057E+03  0.16682816458E+04  0.35200126553E+03  0.17521628630E+04  0.25500000920E-02 0.  1.
</event>
<event>
 5   0  0.4750125E-08  0.3867780E+04  0.7818609E-02  0.8031764E-01
       -1   -1    0    0    0  501  0.00000000000E+00  0.00000000000E+00  0.20837878002E+04  0.20837878002E+04  0.50400001928E-02 0.  1.
        1   -1    0    0  501    0  0.00000000000E+00  0.00000000000E+00 -0.17947751849E+04  0.17947751850E+04  0.50400001928E-02 0. -1.
    10030    2    1    2    0    0  0.00000000000E+00  0.00000000000E+00  0.28901261522E+03  0.38785629851E+04  0.38677800529E+04 0.  0.
        5    1    3    3  502    0 -0.24788208132E+03 -0.14671176129E+04 -0.10942630737E+04  0.18469741148E+04  0.46999998093E+01 0. -1.
       -5    1    3    3    0  502  0.24788208132E+03  0.14671176129E+04  0.13832756889E+04  0.20315888703E+04  0.46999998093E+01 0.  1.
</event>
<event>
 5   0  0.4750125E-08  0.3880479E+04  0.7818609E-02  0.8029102E-01
       -1   -1    0    0    0  501  0.00000000000E+00  0.00000000000E+00  0.19299798316E+04  0.19299798316E+04  0.50400001928E-02 0.  1.
        1   -1    0    0  501    0  0.00000000000E+00  0.00000000000E+00 -0.19505532177E+04  0.19505532177E+04  0.50400001928E-02 0. -1.
    10030    2    1    2    0    0  0.00000000000E+00  0.00000000000E+00 -0.20573386093E+02  0.38805330492E+04  0.38804785120E+04 0.  0.
        5    1    3    3  502    0 -0.44191007277E+03 -0.14495429411E+04  0.12013602418E+04  0.19338427473E+04  0.46999998093E+01 0.  1.
       -5    1    3    3    0  502  0.44191007277E+03  0.14495429411E+04 -0.12219336279E+04  0.19466903019E+04  0.46999998093E+01 0. -1.
</event>
<event>
 5   0  0.1538018E-07  0.3986481E+04  0.7818609E-02  0.8007279E-01
       -2   -1    0    0    0  501  0.00000000000E+00  0.00000000000E+00  0.19628639767E+04  0.19628639767E+04  0.25500000920E-02 0. -1.
        2   -1    0    0  501    0  0.00000000000E+00  0.00000000000E+00 -0.20240872966E+04  0.20240872966E+04  0.25500000920E-02 0.  1.
    10030    2    1    2    0    0  0.00000000000E+00  0.00000000000E+00 -0.61223319867E+02  0.39869512733E+04  0.39864811753E+04 0.  0.
        1    1    3    3  502    0 -0.71325443818E+03 -0.15894195486E+04 -0.99924104566E+03  0.20083498357E+04  0.50400001928E-02 0. -1.
       -1    1    3    3    0  502  0.71325443818E+03  0.15894195486E+04  0.93801772579E+03  0.19786014376E+04  0.50400001928E-02 0.  1.
</event>
<event>
 5   0  0.1501585E-07  0.3881198E+04  0.7818609E-02  0.8028951E-01
        2   -1    0    0  501    0  0.00000000000E+00  0.00000000000E+00  0.28237311462E+04  0.28237311462E+04  0.25500000920E-02 0.  1.
       -2   -1    0    0    0  501  0.00000000000E+00  0.00000000000E+00 -0.13336695449E+04  0.13336695449E+04  0.25500000920E-02 0. -1.
    10030    2    1    2    0    0  0.00000000000E+00  0.00000000000E+00  0.14900616013E+04  0.41574006911E+04  0.38811978732E+04 0.  0.
        5    1    3    3  502    0 -0.14565535359E+03 -0.10690562405E+04 -0.98276934323E+03  0.14594363293E+04  0.46999998093E+01 0. -1.
       -5    1    3    3    0  502  0.14565535359E+03  0.10690562405E+04  0.24728309445E+04  0.26979643618E+04  0.46999998093E+01 0.  1.
</event>
<event>
 5   0  0.1501585E-07  0.3884784E+04  0.7818609E-02  0.8028201E-01
       -2   -1    0    0    0  501  0.00000000000E+00  0.00000000000E+00  0.25226197112E+04  0.25226197112E+04  0.25500000920E-02 0. -1.
        2   -1    0    0  501    0  0.00000000000E+00  0.00000000000E+00 -0.14956222841E+04  0.14956222841E+04  0.25500000920E-02 0.  1.
    10030    2    1    2    0    0  0.00000000000E+00  0.00000000000E+00  0.10269974271E+04  0.40182419954E+04  0.38847837801E+04 0.  0.
        5    1    3    3  502    0  0.71164332955E+03  0.12001777087E+04 -0.88422003264E+03  0.16518867749E+04  0.46999998093E+01 0.  1.
       -5    1    3    3    0  502 -0.71164332955E+03 -0.12001777087E+04  0.19112174597E+04  0.23663552205E+04  0.46999998093E+01 0. -1.
</event>
<event>
 5   0  0.4750125E-08  0.3895868E+04  0.7818609E-02  0.8025889E-01
        1   -1    0    0  501    0  0.00000000000E+00  0.00000000000E+00  0.12538902453E+04  0.12538902453E+04  0.50400001928E-02 0. -1.
       -1   -1    0    0    0  501  0.00000000000E+00  0.00000000000E+00 -0.30261392816E+04  0.30261392816E+04  0.50400001928E-02 0.  1.
    10030    2    1    2    0    0  0.00000000000E+00  0.00000000000E+00 -0.17722490363E+04  0.42800295269E+04  0.38958678243E+04 0.  0.
        4    1    3    3  502    0 -0.14103196990E+03  0.24088762495E+03 -0.30040528423E+04  0.30169938608E+04  0.12699999809E+01 0.  1.
       -4    1    3    3    0  502  0.14103196990E+03 -0.24088762495E+03  0.12318038059E+04  0.12630356660E+04  0.12699999809E+01 0. -1.
</event>
<event>
 5   0  0.4750125E-08  0.3919248E+04  0.7818609E-02  0.8021038E-01
       -1   -1    0    0    0  501  0.00000000000E+00  0.00000000000E+00  0.16476431450E+04  0.16476431450E+04  0.50400001928E-02 0.  1.
        1   -1    0    0  501    0  0.00000000000E+00  0.00000000000E+00 -0.23306783858E+04  0.23306783858E+04  0.50400001928E-02 0. -1.
    10030    2    1    2    0    0  0.00000000000E+00  0.00000000000E+00 -0.68303524085E+03  0.39783215308E+04  0.39192480226E+04 0.  0.
        4    1    3    3  502    0 -0.13007474281E+04 -0.11797795934E+04 -0.12242812641E+04  0.21407218379E+04  0.12699999809E+01 0. -1.
       -4    1    3    3    0  502  0.13007474281E+04  0.11797795934E+04  0.54124602330E+03  0.18375996929E+04  0.12699999809E+01 0.  1.
</event>
<event>
 5   0  0.4762788E-08  0.3887218E+04  0.7818609E-02  0.8027693E-01
        1   -1    0    0  501    0  0.00000000000E+00  0.00000000000E+00  0.18259742124E+04  0.18259742125E+04  0.50400001928E-02 0.  1.
       -1   -1    0    0    0  501  0.00000000000E+00  0.00000000000E+00 -0.20688217255E+04  0.20688217255E+04  0.50400001928E-02 0. -1.
    10030    2    1    2    0    0  0.00000000000E+00  0.00000000000E+00 -0.24284751305E+03  0.38947959380E+04  0.38872175761E+04 0.  0.
        2    1    3    3  502    0 -0.11519009233E+03 -0.44916707612E+03  0.17697398601E+04  0.18294805252E+04  0.25500000920E-02 0.  1.
       -2    1    3    3    0  502  0.11519009233E+03  0.44916707612E+03 -0.20125873731E+04  0.20653154128E+04  0.25500000920E-02 0. -1.
</event>
<event>
 5   0  0.1538018E-07  0.3896340E+04  0.7818609E-02  0.8025791E-01
       -2   -1    0    0    0  501  0.00000000000E+00  0.00000000000E+00  0.12179603072E+04  0.12179603072E+04  0.25500000920E-02 0.  1.
        2   -1    0    0  501    0  0.00000000000E+00  0.00000000000E+00 -0.31161659757E+04  0.31161659757E+04  0.25500000920E-02 0. -1.
    10030    2    1    2    0    0  0.00000000000E+00  0.00000000000E+00 -0.18982056685E+04  0.43341262829E+04  0.38963400617E+04 0.  0.
        1    1    3    3  502    0  0.13077747954E+04 -0.25992217254E+03 -0.25290949691E+04  0.28590480609E+04  0.50400001928E-02 0. -1.
       -1    1    3    3    0  502 -0.13077747954E+04  0.25992217254E+03  0.63088930066E+03  0.14750782220E+04  0.50400001928E-02 0.  1.
</event>
<event>
 5   0  0.1501585E-07  0.3909828E+04  0.7818609E-02  0.8022988E-01
       -2   -1    0    0    0  501  0.00000000000E+00  0.00000000000E+00  0.22620895027E+04  0.22620895027E+04  0.25500000920E-02 0.  1.
        2   -1    0    0  501    0  0.00000000000E+00  0.00000000000E+00 -0.16894507492E+04  0.16894507492E+04  0.25500000920E-02 0. -1.
    10030    2    1    2    0    0  0.00000000000E+00  0.00000000000E+00  0.57263875349E+03  0.39515402518E+04  0.39098280294E+04 0.  0.
        5    1    3    3  502    0 -0.10713674824E+04  0.16347524547E+04  0.24819634105E+03  0.19702455137E+04  0.46999998093E+01 0. -1.
       -5    1    3    3    0  502  0.10713674824E+04 -0.16347524547E+04  0.32444241244E+03  0.19812947382E+04  0.46999998093E+01 0.  1.
</event>
<event>
 5   0  0.1503228E-07  0.3891315E+04  0.7818609E-02  0.8026838E-01
        2   -1    0    0  501    0  0.00000000000E+00  0.00000000000E+00  0.32013672623E+04  0.32013672623E+04  0.25500000920E-02 0. -1.
       -2   -1    0    0    0  501  0.00000000000E+00  0.00000000000E+00 -0.11824893255E+04  0.11824893255E+04  0.25500000920E-02 0.  1.
    10030    2    1    2    0    0  0.00000000000E+00  0.00000000000E+00  0.20188779368E+04  0.43838565877E+04  0.38913147467E+04 0.  0.
        3    1    3    3  502    0  0.67990902398E+03  0.69725741881E+03 -0.88814167036E+03  0.13180439393E+04  0.10100000352E+00 0.  1.
       -3    1    3    3    0  502 -0.67990902398E+03 -0.69725741881E+03  0.29070196072E+04  0.30658126485E+04  0.10100000352E+00 0. -1.
</event>
<event>
 5   0  0.4750125E-08  0.3902147E+04  0.7818609E-02  0.8024583E-01
        1   -1    0    0  501    0  0.00000000000E+00  0.00000000000E+00  0.14744650888E+04  0.14744650888E+04  0.50400001928E-02 0.  1.
       -1   -1    0    0    0  501  0.00000000000E+00  0.00000000000E+00 -0.25817413265E+04  0.25817413265E+04  0.50400001928E-02 0. -1.
    10030    2    1    2    0    0  0.00000000000E+00  0.00000000000E+00 -0.11072762377E+04  0.40562064153E+04  0.39021468215E+04 0.  0.
        1    1    3    3  502    0  0.19250263990E+04 -0.22682450882E+03 -0.78493474936E+03  0.20912433037E+04  0.50400001928E-02 0. -1.
       -1    1    3    3    0  502 -0.19250263990E+04  0.22682450882E+03 -0.32234148837E+03  0.19649631116E+04  0.50400001928E-02 0.  1.
</event>
<event>
 5   0  0.1538018E-07  0.3895461E+04  0.7818609E-02  0.8025974E-01
       -2   -1    0    0    0  501  0.00000000000E+00  0.00000000000E+00  0.14502528883E+04  0.14502528883E+04  0.25500000920E-02 0.  1.
        2   -1    0    0  501    0  0.00000000000E+00  0.00000000000E+00 -0.26158572128E+04  0.26158572128E+04  0.25500000920E-02 0. -1.
    10030    2    1    2    0    0  0.00000000000E+00  0.00000000000E+00 -0.11656043244E+04  0.40661101011E+04  0.38954611939E+04 0.  0.
        1    1    3    3  502    0  0.15911515857E+04  0.91080904193E+03 -0.12691146645E+04  0.22297956209E+04  0.50400001928E-02 0. -1.
       -1    1    3    3    0  502 -0.15911515857E+04 -0.91080904193E+03  0.10351034007E+03  0.18363144802E+04  0.50400001928E-02 0.  1.
</event>
<event>
 5   0  0.4750125E-08  0.3861468E+04  0.7818609E-02  0.8033091E-01
        1   -1    0    0  501    0  0.00000000000E+00  0.00000000000E+00  0.19135386278E+04  0.19135386278E+04  0.50400001928E-02 0.  1.
       -1   -1    0    0    0  501  0.00000000000E+00  0.00000000000E+00 -0.19480838779E+04  0.19480838779E+04  0.50400001928E-02 0. -1.
    10030    2    1    2    0    0  0.00000000000E+00  0.00000000000E+00 -0.34545250166E+02  0.38616225057E+04  0.38614679854E+04 0.  0.
        4    1    3    3  502    0 -0.51160486274E+02  0.17339118012E+04  0.83050218293E+03  0.19232272405E+04  0.12699999809E+01 0.  1.
       -4    1    3    3    0  502  0.51160486274E+02 -0.17339118012E+04 -0.86504743310E+03  0.19383952652E+04  0.12699999809E+01 0. -1.
</event>
<event>
 5   0  0.1503228E-07  0.4091405E+04  0.7818609E-02  0.7986357E-01
       -2   -1    0    0    0  501  0.00000000000E+00  0.00000000000E+00  0.22528226090E+04  0.22528226090E+04  0.25500000920E-02 0. -1.
        2   -1    0    0  501    0  0.00000000000E+00  0.00000000000E+00 -0.18576249243E+04  0.18576249243E+04  0.25500000920E-02 0.  1.
    10030    2    1    2    0    0  0.00000000000E+00  0.00000000000E+00  0.39519768469E+03  0.41104475334E+04  0.40914053471E+04 0.  0.
        3    1    3    3  502    0  0.11254065208E+04  0.10858198771E+04  0.15225830065E+04  0.21826139522E+04  0.10100000352E+00 0. -1.
       -3    1    3    3    0  502 -0.11254065208E+04 -0.10858198771E+04 -0.11273853218E+04  0.19278335811E+04  0.10100000352E+00 0.  1.
</event>
<event>
 5   0  0.1520986E-07  0.3992781E+04  0.7818609E-02  0.8006004E-01
        2   -1    0    0  501    0  0.00000000000E+00  0.00000000000E+00  0.18226597195E+04  0.18226597195E+04  0.25500000920E-02 0.  1.
       -2   -1    0    0    0  501  0.00000000000E+00  0.00000000000E+00 -0.21866805476E+04  0.21866805476E+04  0.25500000920E-02 0. -1.
    10030    2    1    2    0    0  0.00000000000E+00  0.00000000000E+00 -0.36402082812E+03  0.40093402672E+04  0.39927807621E+04 0.  0.
        4    1    3    3  502    0  0.22265773539E+03  0.19783362214E+04 -0.33156524082E+03  0.20182486947E+04  0.12699999809E+01 0. -1.
       -4    1    3    3    0  502 -0.22265773539E+03 -0.19783362214E+04 -0.32455587296E+02  0.19910915725E+04  0.12699999809E+01 0.  1.
</event>
<event>
 5   0  0.4750125E-08  0.3898153E+04  0.7818609E-02  0.8025413E-01
       -1   -1    0    0    0  501  0.00000000000E+00  0.00000000000E+00  0.24916764022E+04  0.24916764022E+04  0.50400001928E-02 0. -1.
        1   -1    0    0  501    0  0.00000000000E+00  0.00000000000E+00 -0.15246357786E+04  0.15246357786E+04  0.50400001928E-02 0.  1.
    10030    2    1    2    0    0  0.00000000000E+00  0.00000000000E+00  0.96704062360E+03  0.40163121808E+04  0.38981528916E+04 0.  0.
        3    1    3    3  502    0  0.25234669700E+00  0.16430879939E+04  0.15637079474E+04  0.22682417804E+04  0.10100000352E+00 0. -1.
       -3    1    3    3    0  502 -0.25234669700E+00 -0.16430879939E+04 -0.59666732384E+03  0.17480704004E+04  0.10100000352E+00 0.  1.
</event>
<event>
 5   0  0.1538018E-07  0.3882740E+04  0.7818609E-02  0.8028629E-01
       -2   -1    0    0    0  501  0.00000000000E+00  0.00000000000E+00  0.18360626893E+04  0.18360626893E+04  0.25500000920E-02 0. -1.
        2   -1    0    0  501    0  0.00000000000E+00  0.00000000000E+00 -0.20527166920E+04  0.20527166920E+04  0.25500000920E-02 0.  1.
    10030    2    1    2    0    0  0.00000000000E+00  0.00000000000E+00 -0.21665400277E+03  0.38887793813E+04  0.38827395122E+04 0.  0.
        1    1    3    3  502    0  0.64132203123E+03 -0.83849248552E+02  0.17249826143E+04  0.18422512488E+04  0.50400001928E-02 0. -1.
       -1    1    3    3    0  502 -0.64132203123E+03  0.83849248552E+02 -0.19416366171E+04  0.20465281325E+04  0.50400001928E-02 0.  1.
</event>
<event>
 5   0  0.4750125E-08  0.3889614E+04  0.7818609E-02  0.8027193E-01
       -1   -1    0    0    0  501  0.00000000000E+00  0.00000000000E+00  0.15397945932E+04  0.15397945932E+04  0.50400001928E-02 0.  1.
        1   -1    0    0  501    0  0.00000000000E+00  0.00000000000E+00 -0.24563492699E+04  0.24563492699E+04  0.50400001928E-02 0. -1.
    10030    2    1    2    0    0  0.00000000000E+00  0.00000000000E+00 -0.91655467670E+03  0.39961438632E+04  0.38896135155E+04 0.  0.
        5    1    3    3  502    0 -0.51708614321E+03  0.21339513113E+03  0.14553520191E+04  0.15591623235E+04  0.46999998093E+01 0.  1.
       -5    1    3    3    0  502  0.51708614321E+03 -0.21339513113E+03 -0.23719066958E+04  0.24369815397E+04  0.46999998093E+01 0. -1.
</event>
<event>
 5   0  0.4750125E-08  0.3891201E+04  0.7818609E-02  0.8026862E-01
        1   -1    0    0  501    0  0.00000000000E+00  0.00000000000E+00  0.19450745158E+04  0.19450745158E+04  0.50400001928E-02 0.  1.
       -1   -1    0    0    0  501  0.00000000000E+00  0.00000000000E+00 -0.19461264961E+04  0.19461264961E+04  0.50400001928E-02 0. -1.
    10030    2    1    2    0    0  0.00000000000E+00  0.00000000000E+00 -0.10519802443E+01  0.38912010119E+04  0.38912008697E+04 0.  0.
        5    1    3    3  502    0 -0.17632165974E+04  0.30340806177E+03  0.76390175897E+03  0.19453938441E+04  0.46999998093E+01 0.  1.
       -5    1    3    3    0  502  0.17632165974E+04 -0.30340806177E+03 -0.76495373922E+03  0.19458071678E+04  0.46999998093E+01 0. -1.
</event>
<event>
 5   0  0.4750125E-08  0.3908530E+04  0.7818609E-02  0.8023257E-01
        1   -1    0    0  501    0  0.00000000000E+00  0.00000000000E+00  0.20358760153E+04  0.20358760153E+04  0.50400001928E-02 0. -1.
       -1   -1    0    0    0  501  0.00000000000E+00  0.00000000000E+00 -0.18759257222E+04  0.18759257222E+04  0.50400001928E-02 0.  1.
    10030    2    1    2    0    0  0.00000000000E+00  0.00000000000E+00  0.15995029308E+03  0.39118017376E+04  0.39085302529E+04 0.  0.
        1    1    3    3  502    0  0.17982098750E+04 -0.76050151220E+03  0.16508090209E+03  0.19593807718E+04  0.50400001928E-02 0.  1.
       -1    1    3    3    0  502 -0.17982098750E+04  0.76050151220E+03 -0.51306090083E+01  0.19524209658E+04  0.50400001928E-02 0. -1.
</event>
<event>
 5   0  0.4750125E-08  0.3906617E+04  0.7818609E-02  0.8023654E-01
        1   -1    0    0  501    0  0.00000000000E+00  0.00000000000E+00  0.19567255409E+04  0.19567255409E+04  0.50400001928E-02 0. -1.
       -1   -1    0    0    0  501  0.00000000000E+00  0.00000000000E+00 -0.19498969799E+04  0.19498969799E+04  0.50400001928E-02 0.  1.
    10030    2    1    2    0    0  0.00000000000E+00  0.00000000000E+00  0.68285610001E+01  0.39066225207E+04  0.39066165528E+04 0.  0.
        3    1    3    3  502    0  0.40031294622E+03 -0.17443879255E+04 -0.77906600272E+03  0.19519435279E+04  0.10100000352E+00 0.  1.
       -3    1    3    3    0  502 -0.40031294622E+03  0.17443879255E+04  0.78589456372E+03  0.19546789928E+04  0.10100000352E+00 0. -1.
</event>
<event>
 5   0  0.4750125E-08  0.3885317E+04  0.7818609E-02  0.8028090E-01
        1   -1    0    0  501    0  0.00000000000E+00  0.00000000000E+00  0.19522379350E+04  0.19522379350E+04  0.50400001928E-02 0.  1.
       -1   -1    0    0    0  501  0.00000000000E+00  0.00000000000E+00 -0.19331256792E+04  0.19331256792E+04  0.50400001928E-02 0. -1.
    10030    2    1    2    0    0  0.00000000000E+00  0.00000000000E+00  0.19112255797E+02  0.38853636143E+04  0.38853166070E+04 0.  0.
        3    1    3    3  502    0  0.11298179505E+02  0.41883052179E+03 -0.18874050448E+04  0.19333505808E+04  0.10100000352E+00 0. -1.
       -3    1    3    3    0  502 -0.11298179505E+02 -0.41883052179E+03  0.19065173006E+04  0.19520130334E+04  0.10100000352E+00 0.  1.
</event>
<event>
 5   0  0.4750125E-08  0.3884493E+04  0.7818609E-02  0.8028262E-01
       -1   -1    0    0    0  501  0.00000000000E+00  0.00000000000E+00  0.18540734101E+04  0.18540734101E+04  0.50400001928E-02 0.  1.
        1   -1    0    0  501    0  0.00000000000E+00  0.00000000000E+00 -0.20346123646E+04  0.20346123646E+04  0.50400001928E-02 0. -1.
    10030    2    1    2    0    0  0.00000000000E+00  0.00000000000E+00 -0.18053895444E+03  0.38886857747E+04  0.38844925975E+04 0.  0.
        4    1    3    3  502    0  0.15628296473E+04 -0.28520845265E+03 -0.12088559374E+04  0.19962751960E+04  0.12699999809E+01 0. -1.
       -4    1    3    3    0  502 -0.15628296473E+04  0.28520845265E+03  0.10283169829E+04  0.18924105787E+04  0.12699999809E+01 0.  1.
</event>
<event>
 5   0  0.4750125E-08  0.3864710E+04  0.7818609E-02  0.8032409E-01
       -1   -1    0    0    0  501  0.00000000000E+00  0.00000000000E+00  0.16579294671E+04  0.16579294671E+04  0.50400001928E-02 0. -1.
        1   -1    0    0  501    0  0.00000000000E+00  0.00000000000E+00 -0.22522039080E+04  0.22522039080E+04  0.50400001928E-02 0.  1.
    10030    2    1    2    0    0  0.00000000000E+00  0.00000000000E+00 -0.59427444090E+03  0.39101333752E+04  0.38647096787E+04 0.  0.
        3    1    3    3  502    0 -0.15296036058E+04 -0.91940654293E+03  0.45251653984E+03  0.18411319374E+04  0.10100000352E+00 0. -1.
       -3    1    3    3    0  502  0.15296036058E+04  0.91940654293E+03 -0.10467909807E+04  0.20690014378E+04  0.10100000352E+00 0.  1.
</event>
<event>
 5   0  0.4750125E-08  0.3416910E+04  0.7818609E-02  0.8133768E-01
       -1   -1    0    0    0  501  0.00000000000E+00  0.00000000000E+00  0.18423472245E+04  0.18423472245E+04  0.50400001928E-02 0. -1.
        1   -1    0    0  501    0  0.00000000000E+00  0.00000000000E+00 -0.15842936195E+04  0.15842936195E+04  0.50400001928E-02 0.  1.
    10030    2    1    2    0    0  0.00000000000E+00  0.00000000000E+00  0.25805360501E+03  0.34266408441E+04  0.34169102726E+04 0.  0.
        3    1    3    3  502    0 -0.11600526744E+04  0.11333131803E+04  0.66786314326E+03  0.17538991306E+04  0.10100000352E+00 0. -1.
       -3    1    3    3    0  502  0.11600526744E+04 -0.11333131803E+04 -0.40980953825E+03  0.16727417134E+04  0.10100000352E+00 0.  1.
</event>
<event>
 5   0  0.4750125E-08  0.3900797E+04  0.7818609E-02  0.8024863E-01
        1   -1    0    0  501    0  0.00000000000E+00  0.00000000000E+00  0.22771321400E+04  0.22771321400E+04  0.50400001928E-02 0.  1.
       -1   -1    0    0    0  501  0.00000000000E+00  0.00000000000E+00 -0.16705462769E+04  0.16705462769E+04  0.50400001928E-02 0. -1.
    10030    2    1    2    0    0  0.00000000000E+00  0.00000000000E+00  0.60658586313E+03  0.39476784170E+04  0.39007971588E+04 0.  0.
        5    1    3    3  502    0 -0.61908544871E+03 -0.15207768491E+04 -0.76197528093E+03  0.18101539814E+04  0.46999998093E+01 0. -1.
       -5    1    3    3    0  502  0.61908544871E+03  0.15207768491E+04  0.13685611441E+04  0.21375244356E+04  0.46999998093E+01 0.  1.
</event>
<event>
 5   0  0.1503228E-07  0.3906803E+04  0.7818609E-02  0.8023616E-01
       -2   -1    0    0    0  501  0.00000000000E+00  0.00000000000E+00  0.15418407488E+04  0.15418407488E+04  0.25500000920E-02 0. -1.
        2   -1    0    0  501    0  0.00000000000E+00  0.00000000000E+00 -0.24748193714E+04  0.24748193714E+04  0.25500000920E-02 0.  1.
    10030    2    1    2    0    0  0.00000000000E+00  0.00000000000E+00 -0.93297862257E+03  0.40166601203E+04  0.39068029655E+04 0.  0.
        3    1    3    3  502    0 -0.16272307463E+04 -0.88881376501E+03  0.16553873363E+03  0.18615243466E+04  0.10100000352E+00 0. -1.
       -3    1    3    3    0  502  0.16272307463E+04  0.88881376501E+03 -0.10985173562E+04  0.21551357736E+04  0.10100000352E+00 0.  1.
</event>
<event>
 5   0  0.1546846E-07  0.3937782E+04  0.7818609E-02  0.8017217E-01
        2   -1    0    0  501    0  0.00000000000E+00  0.00000000000E+00  0.12091982598E+04  0.12091982598E+04  0.25500000920E-02 0.  1.
       -2   -1    0    0    0  501  0.00000000000E+00  0.00000000000E+00 -0.32058698672E+04  0.32058698672E+04  0.25500000920E-02 0. -1.
    10030    2    1    2    0    0  0.00000000000E+00  0.00000000000E+00 -0.19966716074E+04  0.44150681270E+04  0.39377822512E+04 0.  0.
        2    1    3    3  502    0  0.78852548776E+01  0.13928994792E+04  0.56183505386E+03  0.15019619716E+04  0.25500000920E-02 0.  1.
       -2    1    3    3    0  502 -0.78852548776E+01 -0.13928994792E+04 -0.25585066613E+04  0.29131061554E+04  0.25500000920E-02 0. -1.
</event>
<event>
 5   0  0.4750125E-08  0.3927716E+04  0.7818609E-02  0.8019289E-01
        3   -1    0    0  501    0  0.00000000000E+00  0.00000000000E+00  0.19616197645E+04  0.19616197671E+04  0.10100000352E+00 0. -1.
       -3   -1    0    0    0  501  0.00000000000E+00  0.00000000000E+00 -0.19660987505E+04  0.19660987531E+04  0.10100000352E+00 0.  1.
    10030    2    1    2    0    0  0.00000000000E+00  0.00000000000E+00 -0.44789860184E+01  0.39277185202E+04  0.39277159664E+04 0.  0.
        2    1    3    3  502    0 -0.26506901873E+03  0.10327195085E+04 -0.16514728141E+04  0.19657399684E+04  0.25500000920E-02 0.  1.
       -2    1    3    3    0  502  0.26506901873E+03 -0.10327195085E+04  0.16469938281E+04  0.19619785517E+04  0.25500000920E-02 0. -1.
</event>
<event>
 5   0  0.1503228E-07  0.3901048E+04  0.7818609E-02  0.8024811E-01
       -2   -1    0    0    0  501  0.00000000000E+00  0.00000000000E+00  0.13047133203E+04  0.13047133203E+04  0.25500000920E-02 0. -1.
        2   -1    0    0  501    0  0.00000000000E+00  0.00000000000E+00 -0.29160006091E+04  0.29160006091E+04  0.25500000920E-02 0.  1.
    10030    2    1    2    0    0  0.00000000000E+00  0.00000000000E+00 -0.16112872887E+04  0.42207139294E+04  0.39010484933E+04 0.  0.
        3    1    3    3  502    0  0.59795046521E+03 -0.17770888462E+04 -0.22404966593E+03  0.18883293645E+04  0.10100000352E+00 0. -1.
       -3    1    3    3    0  502 -0.59795046521E+03  0.17770888462E+04 -0.13872376228E+04  0.23323845648E+04  0.10100000352E+00 0.  1.
</event>
<event>
 5   0  0.1538018E-07  0.3921413E+04  0.7818609E-02  0.8020590E-01
        2   -1    0    0  501    0  0.00000000000E+00  0.00000000000E+00  0.34366755661E+04  0.34366755661E+04  0.25500000920E-02 0. -1.
       -2   -1    0    0    0  501  0.00000000000E+00  0.00000000000E+00 -0.11186306253E+04  0.11186306253E+04  0.25500000920E-02 0.  1.
    10030    2    1    2    0    0  0.00000000000E+00  0.00000000000E+00  0.23180449408E+04  0.45553061915E+04  0.39214132848E+04 0.  0.
        1    1    3    3  502    0 -0.52878679913E+03  0.12699098242E+04 -0.46399883165E+03  0.14517511344E+04  0.50400001928E-02 0.  1.
       -1    1    3    3    0  502  0.52878679913E+03 -0.12699098242E+04  0.27820437724E+04  0.31035550571E+04  0.50400001928E-02 0. -1.
</event>
<event>
 5   0  0.1520986E-07  0.3894550E+04  0.7818609E-02  0.8026164E-01
       -2   -1    0    0    0  501  0.00000000000E+00  0.00000000000E+00  0.18773555954E+04  0.18773555954E+04  0.25500000920E-02 0.  1.
        2   -1    0    0  501    0  0.00000000000E+00  0.00000000000E+00 -0.20197982621E+04  0.20197982621E+04  0.25500000920E-02 0. -1.
    10030    2    1    2    0    0  0.00000000000E+00  0.00000000000E+00 -0.14244266670E+03  0.38971538576E+04  0.38945498169E+04 0.  0.
        4    1    3    3  502    0 -0.84876404061E+03 -0.46614719346E+03  0.16193414300E+04  0.18867861253E+04  0.12699999809E+01 0.  1.
       -4    1    3    3    0  502  0.84876404061E+03  0.46614719346E+03 -0.17617840967E+04  0.20103677323E+04  0.12699999809E+01 0. -1.
</event>
<event>
 5   0  0.1546846E-07  0.3899805E+04  0.7818609E-02  0.8025070E-01
       -2   -1    0    0    0  501  0.00000000000E+00  0.00000000000E+00  0.18196877463E+04  0.18196877463E+04  0.25500000920E-02 0.  1.
        2   -1    0    0  501    0  0.00000000000E+00  0.00000000000E+00 -0.20894354835E+04  0.20894354835E+04  0.25500000920E-02 0. -1.
    10030    2    1    2    0    0  0.00000000000E+00  0.00000000000E+00 -0.26974773715E+03  0.39091232298E+04  0.38998051982E+04 0.  0.
        2    1    3    3  502    0  0.15168937468E+04 -0.11940890854E+04  0.14019894553E+03  0.19355803076E+04  0.25500000920E-02 0. -1.
       -2    1    3    3    0  502 -0.15168937468E+04  0.11940890854E+04 -0.40994668268E+03  0.19735429222E+04  0.25500000920E-02 0.  1.
</event>
<event>
 5   0  0.4750125E-08  0.3878649E+04  0.7818609E-02  0.8029485E-01
       -1   -1    0    0    0  501  0.00000000000E+00  0.00000000000E+00  0.16324445611E+04  0.16324445611E+04  0.50400001928E-02 0. -1.
        1   -1    0    0  501    0  0.00000000000E+00  0.00000000000E+00 -0.23038938947E+04  0.23038938947E+04  0.50400001928E-02 0.  1.
    10030    2    1    2    0    0  0.00000000000E+00  0.00000000000E+00 -0.67144933361E+03  0.39363384558E+04  0.38786487636E+04 0.  0.
        5    1    3    3  502    0 -0.98682694466E+03  0.15604960119E+04  0.26638007921E+03  0.18654639258E+04  0.46999998093E+01 0. -1.
       -5    1    3    3    0  502  0.98682694466E+03 -0.15604960119E+04 -0.93782941282E+03  0.20708745301E+04  0.46999998093E+01 0.  1.
</event>
<event>
 5   0  0.1546846E-07  0.3897966E+04  0.7818609E-02  0.8025452E-01
       -2   -1    0    0    0  501  0.00000000000E+00  0.00000000000E+00  0.14988135322E+04  0.14988135322E+04  0.25500000920E-02 0.  1.
        2   -1    0    0  501    0  0.00000000000E+00  0.00000000000E+00 -0.25343614297E+04  0.25343614297E+04  0.25500000920E-02 0. -1.
    10030    2    1    2    0    0  0.00000000000E+00  0.00000000000E+00 -0.10355478975E+04  0.40331749620E+04  0.38979662422E+04 0.  0.
        2    1    3    3  502    0  0.53288504538E+03  0.61918256655E+03 -0.23486676168E+04  0.24866831516E+04  0.25500000920E-02 0. -1.
       -2    1    3    3    0  502 -0.53288504538E+03 -0.61918256655E+03  0.13131197193E+04  0.15464918103E+04  0.25500000920E-02 0.  1.
</event>
<event>
 5   0  0.4750125E-08  0.3895756E+04  0.7818609E-02  0.8025912E-01
        1   -1    0    0  501    0  0.00000000000E+00  0.00000000000E+00  0.20816762764E+04  0.20816762764E+04  0.50400001928E-02 0.  1.
       -1   -1    0    0    0  501  0.00000000000E+00  0.00000000000E+00 -0.18226797410E+04  0.18226797410E+04  0.50400001928E-02 0. -1.
    10030    2    1    2    0    0  0.00000000000E+00  0.00000000000E+00  0.25899653542E+03  0.39043560174E+04  0.38957562431E+04 0.  0.
        5    1    3    3  502    0  0.16271220123E+04  0.67765191580E+03 -0.70146948848E+03  0.18970555330E+04  0.46999998093E+01 0.  1.
       -5    1    3    3    0  502 -0.16271220123E+04 -0.67765191580E+03  0.96046602390E+03  0.20073004845E+04  0.46999998093E+01 0. -1.
</event>
<event>
 5   0  0.4750125E-08  0.3866747E+04  0.7818609E-02  0.8031981E-01
        1   -1    0    0  501    0  0.00000000000E+00  0.00000000000E+00  0.23074634657E+04  0.23074634657E+04  0.50400001928E-02 0.  1.
       -1   -1    0    0    0  501  0.00000000000E+00  0.00000000000E+00 -0.16199317143E+04  0.16199317143E+04  0.50400001928E-02 0. -1.
    10030    2    1    2    0    0  0.00000000000E+00  0.00000000000E+00  0.68753175139E+03  0.39273951801E+04  0.38667470814E+04 0.  0.
        4    1    3    3  502    0 -0.37436403076E+03 -0.18867387562E+04  0.54175943062E+03  0.19983584401E+04  0.12699999809E+01 0. -1.
       -4    1    3    3    0  502  0.37436403076E+03  0.18867387562E+04  0.14577232077E+03  0.19290367399E+04  0.12699999809E+01 0.  1.
</event>
<event>
 5   0  0.4762788E-08  0.3895769E+04  0.7818609E-02  0.8025910E-01
       -1   -1    0    0    0  501  0.00000000000E+00  0.00000000000E+00  0.28675466769E+04  0.28675466769E+04  0.50400001928E-02 0. -1.
        1   -1    0    0  501    0  0.00000000000E+00  0.00000000000E+00 -0.13231706665E+04  0.13231706665E+04  0.50400001928E-02 0.  1.
    10030    2    1    2    0    0  0.00000000000E+00  0.00000000000E+00  0.15443760104E+04  0.41907173434E+04  0.38957688062E+04 0.  0.
        2    1    3    3  502    0 -0.80471773119E+03  0.95613556688E+03 -0.83508533296E+03  0.15030413709E+04  0.25500000920E-02 0.  1.
       -2    1    3    3    0  502  0.80471773119E+03 -0.95613556688E+03  0.23794613434E+04  0.26876759726E+04  0.25500000920E-02 0. -1.
</event>
<event>
 5   0  0.4750125E-08  0.3881405E+04  0.7818609E-02  0.8028908E-01
        1   -1    0    0  501    0  0.00000000000E+00  0.00000000000E+00  0.14233518597E+04  0.14233518598E+04  0.50400001928E-02 0.  1.
       -1   -1    0    0    0  501  0.00000000000E+00  0.00000000000E+00 -0.26460968551E+04  0.26460968551E+04  0.50400001928E-02 0. -1.
    10030    2    1    2    0    0  0.00000000000E+00  0.00000000000E+00 -0.12227449954E+04  0.40694487149E+04  0.38814053537E+04 0.  0.
        4    1    3    3  502    0 -0.75230867578E+03  0.32749975363E+03 -0.24552990503E+04  0.25887679447E+04  0.12699999809E+01 0. -1.
       -4    1    3    3    0  502  0.75230867578E+03 -0.32749975363E+03  0.12325540549E+04  0.14806807702E+04  0.12699999809E+01 0.  1.
</event>
<event>
 5   0  0.1538018E-07  0.3892422E+04  0.7818609E-02  0.8026607E-01
       -2   -1    0    0    0  501  0.00000000000E+00  0.00000000000E+00  0.18222260950E+04  0.18222260950E+04  0.25500000920E-02 0. -1.
        2   -1    0    0  501    0  0.00000000000E+00  0.00000000000E+00 -0.20786317012E+04  0.20786317012E+04  0.25500000920E-02 0.  1.
    10030    2    1    2    0    0  0.00000000000E+00  0.00000000000E+00 -0.25640560628E+03  0.39008577962E+04  0.38924218311E+04 0.  0.
        1    1    3    3  502    0  0.65483417085E+03  0.12060273974E+04 -0.15112034716E+04  0.20413343203E+04  0.50400001928E-02 0.  1.
       -1    1    3    3    0  502 -0.65483417085E+03 -0.12060273974E+04  0.12547978654E+04  0.18595234759E+04  0.50400001928E-02 0. -1.
</event>
<event>
 5   0  0.1520986E-07  0.3903798E+04  0.7818609E-02  0.8024240E-01
        2   -1    0    0  501    0  0.00000000000E+00  0.00000000000E+00  0.26563537223E+04  0.26563537223E+04  0.25500000920E-02 0.  1.
       -2   -1    0    0    0  501  0.00000000000E+00  0.00000000000E+00 -0.14342630256E+04  0.14342630256E+04  0.25500000920E-02 0. -1.
    10030    2    1    2    0    0  0.00000000000E+00  0.00000000000E+00  0.12220906967E+04  0.40906167478E+04  0.39037981130E+04 0.  0.
        4    1    3    3  502    0 -0.12493178064E+04 -0.14230982606E+04  0.11521509601E+03  0.18971767899E+04  0.12699999809E+01 0. -1.
       -4    1    3    3    0  502  0.12493178064E+04  0.14230982606E+04  0.11068756007E+04  0.21934399580E+04  0.12699999809E+01 0.  1.
</event>
<event>
 5   0  0.4750125E-08  0.3897316E+04  0.7818609E-02  0.8025588E-01
        1   -1    0    0  501    0  0.00000000000E+00  0.00000000000E+00  0.21445447976E+04  0.21445447976E+04  0.50400001928E-02 0.  1.
       -1   -1    0    0    0  501  0.00000000000E+00  0.00000000000E+00 -0.17706642079E+04  0.17706642079E+04  0.50400001928E-02 0. -1.
    10030    2    1    2    0    0  0.00000000000E+00  0.00000000000E+00  0.37388058968E+03  0.39152090055E+04  0.38973163666E+04 0.  0.
        3    1    3    3  502    0 -0.99770588150E+02 -0.99889606585E+03  0.18647941172E+04  0.21178301703E+04  0.10100000352E+00 0.  1.
       -3    1    3    3    0  502  0.99770588150E+02  0.99889606585E+03 -0.14909135275E+04  0.17973788352E+04  0.10100000352E+00 0. -1.
</event>
<event>
 5   0  0.1503228E-07  0.3905121E+04  0.7818609E-02  0.8023965E-01
       -2   -1    0    0    0  501  0.00000000000E+00  0.00000000000E+00  0.18812379979E+04  0.18812379979E+04  0.25500000920E-02 0.  1.
        2   -1    0    0  501    0  0.00000000000E+00  0.00000000000E+00 -0.20265866272E+04  0.20265866272E+04  0.25500000920E-02 0. -1.
    10030    2    1    2    0    0  0.00000000000E+00  0.00000000000E+00 -0.14534862929E+03  0.39078246251E+04  0.39051206225E+04 0.  0.
        3    1    3    3  502    0 -0.10658552562E+04  0.16310026970E+04 -0.20033433040E+03  0.19586605318E+04  0.10100000352E+00 0. -1.
       -3    1    3    3    0  502  0.10658552562E+04 -0.16310026970E+04  0.54985701113E+02  0.19491640932E+04  0.10100000352E+00 0.  1.
</event>
<event>
 5   0  0.4750125E-08  0.3885493E+04  0.7818609E-02  0.8028053E-01
       -1   -1    0    0    0  501  0.00000000000E+00  0.00000000000E+00  0.25522897823E+04  0.25522897823E+04  0.50400001928E-02 0.  1.
        1   -1    0    0  501    0  0.00000000000E+00  0.00000000000E+00 -0.14787753357E+04  0.14787753357E+04  0.50400001928E-02 0. -1.
    10030    2    1    2    0    0  0.00000000000E+00  0.00000000000E+00  0.10735144466E+04  0.40310651180E+04  0.38854925966E+04 0.  0.
        3    1    3    3  502    0 -0.16816591094E+04  0.70511245226E+03  0.12320157727E+04  0.22006871211E+04  0.10100000352E+00 0.  1.
       -3    1    3    3    0  502  0.16816591094E+04 -0.70511245226E+03 -0.15850132607E+03  0.18303779968E+04  0.10100000352E+00 0. -1.
</event>
<event>
 5   0  0.4762788E-08  0.3938604E+04  0.7818609E-02  0.8017048E-01
       -1   -1    0    0    0  501  0.00000000000E+00  0.00000000000E+00  0.18422311710E+04  0.18422311710E+04  0.50400001928E-02 0.  1.
        1   -1    0    0  501    0  0.00000000000E+00  0.00000000000E+00 -0.21051378808E+04  0.21051378809E+04  0.50400001928E-02 0. -1.
    10030    2    1    2    0    0  0.00000000000E+00  0.00000000000E+00 -0.26290670982E+03  0.39473690519E+04  0.39386041301E+04 0.  0.
        2    1    3    3  502    0  0.26428341388E+03  0.19336713632E+04 -0.39513571108E+03  0.19912465678E+04  0.25500000920E-02 0. -1.
       -2    1    3    3    0  502 -0.26428341388E+03 -0.19336713632E+04  0.13222900126E+03  0.19561224840E+04  0.25500000920E-02 0.  1.
</event>
<event>
 5   0  0.1546846E-07  0.3838170E+04  0.7818609E-02  0.8038013E-01
       -2   -1    0    0    0  501  0.00000000000E+00  0.00000000000E+00  0.12919708627E+04  0.12919708627E+04  0.25500000920E-02 0.  1.
        2   -1    0    0  501    0  0.00000000000E+00  0.00000000000E+00 -0.28505967640E+04  0.28505967640E+04  0.25500000920E-02 0. -1.
    10030    2    1    2    0    0  0.00000000000E+00  0.00000000000E+00 -0.15586259013E+04  0.41425676267E+04  0.38381703769E+04 0.  0.
        2    1    3    3  502    0 -0.72872872489E+03  0.14130893909E+04  0.38063968606E+03  0.16348558810E+04  0.25500000920E-02 0.  1.
       -2    1    3    3    0  502  0.72872872489E+03 -0.14130893909E+04 -0.19392655873E+04  0.25077117457E+04  0.25500000920E-02 0. -1.
</event>
<event>
 5   0  0.4750125E-08  0.3883868E+04  0.7818609E-02  0.8028393E-01
        1   -1    0    0  501    0  0.00000000000E+00  0.00000000000E+00  0.26599460659E+04  0.26599460659E+04  0.50400001928E-02 0.  1.
       -1   -1    0    0    0  501  0.00000000000E+00  0.00000000000E+00 -0.14177382398E+04  0.14177382398E+04  0.50400001928E-02 0. -1.
    10030    2    1    2    0    0  0.00000000000E+00  0.00000000000E+00  0.12422078261E+04  0.40776843057E+04  0.38838677905E+04 0.  0.
        1    1    3    3  502    0  0.12467320841E+04 -0.14009399526E+04  0.91830330875E+02  0.18776065749E+04  0.50400001928E-02 0. -1.
       -1    1    3    3    0  502 -0.12467320841E+04  0.14009399526E+04  0.11503774952E+04  0.22000777308E+04  0.50400001928E-02 0.  1.
</event>
<event>
 5   0  0.1520986E-07  0.3472956E+04  0.7818609E-02  0.8120229E-01
        2   -1    0    0  501    0  0.00000000000E+00  0.00000000000E+00  0.12654902788E+04  0.12654902788E+04  0.25500000920E-02 0. -1.
       -2   -1    0    0    0  501  0.00000000000E+00  0.00000000000E+00 -0.23827576451E+04  0.23827576451E+04  0.25500000920E-02 0.  1.
    10030    2    1    2    0    0  0.00000000000E+00  0.00000000000E+00 -0.11172673664E+04  0.36482479239E+04  0.34729564561E+04 0.  0.
        4    1    3    3  502    0 -0.12447549891E+04  0.32881978178E+03 -0.17827021814E+04  0.21989920673E+04  0.12699999809E+01 0.  1.
       -4    1    3    3    0  502  0.12447549891E+04 -0.32881978178E+03  0.66543481506E+03  0.14492558565E+04  0.12699999809E+01 0. -1.
</event>
<event>
 5   0  0.4750125E-08  0.3910077E+04  0.7818609E-02  0.8022937E-01
        1   -1    0    0  501    0  0.00000000000E+00  0.00000000000E+00  0.26999872842E+04  0.26999872842E+04  0.50400001928E-02 0. -1.
       -1   -1    0    0    0  501  0.00000000000E+00  0.00000000000E+00 -0.14156275471E+04  0.14156275471E+04  0.50400001928E-02 0.  1.
    10030    2    1    2    0    0  0.00000000000E+00  0.00000000000E+00  0.12843597371E+04  0.41156148313E+04  0.39100774296E+04 0.  0.
        1    1    3    3  502    0  0.17207188042E+04  0.49449224041E+03  0.14688166351E+04  0.23157759145E+04  0.50400001928E-02 0. -1.
       -1    1    3    3    0  502 -0.17207188042E+04 -0.49449224041E+03 -0.18445689801E+03  0.17998389167E+04  0.50400001928E-02 0.  1.
</event>
<event>
 5   0  0.1520986E-07  0.3901187E+04  0.7818609E-02  0.8024782E-01
        2   -1    0    0  501    0  0.00000000000E+00  0.00000000000E+00  0.19790938788E+04  0.19790938788E+04  0.25500000920E-02 0. -1.
       -2   -1    0    0    0  501  0.00000000000E+00  0.00000000000E+00 -0.19225032288E+04  0.19225032288E+04  0.25500000920E-02 0.  1.
    10030    2    1    2    0    0  0.00000000000E+00  0.00000000000E+00  0.56590650034E+02  0.39015971077E+04  0.39011866770E+04 0.  0.
        4    1    3    3  502    0  0.36673498766E+03 -0.17216114708E+04  0.86884323531E+03  0.19629902669E+04  0.12699999809E+01 0.  1.
       -4    1    3    3    0  502 -0.36673498766E+03  0.17216114708E+04 -0.81225258527E+03  0.19386068407E+04  0.12699999809E+01 0. -1.
</event>
<event>
 5   0  0.1501585E-07  0.3899278E+04  0.7818609E-02  0.8025179E-01
       -2   -1    0    0    0  501  0.00000000000E+00  0.00000000000E+00  0.13401639712E+04  0.13401639712E+04  0.25500000920E-02 0. -1.
        2   -1    0    0  501    0  0.00000000000E+00  0.00000000000E+00 -0.28362886373E+04  0.28362886373E+04  0.25500000920E-02 0.  1.
    10030    2    1    2    0    0  0.00000000000E+00  0.00000000000E+00 -0.14961246661E+04  0.41764526084E+04  0.38992778016E+04 0.  0.
        5    1    3    3  502    0 -0.92538386992E+02  0.19190283152E+04 -0.11030368441E+04  0.22153883174E+04  0.46999998093E+01 0. -1.
       -5    1    3    3    0  502  0.92538386992E+02 -0.19190283152E+04 -0.39308782205E+03  0.19610642910E+04  0.46999998093E+01 0.  1.
</event>
<event>
 5   0  0.4750125E-08  0.3919855E+04  0.7818609E-02  0.8020912E-01
       -1   -1    0    0    0  501  0.00000000000E+00  0.00000000000E+00  0.14495136740E+04  0.14495136740E+04  0.50400001928E-02 0.  1.
        1   -1    0    0  501    0  0.00000000000E+00  0.00000000000E+00 -0.26500718320E+04  0.26500718320E+04  0.50400001928E-02 0. -1.
    10030    2    1    2    0    0  0.00000000000E+00  0.00000000000E+00 -0.12005581580E+04  0.40995855060E+04  0.39198547716E+04 0.  0.
        4    1    3    3  502    0  0.19165686574E+04 -0.10158435991E+03 -0.10156795331E+04  0.21714422230E+04  0.12699999809E+01 0.  1.
       -4    1    3    3    0  502 -0.19165686574E+04  0.10158435991E+03 -0.18487862484E+03  0.19281432830E+04  0.12699999809E+01 0. -1.
</event>
<event>
 5   0  0.1501585E-07  0.3451081E+04  0.7818609E-02  0.8125482E-01
        2   -1    0    0  501    0  0.00000000000E+00  0.00000000000E+00  0.19167592462E+04  0.19167592463E+04  0.25500000920E-02 0.  1.
       -2   -1    0    0    0  501  0.00000000000E+00  0.00000000000E+00 -0.15533977461E+04  0.15533977461E+04  0.25500000920E-02 0. -1.
    10030    2    1    2    0    0  0.00000000000E+00  0.00000000000E+00  0.36336150014E+03  0.34701569924E+04  0.34510806962E+04 0.  0.
        5    1    3    3  502    0  0.15018133717E+04 -0.17607517491E+03 -0.65419129070E+03  0.16475540068E+04  0.46999998093E+01 0.  1.
       -5    1    3    3    0  502 -0.15018133717E+04  0.17607517491E+03  0.10175527908E+04  0.18226029855E+04  0.46999998093E+01 0. -1.
</event>
<event>
 5   0  0.4762788E-08  0.3914722E+04  0.7818609E-02  0.8021974E-01
       -1   -1    0    0    0  501  0.00000000000E+00  0.00000000000E+00  0.15597857209E+04  0.15597857209E+04  0.50400001928E-02 0. -1.
        1   -1    0    0  501    0  0.00000000000E+00  0.00000000000E+00 -0.24562751177E+04  0.24562751177E+04  0.50400001928E-02 0.  1.
    10030    2    1    2    0    0  0.00000000000E+00  0.00000000000E+00 -0.89648939679E+03  0.40160608386E+04  0.39147223939E+04 0.  0.
        2    1    3    3  502    0  0.14657742611E+03  0.18393825462E+04 -0.11181805987E+04  0.21575775640E+04  0.25500000920E-02 0.  1.
       -2    1    3    3    0  502 -0.14657742611E+03 -0.18393825462E+04  0.22169120192E+03  0.18584832747E+04  0.25500000920E-02 0. -1.
</event>
<event>
 5   0  0.1546846E-07  0.3949630E+04  0.7818609E-02  0.8014786E-01
        2   -1    0    0  501    0  0.00000000000E+00  0.00000000000E+00  0.31703560196E+04  0.31703560196E+04  0.25500000920E-02 0.  1.
       -2   -1    0    0    0  501  0.00000000000E+00  0.00000000000E+00 -0.12301122904E+04  0.12301122904E+04  0.25500000920E-02 0. -1.
    10030    2    1    2    0    0  0.00000000000E+00  0.00000000000E+00  0.19402437292E+04  0.44004683100E+04  0.39496298078E+04 0.  0.
        2    1    3    3  502    0 -0.53565146795E+02  0.85998541556E+03 -0.10096298635E+04  0.13273268630E+04  0.25500000920E-02 0. -1.
       -2    1    3    3    0  502  0.53565146795E+02 -0.85998541556E+03  0.29498735928E+04  0.30731414470E+04  0.25500000920E-02 0.  1.
</event>
<event>
 5   0  0.4750125E-08  0.3441760E+04  0.7818609E-02  0.8127732E-01
        1   -1    0    0  501    0  0.00000000000E+00  0.00000000000E+00  0.20238536474E+04  0.20238536474E+04  0.50400001928E-02 0. -1.
       -1   -1    0    0    0  501  0.00000000000E+00  0.00000000000E+00 -0.14632621519E+04  0.14632621519E+04  0.50400001928E-02 0.  1.
    10030    2    1    2    0    0  0.00000000000E+00  0.00000000000E+00  0.56059149555E+03  0.34871157993E+04  0.34417602725E+04 0.  0.
        5    1    3    3  502    0  0.30536845363E+03  0.11434930267E+04 -0.98539846033E+03  0.15400838971E+04  0.46999998093E+01 0.  1.
       -5    1    3    3    0  502 -0.30536845363E+03 -0.11434930267E+04  0.15459899559E+04  0.19470319022E+04  0.46999998093E+01 0. -1.
</event>
</LesHouchesEvents>
