<LesHouchesEvents version="3.0">
<header>
<!--
#*********************************************************************
#                                                                    *
#                        MadGraph5_aMC@NLO                           *
#                                                                    *
#                           Going Beyond                             *
#                                                                    *
#                   http://madgraph.hep.uiuc.edu                     *
#                   http://madgraph.phys.ucl.ac.be                   *
#                   http://amcatnlo.cern.ch                          *
#                                                                    *
#                     The MadGraph5_aMC@NLO team                     *
#                                                                    *
#....................................................................*
#                                                                    *
# This file contains all the information necessary to reproduce      *
# the events generated:                                              *
#                                                                    *
# 1. software version                                                *
# 2. proc_card          : code generation info including model       *
# 3. param_card         : model primary parameters in the LH format  *
# 4. run_card           : running parameters (collider and cuts)     *
# 5. pythia_card        : present only if pythia has been run        *
# 6. pgs_card           : present only if pgs has been run           *
# 7. delphes_cards      : present only if delphes has been run       *
#                                                                    *
#                                                                    *
#*********************************************************************
-->
<MGVersion>
#5.2.2.3
</MGVersion>
<MG5ProcCard>
#************************************************************
#*                     MadGraph5_aMC@NLO                    *
#*                                                          *
#*                *                       *                 *
#*                  *        * *        *                   *
#*                    * * * * 5 * * * *                     *
#*                  *        * *        *                   *
#*                *                       *                 *
#*                                                          *
#*                                                          *
#*         VERSION 2.2.3                 2015-02-10         *
#*                                                          *
#*    The MadGraph5_aMC@NLO Development Team - Find us at   *
#*    https://server06.fynu.ucl.ac.be/projects/madgraph     *
#*                                                          *
#************************************************************
#*                                                          *
#*               Command File for MadGraph5_aMC@NLO         *
#*                                                          *
#*     run as ./bin/mg5_aMC  filename                       *
#*                                                          *
#************************************************************
set group_subprocesses Auto
set ignore_six_quark_processes False
set loop_optimized_output True
set gauge unitary
set complex_mass_scheme False
import model sm
define p = g u c d s u~ c~ d~ s~
define j = g u c d s u~ c~ d~ s~
define l+ = e+ mu+
define l- = e- mu-
define vl = ve vm vt
define vl~ = ve~ vm~ vt~
import model Zprime_UFO
generate p p > zph, zph > j j
add process p p > zph, zph > b b~
output Dijet_signal
</MG5ProcCard>
<MGProcCard>
#*********************************************************************
#                        MadGraph/MadEvent                           *
#                   http://madgraph.hep.uiuc.edu                     *
#                                                                    *
#                          proc_card.dat                             *
#*********************************************************************
#                                                                    *
#            This Files is generated by MADGRAPH 5                   *
#                                                                    *
# WARNING: This Files is generated for MADEVENT (compatibility issue)*
#          This files is NOT a valid MG4 proc_card.dat               *
#          Running this in MG4 will NEVER reproduce the result of MG5*
#                                                                    *
#*********************************************************************
#*********************************************************************
# Process(es) requested : mg2 input                                  *
#*********************************************************************
# Begin PROCESS # This is TAG. Do not modify this line
p p > zph , zph > j j           #Process
# Be carefull the coupling are here in MG5 convention
          
end_coup           # End the couplings input

done               # this tells MG there are no more procs
# End PROCESS  # This is TAG. Do not modify this line
#*********************************************************************
# Model information                                                  *
#*********************************************************************
# Begin MODEL  # This is TAG. Do not modify this line
Zprime_UFO
# End   MODEL  # This is TAG. Do not modify this line
#*********************************************************************
# Start multiparticle definitions                                    *
#*********************************************************************
# Begin MULTIPARTICLES # This is TAG. Do not modify this line

# End  MULTIPARTICLES # This is TAG. Do not modify this line
</MGProcCard>
<MGRunCard>
#*********************************************************************
#                       MadGraph5_aMC@NLO                            *
#                                                                    *
#                     run_card.dat MadEvent                          *
#                                                                    *
#  This file is used to set the parameters of the run.               *
#                                                                    *
#  Some notation/conventions:                                        *
#                                                                    *
#   Lines starting with a '# ' are info or comments                  *
#                                                                    *
#   mind the format:   value    = variable     ! comment             *
#*********************************************************************
#
#*******************                                                 
# Running parameters
#*******************                                                 
#                                                                    
#*********************************************************************
# Tag name for the run (one word)                                    *
#*********************************************************************
  tag_1     = run_tag ! name of the run 
#*********************************************************************
# Run to generate the grid pack                                      *
#*********************************************************************
  .false.     = gridpack  !True = setting up the grid pack
#*********************************************************************
# Number of events and rnd seed                                      *
# Warning: Do not generate more than 1M events in a single run       *
# If you want to run Pythia, avoid more than 50k events in a run.    *
#*********************************************************************
  2000 = nevents ! Number of unweighted events requested 
 2406 = iseed   ! rnd seed (0=assigned automatically=default))
#*********************************************************************
# Collider type and energy                                           *
# lpp: 0=No PDF, 1=proton, -1=antiproton, 2=photon from proton,      *
#                                         3=photon from electron     *
#*********************************************************************
        1     = lpp1    ! beam 1 type 
        1     = lpp2    ! beam 2 type
     4000     = ebeam1  ! beam 1 total energy in GeV
     4000     = ebeam2  ! beam 2 total energy in GeV
#*********************************************************************
# Beam polarization from -100 (left-handed) to 100 (right-handed)    *
#*********************************************************************
        0     = polbeam1 ! beam polarization for beam 1
        0     = polbeam2 ! beam polarization for beam 2
#*********************************************************************
# PDF CHOICE: this automatically fixes also alpha_s and its evol.    *
#*********************************************************************
 'nn23lo1'    = pdlabel     ! PDF set                                     
 230000    = lhaid     ! if pdlabel=lhapdf, this is the lhapdf number
#*********************************************************************
# Renormalization and factorization scales                           *
#*********************************************************************
 F        = fixed_ren_scale  ! if .true. use fixed ren scale
 F        = fixed_fac_scale  ! if .true. use fixed fac scale
 91.1880  = scale            ! fixed ren scale
 91.1880  = dsqrt_q2fact1    ! fixed fact scale for pdf1
 91.1880  = dsqrt_q2fact2    ! fixed fact scale for pdf2
 1        = scalefact        ! scale factor for event-by-event scales
#*********************************************************************
# Matching - Warning! ickkw > 1 is still beta
#*********************************************************************
 0        = ickkw            ! 0 no matching, 1 MLM, 2 CKKW matching
 1        = highestmult      ! for ickkw=2, highest mult group
 1        = ktscheme         ! for ickkw=1, 1 Durham kT, 2 Pythia pTE
 1        = alpsfact         ! scale factor for QCD emission vx
 F        = chcluster        ! cluster only according to channel diag
 T        = pdfwgt           ! for ickkw=1, perform pdf reweighting
 5        = asrwgtflavor     ! highest quark flavor for a_s reweight
 T        = clusinfo         ! include clustering tag in output
 3.0      = lhe_version       ! Change the way clustering information pass to shower.        
#*********************************************************************
#**********************************************************
#
#**********************************************************
# Automatic ptj and mjj cuts if xqcut > 0
# (turn off for VBF and single top processes)
#**********************************************************
   T  = auto_ptj_mjj  ! Automatic setting of ptj and mjj
#**********************************************************
#                                                                    
#**********************************
# BW cutoff (M+/-bwcutoff*Gamma)
#**********************************
  15  = bwcutoff      ! (M+/-bwcutoff*Gamma)
#**********************************************************
# Apply pt/E/eta/dr/mij cuts on decay products or not
# (note that etmiss/ptll/ptheavy/ht/sorted cuts always apply)
#**********************************************************
   T  = cut_decays    ! Cut decay products 
#*************************************************************
# Number of helicities to sum per event (0 = all helicities)
# 0 gives more stable result, but longer run time (needed for
# long decay chains e.g.).
# Use >=2 if most helicities contribute, e.g. pure QCD.
#*************************************************************
   0  = nhel          ! Number of helicities used per event
#*******************                                                 
# Standard Cuts
#*******************                                                 
#                                                                    
#*********************************************************************
# Minimum and maximum pt's (for max, -1 means no cut)                *
#*********************************************************************
 20  = ptj       ! minimum pt for the jets 
  0  = ptb       ! minimum pt for the b 
 10  = pta       ! minimum pt for the photons 
 10  = ptl       ! minimum pt for the charged leptons 
  0  = misset    ! minimum missing Et (sum of neutrino's momenta)
  0  = ptheavy   ! minimum pt for one heavy final state
 1.0 = ptonium   ! minimum pt for the quarkonium states
 -1  = ptjmax    ! maximum pt for the jets
 -1  = ptbmax    ! maximum pt for the b
 -1  = ptamax    ! maximum pt for the photons
 -1  = ptlmax    ! maximum pt for the charged leptons
 -1  = missetmax ! maximum missing Et (sum of neutrino's momenta)
#*********************************************************************
# Minimum and maximum E's (in the center of mass frame)              *
#*********************************************************************
  0  = ej     ! minimum E for the jets 
  0  = eb     ! minimum E for the b 
  0  = ea     ! minimum E for the photons 
  0  = el     ! minimum E for the charged leptons 
 -1   = ejmax ! maximum E for the jets
 -1   = ebmax ! maximum E for the b
 -1   = eamax ! maximum E for the photons
 -1   = elmax ! maximum E for the charged leptons
#*********************************************************************
# Maximum and minimum absolute rapidity (for max, -1 means no cut)   *
#*********************************************************************
   5  = etaj    ! max rap for the jets 
  -1  = etab    ! max rap for the b
 2.5  = etaa    ! max rap for the photons 
 2.5  = etal    ! max rap for the charged leptons 
 0.6  = etaonium ! max rap for the quarkonium states
   0  = etajmin ! min rap for the jets
   0  = etabmin ! min rap for the b
   0  = etaamin ! min rap for the photons
   0  = etalmin ! main rap for the charged leptons
#*********************************************************************
# Minimum and maximum DeltaR distance                                *
#*********************************************************************
 0.4 = drjj    ! min distance between jets 
 0   = drbb    ! min distance between b's 
 0.4 = drll    ! min distance between leptons 
 0.4 = draa    ! min distance between gammas 
 0   = drbj    ! min distance between b and jet 
 0.4 = draj    ! min distance between gamma and jet 
 0.4 = drjl    ! min distance between jet and lepton 
 0   = drab    ! min distance between gamma and b 
 0   = drbl    ! min distance between b and lepton 
 0.4 = dral    ! min distance between gamma and lepton 
 -1  = drjjmax ! max distance between jets
 -1  = drbbmax ! max distance between b's
 -1  = drllmax ! max distance between leptons
 -1  = draamax ! max distance between gammas
 -1  = drbjmax ! max distance between b and jet
 -1  = drajmax ! max distance between gamma and jet
 -1  = drjlmax ! max distance between jet and lepton
 -1  = drabmax ! max distance between gamma and b
 -1  = drblmax ! max distance between b and lepton
 -1  = dralmax ! maxdistance between gamma and lepton
#*********************************************************************
# Minimum and maximum invariant mass for pairs                       *
# WARNING: for four lepton final state mmll cut require to have      *
#          different lepton masses for each flavor!                  *           
#*********************************************************************
 0   = mmjj    ! min invariant mass of a jet pair 
 0   = mmbb    ! min invariant mass of a b pair 
 0   = mmaa    ! min invariant mass of gamma gamma pair
 0   = mmll    ! min invariant mass of l+l- (same flavour) lepton pair
 -1  = mmjjmax ! max invariant mass of a jet pair
 -1  = mmbbmax ! max invariant mass of a b pair
 -1  = mmaamax ! max invariant mass of gamma gamma pair
 -1  = mmllmax ! max invariant mass of l+l- (same flavour) lepton pair
#*********************************************************************
# Minimum and maximum invariant mass for all letpons                 *
#*********************************************************************
 0   = mmnl    ! min invariant mass for all letpons (l+- and vl) 
 -1  = mmnlmax ! max invariant mass for all letpons (l+- and vl) 
#*********************************************************************
# Minimum and maximum pt for 4-momenta sum of leptons                *
#*********************************************************************
 0   = ptllmin  ! Minimum pt for 4-momenta sum of leptons(l and vl)
 -1  = ptllmax  ! Maximum pt for 4-momenta sum of leptons(l and vl)
#*********************************************************************
# Inclusive cuts                                                     *
#*********************************************************************
 0  = xptj ! minimum pt for at least one jet  
 0  = xptb ! minimum pt for at least one b 
 0  = xpta ! minimum pt for at least one photon 
 0  = xptl ! minimum pt for at least one charged lepton 
#*********************************************************************
# Control the pt's of the jets sorted by pt                          *
#*********************************************************************
 0   = ptj1min ! minimum pt for the leading jet in pt
 0   = ptj2min ! minimum pt for the second jet in pt
 0   = ptj3min ! minimum pt for the third jet in pt
 0   = ptj4min ! minimum pt for the fourth jet in pt
 -1  = ptj1max ! maximum pt for the leading jet in pt 
 -1  = ptj2max ! maximum pt for the second jet in pt
 -1  = ptj3max ! maximum pt for the third jet in pt
 -1  = ptj4max ! maximum pt for the fourth jet in pt
 0   = cutuse  ! reject event if fails any (0) / all (1) jet pt cuts
#*********************************************************************
# Control the pt's of leptons sorted by pt                           *
#*********************************************************************
 0   = ptl1min ! minimum pt for the leading lepton in pt
 0   = ptl2min ! minimum pt for the second lepton in pt
 0   = ptl3min ! minimum pt for the third lepton in pt
 0   = ptl4min ! minimum pt for the fourth lepton in pt
 -1  = ptl1max ! maximum pt for the leading lepton in pt 
 -1  = ptl2max ! maximum pt for the second lepton in pt
 -1  = ptl3max ! maximum pt for the third lepton in pt
 -1  = ptl4max ! maximum pt for the fourth lepton in pt
#*********************************************************************
# Control the Ht(k)=Sum of k leading jets                            *
#*********************************************************************
 0   = htjmin ! minimum jet HT=Sum(jet pt)
 -1  = htjmax ! maximum jet HT=Sum(jet pt)
 0   = ihtmin  !inclusive Ht for all partons (including b)
 -1  = ihtmax  !inclusive Ht for all partons (including b)
 0   = ht2min ! minimum Ht for the two leading jets
 0   = ht3min ! minimum Ht for the three leading jets
 0   = ht4min ! minimum Ht for the four leading jets
 -1  = ht2max ! maximum Ht for the two leading jets
 -1  = ht3max ! maximum Ht for the three leading jets
 -1  = ht4max ! maximum Ht for the four leading jets
#***********************************************************************
# Photon-isolation cuts, according to hep-ph/9801442                   *
# When ptgmin=0, all the other parameters are ignored                  *
# When ptgmin>0, pta and draj are not going to be used                 *
#***********************************************************************
   0 = ptgmin ! Min photon transverse momentum
 0.4 = R0gamma ! Radius of isolation code
 1.0 = xn ! n parameter of eq.(3.4) in hep-ph/9801442
 1.0 = epsgamma ! epsilon_gamma parameter of eq.(3.4) in hep-ph/9801442
 .true. = isoEM ! isolate photons from EM energy (photons and leptons)
#*********************************************************************
# WBF cuts                                                           *
#*********************************************************************
 0   = xetamin ! minimum rapidity for two jets in the WBF case  
 0   = deltaeta ! minimum rapidity for two jets in the WBF case 
#*********************************************************************
# KT DURHAM CUT                                                      *
#*********************************************************************
 -1    =  ktdurham        
 0.4  =  dparameter 
#*********************************************************************
# maximal pdg code for quark to be considered as a light jet         *
# (otherwise b cuts are applied)                                     *
#*********************************************************************
 4 = maxjetflavor    ! Maximum jet pdg code
#*********************************************************************
# Jet measure cuts                                                   *
#*********************************************************************
 0   = xqcut   ! minimum kt jet measure between partons
#*********************************************************************
#
#*********************************************************************
# Store info for systematics studies                                 *
# WARNING: If use_syst is T, matched Pythia output is                *
#          meaningful ONLY if plotted taking matchscale              *
#          reweighting into account!                                 *
#*********************************************************************
   F  = use_syst      ! Enable systematics studies
#
#**************************************
# Parameter of the systematics study
#  will be used by SysCalc (if installed)
#**************************************                                  
#
0.5 1 2 = sys_scalefact  # factorization/renormalization scale factor
0.5 1 2 = sys_alpsfact  # \alpha_s emission scale factors
30 50 = sys_matchscale # variation of merging scale
# PDF sets and number of members (0 or none for all members).
CT10nlo.LHgrid = sys_pdf # matching scales
# MSTW2008nlo68cl.LHgrid 1  = sys_pdf
</MGRunCard>
<slha>
######################################################################
## PARAM_CARD AUTOMATICALY GENERATED BY MG5 FOLLOWING UFO MODEL   ####
######################################################################
##                                                                  ##
##  Width set on Auto will be computed following the information    ##
##        present in the decay.py files of the model.               ##
##        See  arXiv:1402.1178 for more details.                    ##
##                                                                  ##
######################################################################

###################################
## INFORMATION FOR CKMBLOCK
###################################
Block ckmblock 
    1 2.277360e-01 # cabi 

###################################
## INFORMATION FOR FRBLOCK
###################################
Block frblock 
    1 1.200000e+00 # gz 

###################################
## INFORMATION FOR MASS
###################################
Block mass 
    1 5.040000e-03 # MD 
    2 2.550000e-03 # MU 
    3 1.010000e-01 # MS 
    4 1.270000e+00 # MC 
    5 4.700000e+00 # MB 
    6 1.720000e+02 # MT 
   11 5.110000e-04 # Me 
   13 1.056600e-01 # MM 
   15 1.777000e+00 # MTA 
   23 9.118760e+01 # MZ 
   25 1.200000e+02 # MH 
  10030 3.700000e+03 # MZph 
  10031 3.000000e+02 # MZpl 
## Dependent parameters, given by model restrictions.
## Those values should be edited following the 
## analytical expression. MG5 ignores those values 
## but they are important for interfacing the output of MG5
## to external program such as Pythia.
  12 0.000000 # ve : 0.0 
  14 0.000000 # vm : 0.0 
  16 0.000000 # vt : 0.0 
  21 0.000000 # g : 0.0 
  22 0.000000 # a : 0.0 
  24 79.824360 # w+ : cmath.sqrt(MZ__exp__2/2. + cmath.sqrt(MZ__exp__4/4. - (aEW*cmath.pi*MZ__exp__2)/(Gf*sqrt__2))) 

###################################
## INFORMATION FOR SMINPUTS
###################################
Block sminputs 
    1 1.279000e+02 # aEWM1 
    2 1.166370e-05 # Gf 
    3 1.184000e-01 # aS 

###################################
## INFORMATION FOR YUKAWA
###################################
Block yukawa 
    1 5.040000e-03 # ymdo 
    2 2.550000e-03 # ymup 
    3 1.010000e-01 # yms 
    4 1.270000e+00 # ymc 
    5 4.700000e+00 # ymb 
    6 1.720000e+02 # ymt 
   11 5.110000e-04 # yme 
   13 1.056600e-01 # ymm 
   15 1.777000e+00 # ymtau 

###################################
## INFORMATION FOR DECAY
###################################
DECAY   6 1.508336e+00 # WT 
DECAY  23 2.495200e+00 # WZ 
DECAY  24 2.085000e+00 # WW 
DECAY  25 5.753088e-03 # WH 
## Dependent parameters, given by model restrictions.
## Those values should be edited following the 
## analytical expression. MG5 ignores those values 
## but they are important for interfacing the output of MG5
## to external program such as Pythia.
DECAY  1 0.000000 # d : 0.0 
DECAY  2 0.000000 # u : 0.0 
DECAY  3 0.000000 # s : 0.0 
DECAY  4 0.000000 # c : 0.0 
DECAY  5 0.000000 # b : 0.0 
DECAY  11 0.000000 # e- : 0.0 
DECAY  12 0.000000 # ve : 0.0 
DECAY  13 0.000000 # mu- : 0.0 
DECAY  14 0.000000 # vm : 0.0 
DECAY  15 0.000000 # ta- : 0.0 
DECAY  16 0.000000 # vt : 0.0 
DECAY  21 0.000000 # g : 0.0 
DECAY  22 0.000000 # a : 0.0 
DECAY  10030 0.308725 # zph : (gz__exp__2*MZph*(5 + cmath.sqrt(1 - (4*MT__exp__2)/MZph__exp__2)))/(144.*cmath.pi) 
DECAY  10031 0.132629 # zpl : (5*gz__exp__2*MZpl)/(144.*cmath.pi) 
#===========================================================
# QUANTUM NUMBERS OF NEW STATE(S) (NON SM PDG CODE)
#===========================================================

Block QNUMBERS 10030  # zph 
        1 0  # 3 times electric charge
        2 3  # number of spin states (2S+1)
        3 1  # colour rep (1: singlet, 3: triplet, 8: octet)
        4 0  # Particle/Antiparticle distinction (0=own anti)
Block QNUMBERS 10031  # zpl 
        1 0  # 3 times electric charge
        2 3  # number of spin states (2S+1)
        3 1  # colour rep (1: singlet, 3: triplet, 8: octet)
        4 0  # Particle/Antiparticle distinction (0=own anti)
</slha>
## END BANNER##
<MGGenerationInfo>
#  Number of Events        :         3903
#  Integrated weight (pb)  :  0.18300E-03
#  Max wgt                 :  0.73009E-07
#  Average wgt             :  0.46887E-07
</MGGenerationInfo>
</header>
<init>
     2212     2212  0.40000000000E+04  0.40000000000E+04 0 0  247000  247000 2   1
  0.18307250223E-03  0.53959369537E-06  0.73009160000E-07   0
</init>
<event>
 5   0  0.7300916E-07  0.3687004E+04  0.7818609E-02  0.8070848E-01
       -2   -1    0    0    0  501  0.00000000000E+00  0.00000000000E+00  0.10779260856E+04  0.10779260856E+04  0.25500000920E-02 0. -1.
        2   -1    0    0  501    0  0.00000000000E+00  0.00000000000E+00 -0.31528130874E+04  0.31528130874E+04  0.25500000920E-02 0.  1.
    10030    2    1    2    0    0  0.00000000000E+00  0.00000000000E+00 -0.20748870018E+04  0.42307391730E+04  0.36870039164E+04 0.  0.
        1    1    3    3  502    0  0.53496852098E+02  0.16030822469E+04 -0.20801710632E+04  0.26267558424E+04  0.50400001928E-02 0.  1.
       -1    1    3    3    0  502 -0.53496852098E+02 -0.16030822469E+04  0.52840613918E+01  0.16039833306E+04  0.50400001928E-02 0. -1.
</event>
<event>
 5   0  0.7300916E-07  0.3316218E+04  0.7818609E-02  0.8158781E-01
        2   -1    0    0  501    0  0.00000000000E+00  0.00000000000E+00  0.20821931994E+04  0.20821931994E+04  0.25500000920E-02 0.  1.
       -2   -1    0    0    0  501  0.00000000000E+00  0.00000000000E+00 -0.13203985470E+04  0.13203985470E+04  0.25500000920E-02 0. -1.
    10030    2    1    2    0    0  0.00000000000E+00  0.00000000000E+00  0.76179465238E+03  0.34025917465E+04  0.33162176498E+04 0.  0.
        1    1    3    3  502    0 -0.14551092309E+04  0.45734161340E+03  0.10480802352E+04  0.18506691775E+04  0.50400001928E-02 0.  1.
       -1    1    3    3    0  502  0.14551092309E+04 -0.45734161340E+03 -0.28628558278E+03  0.15519225690E+04  0.50400001928E-02 0. -1.
</event>
<event>
 5   0  0.7074157E-07  0.3685468E+04  0.7818609E-02  0.8071190E-01
       -2   -1    0    0    0  501  0.00000000000E+00  0.00000000000E+00  0.12207254861E+04  0.12207254861E+04  0.25500000920E-02 0.  1.
        2   -1    0    0  501    0  0.00000000000E+00  0.00000000000E+00 -0.27816806183E+04  0.27816806183E+04  0.25500000920E-02 0. -1.
    10030    2    1    2    0    0  0.00000000000E+00  0.00000000000E+00 -0.15609551322E+04  0.40024061043E+04  0.36854679078E+04 0.  0.
        3    1    3    3  502    0  0.85339625424E+03  0.16323376225E+04 -0.72242868756E+03  0.19785637466E+04  0.10100000352E+00 0. -1.
       -3    1    3    3    0  502 -0.85339625424E+03 -0.16323376225E+04 -0.83852644465E+03  0.20238423578E+04  0.10100000352E+00 0.  1.
</event>
<event>
 5   0  0.7300916E-07  0.3647069E+04  0.7818609E-02  0.8079794E-01
        2   -1    0    0  501    0  0.00000000000E+00  0.00000000000E+00  0.18134619723E+04  0.18134619723E+04  0.25500000920E-02 0. -1.
       -2   -1    0    0    0  501  0.00000000000E+00  0.00000000000E+00 -0.18336629820E+04  0.18336629820E+04  0.25500000920E-02 0.  1.
    10030    2    1    2    0    0  0.00000000000E+00  0.00000000000E+00 -0.20201009669E+02  0.36471249542E+04  0.36470690083E+04 0.  0.
        1    1    3    3  502    0 -0.36368104699E+03  0.13569478394E+04  0.11525465678E+04  0.18171227074E+04  0.50400001928E-02 0. -1.
       -1    1    3    3    0  502  0.36368104699E+03 -0.13569478394E+04 -0.11727475775E+04  0.18300022468E+04  0.50400001928E-02 0.  1.
</event>
<event>
 5   0  0.7074157E-07  0.3703435E+04  0.7818609E-02  0.8067201E-01
        2   -1    0    0  501    0  0.00000000000E+00  0.00000000000E+00  0.28996993003E+04  0.28996993003E+04  0.25500000920E-02 0.  1.
       -2   -1    0    0    0  501  0.00000000000E+00  0.00000000000E+00 -0.11824872306E+04  0.11824872306E+04  0.25500000920E-02 0. -1.
    10030    2    1    2    0    0  0.00000000000E+00  0.00000000000E+00  0.17172120696E+04  0.40821865309E+04  0.37034348356E+04 0.  0.
        3    1    3    3  502    0 -0.13422044557E+04 -0.10597231426E+04  0.16413976442E+04  0.23703822848E+04  0.10100000352E+00 0.  1.
       -3    1    3    3    0  502  0.13422044557E+04  0.10597231426E+04  0.75814425449E+02  0.17118042461E+04  0.10100000352E+00 0. -1.
</event>
<event>
 5   0  0.2411746E-07  0.3634958E+04  0.7818609E-02  0.8082531E-01
        1   -1    0    0  501    0  0.00000000000E+00  0.00000000000E+00  0.22983091218E+04  0.22983091218E+04  0.50400001928E-02 0.  1.
       -1   -1    0    0    0  501  0.00000000000E+00  0.00000000000E+00 -0.14372438405E+04  0.14372438405E+04  0.50400001928E-02 0. -1.
    10030    2    1    2    0    0  0.00000000000E+00  0.00000000000E+00  0.86106528124E+03  0.37355529623E+04  0.36349583926E+04 0.  0.
        1    1    3    3  502    0  0.15113145891E+04 -0.97428585527E+03  0.15877952620E+03  0.18051359098E+04  0.50400001928E-02 0. -1.
       -1    1    3    3    0  502 -0.15113145891E+04  0.97428585527E+03  0.70228575504E+03  0.19304170525E+04  0.50400001928E-02 0.  1.
</event>
<event>
 5   0  0.2287500E-07  0.3592842E+04  0.7818609E-02  0.8092133E-01
        1   -1    0    0  501    0  0.00000000000E+00  0.00000000000E+00  0.17572216265E+04  0.17572216265E+04  0.50400001928E-02 0. -1.
       -1   -1    0    0    0  501  0.00000000000E+00  0.00000000000E+00 -0.18364944615E+04  0.18364944615E+04  0.50400001928E-02 0.  1.
    10030    2    1    2    0    0  0.00000000000E+00  0.00000000000E+00 -0.79272834997E+02  0.35937160880E+04  0.35928416523E+04 0.  0.
        3    1    3    3  502    0  0.41451626399E+03 -0.17224805018E+04 -0.33697121301E+03  0.18034168738E+04  0.10100000352E+00 0.  1.
       -3    1    3    3    0  502 -0.41451626399E+03  0.17224805018E+04  0.25769837801E+03  0.17902992142E+04  0.10100000352E+00 0. -1.
</event>
<event>
 5   0  0.7300916E-07  0.3716047E+04  0.7818609E-02  0.8064415E-01
        2   -1    0    0  501    0  0.00000000000E+00  0.00000000000E+00  0.30179013339E+04  0.30179013339E+04  0.25500000920E-02 0. -1.
       -2   -1    0    0    0  501  0.00000000000E+00  0.00000000000E+00 -0.11439244735E+04  0.11439244735E+04  0.25500000920E-02 0.  1.
    10030    2    1    2    0    0  0.00000000000E+00  0.00000000000E+00  0.18739768604E+04  0.41618258074E+04  0.37160469289E+04 0.  0.
        1    1    3    3  502    0 -0.95907279911E+03 -0.36384338771E+02 -0.84480740370E+03  0.12786101843E+04  0.50400001928E-02 0.  1.
       -1    1    3    3    0  502  0.95907279911E+03  0.36384338771E+02  0.27187842641E+04  0.28832156231E+04  0.50400001928E-02 0. -1.
</event>
<event>
 5   0  0.2287500E-07  0.3747719E+04  0.7818609E-02  0.8057468E-01
       -1   -1    0    0    0  501  0.00000000000E+00  0.00000000000E+00  0.13402169903E+04  0.13402169903E+04  0.50400001928E-02 0. -1.
        1   -1    0    0  501    0  0.00000000000E+00  0.00000000000E+00 -0.26199851475E+04  0.26199851475E+04  0.50400001928E-02 0.  1.
    10030    2    1    2    0    0  0.00000000000E+00  0.00000000000E+00 -0.12797681571E+04  0.39602021378E+04  0.37477185642E+04 0.  0.
        2    1    3    3  502    0  0.18612492780E+04  0.20525284083E+03 -0.56538129481E+03  0.19560249518E+04  0.25500000920E-02 0.  1.
       -2    1    3    3    0  502 -0.18612492780E+04 -0.20525284083E+03 -0.71438686232E+03  0.20041771860E+04  0.25500000920E-02 0. -1.
</event>
<event>
 5   0  0.7300916E-07  0.3680557E+04  0.7818609E-02  0.8072284E-01
       -2   -1    0    0    0  501  0.00000000000E+00  0.00000000000E+00  0.12154768733E+04  0.12154768733E+04  0.25500000920E-02 0.  1.
        2   -1    0    0  501    0  0.00000000000E+00  0.00000000000E+00 -0.27862517833E+04  0.27862517833E+04  0.25500000920E-02 0. -1.
    10030    2    1    2    0    0  0.00000000000E+00  0.00000000000E+00 -0.15707749101E+04  0.40017286566E+04  0.36805568089E+04 0.  0.
        1    1    3    3  502    0 -0.58264232977E+03 -0.14585217858E+04 -0.18281767536E+04  0.24101842516E+04  0.50400001928E-02 0. -1.
       -1    1    3    3    0  502  0.58264232977E+03  0.14585217858E+04  0.25740184350E+03  0.15915444051E+04  0.50400001928E-02 0.  1.
</event>
<event>
 5   0  0.6949625E-07  0.3672823E+04  0.7818609E-02  0.8074011E-01
       -2   -1    0    0    0  501  0.00000000000E+00  0.00000000000E+00  0.10649535517E+04  0.10649535517E+04  0.25500000920E-02 0. -1.
        2   -1    0    0  501    0  0.00000000000E+00  0.00000000000E+00 -0.31667174925E+04  0.31667174925E+04  0.25500000920E-02 0.  1.
    10030    2    1    2    0    0  0.00000000000E+00  0.00000000000E+00 -0.21017639408E+04  0.42316710443E+04  0.36728229149E+04 0.  0.
        5    1    3    3  502    0 -0.77631503364E+03 -0.12419657112E+04  0.22548881330E+03  0.14818944477E+04  0.46999998093E+01 0. -1.
       -5    1    3    3    0  502  0.77631503364E+03  0.12419657112E+04 -0.23272527541E+04  0.27497765965E+04  0.46999998093E+01 0.  1.
</event>
<event>
 5   0  0.6949625E-07  0.3712395E+04  0.7818609E-02  0.8065220E-01
        2   -1    0    0  501    0  0.00000000000E+00  0.00000000000E+00  0.16081625079E+04  0.16081625079E+04  0.25500000920E-02 0. -1.
       -2   -1    0    0    0  501  0.00000000000E+00  0.00000000000E+00 -0.21424883604E+04  0.21424883604E+04  0.25500000920E-02 0.  1.
    10030    2    1    2    0    0  0.00000000000E+00  0.00000000000E+00 -0.53432585251E+03  0.37506508684E+04  0.37123951594E+04 0.  0.
        5    1    3    3  502    0  0.16470177600E+04 -0.69366720270E+03  0.23960912821E+03  0.18031295888E+04  0.46999998093E+01 0. -1.
       -5    1    3    3    0  502 -0.16470177600E+04  0.69366720270E+03 -0.77393498072E+03  0.19475212795E+04  0.46999998093E+01 0.  1.
</event>
<event>
 5   0  0.2345471E-07  0.3701309E+04  0.7818609E-02  0.8067672E-01
        1   -1    0    0  501    0  0.00000000000E+00  0.00000000000E+00  0.15343176244E+04  0.15343176244E+04  0.50400001928E-02 0.  1.
       -1   -1    0    0    0  501  0.00000000000E+00  0.00000000000E+00 -0.22322115579E+04  0.22322115579E+04  0.50400001928E-02 0. -1.
    10030    2    1    2    0    0  0.00000000000E+00  0.00000000000E+00 -0.69789393351E+03  0.37665291824E+04  0.37013087063E+04 0.  0.
        5    1    3    3  502    0 -0.11428599633E+04 -0.72324781748E+03  0.93651536964E+03  0.16450834109E+04  0.46999998093E+01 0.  1.
       -5    1    3    3    0  502  0.11428599633E+04  0.72324781748E+03 -0.16344093032E+04  0.21214457715E+04  0.46999998093E+01 0. -1.
</event>
<event>
 5   0  0.2411746E-07  0.2979495E+04  0.7818609E-02  0.8249611E-01
       -1   -1    0    0    0  501  0.00000000000E+00  0.00000000000E+00  0.14007900709E+04  0.14007900709E+04  0.50400001928E-02 0. -1.
        1   -1    0    0  501    0  0.00000000000E+00  0.00000000000E+00 -0.15843540583E+04  0.15843540583E+04  0.50400001928E-02 0.  1.
    10030    2    1    2    0    0  0.00000000000E+00  0.00000000000E+00 -0.18356398747E+03  0.29851441292E+04  0.29794948791E+04 0.  0.
        1    1    3    3  502    0 -0.10327502077E+04  0.94862158887E+03 -0.59561869227E+03  0.15235542448E+04  0.50400001928E-02 0.  1.
       -1    1    3    3    0  502  0.10327502077E+04 -0.94862158887E+03  0.41205470480E+03  0.14615898844E+04  0.50400001928E-02 0. -1.
</event>
<event>
 5   0  0.2287500E-07  0.3686729E+04  0.7818609E-02  0.8070909E-01
        1   -1    0    0  501    0  0.00000000000E+00  0.00000000000E+00  0.20903925272E+04  0.20903925272E+04  0.50400001928E-02 0.  1.
       -1   -1    0    0    0  501  0.00000000000E+00  0.00000000000E+00 -0.16255283757E+04  0.16255283757E+04  0.50400001928E-02 0. -1.
    10030    2    1    2    0    0  0.00000000000E+00  0.00000000000E+00  0.46486415156E+03  0.37159209029E+04  0.36867288315E+04 0.  0.
        3    1    3    3  502    0  0.11015689431E+03 -0.17482140820E+04 -0.34622648976E+03  0.17855698839E+04  0.10100000352E+00 0.  1.
       -3    1    3    3    0  502 -0.11015689431E+03  0.17482140820E+04  0.81109064132E+03  0.19303510190E+04  0.10100000352E+00 0. -1.
</event>
<event>
 5   0  0.2287500E-07  0.2906405E+04  0.7818609E-02  0.8270974E-01
        1   -1    0    0  501    0  0.00000000000E+00  0.00000000000E+00  0.16525138836E+04  0.16525138836E+04  0.50400001928E-02 0.  1.
       -1   -1    0    0    0  501  0.00000000000E+00  0.00000000000E+00 -0.12779304046E+04  0.12779304046E+04  0.50400001928E-02 0. -1.
    10030    2    1    2    0    0  0.00000000000E+00  0.00000000000E+00  0.37458347899E+03  0.29304442881E+04  0.29064051581E+04 0.  0.
        3    1    3    3  502    0  0.70512157681E+03  0.90028552487E+03 -0.71683414830E+03  0.13496524259E+04  0.10100000352E+00 0. -1.
       -3    1    3    3    0  502 -0.70512157681E+03 -0.90028552487E+03  0.10914176273E+04  0.15807918622E+04  0.10100000352E+00 0.  1.
</event>
<event>
 5   0  0.7300916E-07  0.3711912E+04  0.7818609E-02  0.8065327E-01
        2   -1    0    0  501    0  0.00000000000E+00  0.00000000000E+00  0.21930696973E+04  0.21930696973E+04  0.25500000920E-02 0. -1.
       -2   -1    0    0    0  501  0.00000000000E+00  0.00000000000E+00 -0.15706626878E+04  0.15706626878E+04  0.25500000920E-02 0.  1.
    10030    2    1    2    0    0  0.00000000000E+00  0.00000000000E+00  0.62240700953E+03  0.37637323850E+04  0.37119120384E+04 0.  0.
        1    1    3    3  502    0 -0.62599165079E+03 -0.14420521929E+04 -0.68907393699E+03  0.17164506880E+04  0.50400001928E-02 0.  1.
       -1    1    3    3    0  502  0.62599165079E+03  0.14420521929E+04  0.13114809465E+04  0.20472816970E+04  0.50400001928E-02 0. -1.
</event>
<event>
 5   0  0.2287500E-07  0.4041487E+04  0.7818609E-02  0.7996229E-01
       -1   -1    0    0    0  501  0.00000000000E+00  0.00000000000E+00  0.15745645315E+04  0.15745645315E+04  0.50400001928E-02 0.  1.
        1   -1    0    0  501    0  0.00000000000E+00  0.00000000000E+00 -0.25933542128E+04  0.25933542128E+04  0.50400001928E-02 0. -1.
    10030    2    1    2    0    0  0.00000000000E+00  0.00000000000E+00 -0.10187896813E+04  0.41679187443E+04  0.40414866380E+04 0.  0.
        4    1    3    3  502    0 -0.18009775483E+03 -0.11521374744E+04 -0.22113395717E+04  0.24999760549E+04  0.12699999809E+01 0. -1.
       -4    1    3    3    0  502  0.18009775483E+03  0.11521374744E+04  0.11925498904E+04  0.16679426894E+04  0.12699999809E+01 0.  1.
</event>
<event>
 5   0  0.2411746E-07  0.3681711E+04  0.7818609E-02  0.8072027E-01
       -1   -1    0    0    0  501  0.00000000000E+00  0.00000000000E+00  0.12521837579E+04  0.12521837579E+04  0.50400001928E-02 0.  1.
        1   -1    0    0  501    0  0.00000000000E+00  0.00000000000E+00 -0.27062713605E+04  0.27062713605E+04  0.50400001928E-02 0. -1.
    10030    2    1    2    0    0  0.00000000000E+00  0.00000000000E+00 -0.14540876026E+04  0.39584551184E+04  0.36817110381E+04 0.  0.
        1    1    3    3  502    0  0.92696778819E+03 -0.20752328268E+03  0.96831932705E+03  0.13564577075E+04  0.50400001928E-02 0.  1.
       -1    1    3    3    0  502 -0.92696778819E+03  0.20752328268E+03 -0.24224069297E+04  0.26019974109E+04  0.50400001928E-02 0. -1.
</event>
<event>
 5   0  0.7124627E-07  0.2924433E+04  0.7818609E-02  0.8265645E-01
        2   -1    0    0  501    0  0.00000000000E+00  0.00000000000E+00  0.20490461616E+04  0.20490461616E+04  0.25500000920E-02 0. -1.
       -2   -1    0    0    0  501  0.00000000000E+00  0.00000000000E+00 -0.10434499740E+04  0.10434499740E+04  0.25500000920E-02 0.  1.
    10030    2    1    2    0    0  0.00000000000E+00  0.00000000000E+00  0.10055961876E+04  0.30924961356E+04  0.29244330487E+04 0.  0.
        2    1    3    3  502    0 -0.14548105001E+04 -0.11610429600E+03  0.40748875152E+03  0.15152560448E+04  0.25500000920E-02 0. -1.
       -2    1    3    3    0  502  0.14548105001E+04  0.11610429600E+03  0.59810743607E+03  0.15772400908E+04  0.25500000920E-02 0.  1.
</event>
<event>
 5   0  0.2287500E-07  0.4110171E+04  0.7818609E-02  0.7982683E-01
       -1   -1    0    0    0  501  0.00000000000E+00  0.00000000000E+00  0.23357082421E+04  0.23357082421E+04  0.50400001928E-02 0.  1.
        1   -1    0    0  501    0  0.00000000000E+00  0.00000000000E+00 -0.18081778730E+04  0.18081778730E+04  0.50400001928E-02 0. -1.
    10030    2    1    2    0    0  0.00000000000E+00  0.00000000000E+00  0.52753036913E+03  0.41438861151E+04  0.41101707805E+04 0.  0.
        3    1    3    3  502    0  0.19320393017E+04 -0.20246455670E+03 -0.41226338675E+03  0.19858823909E+04  0.10100000352E+00 0. -1.
       -3    1    3    3    0  502 -0.19320393017E+04  0.20246455670E+03  0.93979375588E+03  0.21580037242E+04  0.10100000352E+00 0.  1.
</event>
<event>
 5   0  0.7074157E-07  0.3543489E+04  0.7818609E-02  0.8103560E-01
       -2   -1    0    0    0  501  0.00000000000E+00  0.00000000000E+00  0.12543227161E+04  0.12543227161E+04  0.25500000920E-02 0.  1.
        2   -1    0    0  501    0  0.00000000000E+00  0.00000000000E+00 -0.25026080052E+04  0.25026080052E+04  0.25500000920E-02 0. -1.
    10030    2    1    2    0    0  0.00000000000E+00  0.00000000000E+00 -0.12482852891E+04  0.37569307213E+04  0.35434887162E+04 0.  0.
        3    1    3    3  502    0  0.11927420624E+04  0.16228213099E+03 -0.20024925550E+04  0.23364386490E+04  0.10100000352E+00 0. -1.
       -3    1    3    3    0  502 -0.11927420624E+04 -0.16228213099E+03  0.75420726594E+03  0.14204920724E+04  0.10100000352E+00 0.  1.
</event>
<event>
 5   0  0.2411746E-07  0.2924708E+04  0.7818609E-02  0.8265564E-01
        1   -1    0    0  501    0  0.00000000000E+00  0.00000000000E+00  0.12691388303E+04  0.12691388303E+04  0.50400001928E-02 0. -1.
       -1   -1    0    0    0  501  0.00000000000E+00  0.00000000000E+00 -0.16849847868E+04  0.16849847868E+04  0.50400001928E-02 0.  1.
    10030    2    1    2    0    0  0.00000000000E+00  0.00000000000E+00 -0.41584595651E+03  0.29541236172E+04  0.29247082737E+04 0.  0.
        1    1    3    3  502    0 -0.69008895681E+03 -0.10642871992E+04  0.52709749751E+03  0.13735944753E+04  0.50400001928E-02 0. -1.
       -1    1    3    3    0  502  0.69008895681E+03  0.10642871992E+04 -0.94294345402E+03  0.15805291418E+04  0.50400001928E-02 0.  1.
</event>
<event>
 5   0  0.7124627E-07  0.3641762E+04  0.7818609E-02  0.8080992E-01
       -2   -1    0    0    0  501  0.00000000000E+00  0.00000000000E+00  0.11176569709E+04  0.11176569709E+04  0.25500000920E-02 0. -1.
        2   -1    0    0  501    0  0.00000000000E+00  0.00000000000E+00 -0.29665693686E+04  0.29665693686E+04  0.25500000920E-02 0.  1.
    10030    2    1    2    0    0  0.00000000000E+00  0.00000000000E+00 -0.18489123977E+04  0.40842263395E+04  0.36417616256E+04 0.  0.
        2    1    3    3  502    0 -0.10465922726E+04 -0.14899392263E+04 -0.94491088469E+03  0.20513729216E+04  0.25500000920E-02 0.  1.
       -2    1    3    3    0  502  0.10465922726E+04  0.14899392263E+04 -0.90400151297E+03  0.20328534179E+04  0.25500000920E-02 0. -1.
</event>
<event>
 5   0  0.2287500E-07  0.3721305E+04  0.7818609E-02  0.8063257E-01
       -1   -1    0    0    0  501  0.00000000000E+00  0.00000000000E+00  0.15418402769E+04  0.15418402769E+04  0.50400001928E-02 0.  1.
        1   -1    0    0  501    0  0.00000000000E+00  0.00000000000E+00 -0.22453872389E+04  0.22453872389E+04  0.50400001928E-02 0. -1.
    10030    2    1    2    0    0  0.00000000000E+00  0.00000000000E+00 -0.70354696199E+03  0.37872275159E+04  0.37213054066E+04 0.  0.
        2    1    3    3  502    0 -0.36530272279E+03  0.17343965026E+04  0.22433864457E+03  0.17865903658E+04  0.25500000920E-02 0.  1.
       -2    1    3    3    0  502  0.36530272279E+03 -0.17343965026E+04 -0.92788560656E+03  0.20006371501E+04  0.25500000920E-02 0. -1.
</event>
<event>
 5   0  0.7074157E-07  0.3739803E+04  0.7818609E-02  0.8059198E-01
        2   -1    0    0  501    0  0.00000000000E+00  0.00000000000E+00  0.23898303848E+04  0.23898303848E+04  0.25500000920E-02 0.  1.
       -2   -1    0    0    0  501  0.00000000000E+00  0.00000000000E+00 -0.14630877641E+04  0.14630877641E+04  0.25500000920E-02 0. -1.
    10030    2    1    2    0    0  0.00000000000E+00  0.00000000000E+00  0.92674262076E+03  0.38529181489E+04  0.37398029864E+04 0.  0.
        3    1    3    3  502    0 -0.17085146722E+04 -0.75101972957E+02  0.12424642982E+04  0.21138543550E+04  0.10100000352E+00 0.  1.
       -3    1    3    3    0  502  0.17085146722E+04  0.75101972957E+02 -0.31572167740E+03  0.17390637939E+04  0.10100000352E+00 0. -1.
</event>
<event>
 5   0  0.6949625E-07  0.3654727E+04  0.7818609E-02  0.8078070E-01
       -2   -1    0    0    0  501  0.00000000000E+00  0.00000000000E+00  0.17944546617E+04  0.17944546617E+04  0.25500000920E-02 0.  1.
        2   -1    0    0  501    0  0.00000000000E+00  0.00000000000E+00 -0.18608756330E+04  0.18608756330E+04  0.25500000920E-02 0. -1.
    10030    2    1    2    0    0  0.00000000000E+00  0.00000000000E+00 -0.66420971221E+02  0.36553302947E+04  0.36547267775E+04 0.  0.
        5    1    3    3  502    0 -0.56455931090E+03  0.97447363577E+03  0.14060923980E+04  0.18015115887E+04  0.46999998093E+01 0.  1.
       -5    1    3    3    0  502  0.56455931090E+03 -0.97447363577E+03 -0.14725133692E+04  0.18538187061E+04  0.46999998093E+01 0. -1.
</event>
<event>
 5   0  0.2287500E-07  0.2923435E+04  0.7818609E-02  0.8265939E-01
       -1   -1    0    0    0  501  0.00000000000E+00  0.00000000000E+00  0.79069802699E+03  0.79069802701E+03  0.50400001928E-02 0.  1.
        1   -1    0    0  501    0  0.00000000000E+00  0.00000000000E+00 -0.27021916686E+04  0.27021916686E+04  0.50400001928E-02 0. -1.
    10030    2    1    2    0    0  0.00000000000E+00  0.00000000000E+00 -0.19114936416E+04  0.34928896956E+04  0.29234347066E+04 0.  0.
        2    1    3    3  502    0 -0.86898849928E+02 -0.12864522641E+04 -0.17784242018E+04  0.21966573423E+04  0.25500000920E-02 0. -1.
       -2    1    3    3    0  502  0.86898849928E+02  0.12864522641E+04 -0.13306943978E+03  0.12962323533E+04  0.25500000920E-02 0.  1.
</event>
<event>
 5   0  0.7074157E-07  0.3518167E+04  0.7818609E-02  0.8109498E-01
       -2   -1    0    0    0  501  0.00000000000E+00  0.00000000000E+00  0.17457574292E+04  0.17457574292E+04  0.25500000920E-02 0. -1.
        2   -1    0    0  501    0  0.00000000000E+00  0.00000000000E+00 -0.17725110138E+04  0.17725110138E+04  0.25500000920E-02 0.  1.
    10030    2    1    2    0    0  0.00000000000E+00  0.00000000000E+00 -0.26753584585E+02  0.35182684429E+04  0.35181667218E+04 0.  0.
        3    1    3    3  502    0  0.21437272225E+03  0.17053766351E+04 -0.38769915454E+03  0.17619806401E+04  0.10100000352E+00 0. -1.
       -3    1    3    3    0  502 -0.21437272225E+03 -0.17053766351E+04  0.36094556995E+03  0.17562878028E+04  0.10100000352E+00 0.  1.
</event>
<event>
 5   0  0.7300916E-07  0.3742552E+04  0.7818609E-02  0.8058597E-01
        2   -1    0    0  501    0  0.00000000000E+00  0.00000000000E+00  0.19838400777E+04  0.19838400777E+04  0.25500000920E-02 0.  1.
       -2   -1    0    0    0  501  0.00000000000E+00  0.00000000000E+00 -0.17650991529E+04  0.17650991529E+04  0.25500000920E-02 0. -1.
    10030    2    1    2    0    0  0.00000000000E+00  0.00000000000E+00  0.21874092482E+03  0.37489392306E+04  0.37425523060E+04 0.  0.
        1    1    3    3  502    0  0.11592355198E+04 -0.52168280718E+03 -0.12661789287E+04  0.17942098598E+04  0.50400001928E-02 0. -1.
       -1    1    3    3    0  502 -0.11592355198E+04  0.52168280718E+03  0.14849198535E+04  0.19547293708E+04  0.50400001928E-02 0.  1.
</event>
<event>
 5   0  0.2345471E-07  0.3721429E+04  0.7818609E-02  0.8063229E-01
       -1   -1    0    0    0  501  0.00000000000E+00  0.00000000000E+00  0.14260227350E+04  0.14260227350E+04  0.50400001928E-02 0.  1.
        1   -1    0    0  501    0  0.00000000000E+00  0.00000000000E+00 -0.24279131355E+04  0.24279131355E+04  0.50400001928E-02 0. -1.
    10030    2    1    2    0    0  0.00000000000E+00  0.00000000000E+00 -0.10018904005E+04  0.38539358705E+04  0.37214294726E+04 0.  0.
        5    1    3    3  502    0 -0.11395204214E+04 -0.13596673619E+04 -0.10822101994E+04  0.20780767867E+04  0.46999998093E+01 0. -1.
       -5    1    3    3    0  502  0.11395204214E+04  0.13596673619E+04  0.80319798913E+02  0.17758590839E+04  0.46999998093E+01 0.  1.
</event>
<event>
 5   0  0.7074157E-07  0.3709460E+04  0.7818609E-02  0.8065869E-01
        2   -1    0    0  501    0  0.00000000000E+00  0.00000000000E+00  0.23730281095E+04  0.23730281095E+04  0.25500000920E-02 0. -1.
       -2   -1    0    0    0  501  0.00000000000E+00  0.00000000000E+00 -0.14496344966E+04  0.14496344966E+04  0.25500000920E-02 0.  1.
    10030    2    1    2    0    0  0.00000000000E+00  0.00000000000E+00  0.92339361294E+03  0.38226626060E+04  0.37094600194E+04 0.  0.
        3    1    3    3  502    0  0.33168471203E+03  0.68619692507E+03  0.22041983398E+04  0.23322459775E+04  0.10100000352E+00 0. -1.
       -3    1    3    3    0  502 -0.33168471203E+03 -0.68619692507E+03 -0.12808047269E+04  0.14904166286E+04  0.10100000352E+00 0.  1.
</event>
<event>
 5   0  0.2287500E-07  0.3699269E+04  0.7818609E-02  0.8068124E-01
       -1   -1    0    0    0  501  0.00000000000E+00  0.00000000000E+00  0.14158294146E+04  0.14158294147E+04  0.50400001928E-02 0.  1.
        1   -1    0    0  501    0  0.00000000000E+00  0.00000000000E+00 -0.24163553363E+04  0.24163553363E+04  0.50400001928E-02 0. -1.
    10030    2    1    2    0    0  0.00000000000E+00  0.00000000000E+00 -0.10005259217E+04  0.38321847510E+04  0.36992685555E+04 0.  0.
        4    1    3    3  502    0  0.12592790122E+04  0.13544095806E+04 -0.46856271294E+03  0.19078159166E+04  0.12699999809E+01 0. -1.
       -4    1    3    3    0  502 -0.12592790122E+04 -0.13544095806E+04 -0.53196320874E+03  0.19243688344E+04  0.12699999809E+01 0.  1.
</event>
<event>
 5   0  0.2411746E-07  0.2664510E+04  0.7818609E-02  0.8346613E-01
        1   -1    0    0  501    0  0.00000000000E+00  0.00000000000E+00  0.12738473132E+04  0.12738473132E+04  0.50400001928E-02 0.  1.
       -1   -1    0    0    0  501  0.00000000000E+00  0.00000000000E+00 -0.13933411794E+04  0.13933411794E+04  0.50400001928E-02 0. -1.
    10030    2    1    2    0    0  0.00000000000E+00  0.00000000000E+00 -0.11949386624E+03  0.26671884926E+04  0.26645103998E+04 0.  0.
        1    1    3    3  502    0 -0.11725104692E+03 -0.31812311366E+03  0.12299399676E+04  0.12758144252E+04  0.50400001928E-02 0.  1.
       -1    1    3    3    0  502  0.11725104692E+03  0.31812311366E+03 -0.13494338339E+04  0.13913740674E+04  0.50400001928E-02 0. -1.
</event>
<event>
 5   0  0.2287500E-07  0.3702403E+04  0.7818609E-02  0.8067429E-01
        1   -1    0    0  501    0  0.00000000000E+00  0.00000000000E+00  0.19346545561E+04  0.19346545561E+04  0.50400001928E-02 0.  1.
       -1   -1    0    0    0  501  0.00000000000E+00  0.00000000000E+00 -0.17713486783E+04  0.17713486783E+04  0.50400001928E-02 0. -1.
    10030    2    1    2    0    0  0.00000000000E+00  0.00000000000E+00  0.16330587777E+03  0.37060032344E+04  0.37024034307E+04 0.  0.
        3    1    3    3  502    0  0.60478754911E+03 -0.17475101593E+04  0.16769024511E+03  0.18567928707E+04  0.10100000352E+00 0. -1.
       -3    1    3    3    0  502 -0.60478754911E+03  0.17475101593E+04 -0.43843673453E+01  0.18492103637E+04  0.10100000352E+00 0.  1.
</event>
<event>
 5   0  0.6939921E-07  0.3759631E+04  0.7818609E-02  0.8054874E-01
       -2   -1    0    0    0  501  0.00000000000E+00  0.00000000000E+00  0.28629479312E+04  0.28629479312E+04  0.25500000920E-02 0. -1.
        2   -1    0    0  501    0  0.00000000000E+00  0.00000000000E+00 -0.12342891511E+04  0.12342891511E+04  0.25500000920E-02 0.  1.
    10030    2    1    2    0    0  0.00000000000E+00  0.00000000000E+00  0.16286587801E+04  0.40972370822E+04  0.37596306050E+04 0.  0.
        4    1    3    3  502    0  0.77592673941E+03 -0.67695327661E+03  0.25282511085E+04  0.27299053691E+04  0.12699999809E+01 0. -1.
       -4    1    3    3    0  502 -0.77592673941E+03  0.67695327661E+03 -0.89959232837E+03  0.13673317132E+04  0.12699999809E+01 0.  1.
</event>
<event>
 5   0  0.6939921E-07  0.3690073E+04  0.7818609E-02  0.8070165E-01
        2   -1    0    0  501    0  0.00000000000E+00  0.00000000000E+00  0.20322871721E+04  0.20322871721E+04  0.25500000920E-02 0. -1.
       -2   -1    0    0    0  501  0.00000000000E+00  0.00000000000E+00 -0.16750387035E+04  0.16750387035E+04  0.25500000920E-02 0.  1.
    10030    2    1    2    0    0  0.00000000000E+00  0.00000000000E+00  0.35724846855E+03  0.37073258756E+04  0.36900729911E+04 0.  0.
        4    1    3    3  502    0 -0.12770048275E+04 -0.13314458832E+04  0.20460219597E+03  0.18561662481E+04  0.12699999809E+01 0.  1.
       -4    1    3    3    0  502  0.12770048275E+04  0.13314458832E+04  0.15264627258E+03  0.18511596275E+04  0.12699999809E+01 0. -1.
</event>
<event>
 5   0  0.2287500E-07  0.3639629E+04  0.7818609E-02  0.8081474E-01
        4   -1    0    0  501    0  0.00000000000E+00  0.00000000000E+00  0.21208065678E+04  0.21208069480E+04  0.12699999809E+01 0.  1.
       -4   -1    0    0    0  501  0.00000000000E+00  0.00000000000E+00 -0.15615394749E+04  0.15615399913E+04  0.12699999809E+01 0. -1.
    10030    2    1    2    0    0  0.00000000000E+00  0.00000000000E+00  0.55926709286E+03  0.36823469394E+04  0.36396290059E+04 0.  0.
        3    1    3    3  502    0 -0.13451456214E+04 -0.12008889098E+04  0.31450756750E+02  0.18034799906E+04  0.10100000352E+00 0. -1.
       -3    1    3    3    0  502  0.13451456214E+04  0.12008889098E+04  0.52781633611E+03  0.18788669487E+04  0.10100000352E+00 0.  1.
</event>
<event>
 5   0  0.2345471E-07  0.3662399E+04  0.7818609E-02  0.8076346E-01
        1   -1    0    0  501    0  0.00000000000E+00  0.00000000000E+00  0.28154914643E+04  0.28154914643E+04  0.50400001928E-02 0.  1.
       -1   -1    0    0    0  501  0.00000000000E+00  0.00000000000E+00 -0.11910149698E+04  0.11910149698E+04  0.50400001928E-02 0. -1.
    10030    2    1    2    0    0  0.00000000000E+00  0.00000000000E+00  0.16244764944E+04  0.40065064341E+04  0.36623994765E+04 0.  0.
        5    1    3    3  502    0 -0.91618534301E+03 -0.81955495290E+03 -0.67256548063E+03  0.14012252921E+04  0.46999998093E+01 0. -1.
       -5    1    3    3    0  502  0.91618534301E+03  0.81955495290E+03  0.22970419751E+04  0.26052811420E+04  0.46999998093E+01 0.  1.
</event>
<event>
 5   0  0.2345471E-07  0.3389975E+04  0.7818609E-02  0.8140371E-01
       -1   -1    0    0    0  501  0.00000000000E+00  0.00000000000E+00  0.11783415101E+04  0.11783415102E+04  0.50400001928E-02 0.  1.
        1   -1    0    0  501    0  0.00000000000E+00  0.00000000000E+00 -0.24381577423E+04  0.24381577423E+04  0.50400001928E-02 0. -1.
    10030    2    1    2    0    0  0.00000000000E+00  0.00000000000E+00 -0.12598162321E+04  0.36164992524E+04  0.33899749120E+04 0.  0.
        5    1    3    3  502    0  0.36213827402E+03  0.18045024556E+03  0.11260605191E+04  0.11965537194E+04  0.46999998093E+01 0.  1.
       -5    1    3    3    0  502 -0.36213827402E+03 -0.18045024556E+03 -0.23858767513E+04  0.24199455331E+04  0.46999998093E+01 0. -1.
</event>
<event>
 5   0  0.7124627E-07  0.3706486E+04  0.7818609E-02  0.8066526E-01
        2   -1    0    0  501    0  0.00000000000E+00  0.00000000000E+00  0.17697747399E+04  0.17697747399E+04  0.25500000920E-02 0. -1.
       -2   -1    0    0    0  501  0.00000000000E+00  0.00000000000E+00 -0.19406481084E+04  0.19406481084E+04  0.25500000920E-02 0.  1.
    10030    2    1    2    0    0  0.00000000000E+00  0.00000000000E+00 -0.17087336853E+03  0.37104228483E+04  0.37064862073E+04 0.  0.
        2    1    3    3  502    0  0.98879652527E+03 -0.68752512137E+03 -0.14955138048E+04  0.19201486664E+04  0.25500000920E-02 0.  1.
       -2    1    3    3    0  502 -0.98879652527E+03  0.68752512137E+03  0.13246404363E+04  0.17902741819E+04  0.25500000920E-02 0. -1.
</event>
<event>
 5   0  0.7074157E-07  0.3699959E+04  0.7818609E-02  0.8067971E-01
        2   -1    0    0  501    0  0.00000000000E+00  0.00000000000E+00  0.12243957266E+04  0.12243957266E+04  0.25500000920E-02 0.  1.
       -2   -1    0    0    0  501  0.00000000000E+00  0.00000000000E+00 -0.27951937108E+04  0.27951937108E+04  0.25500000920E-02 0. -1.
    10030    2    1    2    0    0  0.00000000000E+00  0.00000000000E+00 -0.15707979843E+04  0.40195894374E+04  0.36999585049E+04 0.  0.
        3    1    3    3  502    0  0.92277932588E+03 -0.13216285795E+04  0.20088276416E+03  0.16243699337E+04  0.10100000352E+00 0.  1.
       -3    1    3    3    0  502 -0.92277932588E+03  0.13216285795E+04 -0.17716807484E+04  0.23952195037E+04  0.10100000352E+00 0. -1.
</event>
<event>
 5   0  0.7300916E-07  0.3718178E+04  0.7818609E-02  0.8063945E-01
        2   -1    0    0  501    0  0.00000000000E+00  0.00000000000E+00  0.23854106835E+04  0.23854106835E+04  0.25500000920E-02 0.  1.
       -2   -1    0    0    0  501  0.00000000000E+00  0.00000000000E+00 -0.14488961820E+04  0.14488961820E+04  0.25500000920E-02 0. -1.
    10030    2    1    2    0    0  0.00000000000E+00  0.00000000000E+00  0.93651450151E+03  0.38343068654E+04  0.37181782807E+04 0.  0.
        1    1    3    3  502    0  0.29061855909E+03  0.16874597585E+04 -0.27839567739E+03  0.17347863663E+04  0.50400001928E-02 0. -1.
       -1    1    3    3    0  502 -0.29061855909E+03 -0.16874597585E+04  0.12149101789E+04  0.20995204991E+04  0.50400001928E-02 0.  1.
</event>
<event>
 5   0  0.7124627E-07  0.3707030E+04  0.7818609E-02  0.8066406E-01
       -2   -1    0    0    0  501  0.00000000000E+00  0.00000000000E+00  0.34989231015E+04  0.34989231015E+04  0.25500000920E-02 0. -1.
        2   -1    0    0  501    0  0.00000000000E+00  0.00000000000E+00 -0.98187841387E+03  0.98187841388E+03  0.25500000920E-02 0.  1.
    10030    2    1    2    0    0  0.00000000000E+00  0.00000000000E+00  0.25170446876E+04  0.44808015154E+04  0.37070295738E+04 0.  0.
        2    1    3    3  502    0 -0.66487843350E+03  0.14284129224E+04  0.24385621859E+04  0.29032761396E+04  0.25500000920E-02 0. -1.
       -2    1    3    3    0  502  0.66487843350E+03 -0.14284129224E+04  0.78482501696E+02  0.15775253758E+04  0.25500000920E-02 0.  1.
</event>
<event>
 5   0  0.7074157E-07  0.3558830E+04  0.7818609E-02  0.8099988E-01
        2   -1    0    0  501    0  0.00000000000E+00  0.00000000000E+00  0.23492981570E+04  0.23492981570E+04  0.25500000920E-02 0.  1.
       -2   -1    0    0    0  501  0.00000000000E+00  0.00000000000E+00 -0.13477718620E+04  0.13477718620E+04  0.25500000920E-02 0. -1.
    10030    2    1    2    0    0  0.00000000000E+00  0.00000000000E+00  0.10015262950E+04  0.36970700189E+04  0.35588301175E+04 0.  0.
        3    1    3    3  502    0  0.10778545922E+04 -0.15615695662E+03  0.19626064624E+04  0.22445444200E+04  0.10100000352E+00 0.  1.
       -3    1    3    3    0  502 -0.10778545922E+04  0.15615695662E+03 -0.96108016739E+03  0.14525255989E+04  0.10100000352E+00 0. -1.
</event>
<event>
 5   0  0.2287500E-07  0.3711920E+04  0.7818609E-02  0.8065325E-01
       -1   -1    0    0    0  501  0.00000000000E+00  0.00000000000E+00  0.15411093238E+04  0.15411093238E+04  0.50400001928E-02 0. -1.
        1   -1    0    0  501    0  0.00000000000E+00  0.00000000000E+00 -0.22351356175E+04  0.22351356175E+04  0.50400001928E-02 0.  1.
    10030    2    1    2    0    0  0.00000000000E+00  0.00000000000E+00 -0.69402629371E+03  0.37762449414E+04  0.37119204411E+04 0.  0.
        3    1    3    3  502    0  0.55937477465E+03  0.71865315906E+01  0.14532963544E+04  0.15572482424E+04  0.10100000352E+00 0. -1.
       -3    1    3    3    0  502 -0.55937477465E+03 -0.71865315906E+01 -0.21473226481E+04  0.22189966989E+04  0.10100000352E+00 0.  1.
</event>
<event>
 5   0  0.6949625E-07  0.3566035E+04  0.7818609E-02  0.8098316E-01
        2   -1    0    0  501    0  0.00000000000E+00  0.00000000000E+00  0.25316341780E+04  0.25316341780E+04  0.25500000920E-02 0.  1.
       -2   -1    0    0    0  501  0.00000000000E+00  0.00000000000E+00 -0.12557706951E+04  0.12557706951E+04  0.25500000920E-02 0. -1.
    10030    2    1    2    0    0  0.00000000000E+00  0.00000000000E+00  0.12758634829E+04  0.37874048731E+04  0.35660353400E+04 0.  0.
        5    1    3    3  502    0  0.10449728851E+04  0.97273938649E+03 -0.49652367359E+03  0.15115383201E+04  0.46999998093E+01 0. -1.
       -5    1    3    3    0  502 -0.10449728851E+04 -0.97273938649E+03  0.17723871565E+04  0.22758665530E+04  0.46999998093E+01 0.  1.
</event>
<event>
 5   0  0.2345471E-07  0.2764990E+04  0.7818609E-02  0.8314221E-01
       -1   -1    0    0    0  501  0.00000000000E+00  0.00000000000E+00  0.20271709115E+04  0.20271709115E+04  0.50400001928E-02 0.  1.
        1   -1    0    0  501    0  0.00000000000E+00  0.00000000000E+00 -0.94283716491E+03  0.94283716492E+03  0.50400001928E-02 0. -1.
    10030    2    1    2    0    0  0.00000000000E+00  0.00000000000E+00  0.10843337465E+04  0.29700080764E+04  0.27649897468E+04 0.  0.
        5    1    3    3  502    0 -0.12086829525E+04  0.48578955556E+03  0.44842155988E+02  0.13034334969E+04  0.46999998093E+01 0. -1.
       -5    1    3    3    0  502  0.12086829525E+04 -0.48578955556E+03  0.10394915906E+04  0.16665745794E+04  0.46999998093E+01 0.  1.
</event>
<event>
 5   0  0.2287500E-07  0.3726645E+04  0.7818609E-02  0.8062083E-01
        1   -1    0    0  501    0  0.00000000000E+00  0.00000000000E+00  0.23484155140E+04  0.23484155140E+04  0.50400001928E-02 0.  1.
       -1   -1    0    0    0  501  0.00000000000E+00  0.00000000000E+00 -0.14784309990E+04  0.14784309990E+04  0.50400001928E-02 0. -1.
    10030    2    1    2    0    0  0.00000000000E+00  0.00000000000E+00  0.86998451497E+03  0.38268465130E+04  0.37266447614E+04 0.  0.
        3    1    3    3  502    0  0.84856976092E+02 -0.15395306355E+04 -0.63937742735E+03  0.16691790763E+04  0.10100000352E+00 0. -1.
       -3    1    3    3    0  502 -0.84856976092E+02  0.15395306355E+04  0.15093619423E+04  0.21576674366E+04  0.10100000352E+00 0.  1.
</event>
<event>
 5   0  0.7074157E-07  0.2687884E+04  0.7818609E-02  0.8338947E-01
       -2   -1    0    0    0  501  0.00000000000E+00  0.00000000000E+00  0.72892302006E+03  0.72892302006E+03  0.25500000920E-02 0.  1.
        2   -1    0    0  501    0  0.00000000000E+00  0.00000000000E+00 -0.24778752974E+04  0.24778752974E+04  0.25500000920E-02 0. -1.
    10030    2    1    2    0    0  0.00000000000E+00  0.00000000000E+00 -0.17489522773E+04  0.32067983175E+04  0.26878841829E+04 0.  0.
        3    1    3    3  502    0  0.78457286892E+03  0.10774756717E+04 -0.10799866114E+04  0.17154822939E+04  0.10100000352E+00 0.  1.
       -3    1    3    3    0  502 -0.78457286892E+03 -0.10774756717E+04 -0.66896566598E+03  0.14913160236E+04  0.10100000352E+00 0. -1.
</event>
<event>
 5   0  0.2411746E-07  0.3680849E+04  0.7818609E-02  0.8072219E-01
        1   -1    0    0  501    0  0.00000000000E+00  0.00000000000E+00  0.11207354132E+04  0.11207354132E+04  0.50400001928E-02 0. -1.
       -1   -1    0    0    0  501  0.00000000000E+00  0.00000000000E+00 -0.30222683767E+04  0.30222683767E+04  0.50400001928E-02 0.  1.
    10030    2    1    2    0    0  0.00000000000E+00  0.00000000000E+00 -0.19015329635E+04  0.41430037899E+04  0.36808494660E+04 0.  0.
        1    1    3    3  502    0 -0.67399002520E+03  0.44449837032E+03  0.91076973793E+03  0.12171042974E+04  0.50400001928E-02 0. -1.
       -1    1    3    3    0  502  0.67399002520E+03 -0.44449837032E+03 -0.28123027014E+04  0.29258994924E+04  0.50400001928E-02 0.  1.
</event>
<event>
 5   0  0.2287500E-07  0.3697304E+04  0.7818609E-02  0.8068560E-01
        1   -1    0    0  501    0  0.00000000000E+00  0.00000000000E+00  0.20168358977E+04  0.20168358977E+04  0.50400001928E-02 0. -1.
       -1   -1    0    0    0  501  0.00000000000E+00  0.00000000000E+00 -0.16944927816E+04  0.16944927816E+04  0.50400001928E-02 0.  1.
    10030    2    1    2    0    0  0.00000000000E+00  0.00000000000E+00  0.32234311607E+03  0.37113286793E+04  0.36973038124E+04 0.  0.
        3    1    3    3  502    0 -0.10297067739E+04 -0.48855729650E+03 -0.12998665576E+04  0.17287675812E+04  0.10100000352E+00 0.  1.
       -3    1    3    3    0  502  0.10297067739E+04  0.48855729650E+03  0.16222096736E+04  0.19825610981E+04  0.10100000352E+00 0. -1.
</event>
<event>
 5   0  0.2287500E-07  0.3696165E+04  0.7818609E-02  0.8068812E-01
        1   -1    0    0  501    0  0.00000000000E+00  0.00000000000E+00  0.13915260589E+04  0.13915260589E+04  0.50400001928E-02 0.  1.
       -1   -1    0    0    0  501  0.00000000000E+00  0.00000000000E+00 -0.24544337665E+04  0.24544337665E+04  0.50400001928E-02 0. -1.
    10030    2    1    2    0    0  0.00000000000E+00  0.00000000000E+00 -0.10629077076E+04  0.38459598254E+04  0.36961647939E+04 0.  0.
        2    1    3    3  502    0 -0.17764845862E+04 -0.23048951492E+02 -0.10609787315E+04  0.20693246743E+04  0.25500000920E-02 0. -1.
       -2    1    3    3    0  502  0.17764845862E+04  0.23048951492E+02 -0.19289760835E+01  0.17766351511E+04  0.25500000920E-02 0.  1.
</event>
<event>
 5   0  0.2345471E-07  0.2962288E+04  0.7818609E-02  0.8254582E-01
       -1   -1    0    0    0  501  0.00000000000E+00  0.00000000000E+00  0.11636901229E+04  0.11636901229E+04  0.50400001928E-02 0. -1.
        1   -1    0    0  501    0  0.00000000000E+00  0.00000000000E+00 -0.18851994672E+04  0.18851994672E+04  0.50400001928E-02 0.  1.
    10030    2    1    2    0    0  0.00000000000E+00  0.00000000000E+00 -0.72150934431E+03  0.30488895902E+04  0.29622883045E+04 0.  0.
        5    1    3    3  502    0 -0.94932459677E+03 -0.11360974525E+04 -0.40479939772E+03  0.15348678295E+04  0.46999998093E+01 0.  1.
       -5    1    3    3    0  502  0.94932459677E+03  0.11360974525E+04 -0.31670994659E+03  0.15140217607E+04  0.46999998093E+01 0. -1.
</event>
<event>
 5   0  0.6939921E-07  0.3734871E+04  0.7818609E-02  0.8060278E-01
        2   -1    0    0  501    0  0.00000000000E+00  0.00000000000E+00  0.12452833456E+04  0.12452833456E+04  0.25500000920E-02 0. -1.
       -2   -1    0    0    0  501  0.00000000000E+00  0.00000000000E+00 -0.28004198250E+04  0.28004198250E+04  0.25500000920E-02 0.  1.
    10030    2    1    2    0    0  0.00000000000E+00  0.00000000000E+00 -0.15551364794E+04  0.40457031707E+04  0.37348714403E+04 0.  0.
        4    1    3    3  502    0 -0.16635410313E+04 -0.72570140156E+03 -0.12538214957E+04  0.22059195912E+04  0.12699999809E+01 0.  1.
       -4    1    3    3    0  502  0.16635410313E+04  0.72570140156E+03 -0.30131498367E+03  0.18397835794E+04  0.12699999809E+01 0. -1.
</event>
<event>
 5   0  0.7300916E-07  0.3694629E+04  0.7818609E-02  0.8069153E-01
       -2   -1    0    0    0  501  0.00000000000E+00  0.00000000000E+00  0.16426344723E+04  0.16426344723E+04  0.25500000920E-02 0. -1.
        2   -1    0    0  501    0  0.00000000000E+00  0.00000000000E+00 -0.20774981041E+04  0.20774981041E+04  0.25500000920E-02 0.  1.
    10030    2    1    2    0    0  0.00000000000E+00  0.00000000000E+00 -0.43486363183E+03  0.37201325764E+04  0.36946285344E+04 0.  0.
        1    1    3    3  502    0  0.75377194432E+03  0.24842619817E+03  0.14622207149E+04  0.16637238771E+04  0.50400001928E-02 0. -1.
       -1    1    3    3    0  502 -0.75377194432E+03 -0.24842619817E+03 -0.18970843467E+04  0.20564086993E+04  0.50400001928E-02 0.  1.
</event>
<event>
 5   0  0.2287500E-07  0.3713105E+04  0.7818609E-02  0.8065064E-01
       -1   -1    0    0    0  501  0.00000000000E+00  0.00000000000E+00  0.20818710217E+04  0.20818710217E+04  0.50400001928E-02 0.  1.
        1   -1    0    0  501    0  0.00000000000E+00  0.00000000000E+00 -0.16556201493E+04  0.16556201493E+04  0.50400001928E-02 0. -1.
    10030    2    1    2    0    0  0.00000000000E+00  0.00000000000E+00  0.42625087240E+03  0.37374911711E+04  0.37131052298E+04 0.  0.
        4    1    3    3  502    0 -0.72713138244E+02  0.15632522989E+04  0.12185554328E+04  0.19834121877E+04  0.12699999809E+01 0.  1.
       -4    1    3    3    0  502  0.72713138244E+02 -0.15632522989E+04 -0.79230456043E+03  0.17540789834E+04  0.12699999809E+01 0. -1.
</event>
<event>
 5   0  0.7124627E-07  0.3745193E+04  0.7818609E-02  0.8058020E-01
       -2   -1    0    0    0  501  0.00000000000E+00  0.00000000000E+00  0.15528235072E+04  0.15528235072E+04  0.25500000920E-02 0. -1.
        2   -1    0    0  501    0  0.00000000000E+00  0.00000000000E+00 -0.22582197809E+04  0.22582197809E+04  0.25500000920E-02 0.  1.
    10030    2    1    2    0    0  0.00000000000E+00  0.00000000000E+00 -0.70539627373E+03  0.38110432881E+04  0.37451925239E+04 0.  0.
        2    1    3    3  502    0 -0.81264536924E+03  0.61765470845E+02 -0.20682862996E+04  0.22230644810E+04  0.25500000920E-02 0.  1.
       -2    1    3    3    0  502  0.81264536924E+03 -0.61765470845E+02  0.13628900258E+04  0.15879788072E+04  0.25500000920E-02 0. -1.
</event>
<event>
 5   0  0.2345471E-07  0.3567554E+04  0.7818609E-02  0.8097964E-01
        1   -1    0    0  501    0  0.00000000000E+00  0.00000000000E+00  0.32052608369E+04  0.32052608369E+04  0.50400001928E-02 0.  1.
       -1   -1    0    0    0  501  0.00000000000E+00  0.00000000000E+00 -0.99269963165E+03  0.99269963166E+03  0.50400001928E-02 0. -1.
    10030    2    1    2    0    0  0.00000000000E+00  0.00000000000E+00  0.22125612053E+04  0.41979604686E+04  0.35675544857E+04 0.  0.
        5    1    3    3  502    0 -0.40432364838E+02 -0.29906679716E+03 -0.96243415672E+03  0.10086512387E+04  0.46999998093E+01 0. -1.
       -5    1    3    3    0  502  0.40432364838E+02  0.29906679716E+03  0.31749953620E+04  0.31893092299E+04  0.46999998093E+01 0.  1.
</event>
<event>
 5   0  0.7124627E-07  0.3629412E+04  0.7818609E-02  0.8083787E-01
       -2   -1    0    0    0  501  0.00000000000E+00  0.00000000000E+00  0.13773258531E+04  0.13773258531E+04  0.25500000920E-02 0.  1.
        2   -1    0    0  501    0  0.00000000000E+00  0.00000000000E+00 -0.23909799326E+04  0.23909799326E+04  0.25500000920E-02 0. -1.
    10030    2    1    2    0    0  0.00000000000E+00  0.00000000000E+00 -0.10136540795E+04  0.37683057857E+04  0.36294123356E+04 0.  0.
        2    1    3    3  502    0  0.16759159660E+04 -0.68196230623E+03 -0.36224437118E+03  0.18452609291E+04  0.25500000920E-02 0.  1.
       -2    1    3    3    0  502 -0.16759159660E+04  0.68196230623E+03 -0.65140970831E+03  0.19230448565E+04  0.25500000920E-02 0. -1.
</event>
<event>
 5   0  0.2287500E-07  0.3697290E+04  0.7818609E-02  0.8068563E-01
        1   -1    0    0  501    0  0.00000000000E+00  0.00000000000E+00  0.23465316737E+04  0.23465316737E+04  0.50400001928E-02 0. -1.
       -1   -1    0    0    0  501  0.00000000000E+00  0.00000000000E+00 -0.14564001179E+04  0.14564001179E+04  0.50400001928E-02 0.  1.
    10030    2    1    2    0    0  0.00000000000E+00  0.00000000000E+00  0.89013155580E+03  0.38029317916E+04  0.36972903625E+04 0.  0.
        4    1    3    3  502    0 -0.15994740043E+04  0.55138420871E+03  0.12114357677E+04  0.20808459501E+04  0.12699999809E+01 0. -1.
       -4    1    3    3    0  502  0.15994740043E+04 -0.55138420871E+03 -0.32130421186E+03  0.17220858415E+04  0.12699999809E+01 0.  1.
</event>
<event>
 5   0  0.2287500E-07  0.3791693E+04  0.7818609E-02  0.8047940E-01
       -1   -1    0    0    0  501  0.00000000000E+00  0.00000000000E+00  0.27698716952E+04  0.27698716952E+04  0.50400001928E-02 0.  1.
        1   -1    0    0  501    0  0.00000000000E+00  0.00000000000E+00 -0.12976174447E+04  0.12976174447E+04  0.50400001928E-02 0. -1.
    10030    2    1    2    0    0  0.00000000000E+00  0.00000000000E+00  0.14722542506E+04  0.40674891399E+04  0.37916929365E+04 0.  0.
        2    1    3    3  502    0 -0.59151869372E+03  0.95741511424E+03  0.23727791450E+04  0.26261414541E+04  0.25500000920E-02 0.  1.
       -2    1    3    3    0  502  0.59151869372E+03 -0.95741511424E+03 -0.90052489442E+03  0.14413476858E+04  0.25500000920E-02 0. -1.
</event>
<event>
 5   0  0.2287500E-07  0.3732974E+04  0.7818609E-02  0.8060693E-01
        1   -1    0    0  501    0  0.00000000000E+00  0.00000000000E+00  0.13079998841E+04  0.13079998841E+04  0.50400001928E-02 0.  1.
       -1   -1    0    0    0  501  0.00000000000E+00  0.00000000000E+00 -0.26634361834E+04  0.26634361834E+04  0.50400001928E-02 0. -1.
    10030    2    1    2    0    0  0.00000000000E+00  0.00000000000E+00 -0.13554362994E+04  0.39714360675E+04  0.37329742668E+04 0.  0.
        2    1    3    3  502    0  0.14158021089E+04  0.11872665790E+04 -0.39689280667E+03  0.18898733929E+04  0.25500000920E-02 0. -1.
       -2    1    3    3    0  502 -0.14158021089E+04 -0.11872665790E+04 -0.95854349270E+03  0.20815626746E+04  0.25500000920E-02 0.  1.
</event>
<event>
 5   0  0.7124627E-07  0.3230012E+04  0.7818609E-02  0.8180936E-01
       -2   -1    0    0    0  501  0.00000000000E+00  0.00000000000E+00  0.20893760766E+04  0.20893760766E+04  0.25500000920E-02 0. -1.
        2   -1    0    0  501    0  0.00000000000E+00  0.00000000000E+00 -0.12483362688E+04  0.12483362688E+04  0.25500000920E-02 0.  1.
    10030    2    1    2    0    0  0.00000000000E+00  0.00000000000E+00  0.84103980774E+03  0.33377123454E+04  0.32300117248E+04 0.  0.
        2    1    3    3  502    0  0.31663484793E+03  0.87358518219E+03 -0.94444667569E+03  0.13249106463E+04  0.25500000920E-02 0.  1.
       -2    1    3    3    0  502 -0.31663484793E+03 -0.87358518219E+03  0.17854864834E+04  0.20128016991E+04  0.25500000920E-02 0. -1.
</event>
<event>
 5   0  0.2287500E-07  0.3264260E+04  0.7818609E-02  0.8172049E-01
       -3   -1    0    0    0  501  0.00000000000E+00  0.00000000000E+00  0.19010683828E+04  0.19010683854E+04  0.10100000352E+00 0.  1.
        3   -1    0    0  501    0  0.00000000000E+00  0.00000000000E+00 -0.14012376486E+04  0.14012376522E+04  0.10100000352E+00 0. -1.
    10030    2    1    2    0    0  0.00000000000E+00  0.00000000000E+00  0.49983073417E+03  0.33023060377E+04  0.32642601618E+04 0.  0.
        4    1    3    3  502    0  0.14075884383E+04 -0.47018687212E+03  0.93714590005E+03  0.17551709196E+04  0.12699999809E+01 0.  1.
       -4    1    3    3    0  502 -0.14075884383E+04  0.47018687212E+03 -0.43731516588E+03  0.15471351180E+04  0.12699999809E+01 0. -1.
</event>
<event>
 5   0  0.6949625E-07  0.3287861E+04  0.7818609E-02  0.8165991E-01
        2   -1    0    0  501    0  0.00000000000E+00  0.00000000000E+00  0.16370318441E+04  0.16370318442E+04  0.25500000920E-02 0.  1.
       -2   -1    0    0    0  501  0.00000000000E+00  0.00000000000E+00 -0.16508581384E+04  0.16508581384E+04  0.25500000920E-02 0. -1.
    10030    2    1    2    0    0  0.00000000000E+00  0.00000000000E+00 -0.13826294290E+02  0.32878899826E+04  0.32878609112E+04 0.  0.
        5    1    3    3  502    0 -0.88547821815E+03 -0.10196469791E+04 -0.94432935973E+03  0.16478870309E+04  0.46999998093E+01 0. -1.
       -5    1    3    3    0  502  0.88547821815E+03  0.10196469791E+04  0.93050306544E+03  0.16400029517E+04  0.46999998093E+01 0.  1.
</event>
<event>
 5   0  0.6949625E-07  0.3663126E+04  0.7818609E-02  0.8076183E-01
        2   -1    0    0  501    0  0.00000000000E+00  0.00000000000E+00  0.19640307461E+04  0.19640307462E+04  0.25500000920E-02 0. -1.
       -2   -1    0    0    0  501  0.00000000000E+00  0.00000000000E+00 -0.17080298617E+04  0.17080298617E+04  0.25500000920E-02 0.  1.
    10030    2    1    2    0    0  0.00000000000E+00  0.00000000000E+00  0.25600088450E+03  0.36720606078E+04  0.36631260768E+04 0.  0.
        5    1    3    3  502    0  0.51612317917E+03  0.76568903553E+03 -0.14576091580E+04  0.17254881578E+04  0.46999998093E+01 0.  1.
       -5    1    3    3    0  502 -0.51612317917E+03 -0.76568903553E+03  0.17136100425E+04  0.19465724500E+04  0.46999998093E+01 0. -1.
</event>
<event>
 5   0  0.6939921E-07  0.2895170E+04  0.7818609E-02  0.8274316E-01
        2   -1    0    0  501    0  0.00000000000E+00  0.00000000000E+00  0.21041756724E+04  0.21041756724E+04  0.25500000920E-02 0. -1.
       -2   -1    0    0    0  501  0.00000000000E+00  0.00000000000E+00 -0.99587786174E+03  0.99587786174E+03  0.25500000920E-02 0.  1.
    10030    2    1    2    0    0  0.00000000000E+00  0.00000000000E+00  0.11082978106E+04  0.31000535341E+04  0.28951697493E+04 0.  0.
        4    1    3    3  502    0 -0.22503023598E+03 -0.12222443611E+04  0.13489587986E+04  0.18341786551E+04  0.12699999809E+01 0. -1.
       -4    1    3    3    0  502  0.22503023598E+03  0.12222443611E+04 -0.24066098799E+03  0.12658748791E+04  0.12699999809E+01 0.  1.
</event>
<event>
 5   0  0.2287500E-07  0.3710951E+04  0.7818609E-02  0.8065539E-01
        1   -1    0    0  501    0  0.00000000000E+00  0.00000000000E+00  0.18494871573E+04  0.18494871573E+04  0.50400001928E-02 0. -1.
       -1   -1    0    0    0  501  0.00000000000E+00  0.00000000000E+00 -0.18614830138E+04  0.18614830138E+04  0.50400001928E-02 0.  1.
    10030    2    1    2    0    0  0.00000000000E+00  0.00000000000E+00 -0.11995856440E+02  0.37109701711E+04  0.37109507825E+04 0.  0.
        4    1    3    3  502    0  0.14205398238E+04 -0.99809395399E+03  0.64872862682E+03  0.18533686563E+04  0.12699999809E+01 0. -1.
       -4    1    3    3    0  502 -0.14205398238E+04  0.99809395399E+03 -0.66072448326E+03  0.18576015148E+04  0.12699999809E+01 0.  1.
</event>
<event>
 5   0  0.2287500E-07  0.3640635E+04  0.7818609E-02  0.8081247E-01
       -1   -1    0    0    0  501  0.00000000000E+00  0.00000000000E+00  0.13685373811E+04  0.13685373811E+04  0.50400001928E-02 0. -1.
        1   -1    0    0  501    0  0.00000000000E+00  0.00000000000E+00 -0.24212386236E+04  0.24212386236E+04  0.50400001928E-02 0.  1.
    10030    2    1    2    0    0  0.00000000000E+00  0.00000000000E+00 -0.10527012425E+04  0.37897760048E+04  0.36406348705E+04 0.  0.
        2    1    3    3  502    0  0.16133325732E+04 -0.47778184866E+03 -0.12493821017E+04  0.20957273493E+04  0.25500000920E-02 0.  1.
       -2    1    3    3    0  502 -0.16133325732E+04  0.47778184866E+03  0.19668085922E+03  0.16940486554E+04  0.25500000920E-02 0. -1.
</event>
<event>
 5   0  0.7124627E-07  0.2766599E+04  0.7818609E-02  0.8313714E-01
        2   -1    0    0  501    0  0.00000000000E+00  0.00000000000E+00  0.23378642893E+04  0.23378642893E+04  0.25500000920E-02 0. -1.
       -2   -1    0    0    0  501  0.00000000000E+00  0.00000000000E+00 -0.81848932420E+03  0.81848932420E+03  0.25500000920E-02 0.  1.
    10030    2    1    2    0    0  0.00000000000E+00  0.00000000000E+00  0.15193749651E+04  0.31563536135E+04  0.27665986064E+04 0.  0.
        2    1    3    3  502    0 -0.66915808328E+03 -0.25144768459E+03  0.21108070859E+04  0.22285656895E+04  0.25500000920E-02 0. -1.
       -2    1    3    3    0  502  0.66915808328E+03  0.25144768459E+03 -0.59143212077E+03  0.92778792404E+03  0.25500000920E-02 0.  1.
</event>
<event>
 5   0  0.2287500E-07  0.3499654E+04  0.7818609E-02  0.8113872E-01
        1   -1    0    0  501    0  0.00000000000E+00  0.00000000000E+00  0.27287735409E+04  0.27287735409E+04  0.50400001928E-02 0.  1.
       -1   -1    0    0    0  501  0.00000000000E+00  0.00000000000E+00 -0.11220770560E+04  0.11220770560E+04  0.50400001928E-02 0. -1.
    10030    2    1    2    0    0  0.00000000000E+00  0.00000000000E+00  0.16066964849E+04  0.38508505969E+04  0.34996538008E+04 0.  0.
        2    1    3    3  502    0 -0.55962423865E+03 -0.49815851607E+03  0.25433497149E+04  0.26514088647E+04  0.25500000920E-02 0.  1.
       -2    1    3    3    0  502  0.55962423865E+03  0.49815851607E+03 -0.93665323003E+03  0.11994417322E+04  0.25500000920E-02 0. -1.
</event>
<event>
 5   0  0.7074157E-07  0.3651876E+04  0.7818609E-02  0.8078711E-01
       -2   -1    0    0    0  501  0.00000000000E+00  0.00000000000E+00  0.20218322059E+04  0.20218322059E+04  0.25500000920E-02 0.  1.
        2   -1    0    0  501    0  0.00000000000E+00  0.00000000000E+00 -0.16490242830E+04  0.16490242830E+04  0.25500000920E-02 0. -1.
    10030    2    1    2    0    0  0.00000000000E+00  0.00000000000E+00  0.37280792293E+03  0.36708564889E+04  0.36518764512E+04 0.  0.
        3    1    3    3  502    0 -0.15918687163E+04  0.89376957729E+03  0.22093839563E+03  0.18389355215E+04  0.10100000352E+00 0. -1.
       -3    1    3    3    0  502  0.15918687163E+04 -0.89376957729E+03  0.15186952731E+03  0.18319209674E+04  0.10100000352E+00 0.  1.
</event>
<event>
 5   0  0.6949625E-07  0.3664853E+04  0.7818609E-02  0.8075796E-01
       -2   -1    0    0    0  501  0.00000000000E+00  0.00000000000E+00  0.30810559150E+04  0.30810559150E+04  0.25500000920E-02 0.  1.
        2   -1    0    0  501    0  0.00000000000E+00  0.00000000000E+00 -0.10898167277E+04  0.10898167277E+04  0.25500000920E-02 0. -1.
    10030    2    1    2    0    0  0.00000000000E+00  0.00000000000E+00  0.19912391874E+04  0.41708726427E+04  0.36648526710E+04 0.  0.
        5    1    3    3  502    0 -0.15486919586E+04  0.93784754835E+03  0.67420818449E+03  0.19319895374E+04  0.46999998093E+01 0. -1.
       -5    1    3    3    0  502  0.15486919586E+04 -0.93784754835E+03  0.13170310029E+04  0.22388831053E+04  0.46999998093E+01 0.  1.
</event>
<event>
 5   0  0.2345471E-07  0.3643396E+04  0.7818609E-02  0.8080623E-01
        1   -1    0    0  501    0  0.00000000000E+00  0.00000000000E+00  0.12055963329E+04  0.12055963329E+04  0.50400001928E-02 0. -1.
       -1   -1    0    0    0  501  0.00000000000E+00  0.00000000000E+00 -0.27526486885E+04  0.27526486885E+04  0.50400001928E-02 0.  1.
    10030    2    1    2    0    0  0.00000000000E+00  0.00000000000E+00 -0.15470523556E+04  0.39582450214E+04  0.36433957593E+04 0.  0.
        5    1    3    3  502    0  0.17297693065E+04  0.50454493531E+03 -0.10648268783E+04  0.20929753502E+04  0.46999998093E+01 0.  1.
       -5    1    3    3    0  502 -0.17297693065E+04 -0.50454493531E+03 -0.48222547732E+03  0.18652696713E+04  0.46999998093E+01 0. -1.
</event>
<event>
 5   0  0.2287500E-07  0.3586305E+04  0.7818609E-02  0.8093636E-01
       -1   -1    0    0    0  501  0.00000000000E+00  0.00000000000E+00  0.13070799777E+04  0.13070799777E+04  0.50400001928E-02 0.  1.
        1   -1    0    0  501    0  0.00000000000E+00  0.00000000000E+00 -0.24599846025E+04  0.24599846025E+04  0.50400001928E-02 0. -1.
    10030    2    1    2    0    0  0.00000000000E+00  0.00000000000E+00 -0.11529046249E+04  0.37670645802E+04  0.35863054078E+04 0.  0.
        3    1    3    3  502    0  0.63882958754E+03 -0.45888910942E+03  0.11162004212E+04  0.13654983878E+04  0.10100000352E+00 0.  1.
       -3    1    3    3    0  502 -0.63882958754E+03  0.45888910942E+03 -0.22691050460E+04  0.24015661925E+04  0.10100000352E+00 0. -1.
</event>
<event>
 5   0  0.7074157E-07  0.3697803E+04  0.7818609E-02  0.8068449E-01
        2   -1    0    0  501    0  0.00000000000E+00  0.00000000000E+00  0.18382602616E+04  0.18382602616E+04  0.25500000920E-02 0.  1.
       -2   -1    0    0    0  501  0.00000000000E+00  0.00000000000E+00 -0.18596038958E+04  0.18596038958E+04  0.25500000920E-02 0. -1.
    10030    2    1    2    0    0  0.00000000000E+00  0.00000000000E+00 -0.21343634202E+02  0.36978641573E+04  0.36978025604E+04 0.  0.
        3    1    3    3  502    0  0.85105243745E+02  0.46855385917E+03 -0.17972206254E+04  0.18592438269E+04  0.10100000352E+00 0. -1.
       -3    1    3    3    0  502 -0.85105243745E+02 -0.46855385917E+03  0.17758769912E+04  0.18386203304E+04  0.10100000352E+00 0.  1.
</event>
<event>
 5   0  0.6939921E-07  0.3697950E+04  0.7818609E-02  0.8068416E-01
        2   -1    0    0  501    0  0.00000000000E+00  0.00000000000E+00  0.21851154463E+04  0.21851154463E+04  0.25500000920E-02 0.  1.
       -2   -1    0    0    0  501  0.00000000000E+00  0.00000000000E+00 -0.15645440674E+04  0.15645440674E+04  0.25500000920E-02 0. -1.
    10030    2    1    2    0    0  0.00000000000E+00  0.00000000000E+00  0.62057137893E+03  0.37496595137E+04  0.36979504638E+04 0.  0.
        4    1    3    3  502    0  0.16992255416E+04 -0.72589911940E+03  0.37762839036E+03  0.18859750229E+04  0.12699999809E+01 0. -1.
       -4    1    3    3    0  502 -0.16992255416E+04  0.72589911940E+03  0.24294298858E+03  0.18636844909E+04  0.12699999809E+01 0.  1.
</event>
<event>
 5   0  0.7300916E-07  0.3692628E+04  0.7818609E-02  0.8069598E-01
       -2   -1    0    0    0  501  0.00000000000E+00  0.00000000000E+00  0.13273774552E+04  0.13273774552E+04  0.25500000920E-02 0.  1.
        2   -1    0    0  501    0  0.00000000000E+00  0.00000000000E+00 -0.25681278871E+04  0.25681278871E+04  0.25500000920E-02 0. -1.
    10030    2    1    2    0    0  0.00000000000E+00  0.00000000000E+00 -0.12407504319E+04  0.38955053423E+04  0.36926278228E+04 0.  0.
        1    1    3    3  502    0 -0.34503533856E+03 -0.10572178425E+04  0.93440778897E+03  0.14525415200E+04  0.50400001928E-02 0.  1.
       -1    1    3    3    0  502  0.34503533856E+03  0.10572178425E+04 -0.21751582208E+04  0.24429638223E+04  0.50400001928E-02 0. -1.
</event>
<event>
 5   0  0.7124627E-07  0.3697364E+04  0.7818609E-02  0.8068546E-01
       -2   -1    0    0    0  501  0.00000000000E+00  0.00000000000E+00  0.26180445910E+04  0.26180445910E+04  0.25500000920E-02 0.  1.
        2   -1    0    0  501    0  0.00000000000E+00  0.00000000000E+00 -0.13054116833E+04  0.13054116833E+04  0.25500000920E-02 0. -1.
    10030    2    1    2    0    0  0.00000000000E+00  0.00000000000E+00  0.13126329078E+04  0.39234562743E+04  0.36973644648E+04 0.  0.
        2    1    3    3  502    0  0.15149342194E+04  0.10165956995E+04  0.97312509040E+03  0.20677197457E+04  0.25500000920E-02 0. -1.
       -2    1    3    3    0  502 -0.15149342194E+04 -0.10165956995E+04  0.33950781737E+03  0.18557365285E+04  0.25500000920E-02 0.  1.
</event>
<event>
 5   0  0.2411746E-07  0.3656863E+04  0.7818609E-02  0.8077589E-01
        1   -1    0    0  501    0  0.00000000000E+00  0.00000000000E+00  0.16593350835E+04  0.16593350835E+04  0.50400001928E-02 0.  1.
       -1   -1    0    0    0  501  0.00000000000E+00  0.00000000000E+00 -0.20147599845E+04  0.20147599845E+04  0.50400001928E-02 0. -1.
    10030    2    1    2    0    0  0.00000000000E+00  0.00000000000E+00 -0.35542490107E+03  0.36740950680E+04  0.36568630968E+04 0.  0.
        1    1    3    3  502    0 -0.22696843203E+02 -0.16052594625E+04 -0.10569297078E+04  0.19221013230E+04  0.50400001928E-02 0. -1.
       -1    1    3    3    0  502  0.22696843203E+02  0.16052594625E+04  0.70150480677E+03  0.17519937450E+04  0.50400001928E-02 0.  1.
</event>
<event>
 5   0  0.6939921E-07  0.3638368E+04  0.7818609E-02  0.8081759E-01
       -2   -1    0    0    0  501  0.00000000000E+00  0.00000000000E+00  0.13303620951E+04  0.13303620951E+04  0.25500000920E-02 0. -1.
        2   -1    0    0  501    0  0.00000000000E+00  0.00000000000E+00 -0.24876157755E+04  0.24876157755E+04  0.25500000920E-02 0.  1.
    10030    2    1    2    0    0  0.00000000000E+00  0.00000000000E+00 -0.11572536804E+04  0.38179778706E+04  0.36383676202E+04 0.  0.
        4    1    3    3  502    0  0.63253366254E+03  0.67980573454E+03 -0.22202027860E+04  0.24065611762E+04  0.12699999809E+01 0.  1.
       -4    1    3    3    0  502 -0.63253366254E+03 -0.67980573454E+03  0.10629491057E+04  0.14114166944E+04  0.12699999809E+01 0. -1.
</event>
<event>
 5   0  0.6939921E-07  0.3729660E+04  0.7818609E-02  0.8061421E-01
       -2   -1    0    0    0  501  0.00000000000E+00  0.00000000000E+00  0.13382882747E+04  0.13382882747E+04  0.25500000920E-02 0. -1.
        2   -1    0    0  501    0  0.00000000000E+00  0.00000000000E+00 -0.25985360047E+04  0.25985360047E+04  0.25500000920E-02 0.  1.
    10030    2    1    2    0    0  0.00000000000E+00  0.00000000000E+00 -0.12602477300E+04  0.39368242794E+04  0.37296596447E+04 0.  0.
        4    1    3    3  502    0  0.14088987897E+04  0.34136301970E+03 -0.18683391707E+04  0.23647869630E+04  0.12699999809E+01 0.  1.
       -4    1    3    3    0  502 -0.14088987897E+04 -0.34136301970E+03  0.60809144073E+03  0.15720373163E+04  0.12699999809E+01 0. -1.
</event>
<event>
 5   0  0.7074157E-07  0.3029091E+04  0.7818609E-02  0.8235472E-01
       -2   -1    0    0    0  501  0.00000000000E+00  0.00000000000E+00  0.11225922216E+04  0.11225922217E+04  0.25500000920E-02 0. -1.
        2   -1    0    0  501    0  0.00000000000E+00  0.00000000000E+00 -0.20433498338E+04  0.20433498338E+04  0.25500000920E-02 0.  1.
    10030    2    1    2    0    0  0.00000000000E+00  0.00000000000E+00 -0.92075761216E+03  0.31659420555E+04  0.30290913684E+04 0.  0.
        3    1    3    3  502    0  0.69123519108E+03 -0.51347662176E+03  0.84185872538E+03  0.12042385371E+04  0.10100000352E+00 0. -1.
       -3    1    3    3    0  502 -0.69123519108E+03  0.51347662176E+03 -0.17626163375E+04  0.19617035184E+04  0.10100000352E+00 0.  1.
</event>
<event>
 5   0  0.2345471E-07  0.3670411E+04  0.7818609E-02  0.8074551E-01
       -1   -1    0    0    0  501  0.00000000000E+00  0.00000000000E+00  0.17470672149E+04  0.17470672149E+04  0.50400001928E-02 0.  1.
        1   -1    0    0  501    0  0.00000000000E+00  0.00000000000E+00 -0.19277904281E+04  0.19277904281E+04  0.50400001928E-02 0. -1.
    10030    2    1    2    0    0  0.00000000000E+00  0.00000000000E+00 -0.18072321320E+03  0.36748576429E+04  0.36704111236E+04 0.  0.
        5    1    3    3  502    0  0.14098541118E+04  0.11627854254E+04  0.77766815397E+02  0.18291605533E+04  0.46999998093E+01 0. -1.
       -5    1    3    3    0  502 -0.14098541118E+04 -0.11627854254E+04 -0.25849002860E+03  0.18456970897E+04  0.46999998093E+01 0.  1.
</event>
<event>
 5   0  0.2287500E-07  0.3708524E+04  0.7818609E-02  0.8066075E-01
       -1   -1    0    0    0  501  0.00000000000E+00  0.00000000000E+00  0.24805954080E+04  0.24805954080E+04  0.50400001928E-02 0.  1.
        1   -1    0    0  501    0  0.00000000000E+00  0.00000000000E+00 -0.13860736697E+04  0.13860736697E+04  0.50400001928E-02 0. -1.
    10030    2    1    2    0    0  0.00000000000E+00  0.00000000000E+00  0.10945217383E+04  0.38666690776E+04  0.37085242240E+04 0.  0.
        2    1    3    3  502    0  0.11107334879E+04  0.13146541995E+03  0.20892725844E+04  0.23698253037E+04  0.25500000920E-02 0.  1.
       -2    1    3    3    0  502 -0.11107334879E+04 -0.13146541995E+03 -0.99475084613E+03  0.14968437740E+04  0.25500000920E-02 0. -1.
</event>
<event>
 5   0  0.7300916E-07  0.3694958E+04  0.7818609E-02  0.8069080E-01
       -2   -1    0    0    0  501  0.00000000000E+00  0.00000000000E+00  0.25274305938E+04  0.25274305938E+04  0.25500000920E-02 0.  1.
        2   -1    0    0  501    0  0.00000000000E+00  0.00000000000E+00 -0.13504542552E+04  0.13504542552E+04  0.25500000920E-02 0. -1.
    10030    2    1    2    0    0  0.00000000000E+00  0.00000000000E+00  0.11769763386E+04  0.38778848490E+04  0.36949584031E+04 0.  0.
        1    1    3    3  502    0 -0.14931972196E+04  0.90555328986E+03  0.12212588469E+04  0.21309945726E+04  0.50400001928E-02 0.  1.
       -1    1    3    3    0  502  0.14931972196E+04 -0.90555328986E+03 -0.44282508249E+02  0.17468902764E+04  0.50400001928E-02 0. -1.
</event>
<event>
 5   0  0.6939921E-07  0.3702632E+04  0.7818609E-02  0.8067379E-01
       -2   -1    0    0    0  501  0.00000000000E+00  0.00000000000E+00  0.16935222551E+04  0.16935222551E+04  0.25500000920E-02 0. -1.
        2   -1    0    0  501    0  0.00000000000E+00  0.00000000000E+00 -0.20238121941E+04  0.20238121941E+04  0.25500000920E-02 0.  1.
    10030    2    1    2    0    0  0.00000000000E+00  0.00000000000E+00 -0.33028993902E+03  0.37173344492E+04  0.37026320319E+04 0.  0.
        4    1    3    3  502    0 -0.10159418923E+04  0.10499893936E+03 -0.17153638857E+04  0.19964061658E+04  0.12699999809E+01 0.  1.
       -4    1    3    3    0  502  0.10159418923E+04 -0.10499893936E+03  0.13850739466E+04  0.17209282833E+04  0.12699999809E+01 0. -1.
</event>
<event>
 5   0  0.7074157E-07  0.3852746E+04  0.7818609E-02  0.8034930E-01
        2   -1    0    0  501    0  0.00000000000E+00  0.00000000000E+00  0.23440091183E+04  0.23440091183E+04  0.25500000920E-02 0. -1.
       -2   -1    0    0    0  501  0.00000000000E+00  0.00000000000E+00 -0.15831474300E+04  0.15831474300E+04  0.25500000920E-02 0.  1.
    10030    2    1    2    0    0  0.00000000000E+00  0.00000000000E+00  0.76086168831E+03  0.39271565484E+04  0.38527455206E+04 0.  0.
        3    1    3    3  502    0 -0.64408659636E+02  0.15561196932E+04 -0.77515588368E+03  0.17396906706E+04  0.10100000352E+00 0.  1.
       -3    1    3    3    0  502  0.64408659636E+02 -0.15561196932E+04  0.15360175720E+04  0.21874658778E+04  0.10100000352E+00 0. -1.
</event>
<event>
 5   0  0.2411746E-07  0.3708522E+04  0.7818609E-02  0.8066076E-01
        1   -1    0    0  501    0  0.00000000000E+00  0.00000000000E+00  0.21407866754E+04  0.21407866754E+04  0.50400001928E-02 0. -1.
       -1   -1    0    0    0  501  0.00000000000E+00  0.00000000000E+00 -0.16060843252E+04  0.16060843252E+04  0.50400001928E-02 0.  1.
    10030    2    1    2    0    0  0.00000000000E+00  0.00000000000E+00  0.53470235024E+03  0.37468710006E+04  0.37085220360E+04 0.  0.
        1    1    3    3  502    0 -0.15310404386E+04  0.92389740213E+03 -0.22824408051E+03  0.18027109016E+04  0.50400001928E-02 0.  1.
       -1    1    3    3    0  502  0.15310404386E+04 -0.92389740213E+03  0.76294643076E+03  0.19441600990E+04  0.50400001928E-02 0. -1.
</event>
<event>
 5   0  0.7124627E-07  0.3591535E+04  0.7818609E-02  0.8092434E-01
       -2   -1    0    0    0  501  0.00000000000E+00  0.00000000000E+00  0.15234939287E+04  0.15234939287E+04  0.25500000920E-02 0. -1.
        2   -1    0    0  501    0  0.00000000000E+00  0.00000000000E+00 -0.21167004228E+04  0.21167004228E+04  0.25500000920E-02 0.  1.
    10030    2    1    2    0    0  0.00000000000E+00  0.00000000000E+00 -0.59320649403E+03  0.36401943515E+04  0.35915346263E+04 0.  0.
        2    1    3    3  502    0  0.17069340304E+03 -0.15529232012E+04 -0.11940793875E+04  0.19663499918E+04  0.25500000920E-02 0.  1.
       -2    1    3    3    0  502 -0.17069340304E+03  0.15529232012E+04  0.60087289343E+03  0.16738443597E+04  0.25500000920E-02 0. -1.
</event>
<event>
 5   0  0.2411746E-07  0.2910076E+04  0.7818609E-02  0.8269886E-01
        1   -1    0    0  501    0  0.00000000000E+00  0.00000000000E+00  0.21632411610E+04  0.21632411610E+04  0.50400001928E-02 0. -1.
       -1   -1    0    0    0  501  0.00000000000E+00  0.00000000000E+00 -0.97868703269E+03  0.97868703270E+03  0.50400001928E-02 0.  1.
    10030    2    1    2    0    0  0.00000000000E+00  0.00000000000E+00  0.11845541283E+04  0.31419281937E+04  0.29100763378E+04 0.  0.
        1    1    3    3  502    0  0.53406494762E+03 -0.12952554441E+03  0.20468858294E+04  0.21193734531E+04  0.50400001928E-02 0. -1.
       -1    1    3    3    0  502 -0.53406494762E+03  0.12952554441E+03 -0.86233170107E+03  0.10225547407E+04  0.50400001928E-02 0.  1.
</event>
<event>
 5   0  0.2287500E-07  0.3712791E+04  0.7818609E-02  0.8065133E-01
        1   -1    0    0  501    0  0.00000000000E+00  0.00000000000E+00  0.23928059507E+04  0.23928059507E+04  0.50400001928E-02 0.  1.
       -1   -1    0    0    0  501  0.00000000000E+00  0.00000000000E+00 -0.14402358559E+04  0.14402358559E+04  0.50400001928E-02 0. -1.
    10030    2    1    2    0    0  0.00000000000E+00  0.00000000000E+00  0.95257009479E+03  0.38330418067E+04  0.37127913631E+04 0.  0.
        2    1    3    3  502    0 -0.38747128657E+03 -0.15147112714E+04 -0.55699093225E+03  0.16597358622E+04  0.25500000920E-02 0. -1.
       -2    1    3    3    0  502  0.38747128657E+03  0.15147112714E+04  0.15095610270E+04  0.21733059444E+04  0.25500000920E-02 0.  1.
</event>
<event>
 5   0  0.6949625E-07  0.3582345E+04  0.7818609E-02  0.8094548E-01
        2   -1    0    0  501    0  0.00000000000E+00  0.00000000000E+00  0.22816646879E+04  0.22816646879E+04  0.25500000920E-02 0. -1.
       -2   -1    0    0    0  501  0.00000000000E+00  0.00000000000E+00 -0.14061216190E+04  0.14061216190E+04  0.25500000920E-02 0.  1.
    10030    2    1    2    0    0  0.00000000000E+00  0.00000000000E+00  0.87554306890E+03  0.36877863070E+04  0.35823445089E+04 0.  0.
        5    1    3    3  502    0  0.69010897083E+03  0.56852410702E+03 -0.11599434262E+04  0.14645685009E+04  0.46999998093E+01 0.  1.
       -5    1    3    3    0  502 -0.69010897083E+03 -0.56852410702E+03  0.20354864951E+04  0.22232178061E+04  0.46999998093E+01 0. -1.
</event>
<event>
 5   0  0.2411746E-07  0.3692494E+04  0.7818609E-02  0.8069627E-01
       -1   -1    0    0    0  501  0.00000000000E+00  0.00000000000E+00  0.17685795443E+04  0.17685795443E+04  0.50400001928E-02 0. -1.
        1   -1    0    0  501    0  0.00000000000E+00  0.00000000000E+00 -0.19273248984E+04  0.19273248984E+04  0.50400001928E-02 0.  1.
    10030    2    1    2    0    0  0.00000000000E+00  0.00000000000E+00 -0.15874535406E+03  0.36959044427E+04  0.36924936780E+04 0.  0.
        1    1    3    3  502    0  0.14407126488E+04  0.64616176027E+03 -0.10370476846E+04  0.18890859845E+04  0.50400001928E-02 0.  1.
       -1    1    3    3    0  502 -0.14407126488E+04 -0.64616176027E+03  0.87830233053E+03  0.18068184581E+04  0.50400001928E-02 0. -1.
</event>
<event>
 5   0  0.6939921E-07  0.3681295E+04  0.7818609E-02  0.8072120E-01
       -2   -1    0    0    0  501  0.00000000000E+00  0.00000000000E+00  0.17903250282E+04  0.17903250282E+04  0.25500000920E-02 0.  1.
        2   -1    0    0  501    0  0.00000000000E+00  0.00000000000E+00 -0.18923846673E+04  0.18923846673E+04  0.25500000920E-02 0. -1.
    10030    2    1    2    0    0  0.00000000000E+00  0.00000000000E+00 -0.10205963913E+03  0.36827096955E+04  0.36812952247E+04 0.  0.
        4    1    3    3  502    0  0.38932683094E+03 -0.16838769575E+04  0.58243147921E+03  0.18237996134E+04  0.12699999809E+01 0.  1.
       -4    1    3    3    0  502 -0.38932683094E+03  0.16838769575E+04 -0.68449111834E+03  0.18589100820E+04  0.12699999809E+01 0. -1.
</event>
<event>
 5   0  0.2287500E-07  0.3717395E+04  0.7818609E-02  0.8064118E-01
       -3   -1    0    0    0  501  0.00000000000E+00  0.00000000000E+00  0.21786813564E+04  0.21786813587E+04  0.10100000352E+00 0. -1.
        3   -1    0    0  501    0  0.00000000000E+00  0.00000000000E+00 -0.15857100730E+04  0.15857100762E+04  0.10100000352E+00 0.  1.
    10030    2    1    2    0    0  0.00000000000E+00  0.00000000000E+00  0.59297128340E+03  0.37643914350E+04  0.37173953156E+04 0.  0.
        1    1    3    3  502    0 -0.55092667391E+03 -0.60476648068E+01 -0.15011183656E+04  0.15990350596E+04  0.50400001928E-02 0.  1.
       -1    1    3    3    0  502  0.55092667391E+03  0.60476648068E+01  0.20940896490E+04  0.21653563754E+04  0.50400001928E-02 0. -1.
</event>
<event>
 5   0  0.7074157E-07  0.3728939E+04  0.7818609E-02  0.8061579E-01
       -2   -1    0    0    0  501  0.00000000000E+00  0.00000000000E+00  0.12986326925E+04  0.12986326925E+04  0.25500000920E-02 0. -1.
        2   -1    0    0  501    0  0.00000000000E+00  0.00000000000E+00 -0.26768512355E+04  0.26768512355E+04  0.25500000920E-02 0.  1.
    10030    2    1    2    0    0  0.00000000000E+00  0.00000000000E+00 -0.13782185431E+04  0.39754839280E+04  0.37289390058E+04 0.  0.
        3    1    3    3  502    0  0.18538501264E+04  0.16334742296E+03 -0.56847382633E+03  0.19459201354E+04  0.10100000352E+00 0. -1.
       -3    1    3    3    0  502 -0.18538501264E+04 -0.16334742296E+03 -0.80974471673E+03  0.20295637926E+04  0.10100000352E+00 0.  1.
</event>
<event>
 5   0  0.7074157E-07  0.3731871E+04  0.7818609E-02  0.8060935E-01
       -2   -1    0    0    0  501  0.00000000000E+00  0.00000000000E+00  0.13111017422E+04  0.13111017422E+04  0.25500000920E-02 0. -1.
        2   -1    0    0  501    0  0.00000000000E+00  0.00000000000E+00 -0.26555643476E+04  0.26555643476E+04  0.25500000920E-02 0.  1.
    10030    2    1    2    0    0  0.00000000000E+00  0.00000000000E+00 -0.13444626054E+04  0.39666660898E+04  0.37318708674E+04 0.  0.
        3    1    3    3  502    0 -0.47124824288E+03  0.68954277635E+03  0.11013331667E+04  0.13822007456E+04  0.10100000352E+00 0. -1.
       -3    1    3    3    0  502  0.47124824288E+03 -0.68954277635E+03 -0.24457957721E+04  0.25844653443E+04  0.10100000352E+00 0.  1.
</event>
<event>
 5   0  0.2287500E-07  0.3472679E+04  0.7818609E-02  0.8120295E-01
        1   -1    0    0  501    0  0.00000000000E+00  0.00000000000E+00  0.13270077150E+04  0.13270077150E+04  0.50400001928E-02 0. -1.
       -1   -1    0    0    0  501  0.00000000000E+00  0.00000000000E+00 -0.22719349412E+04  0.22719349413E+04  0.50400001928E-02 0.  1.
    10030    2    1    2    0    0  0.00000000000E+00  0.00000000000E+00 -0.94492722629E+03  0.35989426562E+04  0.34726791933E+04 0.  0.
        3    1    3    3  502    0  0.12563851657E+04 -0.41703377637E+03  0.69197902614E+03  0.14937388788E+04  0.10100000352E+00 0. -1.
       -3    1    3    3    0  502 -0.12563851657E+04  0.41703377637E+03 -0.16369062524E+04  0.21052037774E+04  0.10100000352E+00 0.  1.
</event>
<event>
 5   0  0.7124627E-07  0.3714572E+04  0.7818609E-02  0.8064740E-01
       -2   -1    0    0    0  501  0.00000000000E+00  0.00000000000E+00  0.18960799116E+04  0.18960799116E+04  0.25500000920E-02 0. -1.
        2   -1    0    0  501    0  0.00000000000E+00  0.00000000000E+00 -0.18192857580E+04  0.18192857580E+04  0.25500000920E-02 0.  1.
    10030    2    1    2    0    0  0.00000000000E+00  0.00000000000E+00  0.76794153568E+02  0.37153656696E+04  0.37145719426E+04 0.  0.
        2    1    3    3  502    0  0.11733182506E+04 -0.11325738086E+04  0.92746947384E+03  0.18760593738E+04  0.25500000920E-02 0.  1.
       -2    1    3    3    0  502 -0.11733182506E+04  0.11325738086E+04 -0.85067532027E+03  0.18393062958E+04  0.25500000920E-02 0. -1.
</event>
<event>
 5   0  0.6939921E-07  0.3769502E+04  0.7818609E-02  0.8052732E-01
        2   -1    0    0  501    0  0.00000000000E+00  0.00000000000E+00  0.27265855767E+04  0.27265855767E+04  0.25500000920E-02 0.  1.
       -2   -1    0    0    0  501  0.00000000000E+00  0.00000000000E+00 -0.13028329280E+04  0.13028329280E+04  0.25500000920E-02 0. -1.
    10030    2    1    2    0    0  0.00000000000E+00  0.00000000000E+00  0.14237526488E+04  0.40294185047E+04  0.37695015428E+04 0.  0.
        4    1    3    3  502    0 -0.11543941003E+04  0.66208900230E+03 -0.71480353602E+03  0.15106069290E+04  0.12699999809E+01 0. -1.
       -4    1    3    3    0  502  0.11543941003E+04 -0.66208900230E+03  0.21385561848E+04  0.25188115758E+04  0.12699999809E+01 0.  1.
</event>
<event>
 5   0  0.6939921E-07  0.3722425E+04  0.7818609E-02  0.8063010E-01
        2   -1    0    0  501    0  0.00000000000E+00  0.00000000000E+00  0.28585207000E+04  0.28585207000E+04  0.25500000920E-02 0.  1.
       -2   -1    0    0    0  501  0.00000000000E+00  0.00000000000E+00 -0.12118544995E+04  0.12118544995E+04  0.25500000920E-02 0. -1.
    10030    2    1    2    0    0  0.00000000000E+00  0.00000000000E+00  0.16466662005E+04  0.40703751994E+04  0.37224245712E+04 0.  0.
        4    1    3    3  502    0  0.85606080476E+03 -0.15114215210E+02  0.26303934165E+04  0.27662320365E+04  0.12699999809E+01 0.  1.
       -4    1    3    3    0  502 -0.85606080476E+03  0.15114215210E+02 -0.98372721608E+03  0.13041431630E+04  0.12699999809E+01 0. -1.
</event>
<event>
 5   0  0.2287500E-07  0.3599140E+04  0.7818609E-02  0.8090689E-01
        1   -1    0    0  501    0  0.00000000000E+00  0.00000000000E+00  0.21323650428E+04  0.21323650428E+04  0.50400001928E-02 0.  1.
       -1   -1    0    0    0  501  0.00000000000E+00  0.00000000000E+00 -0.15187135679E+04  0.15187135679E+04  0.50400001928E-02 0. -1.
    10030    2    1    2    0    0  0.00000000000E+00  0.00000000000E+00  0.61365147491E+03  0.36510786107E+04  0.35991397428E+04 0.  0.
        4    1    3    3  502    0 -0.38042240437E+03  0.12889436592E+04  0.15209063607E+04  0.20295947214E+04  0.12699999809E+01 0.  1.
       -4    1    3    3    0  502  0.38042240437E+03 -0.12889436592E+04 -0.90725488578E+03  0.16214838892E+04  0.12699999809E+01 0. -1.
</event>
<event>
 5   0  0.2287500E-07  0.3653101E+04  0.7818609E-02  0.8078435E-01
        1   -1    0    0  501    0  0.00000000000E+00  0.00000000000E+00  0.22886935159E+04  0.22886935159E+04  0.50400001928E-02 0. -1.
       -1   -1    0    0    0  501  0.00000000000E+00  0.00000000000E+00 -0.14577253148E+04  0.14577253148E+04  0.50400001928E-02 0.  1.
    10030    2    1    2    0    0  0.00000000000E+00  0.00000000000E+00  0.83096820114E+03  0.37464188307E+04  0.36531008614E+04 0.  0.
        3    1    3    3  502    0  0.59823804892E+03  0.92317855358E+03  0.19108604156E+04  0.22048888732E+04  0.10100000352E+00 0. -1.
       -3    1    3    3    0  502 -0.59823804892E+03 -0.92317855358E+03 -0.10798922144E+04  0.15415299575E+04  0.10100000352E+00 0.  1.
</event>
<event>
 5   0  0.2411746E-07  0.3677921E+04  0.7818609E-02  0.8072873E-01
       -1   -1    0    0    0  501  0.00000000000E+00  0.00000000000E+00  0.23408193122E+04  0.23408193122E+04  0.50400001928E-02 0.  1.
        1   -1    0    0  501    0  0.00000000000E+00  0.00000000000E+00 -0.14446971735E+04  0.14446971735E+04  0.50400001928E-02 0. -1.
    10030    2    1    2    0    0  0.00000000000E+00  0.00000000000E+00  0.89612213873E+03  0.37855164857E+04  0.36779206321E+04 0.  0.
        1    1    3    3  502    0  0.92120646892E+03 -0.14872036949E+04  0.10315484108E+04  0.20308836285E+04  0.50400001928E-02 0.  1.
       -1    1    3    3    0  502 -0.92120646892E+03  0.14872036949E+04 -0.13542627210E+03  0.17546328572E+04  0.50400001928E-02 0. -1.
</event>
<event>
 5   0  0.2287500E-07  0.3713104E+04  0.7818609E-02  0.8065064E-01
        1   -1    0    0  501    0  0.00000000000E+00  0.00000000000E+00  0.19514808933E+04  0.19514808933E+04  0.50400001928E-02 0. -1.
       -1   -1    0    0    0  501  0.00000000000E+00  0.00000000000E+00 -0.17662409344E+04  0.17662409344E+04  0.50400001928E-02 0.  1.
    10030    2    1    2    0    0  0.00000000000E+00  0.00000000000E+00  0.18523995883E+03  0.37177218277E+04  0.37131040580E+04 0.  0.
        4    1    3    3  502    0  0.13601388652E+04  0.10705365150E+03 -0.11680509773E+04  0.17960464681E+04  0.12699999809E+01 0.  1.
       -4    1    3    3    0  502 -0.13601388652E+04 -0.10705365150E+03  0.13532909361E+04  0.19216753596E+04  0.12699999809E+01 0. -1.
</event>
<event>
 5   0  0.2411746E-07  0.3677749E+04  0.7818609E-02  0.8072911E-01
        1   -1    0    0  501    0  0.00000000000E+00  0.00000000000E+00  0.12742191982E+04  0.12742191982E+04  0.50400001928E-02 0.  1.
       -1   -1    0    0    0  501  0.00000000000E+00  0.00000000000E+00 -0.26537502514E+04  0.26537502514E+04  0.50400001928E-02 0. -1.
    10030    2    1    2    0    0  0.00000000000E+00  0.00000000000E+00 -0.13795310533E+04  0.39279694496E+04  0.36777490494E+04 0.  0.
        1    1    3    3  502    0  0.85320762344E+03  0.10511722580E+03  0.10463919796E+04  0.13542337519E+04  0.50400001928E-02 0.  1.
       -1    1    3    3    0  502 -0.85320762344E+03 -0.10511722580E+03 -0.24259230329E+04  0.25737356977E+04  0.50400001928E-02 0. -1.
</event>
<event>
 5   0  0.7124627E-07  0.3606446E+04  0.7818609E-02  0.8089017E-01
        2   -1    0    0  501    0  0.00000000000E+00  0.00000000000E+00  0.17399419680E+04  0.17399419680E+04  0.25500000920E-02 0. -1.
       -2   -1    0    0    0  501  0.00000000000E+00  0.00000000000E+00 -0.18688056932E+04  0.18688056932E+04  0.25500000920E-02 0.  1.
    10030    2    1    2    0    0  0.00000000000E+00  0.00000000000E+00 -0.12886372522E+03  0.36087476612E+04  0.36064461486E+04 0.  0.
        2    1    3    3  502    0  0.12185843943E+03  0.16672125282E+04 -0.74100413878E+03  0.18285333541E+04  0.25500000920E-02 0.  1.
       -2    1    3    3    0  502 -0.12185843943E+03 -0.16672125282E+04  0.61214041356E+03  0.17802143071E+04  0.25500000920E-02 0. -1.
</event>
<event>
 5   0  0.2287500E-07  0.3743935E+04  0.7818609E-02  0.8058294E-01
        1   -1    0    0  501    0  0.00000000000E+00  0.00000000000E+00  0.19349118971E+04  0.19349118971E+04  0.50400001928E-02 0.  1.
       -1   -1    0    0    0  501  0.00000000000E+00  0.00000000000E+00 -0.18110710359E+04  0.18110710359E+04  0.50400001928E-02 0. -1.
    10030    2    1    2    0    0  0.00000000000E+00  0.00000000000E+00  0.12384086120E+03  0.37459829330E+04  0.37439353059E+04 0.  0.
        4    1    3    3  502    0 -0.98598621237E+03  0.11566197795E+04 -0.10315281999E+04  0.18368424443E+04  0.12699999809E+01 0. -1.
       -4    1    3    3    0  502  0.98598621237E+03 -0.11566197795E+04  0.11553690610E+04  0.19091404886E+04  0.12699999809E+01 0.  1.
</event>
<event>
 5   0  0.7124627E-07  0.3718081E+04  0.7818609E-02  0.8063967E-01
        2   -1    0    0  501    0  0.00000000000E+00  0.00000000000E+00  0.20172680732E+04  0.20172680732E+04  0.25500000920E-02 0. -1.
       -2   -1    0    0    0  501  0.00000000000E+00  0.00000000000E+00 -0.17132236373E+04  0.17132236373E+04  0.25500000920E-02 0.  1.
    10030    2    1    2    0    0  0.00000000000E+00  0.00000000000E+00  0.30404443590E+03  0.37304917105E+04  0.37180808737E+04 0.  0.
        2    1    3    3  502    0 -0.74434352325E+03  0.60166903071E+03  0.17510730237E+04  0.19955725087E+04  0.25500000920E-02 0. -1.
       -2    1    3    3    0  502  0.74434352325E+03 -0.60166903071E+03 -0.14470285878E+04  0.17349192018E+04  0.25500000920E-02 0.  1.
</event>
<event>
 5   0  0.2411746E-07  0.3624831E+04  0.7818609E-02  0.8084827E-01
       -1   -1    0    0    0  501  0.00000000000E+00  0.00000000000E+00  0.11915761058E+04  0.11915761058E+04  0.50400001928E-02 0. -1.
        1   -1    0    0  501    0  0.00000000000E+00  0.00000000000E+00 -0.27567271905E+04  0.27567271905E+04  0.50400001928E-02 0.  1.
    10030    2    1    2    0    0  0.00000000000E+00  0.00000000000E+00 -0.15651510847E+04  0.39483032963E+04  0.36248311687E+04 0.  0.
        1    1    3    3  502    0  0.96906155544E+03  0.70370506076E+03 -0.22643270597E+04  0.25615343340E+04  0.50400001928E-02 0.  1.
       -1    1    3    3    0  502 -0.96906155544E+03 -0.70370506076E+03  0.69917597498E+03  0.13867689623E+04  0.50400001928E-02 0. -1.
</event>
<event>
 5   0  0.2287500E-07  0.3711837E+04  0.7818609E-02  0.8065344E-01
        1   -1    0    0  501    0  0.00000000000E+00  0.00000000000E+00  0.15679649474E+04  0.15679649474E+04  0.50400001928E-02 0. -1.
       -1   -1    0    0    0  501  0.00000000000E+00  0.00000000000E+00 -0.21967546124E+04  0.21967546125E+04  0.50400001928E-02 0.  1.
    10030    2    1    2    0    0  0.00000000000E+00  0.00000000000E+00 -0.62878966503E+03  0.37647195599E+04  0.37118374051E+04 0.  0.
        3    1    3    3  502    0  0.89720490203E+03  0.28256427863E+03 -0.19370678360E+04  0.21533812991E+04  0.10100000352E+00 0.  1.
       -3    1    3    3    0  502 -0.89720490203E+03 -0.28256427863E+03  0.13082781710E+04  0.16113382608E+04  0.10100000352E+00 0. -1.
</event>
<event>
 5   0  0.7124627E-07  0.3346317E+04  0.7818609E-02  0.8151209E-01
       -2   -1    0    0    0  501  0.00000000000E+00  0.00000000000E+00  0.14724292846E+04  0.14724292846E+04  0.25500000920E-02 0. -1.
        2   -1    0    0  501    0  0.00000000000E+00  0.00000000000E+00 -0.19012523061E+04  0.19012523061E+04  0.25500000920E-02 0.  1.
    10030    2    1    2    0    0  0.00000000000E+00  0.00000000000E+00 -0.42882302148E+03  0.33736815906E+04  0.33463171235E+04 0.  0.
        2    1    3    3  502    0 -0.11791205349E+04  0.10536250343E+04 -0.76569990884E+03  0.17569141411E+04  0.25500000920E-02 0.  1.
       -2    1    3    3    0  502  0.11791205349E+04 -0.10536250343E+04  0.33687688736E+03  0.16167674496E+04  0.25500000920E-02 0. -1.
</event>
<event>
 5   0  0.7300916E-07  0.3772130E+04  0.7818609E-02  0.8052162E-01
       -2   -1    0    0    0  501  0.00000000000E+00  0.00000000000E+00  0.13396124518E+04  0.13396124518E+04  0.25500000920E-02 0.  1.
        2   -1    0    0  501    0  0.00000000000E+00  0.00000000000E+00 -0.26554252394E+04  0.26554252394E+04  0.25500000920E-02 0. -1.
    10030    2    1    2    0    0  0.00000000000E+00  0.00000000000E+00 -0.13158127876E+04  0.39950376912E+04  0.37721297515E+04 0.  0.
        1    1    3    3  502    0 -0.14210037358E+04  0.12023229123E+04 -0.97985809095E+03  0.21035574347E+04  0.50400001928E-02 0.  1.
       -1    1    3    3    0  502  0.14210037358E+04 -0.12023229123E+04 -0.33595469666E+03  0.18914802565E+04  0.50400001928E-02 0. -1.
</event>
<event>
 5   0  0.6949625E-07  0.3636426E+04  0.7818609E-02  0.8082199E-01
       -2   -1    0    0    0  501  0.00000000000E+00  0.00000000000E+00  0.26518302057E+04  0.26518302057E+04  0.25500000920E-02 0. -1.
        2   -1    0    0  501    0  0.00000000000E+00  0.00000000000E+00 -0.12466478072E+04  0.12466478072E+04  0.25500000920E-02 0.  1.
    10030    2    1    2    0    0  0.00000000000E+00  0.00000000000E+00  0.14051823985E+04  0.38984780129E+04  0.36364258887E+04 0.  0.
        5    1    3    3  502    0  0.13294826364E+04 -0.88460354494E+03 -0.22944341177E+03  0.16132928691E+04  0.46999998093E+01 0.  1.
       -5    1    3    3    0  502 -0.13294826364E+04  0.88460354494E+03  0.16346258102E+04  0.22851851438E+04  0.46999998093E+01 0. -1.
</event>
<event>
 5   0  0.2287500E-07  0.3691166E+04  0.7818609E-02  0.8069922E-01
       -1   -1    0    0    0  501  0.00000000000E+00  0.00000000000E+00  0.24927498782E+04  0.24927498782E+04  0.50400001928E-02 0. -1.
        1   -1    0    0  501    0  0.00000000000E+00  0.00000000000E+00 -0.13664335941E+04  0.13664335942E+04  0.50400001928E-02 0.  1.
    10030    2    1    2    0    0  0.00000000000E+00  0.00000000000E+00  0.11263162841E+04  0.38591834724E+04  0.36911663064E+04 0.  0.
        4    1    3    3  502    0  0.32662670969E+03  0.71892769450E+03  0.23072117096E+04  0.24385999104E+04  0.12699999809E+01 0. -1.
       -4    1    3    3    0  502 -0.32662670969E+03 -0.71892769450E+03 -0.11808954255E+04  0.14205835619E+04  0.12699999809E+01 0.  1.
</event>
<event>
 5   0  0.2411746E-07  0.3737364E+04  0.7818609E-02  0.8059732E-01
       -1   -1    0    0    0  501  0.00000000000E+00  0.00000000000E+00  0.18222913072E+04  0.18222913072E+04  0.50400001928E-02 0. -1.
        1   -1    0    0  501    0  0.00000000000E+00  0.00000000000E+00 -0.19162539695E+04  0.19162539695E+04  0.50400001928E-02 0.  1.
    10030    2    1    2    0    0  0.00000000000E+00  0.00000000000E+00 -0.93962662301E+02  0.37385452767E+04  0.37373642857E+04 0.  0.
        1    1    3    3  502    0  0.69086322273E+03  0.47206237350E+03  0.16244260908E+04  0.18272643491E+04  0.50400001928E-02 0. -1.
       -1    1    3    3    0  502 -0.69086322273E+03 -0.47206237350E+03 -0.17183887531E+04  0.19112809275E+04  0.50400001928E-02 0.  1.
</event>
<event>
 5   0  0.2287500E-07  0.3693473E+04  0.7818609E-02  0.8069410E-01
        1   -1    0    0  501    0  0.00000000000E+00  0.00000000000E+00  0.20645281434E+04  0.20645281434E+04  0.50400001928E-02 0. -1.
       -1   -1    0    0    0  501  0.00000000000E+00  0.00000000000E+00 -0.16519198380E+04  0.16519198380E+04  0.50400001928E-02 0.  1.
    10030    2    1    2    0    0  0.00000000000E+00  0.00000000000E+00  0.41260830539E+03  0.37164479814E+04  0.36934726186E+04 0.  0.
        3    1    3    3  502    0 -0.32315150409E+03 -0.70502924257E+03  0.18927195147E+04  0.20454535680E+04  0.10100000352E+00 0. -1.
       -3    1    3    3    0  502  0.32315150409E+03  0.70502924257E+03 -0.14801112093E+04  0.16709944134E+04  0.10100000352E+00 0.  1.
</event>
<event>
 5   0  0.7074157E-07  0.3208416E+04  0.7818609E-02  0.8186598E-01
       -2   -1    0    0    0  501  0.00000000000E+00  0.00000000000E+00  0.17076772685E+04  0.17076772685E+04  0.25500000920E-02 0. -1.
        2   -1    0    0  501    0  0.00000000000E+00  0.00000000000E+00 -0.15070080494E+04  0.15070080494E+04  0.25500000920E-02 0.  1.
    10030    2    1    2    0    0  0.00000000000E+00  0.00000000000E+00  0.20066921919E+03  0.32146853179E+04  0.32084160512E+04 0.  0.
        3    1    3    3  502    0  0.44983453820E+03  0.66974238489E+03 -0.12889451335E+04  0.15206201173E+04  0.10100000352E+00 0.  1.
       -3    1    3    3    0  502 -0.44983453820E+03 -0.66974238489E+03  0.14896143527E+04  0.16940652006E+04  0.10100000352E+00 0. -1.
</event>
<event>
 5   0  0.7124627E-07  0.3339111E+04  0.7818609E-02  0.8153014E-01
       -2   -1    0    0    0  501  0.00000000000E+00  0.00000000000E+00  0.12538914183E+04  0.12538914184E+04  0.25500000920E-02 0.  1.
        2   -1    0    0  501    0  0.00000000000E+00  0.00000000000E+00 -0.22230115814E+04  0.22230115814E+04  0.25500000920E-02 0. -1.
    10030    2    1    2    0    0  0.00000000000E+00  0.00000000000E+00 -0.96912016308E+03  0.34769029998E+04  0.33391107468E+04 0.  0.
        2    1    3    3  502    0  0.11338646432E+04 -0.10340158751E+04  0.20028699633E+03  0.15475634849E+04  0.25500000920E-02 0.  1.
       -2    1    3    3    0  502 -0.11338646432E+04  0.10340158751E+04 -0.11694071594E+04  0.19293395148E+04  0.25500000920E-02 0. -1.
</event>
<event>
 5   0  0.2287500E-07  0.3824972E+04  0.7818609E-02  0.8040817E-01
        1   -1    0    0  501    0  0.00000000000E+00  0.00000000000E+00  0.26660598085E+04  0.26660598085E+04  0.50400001928E-02 0.  1.
       -1   -1    0    0    0  501  0.00000000000E+00  0.00000000000E+00 -0.13719130840E+04  0.13719130840E+04  0.50400001928E-02 0. -1.
    10030    2    1    2    0    0  0.00000000000E+00  0.00000000000E+00  0.12941467245E+04  0.40379728925E+04  0.38249718086E+04 0.  0.
        2    1    3    3  502    0  0.12551751894E+04 -0.31510178844E+03 -0.83947800475E+03  0.15425554167E+04  0.25500000920E-02 0. -1.
       -2    1    3    3    0  502 -0.12551751894E+04  0.31510178844E+03  0.21336247293E+04  0.24954174758E+04  0.25500000920E-02 0.  1.
</event>
<event>
 5   0  0.2287500E-07  0.3625171E+04  0.7818609E-02  0.8084750E-01
       -1   -1    0    0    0  501  0.00000000000E+00  0.00000000000E+00  0.15534709871E+04  0.15534709871E+04  0.50400001928E-02 0. -1.
        1   -1    0    0  501    0  0.00000000000E+00  0.00000000000E+00 -0.21149197300E+04  0.21149197300E+04  0.50400001928E-02 0.  1.
    10030    2    1    2    0    0  0.00000000000E+00  0.00000000000E+00 -0.56144874291E+03  0.36683907170E+04  0.36251711355E+04 0.  0.
        2    1    3    3  502    0  0.10699974239E+04 -0.12293519472E+04  0.52199569059E+03  0.17113387152E+04  0.25500000920E-02 0. -1.
       -2    1    3    3    0  502 -0.10699974239E+04  0.12293519472E+04 -0.10834444335E+04  0.19570520018E+04  0.25500000920E-02 0.  1.
</event>
<event>
 5   0  0.6939921E-07  0.3681252E+04  0.7818609E-02  0.8072129E-01
        2   -1    0    0  501    0  0.00000000000E+00  0.00000000000E+00  0.16941440650E+04  0.16941440650E+04  0.25500000920E-02 0.  1.
       -2   -1    0    0    0  501  0.00000000000E+00  0.00000000000E+00 -0.19997733133E+04  0.19997733133E+04  0.25500000920E-02 0. -1.
    10030    2    1    2    0    0  0.00000000000E+00  0.00000000000E+00 -0.30562924831E+03  0.36939173783E+04  0.36812520099E+04 0.  0.
        4    1    3    3  502    0 -0.22870033129E+03 -0.17992069147E+04 -0.46766655161E+03  0.18730090709E+04  0.12699999809E+01 0.  1.
       -4    1    3    3    0  502  0.22870033129E+03  0.17992069147E+04  0.16203730330E+03  0.18209083074E+04  0.12699999809E+01 0. -1.
</event>
<event>
 5   0  0.2287500E-07  0.2831906E+04  0.7818609E-02  0.8293431E-01
       -1   -1    0    0    0  501  0.00000000000E+00  0.00000000000E+00  0.17982740191E+04  0.17982740192E+04  0.50400001928E-02 0. -1.
        1   -1    0    0  501    0  0.00000000000E+00  0.00000000000E+00 -0.11149151824E+04  0.11149151824E+04  0.50400001928E-02 0.  1.
    10030    2    1    2    0    0  0.00000000000E+00  0.00000000000E+00  0.68335883679E+03  0.29131892015E+04  0.28319060761E+04 0.  0.
        3    1    3    3  502    0 -0.11576885924E+04 -0.55587933921E+03 -0.27182616314E+03  0.13126820597E+04  0.10100000352E+00 0. -1.
       -3    1    3    3    0  502  0.11576885924E+04  0.55587933921E+03  0.95518499993E+03  0.16005071418E+04  0.10100000352E+00 0.  1.
</event>
<event>
 5   0  0.7300916E-07  0.3523218E+04  0.7818609E-02  0.8108309E-01
        2   -1    0    0  501    0  0.00000000000E+00  0.00000000000E+00  0.17766318034E+04  0.17766318034E+04  0.25500000920E-02 0.  1.
       -2   -1    0    0    0  501  0.00000000000E+00  0.00000000000E+00 -0.17467136928E+04  0.17467136928E+04  0.25500000920E-02 0. -1.
    10030    2    1    2    0    0  0.00000000000E+00  0.00000000000E+00  0.29918110570E+02  0.35233454962E+04  0.35232184706E+04 0.  0.
        1    1    3    3  502    0  0.15875051323E+04  0.20888768358E+03  0.74946527609E+03  0.17679097289E+04  0.50400001928E-02 0.  1.
       -1    1    3    3    0  502 -0.15875051323E+04 -0.20888768358E+03 -0.71954716552E+03  0.17554357672E+04  0.50400001928E-02 0. -1.
</event>
<event>
 5   0  0.2287500E-07  0.3227707E+04  0.7818609E-02  0.8181538E-01
       -1   -1    0    0    0  501  0.00000000000E+00  0.00000000000E+00  0.11772688540E+04  0.11772688540E+04  0.50400001928E-02 0.  1.
        1   -1    0    0  501    0  0.00000000000E+00  0.00000000000E+00 -0.22123437936E+04  0.22123437937E+04  0.50400001928E-02 0. -1.
    10030    2    1    2    0    0  0.00000000000E+00  0.00000000000E+00 -0.10350749396E+04  0.33896126477E+04  0.32277072003E+04 0.  0.
        2    1    3    3  502    0  0.12155868598E+04 -0.86815792986E+03  0.12398450120E+03  0.14989068555E+04  0.25500000920E-02 0.  1.
       -2    1    3    3    0  502 -0.12155868598E+04  0.86815792986E+03 -0.11590594408E+04  0.18907057921E+04  0.25500000920E-02 0. -1.
</event>
<event>
 5   0  0.2287500E-07  0.3726628E+04  0.7818609E-02  0.8062086E-01
        1   -1    0    0  501    0  0.00000000000E+00  0.00000000000E+00  0.26073500186E+04  0.26073500186E+04  0.50400001928E-02 0. -1.
       -1   -1    0    0    0  501  0.00000000000E+00  0.00000000000E+00 -0.13315971736E+04  0.13315971737E+04  0.50400001928E-02 0.  1.
    10030    2    1    2    0    0  0.00000000000E+00  0.00000000000E+00  0.12757528450E+04  0.39389471923E+04  0.37266284577E+04 0.  0.
        4    1    3    3  502    0  0.79985258183E+03 -0.58920213681E+03 -0.10283290977E+04  0.14298201484E+04  0.12699999809E+01 0.  1.
       -4    1    3    3    0  502 -0.79985258183E+03  0.58920213681E+03  0.23040819427E+04  0.25091270439E+04  0.12699999809E+01 0. -1.
</event>
<event>
 5   0  0.6939921E-07  0.3764308E+04  0.7818609E-02  0.8053858E-01
        2   -1    0    0  501    0  0.00000000000E+00  0.00000000000E+00  0.22962171295E+04  0.22962171295E+04  0.25500000920E-02 0. -1.
       -2   -1    0    0    0  501  0.00000000000E+00  0.00000000000E+00 -0.15427562715E+04  0.15427562715E+04  0.25500000920E-02 0.  1.
    10030    2    1    2    0    0  0.00000000000E+00  0.00000000000E+00  0.75346085795E+03  0.38389734010E+04  0.37643078393E+04 0.  0.
        4    1    3    3  502    0 -0.66880513825E+03 -0.65387695699E+03 -0.12889592715E+04  0.15925680533E+04  0.12699999809E+01 0.  1.
       -4    1    3    3    0  502  0.66880513825E+03  0.65387695699E+03  0.20424201295E+04  0.22464053477E+04  0.12699999809E+01 0. -1.
</event>
<event>
 5   0  0.7124627E-07  0.3428777E+04  0.7818609E-02  0.8130879E-01
       -2   -1    0    0    0  501  0.00000000000E+00  0.00000000000E+00  0.13453124819E+04  0.13453124819E+04  0.25500000920E-02 0.  1.
        2   -1    0    0  501    0  0.00000000000E+00  0.00000000000E+00 -0.21847180681E+04  0.21847180681E+04  0.25500000920E-02 0. -1.
    10030    2    1    2    0    0  0.00000000000E+00  0.00000000000E+00 -0.83940558623E+03  0.35300305500E+04  0.34287773252E+04 0.  0.
        2    1    3    3  502    0  0.34299629686E+03 -0.12489841705E+04  0.73663934021E+03  0.14900488030E+04  0.25500000920E-02 0.  1.
       -2    1    3    3    0  502 -0.34299629686E+03  0.12489841705E+04 -0.15760449264E+04  0.20399817470E+04  0.25500000920E-02 0. -1.
</event>
<event>
 5   0  0.2345471E-07  0.3636448E+04  0.7818609E-02  0.8082193E-01
        1   -1    0    0  501    0  0.00000000000E+00  0.00000000000E+00  0.14309509978E+04  0.14309509978E+04  0.50400001928E-02 0.  1.
       -1   -1    0    0    0  501  0.00000000000E+00  0.00000000000E+00 -0.23103088519E+04  0.23103088519E+04  0.50400001928E-02 0. -1.
    10030    2    1    2    0    0  0.00000000000E+00  0.00000000000E+00 -0.87935785406E+03  0.37412598497E+04  0.36364481335E+04 0.  0.
        5    1    3    3  502    0  0.15483970450E+04  0.22756611212E+03  0.51252228626E+03  0.16468214621E+04  0.46999998093E+01 0.  1.
       -5    1    3    3    0  502 -0.15483970450E+04 -0.22756611212E+03 -0.13918801403E+04  0.20944383876E+04  0.46999998093E+01 0. -1.
</event>
<event>
 5   0  0.6949625E-07  0.3267478E+04  0.7818609E-02  0.8171220E-01
        2   -1    0    0  501    0  0.00000000000E+00  0.00000000000E+00  0.23587830760E+04  0.23587830760E+04  0.25500000920E-02 0. -1.
       -2   -1    0    0    0  501  0.00000000000E+00  0.00000000000E+00 -0.11315593939E+04  0.11315593939E+04  0.25500000920E-02 0.  1.
    10030    2    1    2    0    0  0.00000000000E+00  0.00000000000E+00  0.12272236821E+04  0.34903424700E+04  0.32674780170E+04 0.  0.
        5    1    3    3  502    0  0.34219358177E+03 -0.73679671556E+03 -0.90049941520E+03  0.12128013581E+04  0.46999998093E+01 0.  1.
       -5    1    3    3    0  502 -0.34219358177E+03  0.73679671556E+03  0.21277230973E+04  0.22775411119E+04  0.46999998093E+01 0. -1.
</event>
<event>
 5   0  0.7124627E-07  0.3697303E+04  0.7818609E-02  0.8068560E-01
       -2   -1    0    0    0  501  0.00000000000E+00  0.00000000000E+00  0.18951870584E+04  0.18951870584E+04  0.25500000920E-02 0. -1.
        2   -1    0    0  501    0  0.00000000000E+00  0.00000000000E+00 -0.18032583270E+04  0.18032583270E+04  0.25500000920E-02 0.  1.
    10030    2    1    2    0    0  0.00000000000E+00  0.00000000000E+00  0.91928731396E+02  0.36984453854E+04  0.36973027164E+04 0.  0.
        2    1    3    3  502    0  0.11429197351E+04  0.45769869429E+03  0.14254330696E+04  0.18835108313E+04  0.25500000920E-02 0. -1.
       -2    1    3    3    0  502 -0.11429197351E+04 -0.45769869429E+03 -0.13335043382E+04  0.18149345541E+04  0.25500000920E-02 0.  1.
</event>
<event>
 5   0  0.6949625E-07  0.3736435E+04  0.7818609E-02  0.8059935E-01
       -2   -1    0    0    0  501  0.00000000000E+00  0.00000000000E+00  0.14782778464E+04  0.14782778464E+04  0.25500000920E-02 0.  1.
        2   -1    0    0  501    0  0.00000000000E+00  0.00000000000E+00 -0.23610155965E+04  0.23610155965E+04  0.25500000920E-02 0. -1.
    10030    2    1    2    0    0  0.00000000000E+00  0.00000000000E+00 -0.88273775008E+03  0.38392934428E+04  0.37364352269E+04 0.  0.
        5    1    3    3  502    0  0.15305176670E+03  0.44098818327E+03  0.14173842088E+04  0.14922786289E+04  0.46999998093E+01 0.  1.
       -5    1    3    3    0  502 -0.15305176670E+03 -0.44098818327E+03 -0.23001219589E+04  0.23470148139E+04  0.46999998093E+01 0. -1.
</event>
<event>
 5   0  0.2287500E-07  0.2861107E+04  0.7818609E-02  0.8284544E-01
       -1   -1    0    0    0  501  0.00000000000E+00  0.00000000000E+00  0.12366748865E+04  0.12366748865E+04  0.50400001928E-02 0. -1.
        1   -1    0    0  501    0  0.00000000000E+00  0.00000000000E+00 -0.16548275820E+04  0.16548275820E+04  0.50400001928E-02 0.  1.
    10030    2    1    2    0    0  0.00000000000E+00  0.00000000000E+00 -0.41815269548E+03  0.28915024686E+04  0.28611072767E+04 0.  0.
        3    1    3    3  502    0 -0.44752334022E+01 -0.46732939602E+03  0.11573476141E+04  0.12481467470E+04  0.10100000352E+00 0. -1.
       -3    1    3    3    0  502  0.44752334022E+01  0.46732939602E+03 -0.15755003095E+04  0.16433557216E+04  0.10100000352E+00 0.  1.
</event>
<event>
 5   0  0.7300916E-07  0.3627023E+04  0.7818609E-02  0.8084330E-01
        2   -1    0    0  501    0  0.00000000000E+00  0.00000000000E+00  0.14125463949E+04  0.14125463949E+04  0.25500000920E-02 0.  1.
       -2   -1    0    0    0  501  0.00000000000E+00  0.00000000000E+00 -0.23282940443E+04  0.23282940443E+04  0.25500000920E-02 0. -1.
    10030    2    1    2    0    0  0.00000000000E+00  0.00000000000E+00 -0.91574764940E+03  0.37408404392E+04  0.36270226680E+04 0.  0.
        1    1    3    3  502    0  0.48067254548E+03 -0.94774510299E+03  0.10577841125E+04  0.14993912447E+04  0.50400001928E-02 0.  1.
       -1    1    3    3    0  502 -0.48067254548E+03  0.94774510299E+03 -0.19735317619E+04  0.22414491945E+04  0.50400001928E-02 0. -1.
</event>
<event>
 5   0  0.2287500E-07  0.3696165E+04  0.7818609E-02  0.8068812E-01
        1   -1    0    0  501    0  0.00000000000E+00  0.00000000000E+00  0.14109673854E+04  0.14109673854E+04  0.50400001928E-02 0.  1.
       -1   -1    0    0    0  501  0.00000000000E+00  0.00000000000E+00 -0.24206147812E+04  0.24206147812E+04  0.50400001928E-02 0. -1.
    10030    2    1    2    0    0  0.00000000000E+00  0.00000000000E+00 -0.10096473958E+04  0.38315821665E+04  0.36961647738E+04 0.  0.
        3    1    3    3  502    0  0.90802802814E+03  0.40683007595E+03  0.11095979563E+04  0.14903802352E+04  0.10100000352E+00 0.  1.
       -3    1    3    3    0  502 -0.90802802814E+03 -0.40683007595E+03 -0.21192453521E+04  0.23412019313E+04  0.10100000352E+00 0. -1.
</event>
<event>
 5   0  0.7124627E-07  0.3398572E+04  0.7818609E-02  0.8138257E-01
        2   -1    0    0  501    0  0.00000000000E+00  0.00000000000E+00  0.16794991801E+04  0.16794991801E+04  0.25500000920E-02 0. -1.
       -2   -1    0    0    0  501  0.00000000000E+00  0.00000000000E+00 -0.17193058374E+04  0.17193058374E+04  0.25500000920E-02 0.  1.
    10030    2    1    2    0    0  0.00000000000E+00  0.00000000000E+00 -0.39806657227E+02  0.33988050175E+04  0.33985719026E+04 0.  0.
        2    1    3    3  502    0  0.21810359319E+03  0.16738882143E+04 -0.21511357415E+03  0.17016888027E+04  0.25500000920E-02 0. -1.
       -2    1    3    3    0  502 -0.21810359319E+03 -0.16738882143E+04  0.17530691692E+03  0.16971162148E+04  0.25500000920E-02 0.  1.
</event>
<event>
 5   0  0.7074157E-07  0.3731732E+04  0.7818609E-02  0.8060966E-01
       -2   -1    0    0    0  501  0.00000000000E+00  0.00000000000E+00  0.22243972705E+04  0.22243972705E+04  0.25500000920E-02 0. -1.
        2   -1    0    0  501    0  0.00000000000E+00  0.00000000000E+00 -0.15651234223E+04  0.15651234223E+04  0.25500000920E-02 0.  1.
    10030    2    1    2    0    0  0.00000000000E+00  0.00000000000E+00  0.65927384812E+03  0.37895206928E+04  0.37317321815E+04 0.  0.
        3    1    3    3  502    0  0.33689433215E+03 -0.13286881472E+04 -0.95588386576E+03  0.16711145857E+04  0.10100000352E+00 0.  1.
       -3    1    3    3    0  502 -0.33689433215E+03  0.13286881472E+04  0.16151577139E+04  0.21184061071E+04  0.10100000352E+00 0. -1.
</event>
<event>
 5   0  0.7300916E-07  0.3673366E+04  0.7818609E-02  0.8073890E-01
        2   -1    0    0  501    0  0.00000000000E+00  0.00000000000E+00  0.20130668245E+04  0.20130668245E+04  0.25500000920E-02 0.  1.
       -2   -1    0    0    0  501  0.00000000000E+00  0.00000000000E+00 -0.16757541068E+04  0.16757541068E+04  0.25500000920E-02 0. -1.
    10030    2    1    2    0    0  0.00000000000E+00  0.00000000000E+00  0.33731271764E+03  0.36888209313E+04  0.36733663027E+04 0.  0.
        1    1    3    3  502    0 -0.17603940946E+04  0.49546746223E+03  0.33945905805E+03  0.18600289854E+04  0.50400001928E-02 0.  1.
       -1    1    3    3    0  502  0.17603940946E+04 -0.49546746223E+03 -0.21463404101E+01  0.18287919459E+04  0.50400001928E-02 0. -1.
</event>
<event>
 5   0  0.6949625E-07  0.3699736E+04  0.7818609E-02  0.8068020E-01
       -2   -1    0    0    0  501  0.00000000000E+00  0.00000000000E+00  0.26945059625E+04  0.26945059625E+04  0.25500000920E-02 0. -1.
        2   -1    0    0  501    0  0.00000000000E+00  0.00000000000E+00 -0.12699957828E+04  0.12699957828E+04  0.25500000920E-02 0.  1.
    10030    2    1    2    0    0  0.00000000000E+00  0.00000000000E+00  0.14245101797E+04  0.39645017452E+04  0.36997357792E+04 0.  0.
        5    1    3    3  502    0 -0.88910604549E+03  0.15476395575E+04  0.12331400571E+04  0.21694133425E+04  0.46999998093E+01 0. -1.
       -5    1    3    3    0  502  0.88910604549E+03 -0.15476395575E+04  0.19137012260E+03  0.17950884028E+04  0.46999998093E+01 0.  1.
</event>
<event>
 5   0  0.2287500E-07  0.3675156E+04  0.7818609E-02  0.8073490E-01
       -1   -1    0    0    0  501  0.00000000000E+00  0.00000000000E+00  0.14828623149E+04  0.14828623149E+04  0.50400001928E-02 0. -1.
        1   -1    0    0  501    0  0.00000000000E+00  0.00000000000E+00 -0.22771456789E+04  0.22771456789E+04  0.50400001928E-02 0.  1.
    10030    2    1    2    0    0  0.00000000000E+00  0.00000000000E+00 -0.79428336395E+03  0.37600079938E+04  0.36751563302E+04 0.  0.
        4    1    3    3  502    0  0.25572190434E+03 -0.11533773847E+03  0.14608252258E+04  0.14875175426E+04  0.12699999809E+01 0. -1.
       -4    1    3    3    0  502 -0.25572190434E+03  0.11533773847E+03 -0.22551085898E+04  0.22724904512E+04  0.12699999809E+01 0.  1.
</event>
<event>
 5   0  0.2345471E-07  0.3666786E+04  0.7818609E-02  0.8075363E-01
        1   -1    0    0  501    0  0.00000000000E+00  0.00000000000E+00  0.10147383637E+04  0.10147383637E+04  0.50400001928E-02 0.  1.
       -1   -1    0    0    0  501  0.00000000000E+00  0.00000000000E+00 -0.33125091142E+04  0.33125091142E+04  0.50400001928E-02 0. -1.
    10030    2    1    2    0    0  0.00000000000E+00  0.00000000000E+00 -0.22977707505E+04  0.43272474779E+04  0.36667861014E+04 0.  0.
        5    1    3    3  502    0  0.74772814964E+03 -0.90902057802E+03 -0.28077379049E+04  0.30444753292E+04  0.46999998093E+01 0. -1.
       -5    1    3    3    0  502 -0.74772814964E+03  0.90902057802E+03  0.50996715442E+03  0.12827721487E+04  0.46999998093E+01 0.  1.
</event>
<event>
 5   0  0.6939921E-07  0.3721939E+04  0.7818609E-02  0.8063117E-01
       -2   -1    0    0    0  501  0.00000000000E+00  0.00000000000E+00  0.12005386107E+04  0.12005386107E+04  0.25500000920E-02 0.  1.
        2   -1    0    0  501    0  0.00000000000E+00  0.00000000000E+00 -0.28847121716E+04  0.28847121716E+04  0.25500000920E-02 0. -1.
    10030    2    1    2    0    0  0.00000000000E+00  0.00000000000E+00 -0.16841735610E+04  0.40852507823E+04  0.37219394636E+04 0.  0.
        4    1    3    3  502    0  0.81221567607E+03 -0.33094296282E+03  0.95946745194E+03  0.12999219028E+04  0.12699999809E+01 0.  1.
       -4    1    3    3    0  502 -0.81221567607E+03  0.33094296282E+03 -0.26436410129E+04  0.27853288795E+04  0.12699999809E+01 0. -1.
</event>
<event>
 5   0  0.2287500E-07  0.3683940E+04  0.7818609E-02  0.8071530E-01
        1   -1    0    0  501    0  0.00000000000E+00  0.00000000000E+00  0.20346541840E+04  0.20346541841E+04  0.50400001928E-02 0. -1.
       -1   -1    0    0    0  501  0.00000000000E+00  0.00000000000E+00 -0.16675328023E+04  0.16675328023E+04  0.50400001928E-02 0.  1.
    10030    2    1    2    0    0  0.00000000000E+00  0.00000000000E+00  0.36712138176E+03  0.37021869864E+04  0.36839395181E+04 0.  0.
        4    1    3    3  502    0  0.10652260525E+04  0.14897079186E+04  0.38180603943E+03  0.18707521724E+04  0.12699999809E+01 0. -1.
       -4    1    3    3    0  502 -0.10652260525E+04 -0.14897079186E+04 -0.14684657669E+02  0.18314348140E+04  0.12699999809E+01 0.  1.
</event>
<event>
 5   0  0.2411746E-07  0.3652062E+04  0.7818609E-02  0.8078669E-01
       -1   -1    0    0    0  501  0.00000000000E+00  0.00000000000E+00  0.16298328635E+04  0.16298328635E+04  0.50400001928E-02 0.  1.
        1   -1    0    0  501    0  0.00000000000E+00  0.00000000000E+00 -0.20458472899E+04  0.20458472899E+04  0.50400001928E-02 0. -1.
    10030    2    1    2    0    0  0.00000000000E+00  0.00000000000E+00 -0.41601442640E+03  0.36756801535E+04  0.36520619639E+04 0.  0.
        1    1    3    3  502    0 -0.10333148372E+04  0.47371019894E+03 -0.16463216554E+04  0.20006288757E+04  0.50400001928E-02 0. -1.
       -1    1    3    3    0  502  0.10333148372E+04 -0.47371019894E+03  0.12303072290E+04  0.16750512778E+04  0.50400001928E-02 0.  1.
</event>
<event>
 5   0  0.7300916E-07  0.3214029E+04  0.7818609E-02  0.8185122E-01
        2   -1    0    0  501    0  0.00000000000E+00  0.00000000000E+00  0.19408175089E+04  0.19408175089E+04  0.25500000920E-02 0.  1.
       -2   -1    0    0    0  501  0.00000000000E+00  0.00000000000E+00 -0.13306229277E+04  0.13306229277E+04  0.25500000920E-02 0. -1.
    10030    2    1    2    0    0  0.00000000000E+00  0.00000000000E+00  0.61019458117E+03  0.32714404366E+04  0.32140294185E+04 0.  0.
        1    1    3    3  502    0  0.14152054192E+04 -0.27632202423E+03 -0.41703735626E+03  0.15010264475E+04  0.50400001928E-02 0. -1.
       -1    1    3    3    0  502 -0.14152054192E+04  0.27632202423E+03  0.10272319374E+04  0.17704139891E+04  0.50400001928E-02 0.  1.
</event>
<event>
 5   0  0.2345471E-07  0.3369452E+04  0.7818609E-02  0.8145445E-01
        1   -1    0    0  501    0  0.00000000000E+00  0.00000000000E+00  0.21561245985E+04  0.21561245985E+04  0.50400001928E-02 0.  1.
       -1   -1    0    0    0  501  0.00000000000E+00  0.00000000000E+00 -0.13163900803E+04  0.13163900803E+04  0.50400001928E-02 0. -1.
    10030    2    1    2    0    0  0.00000000000E+00  0.00000000000E+00  0.83973451820E+03  0.34725146788E+04  0.33694516072E+04 0.  0.
        5    1    3    3  502    0  0.51615871670E+03 -0.98623606843E+03 -0.88340731747E+03  0.14210953459E+04  0.46999998093E+01 0. -1.
       -5    1    3    3    0  502 -0.51615871670E+03  0.98623606843E+03  0.17231418357E+04  0.20514193329E+04  0.46999998093E+01 0.  1.
</event>
<event>
 5   0  0.6939921E-07  0.3720144E+04  0.7818609E-02  0.8063512E-01
       -2   -1    0    0    0  501  0.00000000000E+00  0.00000000000E+00  0.19587523723E+04  0.19587523723E+04  0.25500000920E-02 0. -1.
        2   -1    0    0  501    0  0.00000000000E+00  0.00000000000E+00 -0.17663630120E+04  0.17663630120E+04  0.25500000920E-02 0.  1.
    10030    2    1    2    0    0  0.00000000000E+00  0.00000000000E+00  0.19238936024E+03  0.37251153843E+04  0.37201439435E+04 0.  0.
        4    1    3    3  502    0  0.61719545063E+02 -0.85399504791E+03 -0.15572991887E+04  0.17771604374E+04  0.12699999809E+01 0.  1.
       -4    1    3    3    0  502 -0.61719545063E+02  0.85399504791E+03  0.17496885489E+04  0.19479549469E+04  0.12699999809E+01 0. -1.
</event>
<event>
 5   0  0.7300916E-07  0.3704957E+04  0.7818609E-02  0.8066864E-01
       -2   -1    0    0    0  501  0.00000000000E+00  0.00000000000E+00  0.16030557070E+04  0.16030557070E+04  0.25500000920E-02 0.  1.
        2   -1    0    0  501    0  0.00000000000E+00  0.00000000000E+00 -0.21407091638E+04  0.21407091638E+04  0.25500000920E-02 0. -1.
    10030    2    1    2    0    0  0.00000000000E+00  0.00000000000E+00 -0.53765345672E+03  0.37437648708E+04  0.37049567026E+04 0.  0.
        1    1    3    3  502    0 -0.50666880721E+02  0.14062638545E+04 -0.14862415018E+04  0.20467190728E+04  0.50400001928E-02 0. -1.
       -1    1    3    3    0  502  0.50666880721E+02 -0.14062638545E+04  0.94858804512E+03  0.16970457980E+04  0.50400001928E-02 0.  1.
</event>
<event>
 5   0  0.7074157E-07  0.3736265E+04  0.7818609E-02  0.8059972E-01
        2   -1    0    0  501    0  0.00000000000E+00  0.00000000000E+00  0.15827142830E+04  0.15827142830E+04  0.25500000920E-02 0. -1.
       -2   -1    0    0    0  501  0.00000000000E+00  0.00000000000E+00 -0.22050215346E+04  0.22050215346E+04  0.25500000920E-02 0.  1.
    10030    2    1    2    0    0  0.00000000000E+00  0.00000000000E+00 -0.62230725162E+03  0.37877358177E+04  0.37362650213E+04 0.  0.
        3    1    3    3  502    0  0.33010031522E+03  0.67556141213E+03 -0.20448497942E+04  0.21787060680E+04  0.10100000352E+00 0.  1.
       -3    1    3    3    0  502 -0.33010031522E+03 -0.67556141213E+03  0.14225425426E+04  0.16090297497E+04  0.10100000352E+00 0. -1.
</event>
<event>
 5   0  0.7124627E-07  0.3739603E+04  0.7818609E-02  0.8059242E-01
        2   -1    0    0  501    0  0.00000000000E+00  0.00000000000E+00  0.24351623116E+04  0.24351623116E+04  0.25500000920E-02 0.  1.
       -2   -1    0    0    0  501  0.00000000000E+00  0.00000000000E+00 -0.14356978358E+04  0.14356978358E+04  0.25500000920E-02 0. -1.
    10030    2    1    2    0    0  0.00000000000E+00  0.00000000000E+00  0.99946447589E+03  0.38708601474E+04  0.37396027920E+04 0.  0.
        2    1    3    3  502    0  0.10142669611E+04 -0.15357142351E+04  0.15799020171E+03  0.18471915396E+04  0.25500000920E-02 0. -1.
       -2    1    3    3    0  502 -0.10142669611E+04  0.15357142351E+04  0.84147427418E+03  0.20236686078E+04  0.25500000920E-02 0.  1.
</event>
<event>
 5   0  0.7300916E-07  0.3691611E+04  0.7818609E-02  0.8069823E-01
        2   -1    0    0  501    0  0.00000000000E+00  0.00000000000E+00  0.22764422888E+04  0.22764422888E+04  0.25500000920E-02 0.  1.
       -2   -1    0    0    0  501  0.00000000000E+00  0.00000000000E+00 -0.14966328865E+04  0.14966328865E+04  0.25500000920E-02 0. -1.
    10030    2    1    2    0    0  0.00000000000E+00  0.00000000000E+00  0.77980940234E+03  0.37730751753E+04  0.36916112436E+04 0.  0.
        1    1    3    3  502    0 -0.16320664438E+04  0.69541679231E+03 -0.13100180955E+03  0.17788779795E+04  0.50400001928E-02 0. -1.
       -1    1    3    3    0  502  0.16320664438E+04 -0.69541679231E+03  0.91081121188E+03  0.19941971958E+04  0.50400001928E-02 0.  1.
</event>
<event>
 5   0  0.7074157E-07  0.3729975E+04  0.7818609E-02  0.8061351E-01
       -2   -1    0    0    0  501  0.00000000000E+00  0.00000000000E+00  0.27561970924E+04  0.27561970924E+04  0.25500000920E-02 0.  1.
        2   -1    0    0  501    0  0.00000000000E+00  0.00000000000E+00 -0.12619486302E+04  0.12619486302E+04  0.25500000920E-02 0. -1.
    10030    2    1    2    0    0  0.00000000000E+00  0.00000000000E+00  0.14942484621E+04  0.40181457226E+04  0.37299754130E+04 0.  0.
        3    1    3    3  502    0 -0.10179678209E+03  0.10187468927E+04 -0.93214483399E+03  0.13845944598E+04  0.10100000352E+00 0. -1.
       -3    1    3    3    0  502  0.10179678209E+03 -0.10187468927E+04  0.24263932961E+04  0.26335512628E+04  0.10100000352E+00 0.  1.
</event>
<event>
 5   0  0.7124627E-07  0.3295227E+04  0.7818609E-02  0.8164111E-01
       -2   -1    0    0    0  501  0.00000000000E+00  0.00000000000E+00  0.15125410422E+04  0.15125410423E+04  0.25500000920E-02 0. -1.
        2   -1    0    0  501    0  0.00000000000E+00  0.00000000000E+00 -0.17947483975E+04  0.17947483975E+04  0.25500000920E-02 0.  1.
    10030    2    1    2    0    0  0.00000000000E+00  0.00000000000E+00 -0.28220735524E+03  0.33072894397E+04  0.32952272223E+04 0.  0.
        2    1    3    3  502    0  0.11792412759E+04  0.99258827977E+03  0.44308289731E+03  0.16037967246E+04  0.25500000920E-02 0. -1.
       -2    1    3    3    0  502 -0.11792412759E+04 -0.99258827977E+03 -0.72529025256E+03  0.17034927151E+04  0.25500000920E-02 0.  1.
</event>
<event>
 5   0  0.2287500E-07  0.3781113E+04  0.7818609E-02  0.8050220E-01
        1   -1    0    0  501    0  0.00000000000E+00  0.00000000000E+00  0.13046468752E+04  0.13046468752E+04  0.50400001928E-02 0.  1.
       -1   -1    0    0    0  501  0.00000000000E+00  0.00000000000E+00 -0.27395951043E+04  0.27395951043E+04  0.50400001928E-02 0. -1.
    10030    2    1    2    0    0  0.00000000000E+00  0.00000000000E+00 -0.14349482291E+04  0.40442419795E+04  0.37811131652E+04 0.  0.
        3    1    3    3  502    0 -0.32526571428E+03 -0.90676829381E+03 -0.24573848047E+04  0.26394633190E+04  0.10100000352E+00 0. -1.
       -3    1    3    3    0  502  0.32526571428E+03  0.90676829381E+03  0.10224365756E+04  0.14047786605E+04  0.10100000352E+00 0.  1.
</event>
<event>
 5   0  0.2411746E-07  0.3698864E+04  0.7818609E-02  0.8068214E-01
        1   -1    0    0  501    0  0.00000000000E+00  0.00000000000E+00  0.21414770655E+04  0.21414770655E+04  0.50400001928E-02 0.  1.
       -1   -1    0    0    0  501  0.00000000000E+00  0.00000000000E+00 -0.15972149966E+04  0.15972149966E+04  0.50400001928E-02 0. -1.
    10030    2    1    2    0    0  0.00000000000E+00  0.00000000000E+00  0.54426206894E+03  0.37386920621E+04  0.36988643035E+04 0.  0.
        1    1    3    3  502    0  0.11906750042E+04  0.10488385954E+04  0.12324293327E+04  0.20091419624E+04  0.50400001928E-02 0.  1.
       -1    1    3    3    0  502 -0.11906750042E+04 -0.10488385954E+04 -0.68816726378E+03  0.17295500998E+04  0.50400001928E-02 0. -1.
</event>
<event>
 5   0  0.7124627E-07  0.3722556E+04  0.7818609E-02  0.8062981E-01
       -2   -1    0    0    0  501  0.00000000000E+00  0.00000000000E+00  0.19326039766E+04  0.19326039766E+04  0.25500000920E-02 0.  1.
        2   -1    0    0  501    0  0.00000000000E+00  0.00000000000E+00 -0.17925845622E+04  0.17925845622E+04  0.25500000920E-02 0. -1.
    10030    2    1    2    0    0  0.00000000000E+00  0.00000000000E+00  0.14001941444E+03  0.37251885388E+04  0.37225561397E+04 0.  0.
        2    1    3    3  502    0 -0.12696502372E+04 -0.11285575283E+04  0.83127246061E+03  0.18912080064E+04  0.25500000920E-02 0.  1.
       -2    1    3    3    0  502  0.12696502372E+04  0.11285575283E+04 -0.69125304618E+03  0.18339805325E+04  0.25500000920E-02 0. -1.
</event>
<event>
 5   0  0.6949625E-07  0.3697377E+04  0.7818609E-02  0.8068543E-01
       -2   -1    0    0    0  501  0.00000000000E+00  0.00000000000E+00  0.12247894630E+04  0.12247894630E+04  0.25500000920E-02 0. -1.
        2   -1    0    0  501    0  0.00000000000E+00  0.00000000000E+00 -0.27903978659E+04  0.27903978659E+04  0.25500000920E-02 0.  1.
    10030    2    1    2    0    0  0.00000000000E+00  0.00000000000E+00 -0.15656084029E+04  0.40151873289E+04  0.36973773969E+04 0.  0.
        5    1    3    3  502    0  0.16016270695E+03  0.13903006061E+04 -0.20945377355E+04  0.25190669470E+04  0.46999998093E+01 0.  1.
       -5    1    3    3    0  502 -0.16016270695E+03 -0.13903006061E+04  0.52892933263E+03  0.14961203819E+04  0.46999998093E+01 0. -1.
</event>
<event>
 5   0  0.6949625E-07  0.3787834E+04  0.7818609E-02  0.8048771E-01
       -2   -1    0    0    0  501  0.00000000000E+00  0.00000000000E+00  0.21479364485E+04  0.21479364485E+04  0.25500000920E-02 0. -1.
        2   -1    0    0  501    0  0.00000000000E+00  0.00000000000E+00 -0.16699381657E+04  0.16699381657E+04  0.25500000920E-02 0.  1.
    10030    2    1    2    0    0  0.00000000000E+00  0.00000000000E+00  0.47799828279E+03  0.38178746141E+04  0.37878337095E+04 0.  0.
        5    1    3    3  502    0  0.92428130972E+03 -0.11636431994E+04  0.14224222712E+04  0.20571020010E+04  0.46999998093E+01 0. -1.
       -5    1    3    3    0  502 -0.92428130972E+03  0.11636431994E+04 -0.94442398845E+03  0.17607726131E+04  0.46999998093E+01 0.  1.
</event>
<event>
 5   0  0.2287500E-07  0.3684479E+04  0.7818609E-02  0.8071410E-01
       -1   -1    0    0    0  501  0.00000000000E+00  0.00000000000E+00  0.19248073799E+04  0.19248073799E+04  0.50400001928E-02 0.  1.
        1   -1    0    0  501    0  0.00000000000E+00  0.00000000000E+00 -0.17632137083E+04  0.17632137083E+04  0.50400001928E-02 0. -1.
    10030    2    1    2    0    0  0.00000000000E+00  0.00000000000E+00  0.16159367156E+03  0.36880210882E+04  0.36844792077E+04 0.  0.
        4    1    3    3  502    0 -0.15159615989E+04  0.79854710934E+03 -0.59663147463E+03  0.18143284666E+04  0.12699999809E+01 0. -1.
       -4    1    3    3    0  502  0.15159615989E+04 -0.79854710934E+03  0.75822514619E+03  0.18736926216E+04  0.12699999809E+01 0.  1.
</event>
<event>
 5   0  0.2345471E-07  0.3689614E+04  0.7818609E-02  0.8070267E-01
        1   -1    0    0  501    0  0.00000000000E+00  0.00000000000E+00  0.20165668062E+04  0.20165668062E+04  0.50400001928E-02 0. -1.
       -1   -1    0    0    0  501  0.00000000000E+00  0.00000000000E+00 -0.16876767733E+04  0.16876767733E+04  0.50400001928E-02 0.  1.
    10030    2    1    2    0    0  0.00000000000E+00  0.00000000000E+00  0.32889003286E+03  0.37042435795E+04  0.36896140506E+04 0.  0.
        5    1    3    3  502    0 -0.12381369330E+04 -0.13321728910E+04 -0.14601110014E+03  0.18245572087E+04  0.46999998093E+01 0. -1.
       -5    1    3    3    0  502  0.12381369330E+04  0.13321728910E+04  0.47490113300E+03  0.18796863708E+04  0.46999998093E+01 0.  1.
</event>
<event>
 5   0  0.7300916E-07  0.3597932E+04  0.7818609E-02  0.8090965E-01
        2   -1    0    0  501    0  0.00000000000E+00  0.00000000000E+00  0.96812299728E+03  0.96812299728E+03  0.25500000920E-02 0. -1.
       -2   -1    0    0    0  501  0.00000000000E+00  0.00000000000E+00 -0.33428388003E+04  0.33428388003E+04  0.25500000920E-02 0.  1.
    10030    2    1    2    0    0  0.00000000000E+00  0.00000000000E+00 -0.23747158030E+04  0.43109617976E+04  0.35979322500E+04 0.  0.
        1    1    3    3  502    0  0.87551519429E+03 -0.50821918732E+01  0.69562171260E+03  0.11182317520E+04  0.50400001928E-02 0. -1.
       -1    1    3    3    0  502 -0.87551519429E+03  0.50821918732E+01 -0.30703375157E+04  0.31927300456E+04  0.50400001928E-02 0.  1.
</event>
<event>
 5   0  0.6939921E-07  0.3542691E+04  0.7818609E-02  0.8103747E-01
        2   -1    0    0  501    0  0.00000000000E+00  0.00000000000E+00  0.31707205986E+04  0.31707205986E+04  0.25500000920E-02 0.  1.
       -2   -1    0    0    0  501  0.00000000000E+00  0.00000000000E+00 -0.98957453398E+03  0.98957453398E+03  0.25500000920E-02 0. -1.
    10030    2    1    2    0    0  0.00000000000E+00  0.00000000000E+00  0.21811460646E+04  0.41602951326E+04  0.35426907055E+04 0.  0.
        4    1    3    3  502    0 -0.13480493191E+04  0.64692347783E+03  0.22058273124E+04  0.26648494700E+04  0.12699999809E+01 0.  1.
       -4    1    3    3    0  502  0.13480493191E+04 -0.64692347783E+03 -0.24681247776E+02  0.14954456626E+04  0.12699999809E+01 0. -1.
</event>
<event>
 5   0  0.7124627E-07  0.3643229E+04  0.7818609E-02  0.8080661E-01
        2   -1    0    0  501    0  0.00000000000E+00  0.00000000000E+00  0.17151123963E+04  0.17151123963E+04  0.25500000920E-02 0. -1.
       -2   -1    0    0    0  501  0.00000000000E+00  0.00000000000E+00 -0.19347295806E+04  0.19347295806E+04  0.25500000920E-02 0.  1.
    10030    2    1    2    0    0  0.00000000000E+00  0.00000000000E+00 -0.21961718427E+03  0.36498419769E+04  0.36432286160E+04 0.  0.
        2    1    3    3  502    0  0.12036399689E+04 -0.10670324857E+04 -0.96632910128E+03  0.18764592807E+04  0.25500000920E-02 0. -1.
       -2    1    3    3    0  502 -0.12036399689E+04  0.10670324857E+04  0.74671191701E+03  0.17733826962E+04  0.25500000920E-02 0.  1.
</event>
<event>
 5   0  0.7124627E-07  0.3699671E+04  0.7818609E-02  0.8068035E-01
        2   -1    0    0  501    0  0.00000000000E+00  0.00000000000E+00  0.22268086653E+04  0.22268086653E+04  0.25500000920E-02 0. -1.
       -2   -1    0    0    0  501  0.00000000000E+00  0.00000000000E+00 -0.15366793987E+04  0.15366793987E+04  0.25500000920E-02 0.  1.
    10030    2    1    2    0    0  0.00000000000E+00  0.00000000000E+00  0.69012926658E+03  0.37634880640E+04  0.36996707966E+04 0.  0.
        2    1    3    3  502    0  0.51663808249E+01  0.16616436180E+04 -0.48185643057E+03  0.17301074604E+04  0.25500000920E-02 0.  1.
       -2    1    3    3    0  502 -0.51663808249E+01 -0.16616436180E+04  0.11719856972E+04  0.20333806036E+04  0.25500000920E-02 0. -1.
</event>
<event>
 5   0  0.2287500E-07  0.3697764E+04  0.7818609E-02  0.8068457E-01
        4   -1    0    0  501    0  0.00000000000E+00  0.00000000000E+00  0.22538799404E+04  0.22538802982E+04  0.12699999809E+01 0. -1.
       -4   -1    0    0    0  501  0.00000000000E+00  0.00000000000E+00 -0.15166573438E+04  0.15166578755E+04  0.12699999809E+01 0.  1.
    10030    2    1    2    0    0  0.00000000000E+00  0.00000000000E+00  0.73722259659E+03  0.37705381738E+04  0.36977643195E+04 0.  0.
        5    1    3    3  502    0  0.14892620011E+04 -0.48781175104E+03 -0.63175791668E+03  0.16896750480E+04  0.46999998093E+01 0. -1.
       -5    1    3    3    0  502 -0.14892620011E+04  0.48781175104E+03  0.13689805133E+04  0.20808631258E+04  0.46999998093E+01 0.  1.
</event>
<event>
 5   0  0.2287500E-07  0.3673065E+04  0.7818609E-02  0.8073957E-01
        1   -1    0    0  501    0  0.00000000000E+00  0.00000000000E+00  0.18617177345E+04  0.18617177345E+04  0.50400001928E-02 0.  1.
       -1   -1    0    0    0  501  0.00000000000E+00  0.00000000000E+00 -0.18116878972E+04  0.18116878973E+04  0.50400001928E-02 0. -1.
    10030    2    1    2    0    0  0.00000000000E+00  0.00000000000E+00  0.50029837257E+02  0.36734056318E+04  0.36730649260E+04 0.  0.
        3    1    3    3  502    0 -0.15493109660E+04  0.97705046058E+03  0.15866640164E+03  0.18385230782E+04  0.10100000352E+00 0.  1.
       -3    1    3    3    0  502  0.15493109660E+04 -0.97705046058E+03 -0.10863656438E+03  0.18348825535E+04  0.10100000352E+00 0. -1.
</event>
<event>
 5   0  0.6949625E-07  0.3711060E+04  0.7818609E-02  0.8065515E-01
       -2   -1    0    0    0  501  0.00000000000E+00  0.00000000000E+00  0.12110543401E+04  0.12110543401E+04  0.25500000920E-02 0. -1.
        2   -1    0    0  501    0  0.00000000000E+00  0.00000000000E+00 -0.28429696347E+04  0.28429696347E+04  0.25500000920E-02 0.  1.
    10030    2    1    2    0    0  0.00000000000E+00  0.00000000000E+00 -0.16319152946E+04  0.40540239748E+04  0.37110595333E+04 0.  0.
        5    1    3    3  502    0 -0.10706543710E+04 -0.10005700042E+04 -0.20593600749E+04  0.25275338026E+04  0.46999998093E+01 0.  1.
       -5    1    3    3    0  502  0.10706543710E+04  0.10005700042E+04  0.42744478030E+03  0.15264901722E+04  0.46999998093E+01 0. -1.
</event>
<event>
 5   0  0.7300916E-07  0.2846820E+04  0.7818609E-02  0.8288878E-01
        2   -1    0    0  501    0  0.00000000000E+00  0.00000000000E+00  0.23672057354E+04  0.23672057354E+04  0.25500000920E-02 0.  1.
       -2   -1    0    0    0  501  0.00000000000E+00  0.00000000000E+00 -0.85590221584E+03  0.85590221585E+03  0.25500000920E-02 0. -1.
    10030    2    1    2    0    0  0.00000000000E+00  0.00000000000E+00  0.15113035196E+04  0.32231079513E+04  0.28468204259E+04 0.  0.
        1    1    3    3  502    0  0.62568831611E+03 -0.12200971780E+04  0.32308613938E+03  0.14087255397E+04  0.50400001928E-02 0. -1.
       -1    1    3    3    0  502 -0.62568831611E+03  0.12200971780E+04  0.11882173802E+04  0.18143824115E+04  0.50400001928E-02 0.  1.
</event>
<event>
 5   0  0.2287500E-07  0.3714054E+04  0.7818609E-02  0.8064854E-01
        1   -1    0    0  501    0  0.00000000000E+00  0.00000000000E+00  0.19610216938E+04  0.19610216939E+04  0.50400001928E-02 0. -1.
       -1   -1    0    0    0  501  0.00000000000E+00  0.00000000000E+00 -0.17585472946E+04  0.17585472946E+04  0.50400001928E-02 0.  1.
    10030    2    1    2    0    0  0.00000000000E+00  0.00000000000E+00  0.20247439921E+03  0.37195689885E+04  0.37140540623E+04 0.  0.
        4    1    3    3  502    0  0.87577698963E+03 -0.86213755157E+03  0.14955261918E+04  0.19356824886E+04  0.12699999809E+01 0. -1.
       -4    1    3    3    0  502 -0.87577698963E+03  0.86213755157E+03 -0.12930517926E+04  0.17838864999E+04  0.12699999809E+01 0.  1.
</event>
<event>
 5   0  0.2287500E-07  0.3698266E+04  0.7818609E-02  0.8068346E-01
       -1   -1    0    0    0  501  0.00000000000E+00  0.00000000000E+00  0.18608977481E+04  0.18608977481E+04  0.50400001928E-02 0.  1.
        1   -1    0    0  501    0  0.00000000000E+00  0.00000000000E+00 -0.18374431252E+04  0.18374431252E+04  0.50400001928E-02 0. -1.
    10030    2    1    2    0    0  0.00000000000E+00  0.00000000000E+00  0.23454622952E+02  0.36983408733E+04  0.36982664987E+04 0.  0.
        3    1    3    3  502    0 -0.17018637481E+04 -0.19770340987E+03 -0.68389210330E+03  0.18447588663E+04  0.10100000352E+00 0. -1.
       -3    1    3    3    0  502  0.17018637481E+04  0.19770340987E+03  0.70734672626E+03  0.18535820070E+04  0.10100000352E+00 0.  1.
</event>
<event>
 5   0  0.6949625E-07  0.3644551E+04  0.7818609E-02  0.8080362E-01
       -2   -1    0    0    0  501  0.00000000000E+00  0.00000000000E+00  0.19802527956E+04  0.19802527956E+04  0.25500000920E-02 0.  1.
        2   -1    0    0  501    0  0.00000000000E+00  0.00000000000E+00 -0.16769010270E+04  0.16769010270E+04  0.25500000920E-02 0. -1.
    10030    2    1    2    0    0  0.00000000000E+00  0.00000000000E+00  0.30335176858E+03  0.36571538227E+04  0.36445509719E+04 0.  0.
        5    1    3    3  502    0  0.10251315536E+04  0.15042557009E+04  0.23554685133E+03  0.18355337984E+04  0.46999998093E+01 0. -1.
       -5    1    3    3    0  502 -0.10251315536E+04 -0.15042557009E+04  0.67804917251E+02  0.18216200242E+04  0.46999998093E+01 0.  1.
</event>
<event>
 5   0  0.6949625E-07  0.3738342E+04  0.7818609E-02  0.8059518E-01
        2   -1    0    0  501    0  0.00000000000E+00  0.00000000000E+00  0.19768545430E+04  0.19768545430E+04  0.25500000920E-02 0. -1.
       -2   -1    0    0    0  501  0.00000000000E+00  0.00000000000E+00 -0.17673531400E+04  0.17673531400E+04  0.25500000920E-02 0.  1.
    10030    2    1    2    0    0  0.00000000000E+00  0.00000000000E+00  0.20950140303E+03  0.37442076830E+04  0.37383419233E+04 0.  0.
        5    1    3    3  502    0 -0.12479112245E+03 -0.11892777704E+03  0.19688699747E+04  0.19764077787E+04  0.46999998093E+01 0. -1.
       -5    1    3    3    0  502  0.12479112245E+03  0.11892777704E+03 -0.17593685717E+04  0.17677999043E+04  0.46999998093E+01 0.  1.
</event>
<event>
 5   0  0.7124627E-07  0.3688203E+04  0.7818609E-02  0.8070581E-01
       -2   -1    0    0    0  501  0.00000000000E+00  0.00000000000E+00  0.13218108020E+04  0.13218108020E+04  0.25500000920E-02 0. -1.
        2   -1    0    0  501    0  0.00000000000E+00  0.00000000000E+00 -0.25727668665E+04  0.25727668665E+04  0.25500000920E-02 0.  1.
    10030    2    1    2    0    0  0.00000000000E+00  0.00000000000E+00 -0.12509560645E+04  0.38945776685E+04  0.36882033757E+04 0.  0.
        2    1    3    3  502    0 -0.79023101867E+03 -0.15297839417E+04  0.71777985327E+02  0.17233270294E+04  0.25500000920E-02 0.  1.
       -2    1    3    3    0  502  0.79023101867E+03  0.15297839417E+04 -0.13227340499E+04  0.21712506391E+04  0.25500000920E-02 0. -1.
</event>
<event>
 5   0  0.6939921E-07  0.3732639E+04  0.7818609E-02  0.8060767E-01
        2   -1    0    0  501    0  0.00000000000E+00  0.00000000000E+00  0.22293326021E+04  0.22293326021E+04  0.25500000920E-02 0.  1.
       -2   -1    0    0    0  501  0.00000000000E+00  0.00000000000E+00 -0.15624179825E+04  0.15624179825E+04  0.25500000920E-02 0. -1.
    10030    2    1    2    0    0  0.00000000000E+00  0.00000000000E+00  0.66691461963E+03  0.37917505846E+04  0.37326394664E+04 0.  0.
        4    1    3    3  502    0  0.18243247314E+04  0.27857199654E+03  0.61604362847E+03  0.19455781783E+04  0.12699999809E+01 0.  1.
       -4    1    3    3    0  502 -0.18243247314E+04 -0.27857199654E+03  0.50870991167E+02  0.18461724063E+04  0.12699999809E+01 0. -1.
</event>
<event>
 5   0  0.2411746E-07  0.3695514E+04  0.7818609E-02  0.8068957E-01
        1   -1    0    0  501    0  0.00000000000E+00  0.00000000000E+00  0.17243116032E+04  0.17243116032E+04  0.50400001928E-02 0. -1.
       -1   -1    0    0    0  501  0.00000000000E+00  0.00000000000E+00 -0.19800395390E+04  0.19800395390E+04  0.50400001928E-02 0.  1.
    10030    2    1    2    0    0  0.00000000000E+00  0.00000000000E+00 -0.25572793587E+03  0.37043511422E+04  0.36955135783E+04 0.  0.
        1    1    3    3  502    0  0.14463996746E+04 -0.25437101782E+03  0.99616886764E+03  0.17745785546E+04  0.50400001928E-02 0. -1.
       -1    1    3    3    0  502 -0.14463996746E+04  0.25437101782E+03 -0.12518968035E+04  0.19297725877E+04  0.50400001928E-02 0.  1.
</event>
<event>
 5   0  0.2411746E-07  0.3777204E+04  0.7818609E-02  0.8051065E-01
       -1   -1    0    0    0  501  0.00000000000E+00  0.00000000000E+00  0.20251525427E+04  0.20251525427E+04  0.50400001928E-02 0.  1.
        1   -1    0    0  501    0  0.00000000000E+00  0.00000000000E+00 -0.17612586004E+04  0.17612586004E+04  0.50400001928E-02 0. -1.
    10030    2    1    2    0    0  0.00000000000E+00  0.00000000000E+00  0.26389394229E+03  0.37864111430E+04  0.37772039038E+04 0.  0.
        1    1    3    3  502    0 -0.86047590451E+03  0.16806911880E+04  0.90912103503E+02  0.18903456462E+04  0.50400001928E-02 0.  1.
       -1    1    3    3    0  502  0.86047590451E+03 -0.16806911880E+04  0.17298183879E+03  0.18960654968E+04  0.50400001928E-02 0. -1.
</event>
<event>
 5   0  0.2345471E-07  0.3709341E+04  0.7818609E-02  0.8065895E-01
        1   -1    0    0  501    0  0.00000000000E+00  0.00000000000E+00  0.19655133190E+04  0.19655133190E+04  0.50400001928E-02 0. -1.
       -1   -1    0    0    0  501  0.00000000000E+00  0.00000000000E+00 -0.17500784546E+04  0.17500784546E+04  0.50400001928E-02 0.  1.
    10030    2    1    2    0    0  0.00000000000E+00  0.00000000000E+00  0.21543486438E+03  0.37155917736E+04  0.37093409181E+04 0.  0.
        5    1    3    3  502    0  0.18356292151E+04  0.11981067041E+02  0.37293192561E+03  0.18731733695E+04  0.46999998093E+01 0. -1.
       -5    1    3    3    0  502 -0.18356292151E+04 -0.11981067041E+02 -0.15749706123E+03  0.18424184040E+04  0.46999998093E+01 0.  1.
</event>
<event>
 5   0  0.7300916E-07  0.3693240E+04  0.7818609E-02  0.8069462E-01
        2   -1    0    0  501    0  0.00000000000E+00  0.00000000000E+00  0.16674448859E+04  0.16674448859E+04  0.25500000920E-02 0. -1.
       -2   -1    0    0    0  501  0.00000000000E+00  0.00000000000E+00 -0.20450481549E+04  0.20450481549E+04  0.25500000920E-02 0.  1.
    10030    2    1    2    0    0  0.00000000000E+00  0.00000000000E+00 -0.37760326902E+03  0.37124930408E+04  0.36932398175E+04 0.  0.
        1    1    3    3  502    0 -0.13532931312E+04 -0.11942187259E+04  0.20367509301E+03  0.18163271202E+04  0.50400001928E-02 0.  1.
       -1    1    3    3    0  502  0.13532931312E+04  0.11942187259E+04 -0.58127836203E+03  0.18961659206E+04  0.50400001928E-02 0. -1.
</event>
<event>
 5   0  0.6939921E-07  0.3607636E+04  0.7818609E-02  0.8088745E-01
       -2   -1    0    0    0  501  0.00000000000E+00  0.00000000000E+00  0.14703525722E+04  0.14703525722E+04  0.25500000920E-02 0.  1.
        2   -1    0    0  501    0  0.00000000000E+00  0.00000000000E+00 -0.22129105269E+04  0.22129105269E+04  0.25500000920E-02 0. -1.
    10030    2    1    2    0    0  0.00000000000E+00  0.00000000000E+00 -0.74255795466E+03  0.36832630991E+04  0.36076356165E+04 0.  0.
        4    1    3    3  502    0 -0.12207030066E+04  0.11681235441E+04  0.27373112332E+03  0.17115953919E+04  0.12699999809E+01 0.  1.
       -4    1    3    3    0  502  0.12207030066E+04 -0.11681235441E+04 -0.10162890780E+04  0.19716677072E+04  0.12699999809E+01 0. -1.
</event>
<event>
 5   0  0.2287500E-07  0.3663548E+04  0.7818609E-02  0.8076088E-01
        1   -1    0    0  501    0  0.00000000000E+00  0.00000000000E+00  0.20333563894E+04  0.20333563894E+04  0.50400001928E-02 0. -1.
       -1   -1    0    0    0  501  0.00000000000E+00  0.00000000000E+00 -0.16501758815E+04  0.16501758816E+04  0.50400001928E-02 0.  1.
    10030    2    1    2    0    0  0.00000000000E+00  0.00000000000E+00  0.38318050784E+03  0.36835322709E+04  0.36635478282E+04 0.  0.
        4    1    3    3  502    0 -0.17539101876E+04  0.50687625245E+03  0.41546263479E+02  0.18261577661E+04  0.12699999809E+01 0.  1.
       -4    1    3    3    0  502  0.17539101876E+04 -0.50687625245E+03  0.34163424436E+03  0.18573745049E+04  0.12699999809E+01 0. -1.
</event>
<event>
 5   0  0.2345471E-07  0.3586155E+04  0.7818609E-02  0.8093670E-01
       -1   -1    0    0    0  501  0.00000000000E+00  0.00000000000E+00  0.94509055795E+03  0.94509055797E+03  0.50400001928E-02 0. -1.
        1   -1    0    0  501    0  0.00000000000E+00  0.00000000000E+00 -0.34019248853E+04  0.34019248853E+04  0.50400001928E-02 0.  1.
    10030    2    1    2    0    0  0.00000000000E+00  0.00000000000E+00 -0.24568343274E+04  0.43470154433E+04  0.35861550931E+04 0.  0.
        5    1    3    3  502    0 -0.85504491433E+01 -0.15564649612E+04 -0.23074823898E+04  0.27833708619E+04  0.46999998093E+01 0.  1.
       -5    1    3    3    0  502  0.85504491433E+01  0.15564649612E+04 -0.14935193757E+03  0.15636445814E+04  0.46999998093E+01 0. -1.
</event>
<event>
 5   0  0.7300916E-07  0.3718840E+04  0.7818609E-02  0.8063800E-01
        2   -1    0    0  501    0  0.00000000000E+00  0.00000000000E+00  0.12666636922E+04  0.12666636922E+04  0.25500000920E-02 0. -1.
       -2   -1    0    0    0  501  0.00000000000E+00  0.00000000000E+00 -0.27295657955E+04  0.27295657955E+04  0.25500000920E-02 0.  1.
    10030    2    1    2    0    0  0.00000000000E+00  0.00000000000E+00 -0.14629021034E+04  0.39962294877E+04  0.37188395440E+04 0.  0.
        1    1    3    3  502    0  0.17183381174E+04 -0.10851289576E+03  0.23046874249E+02  0.17219152397E+04  0.50400001928E-02 0. -1.
       -1    1    3    3    0  502 -0.17183381174E+04  0.10851289576E+03 -0.14859489776E+04  0.22743142480E+04  0.50400001928E-02 0.  1.
</event>
<event>
 5   0  0.2287500E-07  0.3708583E+04  0.7818609E-02  0.8066062E-01
        1   -1    0    0  501    0  0.00000000000E+00  0.00000000000E+00  0.22499700306E+04  0.22499700306E+04  0.50400001928E-02 0. -1.
       -1   -1    0    0    0  501  0.00000000000E+00  0.00000000000E+00 -0.15281964605E+04  0.15281964605E+04  0.50400001928E-02 0.  1.
    10030    2    1    2    0    0  0.00000000000E+00  0.00000000000E+00  0.72177357011E+03  0.37781664911E+04  0.37085826064E+04 0.  0.
        3    1    3    3  502    0  0.13518706453E+04 -0.63587730020E+03 -0.75813145573E+03  0.16753081797E+04  0.10100000352E+00 0.  1.
       -3    1    3    3    0  502 -0.13518706453E+04  0.63587730020E+03  0.14799050258E+04  0.21028583115E+04  0.10100000352E+00 0. -1.
</event>
<event>
 5   0  0.7124627E-07  0.3697852E+04  0.7818609E-02  0.8068438E-01
       -2   -1    0    0    0  501  0.00000000000E+00  0.00000000000E+00  0.13587722135E+04  0.13587722135E+04  0.25500000920E-02 0.  1.
        2   -1    0    0  501    0  0.00000000000E+00  0.00000000000E+00 -0.25158948480E+04  0.25158948480E+04  0.25500000920E-02 0. -1.
    10030    2    1    2    0    0  0.00000000000E+00  0.00000000000E+00 -0.11571226345E+04  0.38746670616E+04  0.36978523560E+04 0.  0.
        2    1    3    3  502    0 -0.42570385616E+03 -0.33855240360E+03  0.12730465491E+04  0.13843731503E+04  0.25500000920E-02 0.  1.
       -2    1    3    3    0  502  0.42570385616E+03  0.33855240360E+03 -0.24301691836E+04  0.24902939112E+04  0.25500000920E-02 0. -1.
</event>
<event>
 5   0  0.7124627E-07  0.3458406E+04  0.7818609E-02  0.8123719E-01
       -2   -1    0    0    0  501  0.00000000000E+00  0.00000000000E+00  0.14510562769E+04  0.14510562769E+04  0.25500000920E-02 0. -1.
        2   -1    0    0  501    0  0.00000000000E+00  0.00000000000E+00 -0.20606661802E+04  0.20606661802E+04  0.25500000920E-02 0.  1.
    10030    2    1    2    0    0  0.00000000000E+00  0.00000000000E+00 -0.60960990326E+03  0.35117224571E+04  0.34584057572E+04 0.  0.
        2    1    3    3  502    0  0.17051813041E+03  0.11100299331E+04  0.10303422202E+04  0.15240892283E+04  0.25500000920E-02 0. -1.
       -2    1    3    3    0  502 -0.17051813041E+03 -0.11100299331E+04 -0.16399521234E+04  0.19876332288E+04  0.25500000920E-02 0.  1.
</event>
<event>
 5   0  0.6939921E-07  0.3685981E+04  0.7818609E-02  0.8071076E-01
       -2   -1    0    0    0  501  0.00000000000E+00  0.00000000000E+00  0.16675814451E+04  0.16675814451E+04  0.25500000920E-02 0.  1.
        2   -1    0    0  501    0  0.00000000000E+00  0.00000000000E+00 -0.20368501608E+04  0.20368501608E+04  0.25500000920E-02 0. -1.
    10030    2    1    2    0    0  0.00000000000E+00  0.00000000000E+00 -0.36926871563E+03  0.37044316059E+04  0.36859807566E+04 0.  0.
        4    1    3    3  502    0 -0.41872040141E+03  0.17940312277E+04 -0.23721355506E+03  0.18574570531E+04  0.12699999809E+01 0. -1.
       -4    1    3    3    0  502  0.41872040141E+03 -0.17940312277E+04 -0.13205516057E+03  0.18469745528E+04  0.12699999809E+01 0.  1.
</event>
<event>
 5   0  0.7074157E-07  0.3683372E+04  0.7818609E-02  0.8071657E-01
        2   -1    0    0  501    0  0.00000000000E+00  0.00000000000E+00  0.14555795398E+04  0.14555795398E+04  0.25500000920E-02 0.  1.
       -2   -1    0    0    0  501  0.00000000000E+00  0.00000000000E+00 -0.23302111614E+04  0.23302111614E+04  0.25500000920E-02 0. -1.
    10030    2    1    2    0    0  0.00000000000E+00  0.00000000000E+00 -0.87463162168E+03  0.37857907012E+04  0.36833721995E+04 0.  0.
        3    1    3    3  502    0  0.14435008710E+03  0.12552418422E+04  0.93984350560E+03  0.15747300897E+04  0.10100000352E+00 0.  1.
       -3    1    3    3    0  502 -0.14435008710E+03 -0.12552418422E+04 -0.18144751273E+04  0.22110606115E+04  0.10100000352E+00 0. -1.
</event>
<event>
 5   0  0.7300916E-07  0.3654529E+04  0.7818609E-02  0.8078114E-01
       -2   -1    0    0    0  501  0.00000000000E+00  0.00000000000E+00  0.12241123985E+04  0.12241123985E+04  0.25500000920E-02 0. -1.
        2   -1    0    0  501    0  0.00000000000E+00  0.00000000000E+00 -0.27276053590E+04  0.27276053590E+04  0.25500000920E-02 0.  1.
    10030    2    1    2    0    0  0.00000000000E+00  0.00000000000E+00 -0.15034929605E+04  0.39517177575E+04  0.36545289919E+04 0.  0.
        1    1    3    3  502    0 -0.17329481341E+03 -0.17295273463E+04 -0.14235765872E+03  0.17440073500E+04  0.50400001928E-02 0. -1.
       -1    1    3    3    0  502  0.17329481341E+03  0.17295273463E+04 -0.13611353018E+04  0.22077104075E+04  0.50400001928E-02 0.  1.
</event>
<event>
 5   0  0.6949625E-07  0.3688680E+04  0.7818609E-02  0.8070475E-01
       -2   -1    0    0    0  501  0.00000000000E+00  0.00000000000E+00  0.21735710176E+04  0.21735710176E+04  0.25500000920E-02 0.  1.
        2   -1    0    0  501    0  0.00000000000E+00  0.00000000000E+00 -0.15649772371E+04  0.15649772371E+04  0.25500000920E-02 0. -1.
    10030    2    1    2    0    0  0.00000000000E+00  0.00000000000E+00  0.60859378051E+03  0.37385482548E+04  0.36886795285E+04 0.  0.
        5    1    3    3  502    0 -0.11808053033E+03  0.16094757745E+04 -0.60064131336E+03  0.17219603240E+04  0.46999998093E+01 0. -1.
       -5    1    3    3    0  502  0.11808053033E+03 -0.16094757745E+04  0.12092350939E+04  0.20165879308E+04  0.46999998093E+01 0.  1.
</event>
<event>
 5   0  0.2287500E-07  0.3675874E+04  0.7818609E-02  0.8073329E-01
        1   -1    0    0  501    0  0.00000000000E+00  0.00000000000E+00  0.22761188108E+04  0.22761188108E+04  0.50400001928E-02 0.  1.
       -1   -1    0    0    0  501  0.00000000000E+00  0.00000000000E+00 -0.14841111444E+04  0.14841111444E+04  0.50400001928E-02 0. -1.
    10030    2    1    2    0    0  0.00000000000E+00  0.00000000000E+00  0.79200766642E+03  0.37602299552E+04  0.36758744772E+04 0.  0.
        4    1    3    3  502    0  0.10930705811E+04  0.58210472555E+03  0.17852425258E+04  0.21727267881E+04  0.12699999809E+01 0.  1.
       -4    1    3    3    0  502 -0.10930705811E+04 -0.58210472555E+03 -0.99323485940E+03  0.15875031671E+04  0.12699999809E+01 0. -1.
</event>
<event>
 5   0  0.2345471E-07  0.3300931E+04  0.7818609E-02  0.8162659E-01
        1   -1    0    0  501    0  0.00000000000E+00  0.00000000000E+00  0.18454533640E+04  0.18454533640E+04  0.50400001928E-02 0.  1.
       -1   -1    0    0    0  501  0.00000000000E+00  0.00000000000E+00 -0.14760794519E+04  0.14760794519E+04  0.50400001928E-02 0. -1.
    10030    2    1    2    0    0  0.00000000000E+00  0.00000000000E+00  0.36937391205E+03  0.33215328159E+04  0.33009306506E+04 0.  0.
        5    1    3    3  502    0 -0.99197156261E+03  0.50478269905E+03  0.14109812212E+04  0.17971375159E+04  0.46999998093E+01 0.  1.
       -5    1    3    3    0  502  0.99197156261E+03 -0.50478269905E+03 -0.10416073092E+04  0.15243953000E+04  0.46999998093E+01 0. -1.
</event>
<event>
 5   0  0.6939921E-07  0.3708517E+04  0.7818609E-02  0.8066077E-01
        2   -1    0    0  501    0  0.00000000000E+00  0.00000000000E+00  0.20274051612E+04  0.20274051612E+04  0.25500000920E-02 0.  1.
       -2   -1    0    0    0  501  0.00000000000E+00  0.00000000000E+00 -0.16958989915E+04  0.16958989915E+04  0.25500000920E-02 0. -1.
    10030    2    1    2    0    0  0.00000000000E+00  0.00000000000E+00  0.33150616977E+03  0.37233041527E+04  0.37085168832E+04 0.  0.
        4    1    3    3  502    0  0.16010505185E+04  0.91893857361E+03  0.34098236667E+03  0.18772536994E+04  0.12699999809E+01 0.  1.
       -4    1    3    3    0  502 -0.16010505185E+04 -0.91893857361E+03 -0.94761969023E+01  0.18460504533E+04  0.12699999809E+01 0. -1.
</event>
<event>
 5   0  0.7124627E-07  0.3738727E+04  0.7818609E-02  0.8059433E-01
        2   -1    0    0  501    0  0.00000000000E+00  0.00000000000E+00  0.21753543942E+04  0.21753543942E+04  0.25500000920E-02 0.  1.
       -2   -1    0    0    0  501  0.00000000000E+00  0.00000000000E+00 -0.16064138174E+04  0.16064138174E+04  0.25500000920E-02 0. -1.
    10030    2    1    2    0    0  0.00000000000E+00  0.00000000000E+00  0.56894057681E+03  0.37817682115E+04  0.37387267118E+04 0.  0.
        2    1    3    3  502    0  0.10888351104E+04  0.14885237459E+04 -0.24421330127E+02  0.18444135222E+04  0.25500000920E-02 0.  1.
       -2    1    3    3    0  502 -0.10888351104E+04 -0.14885237459E+04  0.59336190693E+03  0.19373546893E+04  0.25500000920E-02 0. -1.
</event>
<event>
 5   0  0.2345471E-07  0.3629409E+04  0.7818609E-02  0.8083788E-01
        1   -1    0    0  501    0  0.00000000000E+00  0.00000000000E+00  0.18072554777E+04  0.18072554777E+04  0.50400001928E-02 0.  1.
       -1   -1    0    0    0  501  0.00000000000E+00  0.00000000000E+00 -0.18221841368E+04  0.18221841368E+04  0.50400001928E-02 0. -1.
    10030    2    1    2    0    0  0.00000000000E+00  0.00000000000E+00 -0.14928659088E+02  0.36294396145E+04  0.36294089120E+04 0.  0.
        5    1    3    3  502    0 -0.26326560901E+03  0.10813030663E+04  0.14259371606E+04  0.18088239213E+04  0.46999998093E+01 0.  1.
       -5    1    3    3    0  502  0.26326560901E+03 -0.10813030663E+04 -0.14408658197E+04  0.18206156933E+04  0.46999998093E+01 0. -1.
</event>
<event>
 5   0  0.2287500E-07  0.3743833E+04  0.7818609E-02  0.8058317E-01
       -1   -1    0    0    0  501  0.00000000000E+00  0.00000000000E+00  0.21439962860E+04  0.21439962860E+04  0.50400001928E-02 0. -1.
        1   -1    0    0  501    0  0.00000000000E+00  0.00000000000E+00 -0.16343641619E+04  0.16343641619E+04  0.50400001928E-02 0.  1.
    10030    2    1    2    0    0  0.00000000000E+00  0.00000000000E+00  0.50963212412E+03  0.37783604479E+04  0.37438326314E+04 0.  0.
        2    1    3    3  502    0  0.81113831657E+03  0.10385149714E+04 -0.10869612033E+04  0.17081988678E+04  0.25500000920E-02 0.  1.
       -2    1    3    3    0  502 -0.81113831657E+03 -0.10385149714E+04  0.15965933274E+04  0.20701615801E+04  0.25500000920E-02 0. -1.
</event>
<event>
 5   0  0.6949625E-07  0.3691159E+04  0.7818609E-02  0.8069924E-01
        2   -1    0    0  501    0  0.00000000000E+00  0.00000000000E+00  0.15253707400E+04  0.15253707400E+04  0.25500000920E-02 0.  1.
       -2   -1    0    0    0  501  0.00000000000E+00  0.00000000000E+00 -0.22330071807E+04  0.22330071807E+04  0.25500000920E-02 0. -1.
    10030    2    1    2    0    0  0.00000000000E+00  0.00000000000E+00 -0.70763644066E+03  0.37583779208E+04  0.36911590677E+04 0.  0.
        5    1    3    3  502    0  0.89043311615E+03  0.96888014570E+03 -0.16714246045E+04  0.21272710616E+04  0.46999998093E+01 0. -1.
       -5    1    3    3    0  502 -0.89043311615E+03 -0.96888014570E+03  0.96378816387E+03  0.16311068591E+04  0.46999998093E+01 0.  1.
</event>
<event>
 5   0  0.2287500E-07  0.3692284E+04  0.7818609E-02  0.8069674E-01
        1   -1    0    0  501    0  0.00000000000E+00  0.00000000000E+00  0.17028024282E+04  0.17028024282E+04  0.50400001928E-02 0. -1.
       -1   -1    0    0    0  501  0.00000000000E+00  0.00000000000E+00 -0.20015475991E+04  0.20015475991E+04  0.50400001928E-02 0.  1.
    10030    2    1    2    0    0  0.00000000000E+00  0.00000000000E+00 -0.29874517089E+03  0.37043500273E+04  0.36922839067E+04 0.  0.
        2    1    3    3  502    0  0.61051857210E+03  0.16663440833E+04 -0.65976346986E+03  0.18933365699E+04  0.25500000920E-02 0.  1.
       -2    1    3    3    0  502 -0.61051857210E+03 -0.16663440833E+04  0.36101829896E+03  0.18110134574E+04  0.25500000920E-02 0. -1.
</event>
<event>
 5   0  0.2287500E-07  0.3848603E+04  0.7818609E-02  0.8035805E-01
       -1   -1    0    0    0  501  0.00000000000E+00  0.00000000000E+00  0.18960028151E+04  0.18960028152E+04  0.50400001928E-02 0.  1.
        1   -1    0    0  501    0  0.00000000000E+00  0.00000000000E+00 -0.19530224306E+04  0.19530224306E+04  0.50400001928E-02 0. -1.
    10030    2    1    2    0    0  0.00000000000E+00  0.00000000000E+00 -0.57019615407E+02  0.38490252457E+04  0.38486028771E+04 0.  0.
        3    1    3    3  502    0  0.60760494360E+03 -0.45524607913E+03  0.17398763311E+04  0.18983156792E+04  0.10100000352E+00 0.  1.
       -3    1    3    3    0  502 -0.60760494360E+03  0.45524607913E+03 -0.17968959465E+04  0.19507095665E+04  0.10100000352E+00 0. -1.
</event>
<event>
 5   0  0.2411746E-07  0.3696786E+04  0.7818609E-02  0.8068675E-01
        1   -1    0    0  501    0  0.00000000000E+00  0.00000000000E+00  0.19374559255E+04  0.19374559255E+04  0.50400001928E-02 0. -1.
       -1   -1    0    0    0  501  0.00000000000E+00  0.00000000000E+00 -0.17634239499E+04  0.17634239499E+04  0.50400001928E-02 0.  1.
    10030    2    1    2    0    0  0.00000000000E+00  0.00000000000E+00  0.17403197559E+03  0.37008798755E+04  0.36967857287E+04 0.  0.
        1    1    3    3  502    0  0.16249619547E+04 -0.75596118603E+03  0.53981936397E+03  0.18717327840E+04  0.50400001928E-02 0. -1.
       -1    1    3    3    0  502 -0.16249619547E+04  0.75596118603E+03 -0.36578738838E+03  0.18291470915E+04  0.50400001928E-02 0.  1.
</event>
<event>
 5   0  0.7300916E-07  0.3730715E+04  0.7818609E-02  0.8061189E-01
       -2   -1    0    0    0  501  0.00000000000E+00  0.00000000000E+00  0.14317471480E+04  0.14317471480E+04  0.25500000920E-02 0.  1.
        2   -1    0    0  501    0  0.00000000000E+00  0.00000000000E+00 -0.24302891218E+04  0.24302891218E+04  0.25500000920E-02 0. -1.
    10030    2    1    2    0    0  0.00000000000E+00  0.00000000000E+00 -0.99854197376E+03  0.38620362697E+04  0.37307154911E+04 0.  0.
        1    1    3    3  502    0 -0.99912409996E+03  0.60725546200E+02  0.11301819676E+04  0.15097178011E+04  0.50400001928E-02 0.  1.
       -1    1    3    3    0  502  0.99912409996E+03 -0.60725546200E+02 -0.21287239414E+04  0.23523184686E+04  0.50400001928E-02 0. -1.
</event>
<event>
 5   0  0.7074157E-07  0.3715691E+04  0.7818609E-02  0.8064493E-01
        2   -1    0    0  501    0  0.00000000000E+00  0.00000000000E+00  0.14357288861E+04  0.14357288861E+04  0.25500000920E-02 0.  1.
       -2   -1    0    0    0  501  0.00000000000E+00  0.00000000000E+00 -0.24040678869E+04  0.24040678869E+04  0.25500000920E-02 0. -1.
    10030    2    1    2    0    0  0.00000000000E+00  0.00000000000E+00 -0.96833900084E+03  0.38397967730E+04  0.37156908964E+04 0.  0.
        3    1    3    3  502    0 -0.15902079031E+04 -0.90963760990E+03 -0.16500439616E+03  0.18394097470E+04  0.10100000352E+00 0.  1.
       -3    1    3    3    0  502  0.15902079031E+04  0.90963760990E+03 -0.80333460468E+03  0.20003870260E+04  0.10100000352E+00 0. -1.
</event>
<event>
 5   0  0.6949625E-07  0.3675664E+04  0.7818609E-02  0.8073376E-01
        2   -1    0    0  501    0  0.00000000000E+00  0.00000000000E+00  0.24078163502E+04  0.24078163502E+04  0.25500000920E-02 0. -1.
       -2   -1    0    0    0  501  0.00000000000E+00  0.00000000000E+00 -0.14027760891E+04  0.14027760891E+04  0.25500000920E-02 0.  1.
    10030    2    1    2    0    0  0.00000000000E+00  0.00000000000E+00  0.10050402611E+04  0.38105924393E+04  0.36756644042E+04 0.  0.
        5    1    3    3  502    0  0.16574557300E+03  0.36127314834E+03 -0.13576755666E+04  0.14146713105E+04  0.46999998093E+01 0.  1.
       -5    1    3    3    0  502 -0.16574557300E+03 -0.36127314834E+03  0.23627158277E+04  0.23959211288E+04  0.46999998093E+01 0. -1.
</event>
<event>
 5   0  0.6939921E-07  0.3763279E+04  0.7818609E-02  0.8054081E-01
       -2   -1    0    0    0  501  0.00000000000E+00  0.00000000000E+00  0.15838767250E+04  0.15838767250E+04  0.25500000920E-02 0.  1.
        2   -1    0    0  501    0  0.00000000000E+00  0.00000000000E+00 -0.22353801366E+04  0.22353801366E+04  0.25500000920E-02 0. -1.
    10030    2    1    2    0    0  0.00000000000E+00  0.00000000000E+00 -0.65150341158E+03  0.38192568615E+04  0.37632786608E+04 0.  0.
        4    1    3    3  502    0  0.13760790785E+04 -0.11212525350E+04 -0.95934911947E+03  0.20177098957E+04  0.12699999809E+01 0.  1.
       -4    1    3    3    0  502 -0.13760790785E+04  0.11212525350E+04  0.30784570789E+03  0.18015469658E+04  0.12699999809E+01 0. -1.
</event>
<event>
 5   0  0.7300916E-07  0.3608878E+04  0.7818609E-02  0.8088461E-01
       -2   -1    0    0    0  501  0.00000000000E+00  0.00000000000E+00  0.20736702169E+04  0.20736702169E+04  0.25500000920E-02 0.  1.
        2   -1    0    0  501    0  0.00000000000E+00  0.00000000000E+00 -0.15701626762E+04  0.15701626762E+04  0.25500000920E-02 0. -1.
    10030    2    1    2    0    0  0.00000000000E+00  0.00000000000E+00  0.50350754070E+03  0.36438328931E+04  0.36088777077E+04 0.  0.
        1    1    3    3  502    0  0.15859948935E+03  0.17967335709E+04  0.30318093383E+03  0.18290226902E+04  0.50400001928E-02 0.  1.
       -1    1    3    3    0  502 -0.15859948935E+03 -0.17967335709E+04  0.20032660687E+03  0.18148102028E+04  0.50400001928E-02 0. -1.
</event>
<event>
 5   0  0.2287500E-07  0.3763336E+04  0.7818609E-02  0.8054069E-01
       -1   -1    0    0    0  501  0.00000000000E+00  0.00000000000E+00  0.16046482264E+04  0.16046482264E+04  0.50400001928E-02 0.  1.
        1   -1    0    0  501    0  0.00000000000E+00  0.00000000000E+00 -0.22065116664E+04  0.22065116664E+04  0.50400001928E-02 0. -1.
    10030    2    1    2    0    0  0.00000000000E+00  0.00000000000E+00 -0.60186343995E+03  0.38111598928E+04  0.37633363028E+04 0.  0.
        2    1    3    3  502    0 -0.13303378431E+02 -0.16410639516E+04  0.63131358306E+03  0.17583585281E+04  0.25500000920E-02 0.  1.
       -2    1    3    3    0  502  0.13303378431E+02  0.16410639516E+04 -0.12331770230E+04  0.20528013648E+04  0.25500000920E-02 0. -1.
</event>
<event>
 5   0  0.2287500E-07  0.3736935E+04  0.7818609E-02  0.8059826E-01
       -1   -1    0    0    0  501  0.00000000000E+00  0.00000000000E+00  0.13634578864E+04  0.13634578864E+04  0.50400001928E-02 0.  1.
        1   -1    0    0  501    0  0.00000000000E+00  0.00000000000E+00 -0.25605266579E+04  0.25605266579E+04  0.50400001928E-02 0. -1.
    10030    2    1    2    0    0  0.00000000000E+00  0.00000000000E+00 -0.11970687715E+04  0.39239845443E+04  0.37369347144E+04 0.  0.
        3    1    3    3  502    0  0.35933327493E+03 -0.14684695710E+04  0.55444583540E+03  0.16102588233E+04  0.10100000352E+00 0.  1.
       -3    1    3    3    0  502 -0.35933327493E+03  0.14684695710E+04 -0.17515146069E+04  0.23137257210E+04  0.10100000352E+00 0. -1.
</event>
<event>
 5   0  0.7074157E-07  0.3672569E+04  0.7818609E-02  0.8074068E-01
        2   -1    0    0  501    0  0.00000000000E+00  0.00000000000E+00  0.28187808109E+04  0.28187808109E+04  0.25500000920E-02 0. -1.
       -2   -1    0    0    0  501  0.00000000000E+00  0.00000000000E+00 -0.11962405996E+04  0.11962405996E+04  0.25500000920E-02 0.  1.
    10030    2    1    2    0    0  0.00000000000E+00  0.00000000000E+00  0.16225402113E+04  0.40150214106E+04  0.36725686093E+04 0.  0.
        3    1    3    3  502    0 -0.24215697043E+02  0.59292995745E+03 -0.10885223288E+04  0.12397714325E+04  0.10100000352E+00 0.  1.
       -3    1    3    3    0  502  0.24215697043E+02 -0.59292995745E+03  0.27110625401E+04  0.27752499781E+04  0.10100000352E+00 0. -1.
</event>
<event>
 5   0  0.7074157E-07  0.3792914E+04  0.7818609E-02  0.8047677E-01
        2   -1    0    0  501    0  0.00000000000E+00  0.00000000000E+00  0.12446032448E+04  0.12446032448E+04  0.25500000920E-02 0.  1.
       -2   -1    0    0    0  501  0.00000000000E+00  0.00000000000E+00 -0.28897161177E+04  0.28897161177E+04  0.25500000920E-02 0. -1.
    10030    2    1    2    0    0  0.00000000000E+00  0.00000000000E+00 -0.16451128729E+04  0.41343193625E+04  0.37929144766E+04 0.  0.
        3    1    3    3  502    0  0.10097822956E+04 -0.84160767591E+03  0.66744795779E+03  0.14742627145E+04  0.10100000352E+00 0.  1.
       -3    1    3    3    0  502 -0.10097822956E+04  0.84160767591E+03 -0.23125608307E+04  0.26600566480E+04  0.10100000352E+00 0. -1.
</event>
<event>
 5   0  0.2287500E-07  0.3710124E+04  0.7818609E-02  0.8065722E-01
        1   -1    0    0  501    0  0.00000000000E+00  0.00000000000E+00  0.10435001936E+04  0.10435001936E+04  0.50400001928E-02 0.  1.
       -1   -1    0    0    0  501  0.00000000000E+00  0.00000000000E+00 -0.32977994483E+04  0.32977994484E+04  0.50400001928E-02 0. -1.
    10030    2    1    2    0    0  0.00000000000E+00  0.00000000000E+00 -0.22542992548E+04  0.43412996419E+04  0.37101236436E+04 0.  0.
        2    1    3    3  502    0 -0.13590965237E+04 -0.83345530270E+03 -0.17404891424E+02  0.15943945662E+04  0.25500000920E-02 0.  1.
       -2    1    3    3    0  502  0.13590965237E+04  0.83345530270E+03 -0.22368943634E+04  0.27469050758E+04  0.25500000920E-02 0. -1.
</event>
<event>
 5   0  0.2411746E-07  0.3702458E+04  0.7818609E-02  0.8067417E-01
       -1   -1    0    0    0  501  0.00000000000E+00  0.00000000000E+00  0.20559664659E+04  0.20559664659E+04  0.50400001928E-02 0. -1.
        1   -1    0    0  501    0  0.00000000000E+00  0.00000000000E+00 -0.16668797353E+04  0.16668797353E+04  0.50400001928E-02 0.  1.
    10030    2    1    2    0    0  0.00000000000E+00  0.00000000000E+00  0.38908673055E+03  0.37228462012E+04  0.37024580151E+04 0.  0.
        1    1    3    3  502    0 -0.97965433819E+03  0.26878850294E+03 -0.13615830324E+04  0.16987872839E+04  0.50400001928E-02 0.  1.
       -1    1    3    3    0  502  0.97965433819E+03 -0.26878850294E+03  0.17506697630E+04  0.20240589173E+04  0.50400001928E-02 0. -1.
</event>
<event>
 5   0  0.6949625E-07  0.3693967E+04  0.7818609E-02  0.8069300E-01
        2   -1    0    0  501    0  0.00000000000E+00  0.00000000000E+00  0.28497213212E+04  0.28497213212E+04  0.25500000920E-02 0.  1.
       -2   -1    0    0    0  501  0.00000000000E+00  0.00000000000E+00 -0.11970811827E+04  0.11970811827E+04  0.25500000920E-02 0. -1.
    10030    2    1    2    0    0  0.00000000000E+00  0.00000000000E+00  0.16526401385E+04  0.40468025038E+04  0.36939668485E+04 0.  0.
        5    1    3    3  502    0  0.13377478857E+04 -0.84950015220E+03 -0.21303942640E+03  0.15989458407E+04  0.46999998093E+01 0. -1.
       -5    1    3    3    0  502 -0.13377478857E+04  0.84950015220E+03  0.18656795649E+04  0.24478566631E+04  0.46999998093E+01 0.  1.
</event>
<event>
 5   0  0.2287500E-07  0.3687604E+04  0.7818609E-02  0.8070714E-01
        1   -1    0    0  501    0  0.00000000000E+00  0.00000000000E+00  0.25330543028E+04  0.25330543028E+04  0.50400001928E-02 0.  1.
       -1   -1    0    0    0  501  0.00000000000E+00  0.00000000000E+00 -0.13420976951E+04  0.13420976951E+04  0.50400001928E-02 0. -1.
    10030    2    1    2    0    0  0.00000000000E+00  0.00000000000E+00  0.11909566077E+04  0.38751519979E+04  0.36876042854E+04 0.  0.
        4    1    3    3  502    0 -0.62865835780E+03 -0.11972947662E+04  0.19125692007E+04  0.23423596326E+04  0.12699999809E+01 0.  1.
       -4    1    3    3    0  502  0.62865835780E+03  0.11972947662E+04 -0.72161259301E+03  0.15327923654E+04  0.12699999809E+01 0. -1.
</event>
<event>
 5   0  0.2411746E-07  0.3733269E+04  0.7818609E-02  0.8060629E-01
       -1   -1    0    0    0  501  0.00000000000E+00  0.00000000000E+00  0.30973960092E+04  0.30973960092E+04  0.50400001928E-02 0.  1.
        1   -1    0    0  501    0  0.00000000000E+00  0.00000000000E+00 -0.11249208037E+04  0.11249208037E+04  0.50400001928E-02 0. -1.
    10030    2    1    2    0    0  0.00000000000E+00  0.00000000000E+00  0.19724752055E+04  0.42223168129E+04  0.37332694562E+04 0.  0.
        1    1    3    3  502    0  0.70131655916E+03 -0.12784436344E+03 -0.96489988916E+03  0.11996753284E+04  0.50400001928E-02 0. -1.
       -1    1    3    3    0  502 -0.70131655916E+03  0.12784436344E+03  0.29373750947E+04  0.30226414846E+04  0.50400001928E-02 0.  1.
</event>
<event>
 5   0  0.6939921E-07  0.3740449E+04  0.7818609E-02  0.8059056E-01
       -2   -1    0    0    0  501  0.00000000000E+00  0.00000000000E+00  0.19259073107E+04  0.19259073107E+04  0.25500000920E-02 0.  1.
        2   -1    0    0  501    0  0.00000000000E+00  0.00000000000E+00 -0.18161518569E+04  0.18161518569E+04  0.25500000920E-02 0. -1.
    10030    2    1    2    0    0  0.00000000000E+00  0.00000000000E+00  0.10975545377E+03  0.37420591676E+04  0.37404492450E+04 0.  0.
        4    1    3    3  502    0 -0.62519835629E+03  0.43346380977E+03  0.17641137880E+04  0.19211618696E+04  0.12699999809E+01 0.  1.
       -4    1    3    3    0  502  0.62519835629E+03 -0.43346380977E+03 -0.16543583343E+04  0.18208972981E+04  0.12699999809E+01 0. -1.
</event>
<event>
 5   0  0.2287500E-07  0.2714241E+04  0.7818609E-02  0.8330399E-01
        1   -1    0    0  501    0  0.00000000000E+00  0.00000000000E+00  0.19218701256E+04  0.19218701256E+04  0.50400001928E-02 0. -1.
       -1   -1    0    0    0  501  0.00000000000E+00  0.00000000000E+00 -0.95832461412E+03  0.95832461413E+03  0.50400001928E-02 0.  1.
    10030    2    1    2    0    0  0.00000000000E+00  0.00000000000E+00  0.96354551152E+03  0.28801947398E+04  0.27142405542E+04 0.  0.
        3    1    3    3  502    0  0.42612271234E+03  0.52391379693E+03  0.17309083061E+04  0.18579854162E+04  0.10100000352E+00 0. -1.
       -3    1    3    3    0  502 -0.42612271234E+03 -0.52391379693E+03 -0.76736279454E+03  0.10222093236E+04  0.10100000352E+00 0.  1.
</event>
<event>
 5   0  0.2411746E-07  0.3432292E+04  0.7818609E-02  0.8130026E-01
       -1   -1    0    0    0  501  0.00000000000E+00  0.00000000000E+00  0.13866226177E+04  0.13866226177E+04  0.50400001928E-02 0.  1.
        1   -1    0    0  501    0  0.00000000000E+00  0.00000000000E+00 -0.21239789608E+04  0.21239789608E+04  0.50400001928E-02 0. -1.
    10030    2    1    2    0    0  0.00000000000E+00  0.00000000000E+00 -0.73735634310E+03  0.35106015785E+04  0.34322921010E+04 0.  0.
        1    1    3    3  502    0  0.32697012284E+03 -0.13168868944E+04 -0.14433923891E+04  0.19810305759E+04  0.50400001928E-02 0. -1.
       -1    1    3    3    0  502 -0.32697012284E+03  0.13168868944E+04  0.70603604598E+03  0.15295710026E+04  0.50400001928E-02 0.  1.
</event>
<event>
 5   0  0.2411746E-07  0.3726727E+04  0.7818609E-02  0.8062065E-01
       -1   -1    0    0    0  501  0.00000000000E+00  0.00000000000E+00  0.29364874591E+04  0.29364874591E+04  0.50400001928E-02 0.  1.
        1   -1    0    0  501    0  0.00000000000E+00  0.00000000000E+00 -0.11824070103E+04  0.11824070103E+04  0.50400001928E-02 0. -1.
    10030    2    1    2    0    0  0.00000000000E+00  0.00000000000E+00  0.17540804488E+04  0.41188944695E+04  0.37267269057E+04 0.  0.
        1    1    3    3  502    0  0.42810693457E+03 -0.12216277570E+04  0.23584100554E+04  0.26903062862E+04  0.50400001928E-02 0.  1.
       -1    1    3    3    0  502 -0.42810693457E+03  0.12216277570E+04 -0.60432960653E+03  0.14285881833E+04  0.50400001928E-02 0. -1.
</event>
<event>
 5   0  0.2345471E-07  0.3457350E+04  0.7818609E-02  0.8123973E-01
        1   -1    0    0  501    0  0.00000000000E+00  0.00000000000E+00  0.15656424495E+04  0.15656424495E+04  0.50400001928E-02 0. -1.
       -1   -1    0    0    0  501  0.00000000000E+00  0.00000000000E+00 -0.19086838197E+04  0.19086838197E+04  0.50400001928E-02 0.  1.
    10030    2    1    2    0    0  0.00000000000E+00  0.00000000000E+00 -0.34304137021E+03  0.34743262693E+04  0.34573495114E+04 0.  0.
        5    1    3    3  502    0  0.71603436170E+03 -0.86255700443E+03  0.11508376675E+04  0.16065986493E+04  0.46999998093E+01 0. -1.
       -5    1    3    3    0  502 -0.71603436170E+03  0.86255700443E+03 -0.14938790377E+04  0.18677276200E+04  0.46999998093E+01 0.  1.
</event>
<event>
 5   0  0.2345471E-07  0.3537485E+04  0.7818609E-02  0.8104964E-01
        1   -1    0    0  501    0  0.00000000000E+00  0.00000000000E+00  0.14987580726E+04  0.14987580726E+04  0.50400001928E-02 0. -1.
       -1   -1    0    0    0  501  0.00000000000E+00  0.00000000000E+00 -0.20873610378E+04  0.20873610378E+04  0.50400001928E-02 0.  1.
    10030    2    1    2    0    0  0.00000000000E+00  0.00000000000E+00 -0.58860296521E+03  0.35861191105E+04  0.35374845334E+04 0.  0.
        5    1    3    3  502    0  0.50656070315E+03  0.15953853415E+04 -0.87362028849E+03  0.18881452890E+04  0.46999998093E+01 0.  1.
       -5    1    3    3    0  502 -0.50656070315E+03 -0.15953853415E+04  0.28501732329E+03  0.16979738215E+04  0.46999998093E+01 0. -1.
</event>
<event>
 5   0  0.2287500E-07  0.3698551E+04  0.7818609E-02  0.8068283E-01
       -1   -1    0    0    0  501  0.00000000000E+00  0.00000000000E+00  0.21983486831E+04  0.21983486831E+04  0.50400001928E-02 0. -1.
        1   -1    0    0  501    0  0.00000000000E+00  0.00000000000E+00 -0.15556310619E+04  0.15556310619E+04  0.50400001928E-02 0.  1.
    10030    2    1    2    0    0  0.00000000000E+00  0.00000000000E+00  0.64271762121E+03  0.37539797451E+04  0.36985507953E+04 0.  0.
        2    1    3    3  502    0 -0.14390122361E+04 -0.11544525433E+04  0.45095399219E+03  0.18991778204E+04  0.25500000920E-02 0.  1.
       -2    1    3    3    0  502  0.14390122361E+04  0.11544525433E+04  0.19176362902E+03  0.18548019247E+04  0.25500000920E-02 0. -1.
</event>
<event>
 5   0  0.2287500E-07  0.3701320E+04  0.7818609E-02  0.8067669E-01
       -1   -1    0    0    0  501  0.00000000000E+00  0.00000000000E+00  0.15636763400E+04  0.15636763400E+04  0.50400001928E-02 0. -1.
        1   -1    0    0  501    0  0.00000000000E+00  0.00000000000E+00 -0.21903142652E+04  0.21903142652E+04  0.50400001928E-02 0.  1.
    10030    2    1    2    0    0  0.00000000000E+00  0.00000000000E+00 -0.62663792519E+03  0.37539906052E+04  0.37013200854E+04 0.  0.
        2    1    3    3  502    0 -0.11851363829E+03  0.15129669907E+04  0.76091696825E+03  0.16976775989E+04  0.25500000920E-02 0. -1.
       -2    1    3    3    0  502  0.11851363829E+03 -0.15129669907E+04 -0.13875548934E+04  0.20563130063E+04  0.25500000920E-02 0.  1.
</event>
<event>
 5   0  0.2287500E-07  0.3638925E+04  0.7818609E-02  0.8081633E-01
       -1   -1    0    0    0  501  0.00000000000E+00  0.00000000000E+00  0.17308474739E+04  0.17308474739E+04  0.50400001928E-02 0.  1.
        1   -1    0    0  501    0  0.00000000000E+00  0.00000000000E+00 -0.19126139507E+04  0.19126139507E+04  0.50400001928E-02 0. -1.
    10030    2    1    2    0    0  0.00000000000E+00  0.00000000000E+00 -0.18176647680E+03  0.36434614245E+04  0.36389245801E+04 0.  0.
        2    1    3    3  502    0  0.87306378338E+03  0.14357489992E+04 -0.78948336111E+03  0.18565827577E+04  0.25500000920E-02 0. -1.
       -2    1    3    3    0  502 -0.87306378338E+03 -0.14357489992E+04  0.60771688432E+03  0.17868786669E+04  0.25500000920E-02 0.  1.
</event>
<event>
 5   0  0.7074157E-07  0.3694080E+04  0.7818609E-02  0.8069275E-01
        2   -1    0    0  501    0  0.00000000000E+00  0.00000000000E+00  0.13707054345E+04  0.13707054345E+04  0.25500000920E-02 0. -1.
       -2   -1    0    0    0  501  0.00000000000E+00  0.00000000000E+00 -0.24889064812E+04  0.24889064812E+04  0.25500000920E-02 0.  1.
    10030    2    1    2    0    0  0.00000000000E+00  0.00000000000E+00 -0.11182010467E+04  0.38596119157E+04  0.36940804754E+04 0.  0.
        3    1    3    3  502    0 -0.21278988331E+03  0.12878370869E+02  0.13578088584E+04  0.13744418114E+04  0.10100000352E+00 0. -1.
       -3    1    3    3    0  502  0.21278988331E+03 -0.12878370869E+02 -0.24760099051E+04  0.24851701043E+04  0.10100000352E+00 0.  1.
</event>
<event>
 5   0  0.2411746E-07  0.3561724E+04  0.7818609E-02  0.8099316E-01
        1   -1    0    0  501    0  0.00000000000E+00  0.00000000000E+00  0.10806804918E+04  0.10806804918E+04  0.50400001928E-02 0. -1.
       -1   -1    0    0    0  501  0.00000000000E+00  0.00000000000E+00 -0.29346964261E+04  0.29346964261E+04  0.50400001928E-02 0.  1.
    10030    2    1    2    0    0  0.00000000000E+00  0.00000000000E+00 -0.18540159344E+04  0.40153769179E+04  0.35617238394E+04 0.  0.
        1    1    3    3  502    0  0.80878881209E+03  0.15675302707E+04 -0.65044920567E+03  0.18799932610E+04  0.50400001928E-02 0.  1.
       -1    1    3    3    0  502 -0.80878881209E+03 -0.15675302707E+04 -0.12035667287E+04  0.21353836570E+04  0.50400001928E-02 0. -1.
</event>
<event>
 5   0  0.2287500E-07  0.3703966E+04  0.7818609E-02  0.8067083E-01
       -3   -1    0    0    0  501  0.00000000000E+00  0.00000000000E+00  0.14939465165E+04  0.14939465199E+04  0.10100000352E+00 0.  1.
        3   -1    0    0  501    0  0.00000000000E+00  0.00000000000E+00 -0.22958261146E+04  0.22958261168E+04  0.10100000352E+00 0. -1.
    10030    2    1    2    0    0  0.00000000000E+00  0.00000000000E+00 -0.80187959815E+03  0.37897726367E+04  0.37039662185E+04 0.  0.
        5    1    3    3  502    0  0.26792793220E+03 -0.75241335107E+03  0.13086688231E+04  0.15331495055E+04  0.46999998093E+01 0.  1.
       -5    1    3    3    0  502 -0.26792793220E+03  0.75241335107E+03 -0.21105484213E+04  0.22566231312E+04  0.46999998093E+01 0. -1.
</event>
<event>
 5   0  0.7074157E-07  0.3039590E+04  0.7818609E-02  0.8232515E-01
        2   -1    0    0  501    0  0.00000000000E+00  0.00000000000E+00  0.27261014612E+04  0.27261014612E+04  0.25500000920E-02 0. -1.
       -2   -1    0    0    0  501  0.00000000000E+00  0.00000000000E+00 -0.84728203291E+03  0.84728203292E+03  0.25500000920E-02 0.  1.
    10030    2    1    2    0    0  0.00000000000E+00  0.00000000000E+00  0.18788194283E+04  0.35733834942E+04  0.30395899645E+04 0.  0.
        3    1    3    3  502    0  0.28937295726E+03  0.54269444339E+03  0.25732686050E+04  0.26457447517E+04  0.10100000352E+00 0. -1.
       -3    1    3    3    0  502 -0.28937295726E+03 -0.54269444339E+03 -0.69444917671E+03  0.92763874246E+03  0.10100000352E+00 0.  1.
</event>
<event>
 5   0  0.2287500E-07  0.3829104E+04  0.7818609E-02  0.8039938E-01
        1   -1    0    0  501    0  0.00000000000E+00  0.00000000000E+00  0.17572641985E+04  0.17572641985E+04  0.50400001928E-02 0. -1.
       -1   -1    0    0    0  501  0.00000000000E+00  0.00000000000E+00 -0.20859183093E+04  0.20859183093E+04  0.50400001928E-02 0.  1.
    10030    2    1    2    0    0  0.00000000000E+00  0.00000000000E+00 -0.32865411075E+03  0.38431825078E+04  0.38291041072E+04 0.  0.
        4    1    3    3  502    0  0.58755400602E+03  0.14976516093E+04  0.87743320940E+03  0.18325039434E+04  0.12699999809E+01 0. -1.
       -4    1    3    3    0  502 -0.58755400602E+03 -0.14976516093E+04 -0.12060873202E+04  0.20106785644E+04  0.12699999809E+01 0.  1.
</event>
<event>
 5   0  0.6939921E-07  0.3671036E+04  0.7818609E-02  0.8074411E-01
        2   -1    0    0  501    0  0.00000000000E+00  0.00000000000E+00  0.19846434787E+04  0.19846434787E+04  0.25500000920E-02 0. -1.
       -2   -1    0    0    0  501  0.00000000000E+00  0.00000000000E+00 -0.16975973128E+04  0.16975973128E+04  0.25500000920E-02 0.  1.
    10030    2    1    2    0    0  0.00000000000E+00  0.00000000000E+00  0.28704616586E+03  0.36822407915E+04  0.36710355140E+04 0.  0.
        4    1    3    3  502    0 -0.59524829810E+03 -0.48106603978E+03 -0.15299154027E+04  0.17106688234E+04  0.12699999809E+01 0.  1.
       -4    1    3    3    0  502  0.59524829810E+03  0.48106603978E+03  0.18169615685E+04  0.19715719681E+04  0.12699999809E+01 0. -1.
</event>
<event>
 5   0  0.7300916E-07  0.2926110E+04  0.7818609E-02  0.8265151E-01
       -2   -1    0    0    0  501  0.00000000000E+00  0.00000000000E+00  0.14898711720E+04  0.14898711720E+04  0.25500000920E-02 0.  1.
        2   -1    0    0  501    0  0.00000000000E+00  0.00000000000E+00 -0.14367212269E+04  0.14367212269E+04  0.25500000920E-02 0. -1.
    10030    2    1    2    0    0  0.00000000000E+00  0.00000000000E+00  0.53149945123E+02  0.29265923989E+04  0.29261097301E+04 0.  0.
        1    1    3    3  502    0 -0.58127070353E+03  0.13400949556E+04 -0.55897208622E+02  0.14617984193E+04  0.50400001928E-02 0. -1.
       -1    1    3    3    0  502  0.58127070353E+03 -0.13400949556E+04  0.10904715375E+03  0.14647939796E+04  0.50400001928E-02 0.  1.
</event>
<event>
 5   0  0.2287500E-07  0.3672532E+04  0.7818609E-02  0.8074077E-01
        1   -1    0    0  501    0  0.00000000000E+00  0.00000000000E+00  0.27736192942E+04  0.27736192942E+04  0.50400001928E-02 0. -1.
       -1   -1    0    0    0  501  0.00000000000E+00  0.00000000000E+00 -0.12156939686E+04  0.12156939686E+04  0.50400001928E-02 0.  1.
    10030    2    1    2    0    0  0.00000000000E+00  0.00000000000E+00  0.15579253257E+04  0.39893132628E+04  0.36725316865E+04 0.  0.
        3    1    3    3  502    0  0.43630379612E+03  0.16686105877E+04  0.94319130389E+02  0.17272864281E+04  0.10100000352E+00 0.  1.
       -3    1    3    3    0  502 -0.43630379612E+03 -0.16686105877E+04  0.14636061953E+04  0.22620268347E+04  0.10100000352E+00 0. -1.
</event>
<event>
 5   0  0.7074157E-07  0.3349222E+04  0.7818609E-02  0.8150483E-01
       -2   -1    0    0    0  501  0.00000000000E+00  0.00000000000E+00  0.11850103728E+04  0.11850103728E+04  0.25500000920E-02 0.  1.
        2   -1    0    0  501    0  0.00000000000E+00  0.00000000000E+00 -0.23664953029E+04  0.23664953029E+04  0.25500000920E-02 0. -1.
    10030    2    1    2    0    0  0.00000000000E+00  0.00000000000E+00 -0.11814849301E+04  0.35515056757E+04  0.33492216894E+04 0.  0.
        3    1    3    3  502    0  0.75230953758E+03  0.13005555944E+04  0.19345484770E+03  0.15148726952E+04  0.10100000352E+00 0.  1.
       -3    1    3    3    0  502 -0.75230953758E+03 -0.13005555944E+04 -0.13749397778E+04  0.20366329805E+04  0.10100000352E+00 0. -1.
</event>
<event>
 5   0  0.2287500E-07  0.3687950E+04  0.7818609E-02  0.8070637E-01
        1   -1    0    0  501    0  0.00000000000E+00  0.00000000000E+00  0.22180248716E+04  0.22180248716E+04  0.50400001928E-02 0.  1.
       -1   -1    0    0    0  501  0.00000000000E+00  0.00000000000E+00 -0.15330053971E+04  0.15330053971E+04  0.50400001928E-02 0. -1.
    10030    2    1    2    0    0  0.00000000000E+00  0.00000000000E+00  0.68501947448E+03  0.37510302688E+04  0.36879501619E+04 0.  0.
        4    1    3    3  502    0  0.97450664744E+03 -0.15358268232E+04  0.65070285405E+03  0.19317978812E+04  0.12699999809E+01 0.  1.
       -4    1    3    3    0  502 -0.97450664744E+03  0.15358268232E+04  0.34316620432E+02  0.18192323876E+04  0.12699999809E+01 0. -1.
</event>
<event>
 5   0  0.7124627E-07  0.3624805E+04  0.7818609E-02  0.8084833E-01
        2   -1    0    0  501    0  0.00000000000E+00  0.00000000000E+00  0.26165969786E+04  0.26165969786E+04  0.25500000920E-02 0. -1.
       -2   -1    0    0    0  501  0.00000000000E+00  0.00000000000E+00 -0.12553722080E+04  0.12553722080E+04  0.25500000920E-02 0.  1.
    10030    2    1    2    0    0  0.00000000000E+00  0.00000000000E+00  0.13612247706E+04  0.38719691866E+04  0.36248051680E+04 0.  0.
        2    1    3    3  502    0  0.17357487661E+04 -0.11206534589E+03  0.13654894614E+03  0.17447143134E+04  0.25500000920E-02 0.  1.
       -2    1    3    3    0  502 -0.17357487661E+04  0.11206534589E+03  0.12246758244E+04  0.21272548732E+04  0.25500000920E-02 0. -1.
</event>
<event>
 5   0  0.2287500E-07  0.3754082E+04  0.7818609E-02  0.8056081E-01
        1   -1    0    0  501    0  0.00000000000E+00  0.00000000000E+00  0.16763409131E+04  0.16763409131E+04  0.50400001928E-02 0.  1.
       -1   -1    0    0    0  501  0.00000000000E+00  0.00000000000E+00 -0.21017704628E+04  0.21017704628E+04  0.50400001928E-02 0. -1.
    10030    2    1    2    0    0  0.00000000000E+00  0.00000000000E+00 -0.42542954974E+03  0.37781113759E+04  0.37540824801E+04 0.  0.
        4    1    3    3  502    0  0.14866552207E+04 -0.28997347230E+03 -0.13284378136E+04  0.20146902982E+04  0.12699999809E+01 0. -1.
       -4    1    3    3    0  502 -0.14866552207E+04  0.28997347230E+03  0.90300826387E+03  0.17634210778E+04  0.12699999809E+01 0.  1.
</event>
<event>
 5   0  0.2287500E-07  0.3646892E+04  0.7818609E-02  0.8079834E-01
        1   -1    0    0  501    0  0.00000000000E+00  0.00000000000E+00  0.18948298202E+04  0.18948298202E+04  0.50400001928E-02 0. -1.
       -1   -1    0    0    0  501  0.00000000000E+00  0.00000000000E+00 -0.17547517774E+04  0.17547517774E+04  0.50400001928E-02 0.  1.
    10030    2    1    2    0    0  0.00000000000E+00  0.00000000000E+00  0.14007804282E+03  0.36495815977E+04  0.36468923730E+04 0.  0.
        4    1    3    3  502    0  0.36125769905E+03 -0.69337122739E+03 -0.15785019164E+04  0.17615165900E+04  0.12699999809E+01 0.  1.
       -4    1    3    3    0  502 -0.36125769905E+03  0.69337122739E+03  0.17185799592E+04  0.18880650076E+04  0.12699999809E+01 0. -1.
</event>
<event>
 5   0  0.2287500E-07  0.3836696E+04  0.7818609E-02  0.8038326E-01
        1   -1    0    0  501    0  0.00000000000E+00  0.00000000000E+00  0.16281426974E+04  0.16281426974E+04  0.50400001928E-02 0. -1.
       -1   -1    0    0    0  501  0.00000000000E+00  0.00000000000E+00 -0.22602804454E+04  0.22602804454E+04  0.50400001928E-02 0.  1.
    10030    2    1    2    0    0  0.00000000000E+00  0.00000000000E+00 -0.63213774798E+03  0.38884231427E+04  0.38366960271E+04 0.  0.
        2    1    3    3  502    0  0.11566060459E+04 -0.13472538355E+04  0.41982575204E+03  0.18245777881E+04  0.25500000920E-02 0. -1.
       -2    1    3    3    0  502 -0.11566060459E+04  0.13472538355E+04 -0.10519635000E+04  0.20638453547E+04  0.25500000920E-02 0.  1.
</event>
<event>
 5   0  0.7124627E-07  0.3642505E+04  0.7818609E-02  0.8080824E-01
        2   -1    0    0  501    0  0.00000000000E+00  0.00000000000E+00  0.13927706550E+04  0.13927706550E+04  0.25500000920E-02 0. -1.
       -2   -1    0    0    0  501  0.00000000000E+00  0.00000000000E+00 -0.23815556490E+04  0.23815556490E+04  0.25500000920E-02 0.  1.
    10030    2    1    2    0    0  0.00000000000E+00  0.00000000000E+00 -0.98878499395E+03  0.37743263040E+04  0.36425050837E+04 0.  0.
        2    1    3    3  502    0  0.98228517819E+03 -0.40636714286E+03  0.10379574196E+04  0.14857234033E+04  0.25500000920E-02 0. -1.
       -2    1    3    3    0  502 -0.98228517819E+03  0.40636714286E+03 -0.20267424136E+04  0.22886029007E+04  0.25500000920E-02 0.  1.
</event>
<event>
 5   0  0.7300916E-07  0.3741123E+04  0.7818609E-02  0.8058909E-01
        2   -1    0    0  501    0  0.00000000000E+00  0.00000000000E+00  0.19426137179E+04  0.19426137180E+04  0.25500000920E-02 0.  1.
       -2   -1    0    0    0  501  0.00000000000E+00  0.00000000000E+00 -0.18011819059E+04  0.18011819059E+04  0.25500000920E-02 0. -1.
    10030    2    1    2    0    0  0.00000000000E+00  0.00000000000E+00  0.14143181204E+03  0.37437956239E+04  0.37411231891E+04 0.  0.
        1    1    3    3  502    0  0.18210043394E+04  0.27680533166E+03  0.39702042420E+03  0.18842248308E+04  0.50400001928E-02 0.  1.
       -1    1    3    3    0  502 -0.18210043394E+04 -0.27680533166E+03 -0.25558861216E+03  0.18595707931E+04  0.50400001928E-02 0. -1.
</event>
<event>
 5   0  0.6949625E-07  0.3836956E+04  0.7818609E-02  0.8038270E-01
       -2   -1    0    0    0  501  0.00000000000E+00  0.00000000000E+00  0.19647179329E+04  0.19647179329E+04  0.25500000920E-02 0. -1.
        2   -1    0    0  501    0  0.00000000000E+00  0.00000000000E+00 -0.18733263778E+04  0.18733263778E+04  0.25500000920E-02 0.  1.
    10030    2    1    2    0    0  0.00000000000E+00  0.00000000000E+00  0.91391555118E+02  0.38380443108E+04  0.38369560481E+04 0.  0.
        5    1    3    3  502    0  0.10072740559E+04 -0.34709486814E+03 -0.15502065041E+04  0.18810205120E+04  0.46999998093E+01 0.  1.
       -5    1    3    3    0  502 -0.10072740559E+04  0.34709486814E+03  0.16415980592E+04  0.19570237988E+04  0.46999998093E+01 0. -1.
</event>
<event>
 5   0  0.7300916E-07  0.3704807E+04  0.7818609E-02  0.8066897E-01
       -2   -1    0    0    0  501  0.00000000000E+00  0.00000000000E+00  0.16409364096E+04  0.16409364096E+04  0.25500000920E-02 0.  1.
        2   -1    0    0  501    0  0.00000000000E+00  0.00000000000E+00 -0.20911223321E+04  0.20911223321E+04  0.25500000920E-02 0. -1.
    10030    2    1    2    0    0  0.00000000000E+00  0.00000000000E+00 -0.45018592248E+03  0.37320587417E+04  0.37048070242E+04 0.  0.
        1    1    3    3  502    0  0.13222391382E+04  0.68593003169E+03 -0.13343661446E+04  0.19998373321E+04  0.50400001928E-02 0. -1.
       -1    1    3    3    0  502 -0.13222391382E+04 -0.68593003169E+03  0.88418022208E+03  0.17322214097E+04  0.50400001928E-02 0.  1.
</event>
<event>
 5   0  0.2411746E-07  0.3757113E+04  0.7818609E-02  0.8055422E-01
        1   -1    0    0  501    0  0.00000000000E+00  0.00000000000E+00  0.14701142521E+04  0.14701142521E+04  0.50400001928E-02 0.  1.
       -1   -1    0    0    0  501  0.00000000000E+00  0.00000000000E+00 -0.24004759002E+04  0.24004759002E+04  0.50400001928E-02 0. -1.
    10030    2    1    2    0    0  0.00000000000E+00  0.00000000000E+00 -0.93036164811E+03  0.38705901523E+04  0.37571126321E+04 0.  0.
        1    1    3    3  502    0 -0.26597662080E+03  0.17431746173E+04 -0.11324890715E+04  0.20956938723E+04  0.50400001928E-02 0. -1.
       -1    1    3    3    0  502  0.26597662080E+03 -0.17431746173E+04  0.20212742335E+03  0.17748962800E+04  0.50400001928E-02 0.  1.
</event>
<event>
 5   0  0.6949625E-07  0.3713023E+04  0.7818609E-02  0.8065082E-01
        2   -1    0    0  501    0  0.00000000000E+00  0.00000000000E+00  0.20057623703E+04  0.20057623703E+04  0.25500000920E-02 0. -1.
       -2   -1    0    0    0  501  0.00000000000E+00  0.00000000000E+00 -0.17183667730E+04  0.17183667730E+04  0.25500000920E-02 0.  1.
    10030    2    1    2    0    0  0.00000000000E+00  0.00000000000E+00  0.28739559723E+03  0.37241291433E+04  0.37130232489E+04 0.  0.
        5    1    3    3  502    0 -0.18630048895E+03  0.14141547564E+04 -0.10481627658E+04  0.17700872353E+04  0.46999998093E+01 0.  1.
       -5    1    3    3    0  502  0.18630048895E+03 -0.14141547564E+04  0.13355583630E+04  0.19540419080E+04  0.46999998093E+01 0. -1.
</event>
<event>
 5   0  0.6939921E-07  0.3555090E+04  0.7818609E-02  0.8100857E-01
        2   -1    0    0  501    0  0.00000000000E+00  0.00000000000E+00  0.20763651407E+04  0.20763651407E+04  0.25500000920E-02 0.  1.
       -2   -1    0    0    0  501  0.00000000000E+00  0.00000000000E+00 -0.15217292146E+04  0.15217292146E+04  0.25500000920E-02 0. -1.
    10030    2    1    2    0    0  0.00000000000E+00  0.00000000000E+00  0.55463592615E+03  0.35980943553E+04  0.35550895881E+04 0.  0.
        4    1    3    3  502    0  0.80769478195E+03 -0.20875486183E+03  0.18659275608E+04  0.20439267913E+04  0.12699999809E+01 0.  1.
       -4    1    3    3    0  502 -0.80769478195E+03  0.20875486183E+03 -0.13112916346E+04  0.15541675640E+04  0.12699999809E+01 0. -1.
</event>
<event>
 5   0  0.6939921E-07  0.3670396E+04  0.7818609E-02  0.8074554E-01
        2   -1    0    0  501    0  0.00000000000E+00  0.00000000000E+00  0.20794098687E+04  0.20794098687E+04  0.25500000920E-02 0. -1.
       -2   -1    0    0    0  501  0.00000000000E+00  0.00000000000E+00 -0.16196673501E+04  0.16196673501E+04  0.25500000920E-02 0.  1.
    10030    2    1    2    0    0  0.00000000000E+00  0.00000000000E+00  0.45974251859E+03  0.36990772188E+04  0.36703963120E+04 0.  0.
        4    1    3    3  502    0  0.15127572459E+04  0.73255072411E+03 -0.51269395872E+03  0.17572483480E+04  0.12699999809E+01 0.  1.
       -4    1    3    3    0  502 -0.15127572459E+04 -0.73255072411E+03  0.97243647731E+03  0.19418288708E+04  0.12699999809E+01 0. -1.
</event>
<event>
 5   0  0.2287500E-07  0.3510111E+04  0.7818609E-02  0.8111398E-01
       -1   -1    0    0    0  501  0.00000000000E+00  0.00000000000E+00  0.97742826599E+03  0.97742826600E+03  0.50400001928E-02 0.  1.
        1   -1    0    0  501    0  0.00000000000E+00  0.00000000000E+00 -0.31513504425E+04  0.31513504425E+04  0.50400001928E-02 0. -1.
    10030    2    1    2    0    0  0.00000000000E+00  0.00000000000E+00 -0.21739221765E+04  0.41287787085E+04  0.35101105388E+04 0.  0.
        2    1    3    3  502    0 -0.59099865578E+03 -0.11896101044E+04 -0.24362047048E+04  0.27748053941E+04  0.25500000920E-02 0.  1.
       -2    1    3    3    0  502  0.59099865578E+03  0.11896101044E+04  0.26228252825E+03  0.13539733144E+04  0.25500000920E-02 0. -1.
</event>
<event>
 5   0  0.2287500E-07  0.3713887E+04  0.7818609E-02  0.8064891E-01
       -1   -1    0    0    0  501  0.00000000000E+00  0.00000000000E+00  0.20048792133E+04  0.20048792133E+04  0.50400001928E-02 0.  1.
        1   -1    0    0  501    0  0.00000000000E+00  0.00000000000E+00 -0.17199238644E+04  0.17199238644E+04  0.50400001928E-02 0. -1.
    10030    2    1    2    0    0  0.00000000000E+00  0.00000000000E+00  0.28495534891E+03  0.37248030777E+04  0.37138872381E+04 0.  0.
        3    1    3    3  502    0  0.38616496796E+03 -0.17523995234E+04 -0.33664194877E+03  0.18257478698E+04  0.10100000352E+00 0. -1.
       -3    1    3    3    0  502 -0.38616496796E+03  0.17523995234E+04  0.62159729768E+03  0.18990552080E+04  0.10100000352E+00 0.  1.
</event>
<event>
 5   0  0.2345471E-07  0.3645738E+04  0.7818609E-02  0.8080094E-01
        1   -1    0    0  501    0  0.00000000000E+00  0.00000000000E+00  0.15384758381E+04  0.15384758381E+04  0.50400001928E-02 0. -1.
       -1   -1    0    0    0  501  0.00000000000E+00  0.00000000000E+00 -0.21598336848E+04  0.21598336848E+04  0.50400001928E-02 0.  1.
    10030    2    1    2    0    0  0.00000000000E+00  0.00000000000E+00 -0.62135784671E+03  0.36983095229E+04  0.36457383002E+04 0.  0.
        5    1    3    3  502    0 -0.11667033547E+03  0.16792098891E+04 -0.10203901984E+04  0.19683942861E+04  0.46999998093E+01 0.  1.
       -5    1    3    3    0  502  0.11667033547E+03 -0.16792098891E+04  0.39903235169E+03  0.17299152368E+04  0.46999998093E+01 0. -1.
</event>
<event>
 5   0  0.6939921E-07  0.3736221E+04  0.7818609E-02  0.8059982E-01
       -2   -1    0    0    0  501  0.00000000000E+00  0.00000000000E+00  0.14257777731E+04  0.14257777731E+04  0.25500000920E-02 0. -1.
        2   -1    0    0  501    0  0.00000000000E+00  0.00000000000E+00 -0.24476721584E+04  0.24476721584E+04  0.25500000920E-02 0.  1.
    10030    2    1    2    0    0  0.00000000000E+00  0.00000000000E+00 -0.10218943853E+04  0.38734499316E+04  0.37362208497E+04 0.  0.
        4    1    3    3  502    0  0.89672642272E+03  0.34831745874E+03  0.11492419956E+04  0.14987335008E+04  0.12699999809E+01 0. -1.
       -4    1    3    3    0  502 -0.89672642272E+03 -0.34831745874E+03 -0.21711363808E+04  0.23747164307E+04  0.12699999809E+01 0.  1.
</event>
<event>
 5   0  0.6949625E-07  0.3731900E+04  0.7818609E-02  0.8060929E-01
       -2   -1    0    0    0  501  0.00000000000E+00  0.00000000000E+00  0.14422991376E+04  0.14422991376E+04  0.25500000920E-02 0. -1.
        2   -1    0    0  501    0  0.00000000000E+00  0.00000000000E+00 -0.24140406645E+04  0.24140406645E+04  0.25500000920E-02 0.  1.
    10030    2    1    2    0    0  0.00000000000E+00  0.00000000000E+00 -0.97174152691E+03  0.38563398020E+04  0.37318996602E+04 0.  0.
        5    1    3    3  502    0 -0.11806712572E+04 -0.81190164264E+03  0.74921547421E+03  0.16169461375E+04  0.46999998093E+01 0. -1.
       -5    1    3    3    0  502  0.11806712572E+04  0.81190164264E+03 -0.17209570011E+04  0.22393936645E+04  0.46999998093E+01 0.  1.
</event>
<event>
 5   0  0.7300916E-07  0.3699752E+04  0.7818609E-02  0.8068017E-01
       -2   -1    0    0    0  501  0.00000000000E+00  0.00000000000E+00  0.19089437934E+04  0.19089437934E+04  0.25500000920E-02 0.  1.
        2   -1    0    0  501    0  0.00000000000E+00  0.00000000000E+00 -0.17926363082E+04  0.17926363082E+04  0.25500000920E-02 0. -1.
    10030    2    1    2    0    0  0.00000000000E+00  0.00000000000E+00  0.11630748514E+03  0.37015801016E+04  0.36997523995E+04 0.  0.
        1    1    3    3  502    0  0.26371364556E+02 -0.17160719905E+04  0.74874354683E+03  0.18724890986E+04  0.50400001928E-02 0.  1.
       -1    1    3    3    0  502 -0.26371364556E+02  0.17160719905E+04 -0.63243606169E+03  0.18290910031E+04  0.50400001928E-02 0. -1.
</event>
<event>
 5   0  0.7300916E-07  0.3689828E+04  0.7818609E-02  0.8070220E-01
       -2   -1    0    0    0  501  0.00000000000E+00  0.00000000000E+00  0.15308559460E+04  0.15308559460E+04  0.25500000920E-02 0. -1.
        2   -1    0    0  501    0  0.00000000000E+00  0.00000000000E+00 -0.22234015478E+04  0.22234015478E+04  0.25500000920E-02 0.  1.
    10030    2    1    2    0    0  0.00000000000E+00  0.00000000000E+00 -0.69254560179E+03  0.37542574939E+04  0.36898278984E+04 0.  0.
        1    1    3    3  502    0  0.10978333139E+04  0.14661842887E+04 -0.57097547668E+03  0.19185795132E+04  0.50400001928E-02 0. -1.
       -1    1    3    3    0  502 -0.10978333139E+04 -0.14661842887E+04 -0.12157012511E+03  0.18356779807E+04  0.50400001928E-02 0.  1.
</event>
<event>
 5   0  0.2287500E-07  0.3656454E+04  0.7818609E-02  0.8077681E-01
        3   -1    0    0  501    0  0.00000000000E+00  0.00000000000E+00  0.20680337526E+04  0.20680337551E+04  0.10100000352E+00 0.  1.
       -3   -1    0    0    0  501  0.00000000000E+00  0.00000000000E+00 -0.16162283108E+04  0.16162283140E+04  0.10100000352E+00 0. -1.
    10030    2    1    2    0    0  0.00000000000E+00  0.00000000000E+00  0.45180544178E+03  0.36842620690E+04  0.36564544077E+04 0.  0.
        4    1    3    3  502    0  0.14970938892E+04 -0.99276089858E+03 -0.11660710656E+03  0.18001286468E+04  0.12699999809E+01 0.  1.
       -4    1    3    3    0  502 -0.14970938892E+04  0.99276089858E+03  0.56841254835E+03  0.18841334222E+04  0.12699999809E+01 0. -1.
</event>
<event>
 5   0  0.2287500E-07  0.2672075E+04  0.7818609E-02  0.8344123E-01
       -3   -1    0    0    0  501  0.00000000000E+00  0.00000000000E+00  0.18854288380E+04  0.18854288407E+04  0.10100000352E+00 0.  1.
        3   -1    0    0  501    0  0.00000000000E+00  0.00000000000E+00 -0.94673220909E+03  0.94673221448E+03  0.10100000352E+00 0. -1.
    10030    2    1    2    0    0  0.00000000000E+00  0.00000000000E+00  0.93869662895E+03  0.28321610552E+04  0.26720750142E+04 0.  0.
        4    1    3    3  502    0  0.85792692055E+03 -0.10238523665E+04  0.44166174684E+03  0.14069040411E+04  0.12699999809E+01 0. -1.
       -4    1    3    3    0  502 -0.85792692055E+03  0.10238523665E+04  0.49703488211E+03  0.14252570141E+04  0.12699999809E+01 0.  1.
</event>
<event>
 5   0  0.6939921E-07  0.3651871E+04  0.7818609E-02  0.8078712E-01
        2   -1    0    0  501    0  0.00000000000E+00  0.00000000000E+00  0.27327967656E+04  0.27327967656E+04  0.25500000920E-02 0.  1.
       -2   -1    0    0    0  501  0.00000000000E+00  0.00000000000E+00 -0.12200101123E+04  0.12200101123E+04  0.25500000920E-02 0. -1.
    10030    2    1    2    0    0  0.00000000000E+00  0.00000000000E+00  0.15127866533E+04  0.39528068779E+04  0.36518705830E+04 0.  0.
        4    1    3    3  502    0  0.71393714506E+03  0.84168332921E+02  0.25731749186E+04  0.26717075682E+04  0.12699999809E+01 0.  1.
       -4    1    3    3    0  502 -0.71393714506E+03 -0.84168332921E+02 -0.10603882652E+04  0.12810993097E+04  0.12699999809E+01 0. -1.
</event>
<event>
 5   0  0.2287500E-07  0.3709276E+04  0.7818609E-02  0.8065909E-01
       -1   -1    0    0    0  501  0.00000000000E+00  0.00000000000E+00  0.12497022472E+04  0.12497022472E+04  0.50400001928E-02 0. -1.
        1   -1    0    0  501    0  0.00000000000E+00  0.00000000000E+00 -0.27524007209E+04  0.27524007209E+04  0.50400001928E-02 0.  1.
    10030    2    1    2    0    0  0.00000000000E+00  0.00000000000E+00 -0.15026984737E+04  0.40021029681E+04  0.37092755984E+04 0.  0.
        4    1    3    3  502    0 -0.12436056685E+04 -0.52436840878E+03  0.62114401363E+03  0.14857115418E+04  0.12699999809E+01 0. -1.
       -4    1    3    3    0  502  0.12436056685E+04  0.52436840878E+03 -0.21238424873E+04  0.25163914263E+04  0.12699999809E+01 0.  1.
</event>
<event>
 5   0  0.6939921E-07  0.3676337E+04  0.7818609E-02  0.8073226E-01
        2   -1    0    0  501    0  0.00000000000E+00  0.00000000000E+00  0.27974050740E+04  0.27974050740E+04  0.25500000920E-02 0.  1.
       -2   -1    0    0    0  501  0.00000000000E+00  0.00000000000E+00 -0.12078564966E+04  0.12078564966E+04  0.25500000920E-02 0. -1.
    10030    2    1    2    0    0  0.00000000000E+00  0.00000000000E+00  0.15895485774E+04  0.40052615706E+04  0.36763372491E+04 0.  0.
        4    1    3    3  502    0  0.81792137669E+03  0.15438008418E+04  0.17220508874E+03  0.17555547907E+04  0.12699999809E+01 0.  1.
       -4    1    3    3    0  502 -0.81792137669E+03 -0.15438008418E+04  0.14173434887E+04  0.22497067799E+04  0.12699999809E+01 0. -1.
</event>
<event>
 5   0  0.2287500E-07  0.3722634E+04  0.7818609E-02  0.8062964E-01
       -1   -1    0    0    0  501  0.00000000000E+00  0.00000000000E+00  0.18868761141E+04  0.18868761141E+04  0.50400001928E-02 0. -1.
        1   -1    0    0  501    0  0.00000000000E+00  0.00000000000E+00 -0.18361038272E+04  0.18361038272E+04  0.50400001928E-02 0.  1.
    10030    2    1    2    0    0  0.00000000000E+00  0.00000000000E+00  0.50772286909E+02  0.37229799413E+04  0.37226337207E+04 0.  0.
        3    1    3    3  502    0 -0.10979722526E+04  0.12632618610E+04  0.83978788728E+03  0.18725964068E+04  0.10100000352E+00 0.  1.
       -3    1    3    3    0  502  0.10979722526E+04 -0.12632618610E+04 -0.78901560038E+03  0.18503835345E+04  0.10100000352E+00 0. -1.
</event>
<event>
 5   0  0.2287500E-07  0.3679054E+04  0.7818609E-02  0.8072620E-01
        1   -1    0    0  501    0  0.00000000000E+00  0.00000000000E+00  0.16527360040E+04  0.16527360040E+04  0.50400001928E-02 0. -1.
       -1   -1    0    0    0  501  0.00000000000E+00  0.00000000000E+00 -0.20474289693E+04  0.20474289693E+04  0.50400001928E-02 0.  1.
    10030    2    1    2    0    0  0.00000000000E+00  0.00000000000E+00 -0.39469296529E+03  0.37001649734E+04  0.36790539943E+04 0.  0.
        4    1    3    3  502    0 -0.52613322788E+03 -0.50962433859E+03  0.14997378848E+04  0.16690561632E+04  0.12699999809E+01 0. -1.
       -4    1    3    3    0  502  0.52613322788E+03  0.50962433859E+03 -0.18944308501E+04  0.20311088101E+04  0.12699999809E+01 0.  1.
</event>
<event>
 5   0  0.2287500E-07  0.3702401E+04  0.7818609E-02  0.8067430E-01
       -1   -1    0    0    0  501  0.00000000000E+00  0.00000000000E+00  0.13206292312E+04  0.13206292312E+04  0.50400001928E-02 0. -1.
        1   -1    0    0  501    0  0.00000000000E+00  0.00000000000E+00 -0.25949316020E+04  0.25949316020E+04  0.50400001928E-02 0.  1.
    10030    2    1    2    0    0  0.00000000000E+00  0.00000000000E+00 -0.12743023708E+04  0.39155608332E+04  0.37024005869E+04 0.  0.
        2    1    3    3  502    0  0.14622952455E+04  0.13809565060E+03 -0.18287717633E+04  0.23455881898E+04  0.25500000920E-02 0.  1.
       -2    1    3    3    0  502 -0.14622952455E+04 -0.13809565060E+03  0.55446939252E+03  0.15699726434E+04  0.25500000920E-02 0. -1.
</event>
<event>
 5   0  0.7300916E-07  0.3703329E+04  0.7818609E-02  0.8067224E-01
       -2   -1    0    0    0  501  0.00000000000E+00  0.00000000000E+00  0.13734604599E+04  0.13734604599E+04  0.25500000920E-02 0.  1.
        2   -1    0    0  501    0  0.00000000000E+00  0.00000000000E+00 -0.24963671302E+04  0.24963671302E+04  0.25500000920E-02 0. -1.
    10030    2    1    2    0    0  0.00000000000E+00  0.00000000000E+00 -0.11229066703E+04  0.38698275901E+04  0.37033290682E+04 0.  0.
        1    1    3    3  502    0  0.17527992095E+04 -0.34964104478E+03 -0.10670533587E+04  0.20816235969E+04  0.50400001928E-02 0. -1.
       -1    1    3    3    0  502 -0.17527992095E+04  0.34964104478E+03 -0.55853311559E+02  0.17882039932E+04  0.50400001928E-02 0.  1.
</event>
<event>
 5   0  0.2411746E-07  0.3612273E+04  0.7818609E-02  0.8087686E-01
        1   -1    0    0  501    0  0.00000000000E+00  0.00000000000E+00  0.25541361847E+04  0.25541361847E+04  0.50400001928E-02 0.  1.
       -1   -1    0    0    0  501  0.00000000000E+00  0.00000000000E+00 -0.12771945796E+04  0.12771945796E+04  0.50400001928E-02 0. -1.
    10030    2    1    2    0    0  0.00000000000E+00  0.00000000000E+00  0.12769416050E+04  0.38313307643E+04  0.36122729081E+04 0.  0.
        1    1    3    3  502    0  0.61953289590E+03  0.12264585159E+04 -0.60483920870E+03  0.15012834405E+04  0.50400001928E-02 0. -1.
       -1    1    3    3    0  502 -0.61953289590E+03 -0.12264585159E+04  0.18817808137E+04  0.23300473238E+04  0.50400001928E-02 0.  1.
</event>
<event>
 5   0  0.7300916E-07  0.2647283E+04  0.7818609E-02  0.8352315E-01
        2   -1    0    0  501    0  0.00000000000E+00  0.00000000000E+00  0.16657845855E+04  0.16657845855E+04  0.25500000920E-02 0.  1.
       -2   -1    0    0    0  501  0.00000000000E+00  0.00000000000E+00 -0.10517730059E+04  0.10517730059E+04  0.25500000920E-02 0. -1.
    10030    2    1    2    0    0  0.00000000000E+00  0.00000000000E+00  0.61401157962E+03  0.27175575914E+04  0.26472833325E+04 0.  0.
        1    1    3    3  502    0  0.88967423913E+03  0.95435765753E+03  0.53587824616E+03  0.14104907958E+04  0.50400001928E-02 0.  1.
       -1    1    3    3    0  502 -0.88967423913E+03 -0.95435765753E+03  0.78133333457E+02  0.13070667956E+04  0.50400001928E-02 0. -1.
</event>
<event>
 5   0  0.7124627E-07  0.3689777E+04  0.7818609E-02  0.8070231E-01
       -2   -1    0    0    0  501  0.00000000000E+00  0.00000000000E+00  0.18746830062E+04  0.18746830062E+04  0.25500000920E-02 0. -1.
        2   -1    0    0  501    0  0.00000000000E+00  0.00000000000E+00 -0.18155673489E+04  0.18155673489E+04  0.25500000920E-02 0.  1.
    10030    2    1    2    0    0  0.00000000000E+00  0.00000000000E+00  0.59115657252E+02  0.36902503551E+04  0.36897768256E+04 0.  0.
        2    1    3    3  502    0  0.24607344304E+03 -0.56234715926E+02  0.18573313604E+04  0.18744050429E+04  0.25500000920E-02 0. -1.
       -2    1    3    3    0  502 -0.24607344304E+03  0.56234715926E+02 -0.17982157032E+04  0.18158453122E+04  0.25500000920E-02 0.  1.
</event>
<event>
 5   0  0.6939921E-07  0.3681703E+04  0.7818609E-02  0.8072029E-01
        2   -1    0    0  501    0  0.00000000000E+00  0.00000000000E+00  0.26774958543E+04  0.26774958543E+04  0.25500000920E-02 0.  1.
       -2   -1    0    0    0  501  0.00000000000E+00  0.00000000000E+00 -0.12656353704E+04  0.12656353704E+04  0.25500000920E-02 0. -1.
    10030    2    1    2    0    0  0.00000000000E+00  0.00000000000E+00  0.14118604839E+04  0.39431312248E+04  0.36817025722E+04 0.  0.
        4    1    3    3  502    0  0.70548564525E+01  0.20408111454E+03  0.26653276299E+04  0.26731389526E+04  0.12699999809E+01 0.  1.
       -4    1    3    3    0  502 -0.70548564525E+01 -0.20408111454E+03 -0.12534671460E+04  0.12699922722E+04  0.12699999809E+01 0. -1.
</event>
<event>
 5   0  0.2287500E-07  0.3760171E+04  0.7818609E-02  0.8054757E-01
       -1   -1    0    0    0  501  0.00000000000E+00  0.00000000000E+00  0.14044038479E+04  0.14044038479E+04  0.50400001928E-02 0.  1.
        1   -1    0    0  501    0  0.00000000000E+00  0.00000000000E+00 -0.25168832823E+04  0.25168832823E+04  0.50400001928E-02 0. -1.
    10030    2    1    2    0    0  0.00000000000E+00  0.00000000000E+00 -0.11124794345E+04  0.39212871302E+04  0.37601705101E+04 0.  0.
        4    1    3    3  502    0  0.14231055489E+04  0.89547173553E+03 -0.14334851793E+04  0.22095204015E+04  0.12699999809E+01 0. -1.
       -4    1    3    3    0  502 -0.14231055489E+04 -0.89547173553E+03  0.32100574479E+03  0.17117667287E+04  0.12699999809E+01 0.  1.
</event>
<event>
 5   0  0.2411746E-07  0.3686682E+04  0.7818609E-02  0.8070920E-01
        1   -1    0    0  501    0  0.00000000000E+00  0.00000000000E+00  0.22900045901E+04  0.22900045901E+04  0.50400001928E-02 0.  1.
       -1   -1    0    0    0  501  0.00000000000E+00  0.00000000000E+00 -0.14837987766E+04  0.14837987766E+04  0.50400001928E-02 0. -1.
    10030    2    1    2    0    0  0.00000000000E+00  0.00000000000E+00  0.80620581345E+03  0.37738033667E+04  0.36866819821E+04 0.  0.
        1    1    3    3  502    0 -0.81728929855E+03 -0.75387860508E+03 -0.11018828446E+04  0.15653883071E+04  0.50400001928E-02 0. -1.
       -1    1    3    3    0  502  0.81728929855E+03  0.75387860508E+03  0.19080886580E+04  0.22084150596E+04  0.50400001928E-02 0.  1.
</event>
<event>
 5   0  0.6939921E-07  0.3464362E+04  0.7818609E-02  0.8122288E-01
        2   -1    0    0  501    0  0.00000000000E+00  0.00000000000E+00  0.22770559253E+04  0.22770559253E+04  0.25500000920E-02 0. -1.
       -2   -1    0    0    0  501  0.00000000000E+00  0.00000000000E+00 -0.13176890918E+04  0.13176890918E+04  0.25500000920E-02 0.  1.
    10030    2    1    2    0    0  0.00000000000E+00  0.00000000000E+00  0.95936683350E+03  0.35947450172E+04  0.34643624258E+04 0.  0.
        4    1    3    3  502    0  0.21708825209E+03 -0.11944224721E+02 -0.13034742385E+04  0.13214827570E+04  0.12699999809E+01 0.  1.
       -4    1    3    3    0  502 -0.21708825209E+03  0.11944224721E+02  0.22628410720E+04  0.22732622602E+04  0.12699999809E+01 0. -1.
</event>
<event>
 5   0  0.7074157E-07  0.3709813E+04  0.7818609E-02  0.8065791E-01
       -2   -1    0    0    0  501  0.00000000000E+00  0.00000000000E+00  0.13231873308E+04  0.13231873308E+04  0.25500000920E-02 0. -1.
        2   -1    0    0  501    0  0.00000000000E+00  0.00000000000E+00 -0.26002959311E+04  0.26002959311E+04  0.25500000920E-02 0.  1.
    10030    2    1    2    0    0  0.00000000000E+00  0.00000000000E+00 -0.12771086003E+04  0.39234832619E+04  0.37098132742E+04 0.  0.
        3    1    3    3  502    0 -0.62253209421E+03 -0.17417671466E+04 -0.78578297126E+03  0.20096651187E+04  0.10100000352E+00 0.  1.
       -3    1    3    3    0  502  0.62253209421E+03  0.17417671466E+04 -0.49132562904E+03  0.19138181432E+04  0.10100000352E+00 0. -1.
</event>
<event>
 5   0  0.2287500E-07  0.3705070E+04  0.7818609E-02  0.8066839E-01
       -1   -1    0    0    0  501  0.00000000000E+00  0.00000000000E+00  0.16374766985E+04  0.16374766985E+04  0.50400001928E-02 0. -1.
        1   -1    0    0  501    0  0.00000000000E+00  0.00000000000E+00 -0.20958376802E+04  0.20958376802E+04  0.50400001928E-02 0.  1.
    10030    2    1    2    0    0  0.00000000000E+00  0.00000000000E+00 -0.45836098174E+03  0.37333143787E+04  0.37050696972E+04 0.  0.
        2    1    3    3  502    0 -0.83365016038E+03 -0.13975366520E+04  0.66289568540E+03  0.17571317462E+04  0.25500000920E-02 0. -1.
       -2    1    3    3    0  502  0.83365016038E+03  0.13975366520E+04 -0.11212566671E+04  0.19761826326E+04  0.25500000920E-02 0.  1.
</event>
<event>
 5   0  0.2287500E-07  0.3465266E+04  0.7818609E-02  0.8122071E-01
        1   -1    0    0  501    0  0.00000000000E+00  0.00000000000E+00  0.21558868103E+04  0.21558868104E+04  0.50400001928E-02 0.  1.
       -1   -1    0    0    0  501  0.00000000000E+00  0.00000000000E+00 -0.13924746953E+04  0.13924746953E+04  0.50400001928E-02 0. -1.
    10030    2    1    2    0    0  0.00000000000E+00  0.00000000000E+00  0.76341211502E+03  0.35483615057E+04  0.34652664137E+04 0.  0.
        3    1    3    3  502    0  0.14637571321E+04 -0.36537407656E+03  0.12541549517E+04  0.19618837404E+04  0.10100000352E+00 0.  1.
       -3    1    3    3    0  502 -0.14637571321E+04  0.36537407656E+03 -0.49074283672E+03  0.15864777653E+04  0.10100000352E+00 0. -1.
</event>
<event>
 5   0  0.7124627E-07  0.3714772E+04  0.7818609E-02  0.8064696E-01
       -2   -1    0    0    0  501  0.00000000000E+00  0.00000000000E+00  0.19373674794E+04  0.19373674794E+04  0.25500000920E-02 0. -1.
        2   -1    0    0  501    0  0.00000000000E+00  0.00000000000E+00 -0.17807064931E+04  0.17807064931E+04  0.25500000920E-02 0.  1.
    10030    2    1    2    0    0  0.00000000000E+00  0.00000000000E+00  0.15666098635E+03  0.37180739725E+04  0.37147720523E+04 0.  0.
        2    1    3    3  502    0 -0.15962013554E+04 -0.60460098656E+03 -0.65476968462E+03  0.18281478222E+04  0.25500000920E-02 0.  1.
       -2    1    3    3    0  502  0.15962013554E+04  0.60460098656E+03  0.81143067097E+03  0.18899261503E+04  0.25500000920E-02 0. -1.
</event>
<event>
 5   0  0.6939921E-07  0.3817768E+04  0.7818609E-02  0.8042353E-01
       -2   -1    0    0    0  501  0.00000000000E+00  0.00000000000E+00  0.17073061812E+04  0.17073061812E+04  0.25500000920E-02 0.  1.
        2   -1    0    0  501    0  0.00000000000E+00  0.00000000000E+00 -0.21342619289E+04  0.21342619289E+04  0.25500000920E-02 0. -1.
    10030    2    1    2    0    0  0.00000000000E+00  0.00000000000E+00 -0.42695574768E+03  0.38415681100E+04  0.38177682399E+04 0.  0.
        4    1    3    3  502    0  0.17213745923E+04 -0.81813527255E+03 -0.32073108418E+03  0.19327042848E+04  0.12699999809E+01 0.  1.
       -4    1    3    3    0  502 -0.17213745923E+04  0.81813527255E+03 -0.10622466351E+03  0.19088638252E+04  0.12699999809E+01 0. -1.
</event>
<event>
 5   0  0.2411746E-07  0.3731299E+04  0.7818609E-02  0.8061061E-01
       -1   -1    0    0    0  501  0.00000000000E+00  0.00000000000E+00  0.15453856843E+04  0.15453856843E+04  0.50400001928E-02 0.  1.
        1   -1    0    0  501    0  0.00000000000E+00  0.00000000000E+00 -0.22522840586E+04  0.22522840586E+04  0.50400001928E-02 0. -1.
    10030    2    1    2    0    0  0.00000000000E+00  0.00000000000E+00 -0.70689837432E+03  0.37976697429E+04  0.37312987236E+04 0.  0.
        1    1    3    3  502    0 -0.14372296884E+04 -0.20967974080E+03 -0.15451967164E+04  0.21206667968E+04  0.50400001928E-02 0. -1.
       -1    1    3    3    0  502  0.14372296884E+04  0.20967974080E+03  0.83829834206E+03  0.16770029461E+04  0.50400001928E-02 0.  1.
</event>
<event>
 5   0  0.2411746E-07  0.3506983E+04  0.7818609E-02  0.8112137E-01
       -1   -1    0    0    0  501  0.00000000000E+00  0.00000000000E+00  0.18820000797E+04  0.18820000797E+04  0.50400001928E-02 0. -1.
        1   -1    0    0  501    0  0.00000000000E+00  0.00000000000E+00 -0.16337583007E+04  0.16337583007E+04  0.50400001928E-02 0.  1.
    10030    2    1    2    0    0  0.00000000000E+00  0.00000000000E+00  0.24824177896E+03  0.35157583804E+04  0.35069834629E+04 0.  0.
        1    1    3    3  502    0 -0.10147479897E+04 -0.25859452817E+03 -0.12858649905E+04  0.16583224615E+04  0.50400001928E-02 0.  1.
       -1    1    3    3    0  502  0.10147479897E+04  0.25859452817E+03  0.15341067695E+04  0.18574359189E+04  0.50400001928E-02 0. -1.
</event>
<event>
 5   0  0.7074157E-07  0.3674843E+04  0.7818609E-02  0.8073560E-01
        2   -1    0    0  501    0  0.00000000000E+00  0.00000000000E+00  0.16904858361E+04  0.16904858361E+04  0.25500000920E-02 0.  1.
       -2   -1    0    0    0  501  0.00000000000E+00  0.00000000000E+00 -0.19971281888E+04  0.19971281888E+04  0.25500000920E-02 0. -1.
    10030    2    1    2    0    0  0.00000000000E+00  0.00000000000E+00 -0.30664235271E+03  0.36876140249E+04  0.36748425360E+04 0.  0.
        3    1    3    3  502    0 -0.17295709072E+04 -0.14780109786E+03  0.45114778916E+03  0.17935425909E+04  0.10100000352E+00 0.  1.
       -3    1    3    3    0  502  0.17295709072E+04  0.14780109786E+03 -0.75779014187E+03  0.18940714340E+04  0.10100000352E+00 0. -1.
</event>
<event>
 5   0  0.2287500E-07  0.3647797E+04  0.7818609E-02  0.8079630E-01
       -1   -1    0    0    0  501  0.00000000000E+00  0.00000000000E+00  0.21760256114E+04  0.21760256114E+04  0.50400001928E-02 0. -1.
        1   -1    0    0  501    0  0.00000000000E+00  0.00000000000E+00 -0.15287527705E+04  0.15287527705E+04  0.50400001928E-02 0.  1.
    10030    2    1    2    0    0  0.00000000000E+00  0.00000000000E+00  0.64727284090E+03  0.37047783819E+04  0.36477966951E+04 0.  0.
        4    1    3    3  502    0 -0.35066030446E+03  0.94981228415E+03 -0.12171302179E+04  0.15831972727E+04  0.12699999809E+01 0.  1.
       -4    1    3    3    0  502  0.35066030446E+03 -0.94981228415E+03  0.18644030588E+04  0.21215811092E+04  0.12699999809E+01 0. -1.
</event>
<event>
 5   0  0.2411746E-07  0.3774693E+04  0.7818609E-02  0.8051608E-01
       -1   -1    0    0    0  501  0.00000000000E+00  0.00000000000E+00  0.11015512934E+04  0.11015512934E+04  0.50400001928E-02 0.  1.
        1   -1    0    0  501    0  0.00000000000E+00  0.00000000000E+00 -0.32336915718E+04  0.32336915718E+04  0.50400001928E-02 0. -1.
    10030    2    1    2    0    0  0.00000000000E+00  0.00000000000E+00 -0.21321402784E+04  0.43352428652E+04  0.37746931707E+04 0.  0.
        1    1    3    3  502    0  0.81350078071E+03  0.19008397382E+03 -0.30097759945E+04  0.31235663871E+04  0.50400001928E-02 0. -1.
       -1    1    3    3    0  502 -0.81350078071E+03 -0.19008397382E+03  0.87763571612E+03  0.12116764781E+04  0.50400001928E-02 0.  1.
</event>
<event>
 5   0  0.2411746E-07  0.3677050E+04  0.7818609E-02  0.8073067E-01
        1   -1    0    0  501    0  0.00000000000E+00  0.00000000000E+00  0.23611695461E+04  0.23611695461E+04  0.50400001928E-02 0. -1.
       -1   -1    0    0    0  501  0.00000000000E+00  0.00000000000E+00 -0.14315679530E+04  0.14315679530E+04  0.50400001928E-02 0.  1.
    10030    2    1    2    0    0  0.00000000000E+00  0.00000000000E+00  0.92960159315E+03  0.37927374991E+04  0.36770502600E+04 0.  0.
        1    1    3    3  502    0 -0.97692053866E+02 -0.18262851165E+04  0.65863220548E+03  0.19438769113E+04  0.50400001928E-02 0. -1.
       -1    1    3    3    0  502  0.97692053866E+02  0.18262851165E+04  0.27096938767E+03  0.18488605878E+04  0.50400001928E-02 0.  1.
</event>
<event>
 5   0  0.2287500E-07  0.3704532E+04  0.7818609E-02  0.8066958E-01
       -1   -1    0    0    0  501  0.00000000000E+00  0.00000000000E+00  0.14610758906E+04  0.14610758906E+04  0.50400001928E-02 0.  1.
        1   -1    0    0  501    0  0.00000000000E+00  0.00000000000E+00 -0.23481932197E+04  0.23481932197E+04  0.50400001928E-02 0. -1.
    10030    2    1    2    0    0  0.00000000000E+00  0.00000000000E+00 -0.88711732915E+03  0.38092691103E+04  0.37045315492E+04 0.  0.
        3    1    3    3  502    0  0.91096691147E+03 -0.61006936909E+02 -0.21007395324E+04  0.22905652476E+04  0.10100000352E+00 0. -1.
       -3    1    3    3    0  502 -0.91096691147E+03  0.61006936909E+02  0.12136222033E+04  0.15187038627E+04  0.10100000352E+00 0.  1.
</event>
<event>
 5   0  0.6949625E-07  0.3706107E+04  0.7818609E-02  0.8066610E-01
        2   -1    0    0  501    0  0.00000000000E+00  0.00000000000E+00  0.17194137472E+04  0.17194137472E+04  0.25500000920E-02 0. -1.
       -2   -1    0    0    0  501  0.00000000000E+00  0.00000000000E+00 -0.19970805466E+04  0.19970805466E+04  0.25500000920E-02 0.  1.
    10030    2    1    2    0    0  0.00000000000E+00  0.00000000000E+00 -0.27766679939E+03  0.37164942939E+04  0.37061072549E+04 0.  0.
        5    1    3    3  502    0  0.14723902332E+04 -0.11950093209E+03 -0.12607057333E+04  0.19420644962E+04  0.46999998093E+01 0.  1.
       -5    1    3    3    0  502 -0.14723902332E+04  0.11950093209E+03  0.98303893386E+03  0.17744297977E+04  0.46999998093E+01 0. -1.
</event>
<event>
 5   0  0.2287500E-07  0.3703601E+04  0.7818609E-02  0.8067164E-01
        1   -1    0    0  501    0  0.00000000000E+00  0.00000000000E+00  0.19041347667E+04  0.19041347667E+04  0.50400001928E-02 0.  1.
       -1   -1    0    0    0  501  0.00000000000E+00  0.00000000000E+00 -0.18009046315E+04  0.18009046315E+04  0.50400001928E-02 0. -1.
    10030    2    1    2    0    0  0.00000000000E+00  0.00000000000E+00  0.10323013522E+03  0.37050393983E+04  0.37036010155E+04 0.  0.
        4    1    3    3  502    0 -0.14012007431E+03  0.11522640062E+04 -0.13917957867E+04  0.18123032583E+04  0.12699999809E+01 0. -1.
       -4    1    3    3    0  502  0.14012007431E+03 -0.11522640062E+04  0.14950259220E+04  0.18927361400E+04  0.12699999809E+01 0.  1.
</event>
<event>
 5   0  0.2411746E-07  0.3703422E+04  0.7818609E-02  0.8067204E-01
       -1   -1    0    0    0  501  0.00000000000E+00  0.00000000000E+00  0.13211729352E+04  0.13211729352E+04  0.50400001928E-02 0. -1.
        1   -1    0    0  501    0  0.00000000000E+00  0.00000000000E+00 -0.25952957502E+04  0.25952957502E+04  0.50400001928E-02 0.  1.
    10030    2    1    2    0    0  0.00000000000E+00  0.00000000000E+00 -0.12741228150E+04  0.39164686854E+04  0.37034224734E+04 0.  0.
        1    1    3    3  502    0  0.14161600233E+04  0.11857214811E+04 -0.77651813317E+03  0.20036030180E+04  0.50400001928E-02 0. -1.
       -1    1    3    3    0  502 -0.14161600233E+04 -0.11857214811E+04 -0.49760468183E+03  0.19128656675E+04  0.50400001928E-02 0.  1.
</event>
<event>
 5   0  0.2287500E-07  0.3239775E+04  0.7818609E-02  0.8178391E-01
       -1   -1    0    0    0  501  0.00000000000E+00  0.00000000000E+00  0.12780666742E+04  0.12780666742E+04  0.50400001928E-02 0.  1.
        1   -1    0    0  501    0  0.00000000000E+00  0.00000000000E+00 -0.20531285992E+04  0.20531285992E+04  0.50400001928E-02 0. -1.
    10030    2    1    2    0    0  0.00000000000E+00  0.00000000000E+00 -0.77506192495E+03  0.33311952734E+04  0.32397748320E+04 0.  0.
        3    1    3    3  502    0  0.72246651536E+03 -0.14491872630E+04 -0.34231693306E+03  0.16550777873E+04  0.10100000352E+00 0. -1.
       -3    1    3    3    0  502 -0.72246651536E+03  0.14491872630E+04 -0.43274499189E+03  0.16761174861E+04  0.10100000352E+00 0.  1.
</event>
<event>
 5   0  0.6949625E-07  0.3668725E+04  0.7818609E-02  0.8074928E-01
       -2   -1    0    0    0  501  0.00000000000E+00  0.00000000000E+00  0.19324474022E+04  0.19324474022E+04  0.25500000920E-02 0.  1.
        2   -1    0    0  501    0  0.00000000000E+00  0.00000000000E+00 -0.17412561524E+04  0.17412561524E+04  0.25500000920E-02 0. -1.
    10030    2    1    2    0    0  0.00000000000E+00  0.00000000000E+00  0.19119124983E+03  0.36737035546E+04  0.36687250801E+04 0.  0.
        5    1    3    3  502    0 -0.24319622875E+03  0.74807843006E+03 -0.15637886236E+04  0.17504921286E+04  0.46999998093E+01 0. -1.
       -5    1    3    3    0  502  0.24319622875E+03 -0.74807843006E+03  0.17549798734E+04  0.19232114260E+04  0.46999998093E+01 0.  1.
</event>
<event>
 5   0  0.6939921E-07  0.3738001E+04  0.7818609E-02  0.8059592E-01
        2   -1    0    0  501    0  0.00000000000E+00  0.00000000000E+00  0.27058544794E+04  0.27058544794E+04  0.25500000920E-02 0. -1.
       -2   -1    0    0    0  501  0.00000000000E+00  0.00000000000E+00 -0.12909648513E+04  0.12909648513E+04  0.25500000920E-02 0.  1.
    10030    2    1    2    0    0  0.00000000000E+00  0.00000000000E+00  0.14148896281E+04  0.39968193307E+04  0.37380010839E+04 0.  0.
        4    1    3    3  502    0 -0.10478765711E+04  0.11779708281E+04  0.17806871629E+04  0.23783416418E+04  0.12699999809E+01 0. -1.
       -4    1    3    3    0  502  0.10478765711E+04 -0.11779708281E+04 -0.36579753482E+03  0.16184776889E+04  0.12699999809E+01 0.  1.
</event>
<event>
 5   0  0.2345471E-07  0.3520173E+04  0.7818609E-02  0.8109026E-01
        1   -1    0    0  501    0  0.00000000000E+00  0.00000000000E+00  0.26506972579E+04  0.26506972579E+04  0.50400001928E-02 0. -1.
       -1   -1    0    0    0  501  0.00000000000E+00  0.00000000000E+00 -0.11687130629E+04  0.11687130629E+04  0.50400001928E-02 0.  1.
    10030    2    1    2    0    0  0.00000000000E+00  0.00000000000E+00  0.14819841950E+04  0.38194103208E+04  0.35201730135E+04 0.  0.
        5    1    3    3  502    0  0.89152191528E+03  0.46140822150E+03 -0.82764861263E+03  0.13010508016E+04  0.46999998093E+01 0.  1.
       -5    1    3    3    0  502 -0.89152191528E+03 -0.46140822150E+03  0.23096328076E+04  0.25183595193E+04  0.46999998093E+01 0. -1.
</event>
<event>
 5   0  0.6939921E-07  0.3662712E+04  0.7818609E-02  0.8076276E-01
       -2   -1    0    0    0  501  0.00000000000E+00  0.00000000000E+00  0.17418726166E+04  0.17418726166E+04  0.25500000920E-02 0. -1.
        2   -1    0    0  501    0  0.00000000000E+00  0.00000000000E+00 -0.19254361204E+04  0.19254361204E+04  0.25500000920E-02 0.  1.
    10030    2    1    2    0    0  0.00000000000E+00  0.00000000000E+00 -0.18356350379E+03  0.36673087370E+04  0.36627118113E+04 0.  0.
        4    1    3    3  502    0  0.24017644122E+03 -0.11673125798E+04 -0.14840518310E+04  0.19033430673E+04  0.12699999809E+01 0.  1.
       -4    1    3    3    0  502 -0.24017644122E+03  0.11673125798E+04  0.13004883272E+04  0.17639656697E+04  0.12699999809E+01 0. -1.
</event>
<event>
 5   0  0.2287500E-07  0.3699550E+04  0.7818609E-02  0.8068062E-01
        1   -1    0    0  501    0  0.00000000000E+00  0.00000000000E+00  0.14523493473E+04  0.14523493473E+04  0.50400001928E-02 0.  1.
       -1   -1    0    0    0  501  0.00000000000E+00  0.00000000000E+00 -0.23559530453E+04  0.23559530453E+04  0.50400001928E-02 0. -1.
    10030    2    1    2    0    0  0.00000000000E+00  0.00000000000E+00 -0.90360369794E+03  0.38083023926E+04  0.36995496308E+04 0.  0.
        3    1    3    3  502    0 -0.55307807926E+03  0.44862974363E+03  0.13055746313E+04  0.14871748844E+04  0.10100000352E+00 0.  1.
       -3    1    3    3    0  502  0.55307807926E+03 -0.44862974363E+03 -0.22091783293E+04  0.23211275082E+04  0.10100000352E+00 0. -1.
</event>
<event>
 5   0  0.7124627E-07  0.3014893E+04  0.7818609E-02  0.8239491E-01
       -2   -1    0    0    0  501  0.00000000000E+00  0.00000000000E+00  0.16436324110E+04  0.16436324110E+04  0.25500000920E-02 0.  1.
        2   -1    0    0  501    0  0.00000000000E+00  0.00000000000E+00 -0.13825448504E+04  0.13825448504E+04  0.25500000920E-02 0. -1.
    10030    2    1    2    0    0  0.00000000000E+00  0.00000000000E+00  0.26108756060E+03  0.30261772614E+04  0.30148933817E+04 0.  0.
        2    1    3    3  502    0  0.27249395116E+03  0.30415666818E+03  0.15870541081E+04  0.16387510409E+04  0.25500000920E-02 0.  1.
       -2    1    3    3    0  502 -0.27249395116E+03 -0.30415666818E+03 -0.13259665475E+04  0.13874262205E+04  0.25500000920E-02 0. -1.
</event>
<event>
 5   0  0.7300916E-07  0.3697600E+04  0.7818609E-02  0.8068494E-01
       -2   -1    0    0    0  501  0.00000000000E+00  0.00000000000E+00  0.12831165219E+04  0.12831165219E+04  0.25500000920E-02 0. -1.
        2   -1    0    0  501    0  0.00000000000E+00  0.00000000000E+00 -0.26638743271E+04  0.26638743271E+04  0.25500000920E-02 0.  1.
    10030    2    1    2    0    0  0.00000000000E+00  0.00000000000E+00 -0.13807578052E+04  0.39469908490E+04  0.36975998493E+04 0.  0.
        1    1    3    3  502    0  0.16647038546E+04 -0.59997687946E+03 -0.12620860509E+04  0.21734931284E+04  0.50400001928E-02 0.  1.
       -1    1    3    3    0  502 -0.16647038546E+04  0.59997687946E+03 -0.11867175435E+03  0.17734977206E+04  0.50400001928E-02 0. -1.
</event>
<event>
 5   0  0.2287500E-07  0.3765117E+04  0.7818609E-02  0.8053682E-01
       -1   -1    0    0    0  501  0.00000000000E+00  0.00000000000E+00  0.14643255332E+04  0.14643255332E+04  0.50400001928E-02 0.  1.
        1   -1    0    0  501    0  0.00000000000E+00  0.00000000000E+00 -0.24202447781E+04  0.24202447781E+04  0.50400001928E-02 0. -1.
    10030    2    1    2    0    0  0.00000000000E+00  0.00000000000E+00 -0.95591924489E+03  0.38845703113E+04  0.37651168509E+04 0.  0.
        4    1    3    3  502    0  0.17051450284E+04 -0.63720024624E+03 -0.97327520282E+03  0.20641729470E+04  0.12699999809E+01 0. -1.
       -4    1    3    3    0  502 -0.17051450284E+04  0.63720024624E+03  0.17355957935E+02  0.18203973643E+04  0.12699999809E+01 0.  1.
</event>
<event>
 5   0  0.7300916E-07  0.3691712E+04  0.7818609E-02  0.8069801E-01
        2   -1    0    0  501    0  0.00000000000E+00  0.00000000000E+00  0.19562752353E+04  0.19562752353E+04  0.25500000920E-02 0.  1.
       -2   -1    0    0    0  501  0.00000000000E+00  0.00000000000E+00 -0.17416692384E+04  0.17416692384E+04  0.25500000920E-02 0. -1.
    10030    2    1    2    0    0  0.00000000000E+00  0.00000000000E+00  0.21460599690E+03  0.36979444737E+04  0.36917120144E+04 0.  0.
        1    1    3    3  502    0  0.96725455867E+03 -0.13697783128E+04  0.88016917717E+03  0.18938246455E+04  0.50400001928E-02 0.  1.
       -1    1    3    3    0  502 -0.96725455867E+03  0.13697783128E+04 -0.66556318026E+03  0.18041198282E+04  0.50400001928E-02 0. -1.
</event>
<event>
 5   0  0.2287500E-07  0.3336996E+04  0.7818609E-02  0.8153545E-01
        1   -1    0    0  501    0  0.00000000000E+00  0.00000000000E+00  0.21589079783E+04  0.21589079783E+04  0.50400001928E-02 0. -1.
       -1   -1    0    0    0  501  0.00000000000E+00  0.00000000000E+00 -0.12894881605E+04  0.12894881605E+04  0.50400001928E-02 0.  1.
    10030    2    1    2    0    0  0.00000000000E+00  0.00000000000E+00  0.86941981781E+03  0.34483961388E+04  0.33369964205E+04 0.  0.
        2    1    3    3  502    0 -0.50829175746E+03 -0.49075558709E+03  0.19966865972E+04  0.21180082447E+04  0.25500000920E-02 0. -1.
       -2    1    3    3    0  502  0.50829175746E+03  0.49075558709E+03 -0.11272667794E+04  0.13303878942E+04  0.25500000920E-02 0.  1.
</event>
<event>
 5   0  0.6939921E-07  0.3818261E+04  0.7818609E-02  0.8042247E-01
        2   -1    0    0  501    0  0.00000000000E+00  0.00000000000E+00  0.20454186694E+04  0.20454186694E+04  0.25500000920E-02 0. -1.
       -2   -1    0    0    0  501  0.00000000000E+00  0.00000000000E+00 -0.17819232424E+04  0.17819232424E+04  0.25500000920E-02 0.  1.
    10030    2    1    2    0    0  0.00000000000E+00  0.00000000000E+00  0.26349542699E+03  0.38273419118E+04  0.38182608960E+04 0.  0.
        4    1    3    3  502    0  0.17790087214E+04 -0.67939940654E+03 -0.39325134919E+01  0.19043299772E+04  0.12699999809E+01 0.  1.
       -4    1    3    3    0  502 -0.17790087214E+04  0.67939940654E+03  0.26742794048E+03  0.19230119346E+04  0.12699999809E+01 0. -1.
</event>
<event>
 5   0  0.7074157E-07  0.3728946E+04  0.7818609E-02  0.8061577E-01
       -2   -1    0    0    0  501  0.00000000000E+00  0.00000000000E+00  0.22265429703E+04  0.22265429703E+04  0.25500000920E-02 0. -1.
        2   -1    0    0  501    0  0.00000000000E+00  0.00000000000E+00 -0.15612811189E+04  0.15612811189E+04  0.25500000920E-02 0.  1.
    10030    2    1    2    0    0  0.00000000000E+00  0.00000000000E+00  0.66526185143E+03  0.37878240892E+04  0.37289459636E+04 0.  0.
        3    1    3    3  502    0  0.14937297578E+04 -0.10096702571E+04  0.81510085324E+03  0.19786490413E+04  0.10100000352E+00 0. -1.
       -3    1    3    3    0  502 -0.14937297578E+04  0.10096702571E+04 -0.14983900181E+03  0.18091750479E+04  0.10100000352E+00 0.  1.
</event>
<event>
 5   0  0.2287500E-07  0.3528893E+04  0.7818609E-02  0.8106977E-01
       -1   -1    0    0    0  501  0.00000000000E+00  0.00000000000E+00  0.13995374220E+04  0.13995374220E+04  0.50400001928E-02 0.  1.
        1   -1    0    0  501    0  0.00000000000E+00  0.00000000000E+00 -0.22245007755E+04  0.22245007755E+04  0.50400001928E-02 0. -1.
    10030    2    1    2    0    0  0.00000000000E+00  0.00000000000E+00 -0.82496335356E+03  0.36240381975E+04  0.35288933566E+04 0.  0.
        2    1    3    3  502    0  0.11889633585E+04 -0.12994818783E+04 -0.30484619340E+03  0.17875173346E+04  0.25500000920E-02 0. -1.
       -2    1    3    3    0  502 -0.11889633585E+04  0.12994818783E+04 -0.52011716016E+03  0.18365208629E+04  0.25500000920E-02 0.  1.
</event>
<event>
 5   0  0.2287500E-07  0.3941978E+04  0.7818609E-02  0.8016355E-01
       -1   -1    0    0    0  501  0.00000000000E+00  0.00000000000E+00  0.21297782964E+04  0.21297782964E+04  0.50400001928E-02 0.  1.
        1   -1    0    0  501    0  0.00000000000E+00  0.00000000000E+00 -0.18240386382E+04  0.18240386382E+04  0.50400001928E-02 0. -1.
    10030    2    1    2    0    0  0.00000000000E+00  0.00000000000E+00  0.30573965821E+03  0.39538169346E+04  0.39419781346E+04 0.  0.
        4    1    3    3  502    0  0.17491924604E+03 -0.20785816338E+03  0.21109096011E+04  0.21283192232E+04  0.12699999809E+01 0.  1.
       -4    1    3    3    0  502 -0.17491924604E+03  0.20785816338E+03 -0.18051699429E+04  0.18254977114E+04  0.12699999809E+01 0. -1.
</event>
<event>
 5   0  0.2287500E-07  0.3280481E+04  0.7818609E-02  0.8167880E-01
        1   -1    0    0  501    0  0.00000000000E+00  0.00000000000E+00  0.22035181492E+04  0.22035181492E+04  0.50400001928E-02 0. -1.
       -1   -1    0    0    0  501  0.00000000000E+00  0.00000000000E+00 -0.12209516866E+04  0.12209516866E+04  0.50400001928E-02 0.  1.
    10030    2    1    2    0    0  0.00000000000E+00  0.00000000000E+00  0.98256646263E+03  0.34244698358E+04  0.32804811847E+04 0.  0.
        3    1    3    3  502    0  0.15937836609E+04  0.17497955566E+03  0.13023373170E+03  0.16086407423E+04  0.10100000352E+00 0.  1.
       -3    1    3    3    0  502 -0.15937836609E+04 -0.17497955566E+03  0.85233273093E+03  0.18158290936E+04  0.10100000352E+00 0. -1.
</event>
<event>
 5   0  0.2287500E-07  0.3697181E+04  0.7818609E-02  0.8068587E-01
        1   -1    0    0  501    0  0.00000000000E+00  0.00000000000E+00  0.10957431626E+04  0.10957431626E+04  0.50400001928E-02 0. -1.
       -1   -1    0    0    0  501  0.00000000000E+00  0.00000000000E+00 -0.31186925647E+04  0.31186925647E+04  0.50400001928E-02 0.  1.
    10030    2    1    2    0    0  0.00000000000E+00  0.00000000000E+00 -0.20229494021E+04  0.42144357272E+04  0.36971805765E+04 0.  0.
        3    1    3    3  502    0 -0.53408308156E+03  0.25237296122E+03 -0.30082130718E+04  0.30656618772E+04  0.10100000352E+00 0.  1.
       -3    1    3    3    0  502  0.53408308156E+03 -0.25237296122E+03  0.98526366970E+03  0.11487738501E+04  0.10100000352E+00 0. -1.
</event>
<event>
 5   0  0.7300916E-07  0.3684092E+04  0.7818609E-02  0.8071496E-01
        2   -1    0    0  501    0  0.00000000000E+00  0.00000000000E+00  0.24712874470E+04  0.24712874470E+04  0.25500000920E-02 0. -1.
       -2   -1    0    0    0  501  0.00000000000E+00  0.00000000000E+00 -0.13730225626E+04  0.13730225626E+04  0.25500000920E-02 0.  1.
    10030    2    1    2    0    0  0.00000000000E+00  0.00000000000E+00  0.10982648844E+04  0.38443100095E+04  0.36840919768E+04 0.  0.
        1    1    3    3  502    0 -0.16418257013E+03 -0.30310768151E+03 -0.13390649224E+04  0.13827237791E+04  0.50400001928E-02 0.  1.
       -1    1    3    3    0  502  0.16418257013E+03  0.30310768151E+03  0.24373298068E+04  0.24615862304E+04  0.50400001928E-02 0. -1.
</event>
<event>
 5   0  0.6949625E-07  0.3731650E+04  0.7818609E-02  0.8060984E-01
        2   -1    0    0  501    0  0.00000000000E+00  0.00000000000E+00  0.22963657213E+04  0.22963657213E+04  0.25500000920E-02 0.  1.
       -2   -1    0    0    0  501  0.00000000000E+00  0.00000000000E+00 -0.15160050523E+04  0.15160050523E+04  0.25500000920E-02 0. -1.
    10030    2    1    2    0    0  0.00000000000E+00  0.00000000000E+00  0.78036066895E+03  0.38123707736E+04  0.37316495202E+04 0.  0.
        5    1    3    3  502    0 -0.27080443204E+02 -0.11477663197E+04 -0.11124097547E+04  0.15986176614E+04  0.46999998093E+01 0. -1.
       -5    1    3    3    0  502  0.27080443204E+02  0.11477663197E+04  0.18927704236E+04  0.22137531122E+04  0.46999998093E+01 0.  1.
</event>
<event>
 5   0  0.7124627E-07  0.3658544E+04  0.7818609E-02  0.8077212E-01
       -2   -1    0    0    0  501  0.00000000000E+00  0.00000000000E+00  0.12022946517E+04  0.12022946517E+04  0.25500000920E-02 0.  1.
        2   -1    0    0  501    0  0.00000000000E+00  0.00000000000E+00 -0.27832076055E+04  0.27832076055E+04  0.25500000920E-02 0. -1.
    10030    2    1    2    0    0  0.00000000000E+00  0.00000000000E+00 -0.15809129538E+04  0.39855022572E+04  0.36585437642E+04 0.  0.
        2    1    3    3  502    0 -0.14890403719E+04 -0.94544615649E+03 -0.13186889439E+04  0.22022829507E+04  0.25500000920E-02 0.  1.
       -2    1    3    3    0  502  0.14890403719E+04  0.94544615649E+03 -0.26222400988E+03  0.17832193066E+04  0.25500000920E-02 0. -1.
</event>
<event>
 5   0  0.2411746E-07  0.2748186E+04  0.7818609E-02  0.8319537E-01
        1   -1    0    0  501    0  0.00000000000E+00  0.00000000000E+00  0.13100120138E+04  0.13100120138E+04  0.50400001928E-02 0.  1.
       -1   -1    0    0    0  501  0.00000000000E+00  0.00000000000E+00 -0.14413090830E+04  0.14413090831E+04  0.50400001928E-02 0. -1.
    10030    2    1    2    0    0  0.00000000000E+00  0.00000000000E+00 -0.13129706925E+03  0.27513210969E+04  0.27481864670E+04 0.  0.
        1    1    3    3  502    0  0.11174836512E+04 -0.21985849484E+03  0.70400968911E+03  0.13389313316E+04  0.50400001928E-02 0.  1.
       -1    1    3    3    0  502 -0.11174836512E+04  0.21985849484E+03 -0.83530675835E+03  0.14123897652E+04  0.50400001928E-02 0. -1.
</event>
<event>
 5   0  0.7124627E-07  0.3448897E+04  0.7818609E-02  0.8126009E-01
       -2   -1    0    0    0  501  0.00000000000E+00  0.00000000000E+00  0.14407612748E+04  0.14407612748E+04  0.25500000920E-02 0.  1.
        2   -1    0    0  501    0  0.00000000000E+00  0.00000000000E+00 -0.20639934846E+04  0.20639934846E+04  0.25500000920E-02 0. -1.
    10030    2    1    2    0    0  0.00000000000E+00  0.00000000000E+00 -0.62323220980E+03  0.35047547595E+04  0.34488965680E+04 0.  0.
        2    1    3    3  502    0  0.25045820826E+03  0.14129674508E+04  0.66017520703E+03  0.15795688130E+04  0.25500000920E-02 0.  1.
       -2    1    3    3    0  502 -0.25045820826E+03 -0.14129674508E+04 -0.12834074168E+04  0.19251859465E+04  0.25500000920E-02 0. -1.
</event>
<event>
 5   0  0.2411746E-07  0.3636124E+04  0.7818609E-02  0.8082267E-01
       -1   -1    0    0    0  501  0.00000000000E+00  0.00000000000E+00  0.14930219393E+04  0.14930219393E+04  0.50400001928E-02 0.  1.
        1   -1    0    0  501    0  0.00000000000E+00  0.00000000000E+00 -0.22138652511E+04  0.22138652511E+04  0.50400001928E-02 0. -1.
    10030    2    1    2    0    0  0.00000000000E+00  0.00000000000E+00 -0.72084331175E+03  0.37068871904E+04  0.36361239751E+04 0.  0.
        1    1    3    3  502    0  0.54931856942E+03 -0.12542533940E+04  0.85886707901E+03  0.16163400405E+04  0.50400001928E-02 0. -1.
       -1    1    3    3    0  502 -0.54931856942E+03  0.12542533940E+04 -0.15797103908E+04  0.20905471499E+04  0.50400001928E-02 0.  1.
</event>
<event>
 5   0  0.2345471E-07  0.3715439E+04  0.7818609E-02  0.8064549E-01
        1   -1    0    0  501    0  0.00000000000E+00  0.00000000000E+00  0.33303379850E+04  0.33303379850E+04  0.50400001928E-02 0.  1.
       -1   -1    0    0    0  501  0.00000000000E+00  0.00000000000E+00 -0.10362679106E+04  0.10362679106E+04  0.50400001928E-02 0. -1.
    10030    2    1    2    0    0  0.00000000000E+00  0.00000000000E+00  0.22940700744E+04  0.43666058956E+04  0.37154393470E+04 0.  0.
        5    1    3    3  502    0  0.10406957919E+04  0.12330354461E+04  0.22290887100E+04  0.27517780997E+04  0.46999998093E+01 0.  1.
       -5    1    3    3    0  502 -0.10406957919E+04 -0.12330354461E+04  0.64981364345E+02  0.16148277959E+04  0.46999998093E+01 0. -1.
</event>
<event>
 5   0  0.6939921E-07  0.3689326E+04  0.7818609E-02  0.8070331E-01
        2   -1    0    0  501    0  0.00000000000E+00  0.00000000000E+00  0.11445783857E+04  0.11445783857E+04  0.25500000920E-02 0.  1.
       -2   -1    0    0    0  501  0.00000000000E+00  0.00000000000E+00 -0.29729567918E+04  0.29729567918E+04  0.25500000920E-02 0. -1.
    10030    2    1    2    0    0  0.00000000000E+00  0.00000000000E+00 -0.18283784061E+04  0.41175351775E+04  0.36893262721E+04 0.  0.
        4    1    3    3  502    0 -0.77337080813E+03  0.65444504116E+03  0.80628504086E+03  0.12947964700E+04  0.12699999809E+01 0.  1.
       -4    1    3    3    0  502  0.77337080813E+03 -0.65444504116E+03 -0.26346634470E+04  0.28227387074E+04  0.12699999809E+01 0. -1.
</event>
<event>
 5   0  0.2287500E-07  0.3617762E+04  0.7818609E-02  0.8086435E-01
        1   -1    0    0  501    0  0.00000000000E+00  0.00000000000E+00  0.19257689525E+04  0.19257689525E+04  0.50400001928E-02 0. -1.
       -1   -1    0    0    0  501  0.00000000000E+00  0.00000000000E+00 -0.16990878806E+04  0.16990878806E+04  0.50400001928E-02 0.  1.
    10030    2    1    2    0    0  0.00000000000E+00  0.00000000000E+00  0.22668107189E+03  0.36248568330E+04  0.36177621193E+04 0.  0.
        3    1    3    3  502    0  0.32830264398E+03  0.19955954318E+03 -0.16577355814E+04  0.17016738540E+04  0.10100000352E+00 0.  1.
       -3    1    3    3    0  502 -0.32830264398E+03 -0.19955954318E+03  0.18844166533E+04  0.19231829790E+04  0.10100000352E+00 0. -1.
</event>
<event>
 5   0  0.2287500E-07  0.3728891E+04  0.7818609E-02  0.8061589E-01
       -3   -1    0    0    0  501  0.00000000000E+00  0.00000000000E+00  0.12375436329E+04  0.12375436370E+04  0.10100000352E+00 0. -1.
        3   -1    0    0  501    0  0.00000000000E+00  0.00000000000E+00 -0.28089170878E+04  0.28089170896E+04  0.10100000352E+00 0.  1.
    10030    2    1    2    0    0  0.00000000000E+00  0.00000000000E+00 -0.15713734549E+04  0.40464607267E+04  0.37288912397E+04 0.  0.
        5    1    3    3  502    0 -0.13115729098E+04 -0.11459104183E+04 -0.63582304302E+02  0.17428135253E+04  0.46999998093E+01 0.  1.
       -5    1    3    3    0  502  0.13115729098E+04  0.11459104183E+04 -0.15077911506E+04  0.23036472014E+04  0.46999998093E+01 0. -1.
</event>
<event>
 5   0  0.2411746E-07  0.3708498E+04  0.7818609E-02  0.8066081E-01
       -1   -1    0    0    0  501  0.00000000000E+00  0.00000000000E+00  0.16334377728E+04  0.16334377728E+04  0.50400001928E-02 0. -1.
        1   -1    0    0  501    0  0.00000000000E+00  0.00000000000E+00 -0.21049097793E+04  0.21049097793E+04  0.50400001928E-02 0.  1.
    10030    2    1    2    0    0  0.00000000000E+00  0.00000000000E+00 -0.47147200652E+03  0.37383475521E+04  0.37084978856E+04 0.  0.
        1    1    3    3  502    0  0.40256417120E+03  0.12149982938E+04 -0.15881607585E+04  0.20397385521E+04  0.50400001928E-02 0.  1.
       -1    1    3    3    0  502 -0.40256417120E+03 -0.12149982938E+04  0.11166887520E+04  0.16986090000E+04  0.50400001928E-02 0. -1.
</event>
<event>
 5   0  0.2287500E-07  0.3664310E+04  0.7818609E-02  0.8075918E-01
        1   -1    0    0  501    0  0.00000000000E+00  0.00000000000E+00  0.19241217900E+04  0.19241217900E+04  0.50400001928E-02 0. -1.
       -1   -1    0    0    0  501  0.00000000000E+00  0.00000000000E+00 -0.17445839090E+04  0.17445839090E+04  0.50400001928E-02 0.  1.
    10030    2    1    2    0    0  0.00000000000E+00  0.00000000000E+00  0.17953788095E+03  0.36687056990E+04  0.36643099835E+04 0.  0.
        2    1    3    3  502    0  0.11082060451E+04  0.14439219345E+04 -0.11967264214E+03  0.18241032680E+04  0.25500000920E-02 0.  1.
       -2    1    3    3    0  502 -0.11082060451E+04 -0.14439219345E+04  0.29921052309E+03  0.18446024310E+04  0.25500000920E-02 0. -1.
</event>
<event>
 5   0  0.2287500E-07  0.3729735E+04  0.7818609E-02  0.8061404E-01
       -1   -1    0    0    0  501  0.00000000000E+00  0.00000000000E+00  0.13670348430E+04  0.13670348430E+04  0.50400001928E-02 0. -1.
        1   -1    0    0  501    0  0.00000000000E+00  0.00000000000E+00 -0.25439956988E+04  0.25439956988E+04  0.50400001928E-02 0.  1.
    10030    2    1    2    0    0  0.00000000000E+00  0.00000000000E+00 -0.11769608558E+04  0.39110305418E+04  0.37297349829E+04 0.  0.
        4    1    3    3  502    0  0.12383993003E+04  0.44056401422E+03 -0.19756585057E+04  0.23729638896E+04  0.12699999809E+01 0.  1.
       -4    1    3    3    0  502 -0.12383993003E+04 -0.44056401422E+03  0.79869764983E+03  0.15380666521E+04  0.12699999809E+01 0. -1.
</event>
<event>
 5   0  0.2287500E-07  0.3679767E+04  0.7818609E-02  0.8072461E-01
        3   -1    0    0  501    0  0.00000000000E+00  0.00000000000E+00  0.18778161901E+04  0.18778161928E+04  0.10100000352E+00 0. -1.
       -3   -1    0    0    0  501  0.00000000000E+00  0.00000000000E+00 -0.18027169163E+04  0.18027169191E+04  0.10100000352E+00 0.  1.
    10030    2    1    2    0    0  0.00000000000E+00  0.00000000000E+00  0.75099273792E+02  0.36805331120E+04  0.36797668523E+04 0.  0.
        2    1    3    3  502    0  0.11922372731E+04 -0.10613837154E+04 -0.87763046777E+03  0.18215928043E+04  0.25500000920E-02 0. -1.
       -2    1    3    3    0  502 -0.11922372731E+04  0.10613837154E+04  0.95272974156E+03  0.18589403076E+04  0.25500000920E-02 0.  1.
</event>
<event>
 5   0  0.7300916E-07  0.3395565E+04  0.7818609E-02  0.8138996E-01
       -2   -1    0    0    0  501  0.00000000000E+00  0.00000000000E+00  0.20856829019E+04  0.20856829019E+04  0.25500000920E-02 0. -1.
        2   -1    0    0  501    0  0.00000000000E+00  0.00000000000E+00 -0.13820245478E+04  0.13820245478E+04  0.25500000920E-02 0.  1.
    10030    2    1    2    0    0  0.00000000000E+00  0.00000000000E+00  0.70365835412E+03  0.34677074498E+04  0.33955647362E+04 0.  0.
        1    1    3    3  502    0 -0.77229609840E+03 -0.12838654502E+04  0.11673651907E+04  0.18993402134E+04  0.50400001928E-02 0. -1.
       -1    1    3    3    0  502  0.77229609840E+03  0.12838654502E+04 -0.46370683653E+03  0.15683672364E+04  0.50400001928E-02 0.  1.
</event>
<event>
 5   0  0.2287500E-07  0.2692304E+04  0.7818609E-02  0.8337506E-01
       -1   -1    0    0    0  501  0.00000000000E+00  0.00000000000E+00  0.87004208574E+03  0.87004208576E+03  0.50400001928E-02 0.  1.
        1   -1    0    0  501    0  0.00000000000E+00  0.00000000000E+00 -0.20828025462E+04  0.20828025462E+04  0.50400001928E-02 0. -1.
    10030    2    1    2    0    0  0.00000000000E+00  0.00000000000E+00 -0.12127604605E+04  0.29528446320E+04  0.26923044936E+04 0.  0.
        2    1    3    3  502    0 -0.10397791508E+03 -0.71950939529E+03  0.63622957326E+03  0.96607103602E+03  0.25500000920E-02 0.  1.
       -2    1    3    3    0  502  0.10397791508E+03  0.71950939529E+03 -0.18489900337E+04  0.19867735959E+04  0.25500000920E-02 0. -1.
</event>
<event>
 5   0  0.7074157E-07  0.3670803E+04  0.7818609E-02  0.8074463E-01
       -2   -1    0    0    0  501  0.00000000000E+00  0.00000000000E+00  0.20007958293E+04  0.20007958293E+04  0.25500000920E-02 0.  1.
        2   -1    0    0  501    0  0.00000000000E+00  0.00000000000E+00 -0.16836795715E+04  0.16836795715E+04  0.25500000920E-02 0. -1.
    10030    2    1    2    0    0  0.00000000000E+00  0.00000000000E+00  0.31711625781E+03  0.36844754007E+04  0.36708032170E+04 0.  0.
        3    1    3    3  502    0  0.13241264369E+04 -0.30290793917E+03  0.13975116945E+04  0.19488722346E+04  0.10100000352E+00 0.  1.
       -3    1    3    3    0  502 -0.13241264369E+04  0.30290793917E+03 -0.10803954367E+04  0.17356031661E+04  0.10100000352E+00 0. -1.
</event>
<event>
 5   0  0.2287500E-07  0.3726506E+04  0.7818609E-02  0.8062113E-01
        1   -1    0    0  501    0  0.00000000000E+00  0.00000000000E+00  0.22911152793E+04  0.22911152793E+04  0.50400001928E-02 0.  1.
       -1   -1    0    0    0  501  0.00000000000E+00  0.00000000000E+00 -0.15152937055E+04  0.15152937055E+04  0.50400001928E-02 0. -1.
    10030    2    1    2    0    0  0.00000000000E+00  0.00000000000E+00  0.77582157380E+03  0.38064089847E+04  0.37265064396E+04 0.  0.
        4    1    3    3  502    0  0.91748579903E+03 -0.11110773042E+04 -0.81870455633E+03  0.16572723767E+04  0.12699999809E+01 0. -1.
       -4    1    3    3    0  502 -0.91748579903E+03  0.11110773042E+04  0.15945261301E+04  0.21491366080E+04  0.12699999809E+01 0.  1.
</event>
<event>
 5   0  0.7300916E-07  0.3702092E+04  0.7818609E-02  0.8067498E-01
       -2   -1    0    0    0  501  0.00000000000E+00  0.00000000000E+00  0.33152250231E+04  0.33152250231E+04  0.25500000920E-02 0.  1.
        2   -1    0    0  501    0  0.00000000000E+00  0.00000000000E+00 -0.10335259539E+04  0.10335259539E+04  0.25500000920E-02 0. -1.
    10030    2    1    2    0    0  0.00000000000E+00  0.00000000000E+00  0.22816990692E+04  0.43487509771E+04  0.37020918976E+04 0.  0.
        1    1    3    3  502    0 -0.12800019107E+04 -0.76590144809E+03 -0.14667093470E+03  0.14988403126E+04  0.50400001928E-02 0. -1.
       -1    1    3    3    0  502  0.12800019107E+04  0.76590144809E+03  0.24283700039E+04  0.28499106645E+04  0.50400001928E-02 0.  1.
</event>
<event>
 5   0  0.2287500E-07  0.3586471E+04  0.7818609E-02  0.8093598E-01
        1   -1    0    0  501    0  0.00000000000E+00  0.00000000000E+00  0.20204383251E+04  0.20204383252E+04  0.50400001928E-02 0. -1.
       -1   -1    0    0    0  501  0.00000000000E+00  0.00000000000E+00 -0.15915817459E+04  0.15915817459E+04  0.50400001928E-02 0.  1.
    10030    2    1    2    0    0  0.00000000000E+00  0.00000000000E+00  0.42885657928E+03  0.36120200710E+04  0.35864705531E+04 0.  0.
        3    1    3    3  502    0 -0.17113497410E+04 -0.42214348948E+03 -0.11772367175E+03  0.17665735011E+04  0.10100000352E+00 0.  1.
       -3    1    3    3    0  502  0.17113497410E+04  0.42214348948E+03  0.54658025104E+03  0.18454465700E+04  0.10100000352E+00 0. -1.
</event>
<event>
 5   0  0.6939921E-07  0.3665455E+04  0.7818609E-02  0.8075661E-01
       -2   -1    0    0    0  501  0.00000000000E+00  0.00000000000E+00  0.13808585702E+04  0.13808585702E+04  0.25500000920E-02 0. -1.
        2   -1    0    0  501    0  0.00000000000E+00  0.00000000000E+00 -0.24324643081E+04  0.24324643081E+04  0.25500000920E-02 0.  1.
    10030    2    1    2    0    0  0.00000000000E+00  0.00000000000E+00 -0.10516057379E+04  0.38133228782E+04  0.36654545074E+04 0.  0.
        4    1    3    3  502    0  0.80067580566E+03 -0.91067722450E+03  0.90385169363E+03  0.15124034680E+04  0.12699999809E+01 0. -1.
       -4    1    3    3    0  502 -0.80067580566E+03  0.91067722450E+03 -0.19554574316E+04  0.23009194103E+04  0.12699999809E+01 0.  1.
</event>
<event>
 5   0  0.7124627E-07  0.3635120E+04  0.7818609E-02  0.8082494E-01
        2   -1    0    0  501    0  0.00000000000E+00  0.00000000000E+00  0.26336204479E+04  0.26336204479E+04  0.25500000920E-02 0. -1.
       -2   -1    0    0    0  501  0.00000000000E+00  0.00000000000E+00 -0.12543662300E+04  0.12543662300E+04  0.25500000920E-02 0.  1.
    10030    2    1    2    0    0  0.00000000000E+00  0.00000000000E+00  0.13792542179E+04  0.38879866779E+04  0.36351201094E+04 0.  0.
        2    1    3    3  502    0 -0.62312600127E+03  0.12810615861E+04  0.18969157851E+04  0.23722761848E+04  0.25500000920E-02 0. -1.
       -2    1    3    3    0  502  0.62312600127E+03 -0.12810615861E+04 -0.51766156719E+03  0.15157104931E+04  0.25500000920E-02 0.  1.
</event>
<event>
 5   0  0.6949625E-07  0.3763391E+04  0.7818609E-02  0.8054057E-01
        2   -1    0    0  501    0  0.00000000000E+00  0.00000000000E+00  0.24565710924E+04  0.24565710924E+04  0.25500000920E-02 0.  1.
       -2   -1    0    0    0  501  0.00000000000E+00  0.00000000000E+00 -0.14413495794E+04  0.14413495794E+04  0.25500000920E-02 0. -1.
    10030    2    1    2    0    0  0.00000000000E+00  0.00000000000E+00  0.10152215131E+04  0.38979206718E+04  0.37633908703E+04 0.  0.
        5    1    3    3  502    0 -0.71910441536E+03  0.10160939441E+04  0.19691512242E+04  0.23296215781E+04  0.46999998093E+01 0.  1.
       -5    1    3    3    0  502  0.71910441536E+03 -0.10160939441E+04 -0.95392971118E+03  0.15682990937E+04  0.46999998093E+01 0. -1.
</event>
<event>
 5   0  0.7124627E-07  0.3684123E+04  0.7818609E-02  0.8071490E-01
       -2   -1    0    0    0  501  0.00000000000E+00  0.00000000000E+00  0.20186884516E+04  0.20186884516E+04  0.25500000920E-02 0. -1.
        2   -1    0    0  501    0  0.00000000000E+00  0.00000000000E+00 -0.16808884568E+04  0.16808884568E+04  0.25500000920E-02 0.  1.
    10030    2    1    2    0    0  0.00000000000E+00  0.00000000000E+00  0.33779999478E+03  0.36995769084E+04  0.36841227538E+04 0.  0.
        2    1    3    3  502    0  0.16917500602E+02 -0.18381662473E+04  0.28792466823E+03  0.18606563275E+04  0.25500000920E-02 0.  1.
       -2    1    3    3    0  502 -0.16917500602E+02  0.18381662473E+04  0.49875326553E+02  0.18389205809E+04  0.25500000920E-02 0. -1.
</event>
<event>
 5   0  0.7074157E-07  0.2889076E+04  0.7818609E-02  0.8276135E-01
       -2   -1    0    0    0  501  0.00000000000E+00  0.00000000000E+00  0.79796788261E+03  0.79796788261E+03  0.25500000920E-02 0.  1.
        2   -1    0    0  501    0  0.00000000000E+00  0.00000000000E+00 -0.26150042644E+04  0.26150042644E+04  0.25500000920E-02 0. -1.
    10030    2    1    2    0    0  0.00000000000E+00  0.00000000000E+00 -0.18170363818E+04  0.34129721470E+04  0.28890755725E+04 0.  0.
        3    1    3    3  502    0 -0.13216753308E+04  0.55315651727E+03 -0.11259663588E+04  0.18222535674E+04  0.10100000352E+00 0. -1.
       -3    1    3    3    0  502  0.13216753308E+04 -0.55315651727E+03 -0.69107002299E+03  0.15907185796E+04  0.10100000352E+00 0.  1.
</event>
<event>
 5   0  0.7074157E-07  0.3714326E+04  0.7818609E-02  0.8064794E-01
        2   -1    0    0  501    0  0.00000000000E+00  0.00000000000E+00  0.20977540370E+04  0.20977540370E+04  0.25500000920E-02 0.  1.
       -2   -1    0    0    0  501  0.00000000000E+00  0.00000000000E+00 -0.16441650984E+04  0.16441650984E+04  0.25500000920E-02 0. -1.
    10030    2    1    2    0    0  0.00000000000E+00  0.00000000000E+00  0.45358893862E+03  0.37419191355E+04  0.37143257653E+04 0.  0.
        3    1    3    3  502    0  0.11516069455E+04 -0.99396356586E+03  0.13000215999E+04  0.20010542965E+04  0.10100000352E+00 0.  1.
       -3    1    3    3    0  502 -0.11516069455E+04  0.99396356586E+03 -0.84643266123E+03  0.17408648389E+04  0.10100000352E+00 0. -1.
</event>
<event>
 5   0  0.7124627E-07  0.3657083E+04  0.7818609E-02  0.8077540E-01
        2   -1    0    0  501    0  0.00000000000E+00  0.00000000000E+00  0.26720231313E+04  0.26720231313E+04  0.25500000920E-02 0. -1.
       -2   -1    0    0    0  501  0.00000000000E+00  0.00000000000E+00 -0.12513228258E+04  0.12513228258E+04  0.25500000920E-02 0.  1.
    10030    2    1    2    0    0  0.00000000000E+00  0.00000000000E+00  0.14207003056E+04  0.39233459571E+04  0.36570827364E+04 0.  0.
        2    1    3    3  502    0  0.10477422960E+04 -0.94922616676E+02 -0.89413003701E+03  0.13806674998E+04  0.25500000920E-02 0.  1.
       -2    1    3    3    0  502 -0.10477422960E+04  0.94922616676E+02  0.23148303426E+04  0.25426784573E+04  0.25500000920E-02 0. -1.
</event>
<event>
 5   0  0.6949625E-07  0.3678442E+04  0.7818609E-02  0.8072756E-01
        2   -1    0    0  501    0  0.00000000000E+00  0.00000000000E+00  0.18398989413E+04  0.18398989413E+04  0.25500000920E-02 0.  1.
       -2   -1    0    0    0  501  0.00000000000E+00  0.00000000000E+00 -0.18385437018E+04  0.18385437018E+04  0.25500000920E-02 0. -1.
    10030    2    1    2    0    0  0.00000000000E+00  0.00000000000E+00  0.13552394909E+01  0.36784426431E+04  0.36784423935E+04 0.  0.
        5    1    3    3  502    0 -0.64805441780E+03 -0.10325876317E+03  0.17188382702E+04  0.18398543392E+04  0.46999998093E+01 0.  1.
       -5    1    3    3    0  502  0.64805441780E+03  0.10325876317E+03 -0.17174830307E+04  0.18385883039E+04  0.46999998093E+01 0. -1.
</event>
<event>
 5   0  0.7074157E-07  0.3671575E+04  0.7818609E-02  0.8074291E-01
        2   -1    0    0  501    0  0.00000000000E+00  0.00000000000E+00  0.19320514063E+04  0.19320514063E+04  0.25500000920E-02 0. -1.
       -2   -1    0    0    0  501  0.00000000000E+00  0.00000000000E+00 -0.17443198529E+04  0.17443198529E+04  0.25500000920E-02 0.  1.
    10030    2    1    2    0    0  0.00000000000E+00  0.00000000000E+00  0.18773155344E+03  0.36763712592E+04  0.36715749345E+04 0.  0.
        3    1    3    3  502    0 -0.76850793437E+03 -0.13271051556E+04 -0.91656250529E+03  0.17865887539E+04  0.10100000352E+00 0.  1.
       -3    1    3    3    0  502  0.76850793437E+03  0.13271051556E+04  0.11042940587E+04  0.18897825053E+04  0.10100000352E+00 0. -1.
</event>
<event>
 5   0  0.2287500E-07  0.3671057E+04  0.7818609E-02  0.8074406E-01
       -1   -1    0    0    0  501  0.00000000000E+00  0.00000000000E+00  0.13408932259E+04  0.13408932259E+04  0.50400001928E-02 0.  1.
        1   -1    0    0  501    0  0.00000000000E+00  0.00000000000E+00 -0.25126267419E+04  0.25126267419E+04  0.50400001928E-02 0. -1.
    10030    2    1    2    0    0  0.00000000000E+00  0.00000000000E+00 -0.11717335160E+04  0.38535199678E+04  0.36710566203E+04 0.  0.
        4    1    3    3  502    0  0.56101833810E+03  0.57793222643E+03 -0.23172138332E+04  0.24532078582E+04  0.12699999809E+01 0. -1.
       -4    1    3    3    0  502 -0.56101833810E+03 -0.57793222643E+03  0.11454803172E+04  0.14003121095E+04  0.12699999809E+01 0.  1.
</event>
<event>
 5   0  0.7300916E-07  0.3744569E+04  0.7818609E-02  0.8058156E-01
       -2   -1    0    0    0  501  0.00000000000E+00  0.00000000000E+00  0.22228157236E+04  0.22228157236E+04  0.25500000920E-02 0. -1.
        2   -1    0    0  501    0  0.00000000000E+00  0.00000000000E+00 -0.15770310443E+04  0.15770310443E+04  0.25500000920E-02 0.  1.
    10030    2    1    2    0    0  0.00000000000E+00  0.00000000000E+00  0.64578467927E+03  0.37998467678E+04  0.37445690816E+04 0.  0.
        1    1    3    3  502    0 -0.93915441648E+03  0.47590122249E+03  0.18939578864E+04  0.21669262717E+04  0.50400001928E-02 0. -1.
       -1    1    3    3    0  502  0.93915441648E+03 -0.47590122249E+03 -0.12481732071E+04  0.16329204961E+04  0.50400001928E-02 0.  1.
</event>
<event>
 5   0  0.7124627E-07  0.3732851E+04  0.7818609E-02  0.8060720E-01
       -2   -1    0    0    0  501  0.00000000000E+00  0.00000000000E+00  0.19411071977E+04  0.19411071977E+04  0.25500000920E-02 0. -1.
        2   -1    0    0  501    0  0.00000000000E+00  0.00000000000E+00 -0.17946169522E+04  0.17946169522E+04  0.25500000920E-02 0.  1.
    10030    2    1    2    0    0  0.00000000000E+00  0.00000000000E+00  0.14649024548E+03  0.37357241499E+04  0.37328508586E+04 0.  0.
        2    1    3    3  502    0 -0.11459144326E+04  0.11909668088E+04 -0.79461443482E+03  0.18338303974E+04  0.25500000920E-02 0.  1.
       -2    1    3    3    0  502  0.11459144326E+04 -0.11909668088E+04  0.94110468030E+03  0.19018937525E+04  0.25500000920E-02 0. -1.
</event>
<event>
 5   0  0.2287500E-07  0.3403495E+04  0.7818609E-02  0.8137049E-01
       -1   -1    0    0    0  501  0.00000000000E+00  0.00000000000E+00  0.33981537517E+04  0.33981537517E+04  0.50400001928E-02 0.  1.
        1   -1    0    0  501    0  0.00000000000E+00  0.00000000000E+00 -0.85221112224E+03  0.85221112225E+03  0.50400001928E-02 0. -1.
    10030    2    1    2    0    0  0.00000000000E+00  0.00000000000E+00  0.25459426295E+04  0.42503648740E+04  0.34034949228E+04 0.  0.
        2    1    3    3  502    0 -0.13332909764E+04 -0.50472885654E+02  0.25920814808E+04  0.29153213790E+04  0.25500000920E-02 0.  1.
       -2    1    3    3    0  502  0.13332909764E+04  0.50472885654E+02 -0.46138851293E+02  0.13350434950E+04  0.25500000920E-02 0. -1.
</event>
<event>
 5   0  0.6949625E-07  0.3599216E+04  0.7818609E-02  0.8090671E-01
        2   -1    0    0  501    0  0.00000000000E+00  0.00000000000E+00  0.22003851947E+04  0.22003851947E+04  0.25500000920E-02 0.  1.
       -2   -1    0    0    0  501  0.00000000000E+00  0.00000000000E+00 -0.14718277868E+04  0.14718277868E+04  0.25500000920E-02 0. -1.
    10030    2    1    2    0    0  0.00000000000E+00  0.00000000000E+00  0.72855740787E+03  0.36722129814E+04  0.35992155096E+04 0.  0.
        5    1    3    3  502    0  0.53722920090E+03  0.35044688624E+03 -0.13512322461E+04  0.14957536252E+04  0.46999998093E+01 0. -1.
       -5    1    3    3    0  502 -0.53722920090E+03 -0.35044688624E+03  0.20797896540E+04  0.21764593562E+04  0.46999998093E+01 0.  1.
</event>
<event>
 5   0  0.2287500E-07  0.3939728E+04  0.7818609E-02  0.8016817E-01
       -1   -1    0    0    0  501  0.00000000000E+00  0.00000000000E+00  0.16583510057E+04  0.16583510057E+04  0.50400001928E-02 0.  1.
        1   -1    0    0  501    0  0.00000000000E+00  0.00000000000E+00 -0.23398931147E+04  0.23398931147E+04  0.50400001928E-02 0. -1.
    10030    2    1    2    0    0  0.00000000000E+00  0.00000000000E+00 -0.68154210905E+03  0.39982441204E+04  0.39397279601E+04 0.  0.
        3    1    3    3  502    0 -0.25950929690E+02  0.16536811607E+04  0.74518278355E+03  0.18140099843E+04  0.10100000352E+00 0.  1.
       -3    1    3    3    0  502  0.25950929690E+02 -0.16536811607E+04 -0.14267248926E+04  0.21842341361E+04  0.10100000352E+00 0. -1.
</event>
<event>
 5   0  0.2287500E-07  0.4012464E+04  0.7818609E-02  0.8002037E-01
       -1   -1    0    0    0  501  0.00000000000E+00  0.00000000000E+00  0.21272182203E+04  0.21272182203E+04  0.50400001928E-02 0. -1.
        1   -1    0    0  501    0  0.00000000000E+00  0.00000000000E+00 -0.18921272221E+04  0.18921272221E+04  0.50400001928E-02 0.  1.
    10030    2    1    2    0    0  0.00000000000E+00  0.00000000000E+00  0.23509099819E+03  0.40193454424E+04  0.40124643310E+04 0.  0.
        3    1    3    3  502    0  0.13067769255E+04  0.25865283749E+03  0.16202515457E+04  0.20975658047E+04  0.10100000352E+00 0. -1.
       -3    1    3    3    0  502 -0.13067769255E+04 -0.25865283749E+03 -0.13851605475E+04  0.19217796377E+04  0.10100000352E+00 0.  1.
</event>
<event>
 5   0  0.2287500E-07  0.3659943E+04  0.7818609E-02  0.8076897E-01
        1   -1    0    0  501    0  0.00000000000E+00  0.00000000000E+00  0.23112934376E+04  0.23112934376E+04  0.50400001928E-02 0.  1.
       -1   -1    0    0    0  501  0.00000000000E+00  0.00000000000E+00 -0.14488839847E+04  0.14488839847E+04  0.50400001928E-02 0. -1.
    10030    2    1    2    0    0  0.00000000000E+00  0.00000000000E+00  0.86240945290E+03  0.37601774224E+04  0.36599431940E+04 0.  0.
        4    1    3    3  502    0  0.56505700714E+03 -0.17405436657E+04  0.42753488337E+03  0.18792470202E+04  0.12699999809E+01 0. -1.
       -4    1    3    3    0  502 -0.56505700714E+03  0.17405436657E+04  0.43487456953E+03  0.18809304022E+04  0.12699999809E+01 0.  1.
</event>
<event>
 5   0  0.6939921E-07  0.3698963E+04  0.7818609E-02  0.8068192E-01
       -2   -1    0    0    0  501  0.00000000000E+00  0.00000000000E+00  0.13459028554E+04  0.13459028554E+04  0.25500000920E-02 0. -1.
        2   -1    0    0  501    0  0.00000000000E+00  0.00000000000E+00 -0.25414772924E+04  0.25414772924E+04  0.25500000920E-02 0.  1.
    10030    2    1    2    0    0  0.00000000000E+00  0.00000000000E+00 -0.11955744370E+04  0.38873801478E+04  0.36989628518E+04 0.  0.
        4    1    3    3  502    0  0.50089522227E+03 -0.41181476771E+03 -0.24180930722E+04  0.25035301367E+04  0.12699999809E+01 0.  1.
       -4    1    3    3    0  502 -0.50089522227E+03  0.41181476771E+03  0.12225186353E+04  0.13838500110E+04  0.12699999809E+01 0. -1.
</event>
<event>
 5   0  0.7124627E-07  0.3638588E+04  0.7818609E-02  0.8081709E-01
       -2   -1    0    0    0  501  0.00000000000E+00  0.00000000000E+00  0.29339084944E+04  0.29339084944E+04  0.25500000920E-02 0.  1.
        2   -1    0    0  501    0  0.00000000000E+00  0.00000000000E+00 -0.11281300682E+04  0.11281300682E+04  0.25500000920E-02 0. -1.
    10030    2    1    2    0    0  0.00000000000E+00  0.00000000000E+00  0.18057784262E+04  0.40620385625E+04  0.36385878523E+04 0.  0.
        2    1    3    3  502    0 -0.79898689941E+02 -0.79110369641E+03 -0.92388196355E+03  0.12189285220E+04  0.25500000920E-02 0. -1.
       -2    1    3    3    0  502  0.79898689941E+02  0.79110369641E+03  0.27296603898E+04  0.28431100405E+04  0.25500000920E-02 0.  1.
</event>
<event>
 5   0  0.6939921E-07  0.3659736E+04  0.7818609E-02  0.8076944E-01
        2   -1    0    0  501    0  0.00000000000E+00  0.00000000000E+00  0.13121527328E+04  0.13121527328E+04  0.25500000920E-02 0.  1.
       -2   -1    0    0    0  501  0.00000000000E+00  0.00000000000E+00 -0.25518498913E+04  0.25518498913E+04  0.25500000920E-02 0. -1.
    10030    2    1    2    0    0  0.00000000000E+00  0.00000000000E+00 -0.12396971585E+04  0.38640026241E+04  0.36597359515E+04 0.  0.
        4    1    3    3  502    0 -0.13012465794E+04  0.12797360028E+04 -0.75931324806E+03  0.19767460937E+04  0.12699999809E+01 0.  1.
       -4    1    3    3    0  502  0.13012465794E+04 -0.12797360028E+04 -0.48038391043E+03  0.18872565304E+04  0.12699999809E+01 0. -1.
</event>
<event>
 5   0  0.7300916E-07  0.3690041E+04  0.7818609E-02  0.8070173E-01
        2   -1    0    0  501    0  0.00000000000E+00  0.00000000000E+00  0.21919129698E+04  0.21919129698E+04  0.25500000920E-02 0. -1.
       -2   -1    0    0    0  501  0.00000000000E+00  0.00000000000E+00 -0.15530270715E+04  0.15530270715E+04  0.25500000920E-02 0.  1.
    10030    2    1    2    0    0  0.00000000000E+00  0.00000000000E+00  0.63888589822E+03  0.37449400413E+04  0.36900407480E+04 0.  0.
        1    1    3    3  502    0  0.18224023427E+04  0.27972592248E+03  0.24984209302E+03  0.18605961308E+04  0.50400001928E-02 0.  1.
       -1    1    3    3    0  502 -0.18224023427E+04 -0.27972592248E+03  0.38904380520E+03  0.18843439105E+04  0.50400001928E-02 0. -1.
</event>
<event>
 5   0  0.7074157E-07  0.3688927E+04  0.7818609E-02  0.8070420E-01
       -2   -1    0    0    0  501  0.00000000000E+00  0.00000000000E+00  0.29465614587E+04  0.29465614587E+04  0.25500000920E-02 0.  1.
        2   -1    0    0  501    0  0.00000000000E+00  0.00000000000E+00 -0.11545815331E+04  0.11545815331E+04  0.25500000920E-02 0. -1.
    10030    2    1    2    0    0  0.00000000000E+00  0.00000000000E+00  0.17919799257E+04  0.41011429918E+04  0.36889269151E+04 0.  0.
        3    1    3    3  502    0  0.42380868854E+03  0.70464442793E+03  0.27315155664E+04  0.28525979166E+04  0.10100000352E+00 0.  1.
       -3    1    3    3    0  502 -0.42380868854E+03 -0.70464442793E+03 -0.93953564074E+03  0.12485450752E+04  0.10100000352E+00 0. -1.
</event>
<event>
 5   0  0.2411746E-07  0.3712736E+04  0.7818609E-02  0.8065145E-01
        1   -1    0    0  501    0  0.00000000000E+00  0.00000000000E+00  0.28125951226E+04  0.28125951226E+04  0.50400001928E-02 0. -1.
       -1   -1    0    0    0  501  0.00000000000E+00  0.00000000000E+00 -0.12252391453E+04  0.12252391453E+04  0.50400001928E-02 0.  1.
    10030    2    1    2    0    0  0.00000000000E+00  0.00000000000E+00  0.15873559773E+04  0.40378342679E+04  0.37127357267E+04 0.  0.
        1    1    3    3  502    0 -0.15724848943E+03 -0.56697763206E+02 -0.12170375821E+04  0.12284633491E+04  0.50400001928E-02 0.  1.
       -1    1    3    3    0  502  0.15724848943E+03  0.56697763206E+02  0.28043935594E+04  0.28093709188E+04  0.50400001928E-02 0. -1.
</event>
<event>
 5   0  0.7124627E-07  0.3698342E+04  0.7818609E-02  0.8068329E-01
        2   -1    0    0  501    0  0.00000000000E+00  0.00000000000E+00  0.17844716965E+04  0.17844716965E+04  0.25500000920E-02 0.  1.
       -2   -1    0    0    0  501  0.00000000000E+00  0.00000000000E+00 -0.19162162630E+04  0.19162162630E+04  0.25500000920E-02 0. -1.
    10030    2    1    2    0    0  0.00000000000E+00  0.00000000000E+00 -0.13174456649E+03  0.37006879595E+04  0.36983421614E+04 0.  0.
        2    1    3    3  502    0  0.12795403217E+04  0.32036162070E+03  0.12309353421E+04  0.18041776019E+04  0.25500000920E-02 0.  1.
       -2    1    3    3    0  502 -0.12795403217E+04 -0.32036162070E+03 -0.13626799086E+04  0.18965103575E+04  0.25500000920E-02 0. -1.
</event>
<event>
 5   0  0.2287500E-07  0.3656716E+04  0.7818609E-02  0.8077622E-01
        1   -1    0    0  501    0  0.00000000000E+00  0.00000000000E+00  0.22039209568E+04  0.22039209568E+04  0.50400001928E-02 0.  1.
       -1   -1    0    0    0  501  0.00000000000E+00  0.00000000000E+00 -0.15167937881E+04  0.15167937881E+04  0.50400001928E-02 0. -1.
    10030    2    1    2    0    0  0.00000000000E+00  0.00000000000E+00  0.68712716863E+03  0.37207147449E+04  0.36567163504E+04 0.  0.
        2    1    3    3  502    0 -0.13159242326E+04  0.74025077413E+02  0.16329261490E+04  0.20984718502E+04  0.25500000920E-02 0.  1.
       -2    1    3    3    0  502  0.13159242326E+04 -0.74025077413E+02 -0.94579898037E+03  0.16222428947E+04  0.25500000920E-02 0. -1.
</event>
<event>
 5   0  0.7124627E-07  0.3714596E+04  0.7818609E-02  0.8064735E-01
       -2   -1    0    0    0  501  0.00000000000E+00  0.00000000000E+00  0.14637041078E+04  0.14637041078E+04  0.25500000920E-02 0. -1.
        2   -1    0    0  501    0  0.00000000000E+00  0.00000000000E+00 -0.23567300019E+04  0.23567300019E+04  0.25500000920E-02 0.  1.
    10030    2    1    2    0    0  0.00000000000E+00  0.00000000000E+00 -0.89302589406E+03  0.38204341097E+04  0.37145957437E+04 0.  0.
        2    1    3    3  502    0 -0.15646370995E+04 -0.99380125320E+03 -0.32558216021E+03  0.18819495017E+04  0.25500000920E-02 0. -1.
       -2    1    3    3    0  502  0.15646370995E+04  0.99380125320E+03 -0.56744373385E+03  0.19384846079E+04  0.25500000920E-02 0.  1.
</event>
<event>
 5   0  0.6939921E-07  0.3754922E+04  0.7818609E-02  0.8055898E-01
       -2   -1    0    0    0  501  0.00000000000E+00  0.00000000000E+00  0.16317270636E+04  0.16317270636E+04  0.25500000920E-02 0. -1.
        2   -1    0    0  501    0  0.00000000000E+00  0.00000000000E+00 -0.21602015787E+04  0.21602015787E+04  0.25500000920E-02 0.  1.
    10030    2    1    2    0    0  0.00000000000E+00  0.00000000000E+00 -0.52847451507E+03  0.37919286423E+04  0.37549217722E+04 0.  0.
        4    1    3    3  502    0 -0.68299463613E+03  0.50250361134E+03  0.14273435235E+04  0.16602116429E+04  0.12699999809E+01 0. -1.
       -4    1    3    3    0  502  0.68299463613E+03 -0.50250361134E+03 -0.19558180386E+04  0.21317169993E+04  0.12699999809E+01 0.  1.
</event>
<event>
 5   0  0.2411746E-07  0.3668383E+04  0.7818609E-02  0.8075005E-01
       -1   -1    0    0    0  501  0.00000000000E+00  0.00000000000E+00  0.12348159650E+04  0.12348159650E+04  0.50400001928E-02 0.  1.
        1   -1    0    0  501    0  0.00000000000E+00  0.00000000000E+00 -0.27245022922E+04  0.27245022922E+04  0.50400001928E-02 0. -1.
    10030    2    1    2    0    0  0.00000000000E+00  0.00000000000E+00 -0.14896863272E+04  0.39593182573E+04  0.36683832555E+04 0.  0.
        1    1    3    3  502    0  0.13537994861E+03  0.94073294509E+03  0.94831428460E+03  0.13426117037E+04  0.50400001928E-02 0.  1.
       -1    1    3    3    0  502 -0.13537994861E+03 -0.94073294509E+03 -0.24380006118E+04  0.26167065536E+04  0.50400001928E-02 0. -1.
</event>
<event>
 5   0  0.2287500E-07  0.3638484E+04  0.7818609E-02  0.8081733E-01
       -1   -1    0    0    0  501  0.00000000000E+00  0.00000000000E+00  0.15316041511E+04  0.15316041511E+04  0.50400001928E-02 0.  1.
        1   -1    0    0  501    0  0.00000000000E+00  0.00000000000E+00 -0.21608988596E+04  0.21608988596E+04  0.50400001928E-02 0. -1.
    10030    2    1    2    0    0  0.00000000000E+00  0.00000000000E+00 -0.62929470849E+03  0.36925030107E+04  0.36384841148E+04 0.  0.
        3    1    3    3  502    0 -0.15781094893E+04 -0.83497432008E+03  0.39866850167E+02  0.17858334333E+04  0.10100000352E+00 0. -1.
       -3    1    3    3    0  502  0.15781094893E+04  0.83497432008E+03 -0.66916155866E+03  0.19066695774E+04  0.10100000352E+00 0.  1.
</event>
<event>
 5   0  0.7074157E-07  0.3709373E+04  0.7818609E-02  0.8065888E-01
       -2   -1    0    0    0  501  0.00000000000E+00  0.00000000000E+00  0.21640167180E+04  0.21640167180E+04  0.25500000920E-02 0. -1.
        2   -1    0    0  501    0  0.00000000000E+00  0.00000000000E+00 -0.15895728156E+04  0.15895728156E+04  0.25500000920E-02 0.  1.
    10030    2    1    2    0    0  0.00000000000E+00  0.00000000000E+00  0.57444390241E+03  0.37535895337E+04  0.37093730724E+04 0.  0.
        3    1    3    3  502    0  0.15854791946E+04  0.92823589557E+03  0.54420980555E+03  0.19161238156E+04  0.10100000352E+00 0. -1.
       -3    1    3    3    0  502 -0.15854791946E+04 -0.92823589557E+03  0.30234096864E+02  0.18374657180E+04  0.10100000352E+00 0.  1.
</event>
<event>
 5   0  0.2345471E-07  0.3683818E+04  0.7818609E-02  0.8071557E-01
       -1   -1    0    0    0  501  0.00000000000E+00  0.00000000000E+00  0.12650591356E+04  0.12650591357E+04  0.50400001928E-02 0. -1.
        1   -1    0    0  501    0  0.00000000000E+00  0.00000000000E+00 -0.26817944529E+04  0.26817944529E+04  0.50400001928E-02 0.  1.
    10030    2    1    2    0    0  0.00000000000E+00  0.00000000000E+00 -0.14167353172E+04  0.39468535885E+04  0.36838178959E+04 0.  0.
        5    1    3    3  502    0  0.93722794996E+03 -0.23524498511E+03  0.97167632362E+03  0.13703698045E+04  0.46999998093E+01 0. -1.
       -5    1    3    3    0  502 -0.93722794996E+03  0.23524498511E+03 -0.23884116409E+04  0.25764837840E+04  0.46999998093E+01 0.  1.
</event>
<event>
 5   0  0.2287500E-07  0.3707998E+04  0.7818609E-02  0.8066192E-01
        1   -1    0    0  501    0  0.00000000000E+00  0.00000000000E+00  0.20126832806E+04  0.20126832807E+04  0.50400001928E-02 0. -1.
       -1   -1    0    0    0  501  0.00000000000E+00  0.00000000000E+00 -0.17078259288E+04  0.17078259288E+04  0.50400001928E-02 0.  1.
    10030    2    1    2    0    0  0.00000000000E+00  0.00000000000E+00  0.30485735187E+03  0.37205092094E+04  0.37079982164E+04 0.  0.
        4    1    3    3  502    0  0.18149586325E+04 -0.34796653736E+03  0.30177823752E+03  0.18724922607E+04  0.12699999809E+01 0. -1.
       -4    1    3    3    0  502 -0.18149586325E+04  0.34796653736E+03  0.30791143523E+01  0.18480169487E+04  0.12699999809E+01 0.  1.
</event>
<event>
 5   0  0.6939921E-07  0.3461355E+04  0.7818609E-02  0.8123010E-01
       -2   -1    0    0    0  501  0.00000000000E+00  0.00000000000E+00  0.17640440735E+04  0.17640440736E+04  0.25500000920E-02 0.  1.
        2   -1    0    0  501    0  0.00000000000E+00  0.00000000000E+00 -0.16979416357E+04  0.16979416357E+04  0.25500000920E-02 0. -1.
    10030    2    1    2    0    0  0.00000000000E+00  0.00000000000E+00  0.66102437898E+02  0.34619857092E+04  0.34613545785E+04 0.  0.
        4    1    3    3  502    0 -0.30882355437E+03  0.13506783069E+04  0.10703219865E+04  0.17507982877E+04  0.12699999809E+01 0.  1.
       -4    1    3    3    0  502  0.30882355437E+03 -0.13506783069E+04 -0.10042195486E+04  0.17111874215E+04  0.12699999809E+01 0. -1.
</event>
<event>
 5   0  0.7300916E-07  0.3751713E+04  0.7818609E-02  0.8056597E-01
       -2   -1    0    0    0  501  0.00000000000E+00  0.00000000000E+00  0.20168373021E+04  0.20168373021E+04  0.25500000920E-02 0. -1.
        2   -1    0    0  501    0  0.00000000000E+00  0.00000000000E+00 -0.17447308968E+04  0.17447308968E+04  0.25500000920E-02 0.  1.
    10030    2    1    2    0    0  0.00000000000E+00  0.00000000000E+00  0.27210640529E+03  0.37615681989E+04  0.37517133978E+04 0.  0.
        1    1    3    3  502    0 -0.52238706368E+03 -0.11246045974E+03  0.19389151496E+04  0.20112005263E+04  0.50400001928E-02 0. -1.
       -1    1    3    3    0  502  0.52238706368E+03  0.11246045974E+03 -0.16668087443E+04  0.17503676727E+04  0.50400001928E-02 0.  1.
</event>
<event>
 5   0  0.2287500E-07  0.3414129E+04  0.7818609E-02  0.8134447E-01
        1   -1    0    0  501    0  0.00000000000E+00  0.00000000000E+00  0.16865847860E+04  0.16865847860E+04  0.50400001928E-02 0.  1.
       -1   -1    0    0    0  501  0.00000000000E+00  0.00000000000E+00 -0.17277927289E+04  0.17277927289E+04  0.50400001928E-02 0. -1.
    10030    2    1    2    0    0  0.00000000000E+00  0.00000000000E+00 -0.41207942947E+02  0.34143775149E+04  0.34141288376E+04 0.  0.
        2    1    3    3  502    0 -0.24220289769E+03  0.61502561241E+03  0.15534071642E+04  0.16881920997E+04  0.25500000920E-02 0.  1.
       -2    1    3    3    0  502  0.24220289769E+03 -0.61502561241E+03 -0.15946151072E+04  0.17261854152E+04  0.25500000920E-02 0. -1.
</event>
<event>
 5   0  0.7124627E-07  0.3707299E+04  0.7818609E-02  0.8066346E-01
       -2   -1    0    0    0  501  0.00000000000E+00  0.00000000000E+00  0.28797558293E+04  0.28797558293E+04  0.25500000920E-02 0.  1.
        2   -1    0    0  501    0  0.00000000000E+00  0.00000000000E+00 -0.11931624557E+04  0.11931624557E+04  0.25500000920E-02 0. -1.
    10030    2    1    2    0    0  0.00000000000E+00  0.00000000000E+00  0.16865933736E+04  0.40729182851E+04  0.37072990369E+04 0.  0.
        2    1    3    3  502    0 -0.50508270484E+03 -0.12978304927E+04  0.21872767462E+04  0.25930005961E+04  0.25500000920E-02 0.  1.
       -2    1    3    3    0  502  0.50508270484E+03  0.12978304927E+04 -0.50068337261E+03  0.14799176890E+04  0.25500000920E-02 0. -1.
</event>
<event>
 5   0  0.7300916E-07  0.3504555E+04  0.7818609E-02  0.8112711E-01
       -2   -1    0    0    0  501  0.00000000000E+00  0.00000000000E+00  0.23231637354E+04  0.23231637354E+04  0.25500000920E-02 0.  1.
        2   -1    0    0  501    0  0.00000000000E+00  0.00000000000E+00 -0.13216792472E+04  0.13216792472E+04  0.25500000920E-02 0. -1.
    10030    2    1    2    0    0  0.00000000000E+00  0.00000000000E+00  0.10014844881E+04  0.36448429826E+04  0.35045554908E+04 0.  0.
        1    1    3    3  502    0  0.16461248177E+04  0.57740643549E+03  0.67274758536E+03  0.18696829734E+04  0.50400001928E-02 0.  1.
       -1    1    3    3    0  502 -0.16461248177E+04 -0.57740643549E+03  0.32873690277E+03  0.17751600093E+04  0.50400001928E-02 0. -1.
</event>
<event>
 5   0  0.7074157E-07  0.3710782E+04  0.7818609E-02  0.8065577E-01
        2   -1    0    0  501    0  0.00000000000E+00  0.00000000000E+00  0.19755473455E+04  0.19755473455E+04  0.25500000920E-02 0.  1.
       -2   -1    0    0    0  501  0.00000000000E+00  0.00000000000E+00 -0.17425430074E+04  0.17425430074E+04  0.25500000920E-02 0. -1.
    10030    2    1    2    0    0  0.00000000000E+00  0.00000000000E+00  0.23300433808E+03  0.37180903528E+04  0.37107822424E+04 0.  0.
        3    1    3    3  502    0 -0.47503320207E+03  0.11926812174E+04  0.14586667405E+04  0.19431556035E+04  0.10100000352E+00 0.  1.
       -3    1    3    3    0  502  0.47503320207E+03 -0.11926812174E+04 -0.12256624025E+04  0.17749347493E+04  0.10100000352E+00 0. -1.
</event>
<event>
 5   0  0.7124627E-07  0.3650245E+04  0.7818609E-02  0.8079078E-01
        2   -1    0    0  501    0  0.00000000000E+00  0.00000000000E+00  0.15104896746E+04  0.15104896747E+04  0.25500000920E-02 0. -1.
       -2   -1    0    0    0  501  0.00000000000E+00  0.00000000000E+00 -0.22052926603E+04  0.22052926603E+04  0.25500000920E-02 0.  1.
    10030    2    1    2    0    0  0.00000000000E+00  0.00000000000E+00 -0.69480298569E+03  0.37157823350E+04  0.36502448099E+04 0.  0.
        2    1    3    3  502    0  0.95929043768E+03  0.14379314256E+04  0.24893804165E+03  0.17463834279E+04  0.25500000920E-02 0.  1.
       -2    1    3    3    0  502 -0.95929043768E+03 -0.14379314256E+04 -0.94374102734E+03  0.19693989071E+04  0.25500000920E-02 0. -1.
</event>
<event>
 5   0  0.2345471E-07  0.3690392E+04  0.7818609E-02  0.8070094E-01
        1   -1    0    0  501    0  0.00000000000E+00  0.00000000000E+00  0.20854027438E+04  0.20854027438E+04  0.50400001928E-02 0. -1.
       -1   -1    0    0    0  501  0.00000000000E+00  0.00000000000E+00 -0.16326570862E+04  0.16326570862E+04  0.50400001928E-02 0.  1.
    10030    2    1    2    0    0  0.00000000000E+00  0.00000000000E+00  0.45274565759E+03  0.37180598300E+04  0.36903916146E+04 0.  0.
        5    1    3    3  502    0  0.95362898249E+03 -0.66434297832E+03  0.16702841023E+04  0.20348540246E+04  0.46999998093E+01 0. -1.
       -5    1    3    3    0  502 -0.95362898249E+03  0.66434297832E+03 -0.12175384447E+04  0.16832058054E+04  0.46999998093E+01 0.  1.
</event>
<event>
 5   0  0.6939921E-07  0.3893705E+04  0.7818609E-02  0.8026340E-01
       -2   -1    0    0    0  501  0.00000000000E+00  0.00000000000E+00  0.21808301187E+04  0.21808301187E+04  0.25500000920E-02 0. -1.
        2   -1    0    0  501    0  0.00000000000E+00  0.00000000000E+00 -0.17379781240E+04  0.17379781240E+04  0.25500000920E-02 0.  1.
    10030    2    1    2    0    0  0.00000000000E+00  0.00000000000E+00  0.44285199462E+03  0.39188082427E+04  0.38937051961E+04 0.  0.
        4    1    3    3  502    0 -0.43881382029E+03 -0.18908183082E+04  0.70519394019E+02  0.19423506484E+04  0.12699999809E+01 0. -1.
       -4    1    3    3    0  502  0.43881382029E+03  0.18908183082E+04  0.37233260060E+03  0.19764575943E+04  0.12699999809E+01 0.  1.
</event>
<event>
 5   0  0.2287500E-07  0.3637768E+04  0.7818609E-02  0.8081895E-01
        1   -1    0    0  501    0  0.00000000000E+00  0.00000000000E+00  0.22818601127E+04  0.22818601127E+04  0.50400001928E-02 0.  1.
       -1   -1    0    0    0  501  0.00000000000E+00  0.00000000000E+00 -0.14498431022E+04  0.14498431022E+04  0.50400001928E-02 0. -1.
    10030    2    1    2    0    0  0.00000000000E+00  0.00000000000E+00  0.83201701054E+03  0.37317032149E+04  0.36377680765E+04 0.  0.
        3    1    3    3  502    0 -0.31855214872E+03  0.10247368658E+04  0.19225282000E+04  0.22017438102E+04  0.10100000352E+00 0.  1.
       -3    1    3    3    0  502  0.31855214872E+03 -0.10247368658E+04 -0.10905111895E+04  0.15299594048E+04  0.10100000352E+00 0. -1.
</event>
<event>
 5   0  0.2287500E-07  0.3781486E+04  0.7818609E-02  0.8050140E-01
       -1   -1    0    0    0  501  0.00000000000E+00  0.00000000000E+00  0.18304618481E+04  0.18304618481E+04  0.50400001928E-02 0. -1.
        1   -1    0    0  501    0  0.00000000000E+00  0.00000000000E+00 -0.19530091006E+04  0.19530091006E+04  0.50400001928E-02 0.  1.
    10030    2    1    2    0    0  0.00000000000E+00  0.00000000000E+00 -0.12254725250E+03  0.37834709487E+04  0.37814857650E+04 0.  0.
        3    1    3    3  502    0  0.27434972742E+03 -0.14963711238E+04 -0.11845893199E+04  0.19281198563E+04  0.10100000352E+00 0.  1.
       -3    1    3    3    0  502 -0.27434972742E+03  0.14963711238E+04  0.10620420674E+04  0.18553510925E+04  0.10100000352E+00 0. -1.
</event>
<event>
 5   0  0.7074157E-07  0.3694465E+04  0.7818609E-02  0.8069190E-01
        2   -1    0    0  501    0  0.00000000000E+00  0.00000000000E+00  0.27865862519E+04  0.27865862519E+04  0.25500000920E-02 0. -1.
       -2   -1    0    0    0  501  0.00000000000E+00  0.00000000000E+00 -0.12245334224E+04  0.12245334224E+04  0.25500000920E-02 0.  1.
    10030    2    1    2    0    0  0.00000000000E+00  0.00000000000E+00  0.15620528295E+04  0.40111196744E+04  0.36944650492E+04 0.  0.
        3    1    3    3  502    0 -0.18123853050E+04 -0.27864927653E+03  0.53854060941E+03  0.19111284392E+04  0.10100000352E+00 0.  1.
       -3    1    3    3    0  502  0.18123853050E+04  0.27864927653E+03  0.10235122201E+04  0.20999912352E+04  0.10100000352E+00 0. -1.
</event>
<event>
 5   0  0.2287500E-07  0.3716315E+04  0.7818609E-02  0.8064356E-01
       -3   -1    0    0    0  501  0.00000000000E+00  0.00000000000E+00  0.12045784769E+04  0.12045784811E+04  0.10100000352E+00 0.  1.
        3   -1    0    0  501    0  0.00000000000E+00  0.00000000000E+00 -0.28663554373E+04  0.28663554391E+04  0.10100000352E+00 0. -1.
    10030    2    1    2    0    0  0.00000000000E+00  0.00000000000E+00 -0.16617769604E+04  0.40709339202E+04  0.37163154221E+04 0.  0.
        5    1    3    3  502    0 -0.14472348406E+04  0.33964283244E+03  0.39033864927E+03  0.15369555259E+04  0.46999998093E+01 0. -1.
       -5    1    3    3    0  502  0.14472348406E+04 -0.33964283244E+03 -0.20521156097E+04  0.25339783943E+04  0.46999998093E+01 0.  1.
</event>
<event>
 5   0  0.2287500E-07  0.3641232E+04  0.7818609E-02  0.8081112E-01
       -1   -1    0    0    0  501  0.00000000000E+00  0.00000000000E+00  0.21247961007E+04  0.21247961008E+04  0.50400001928E-02 0.  1.
        1   -1    0    0  501    0  0.00000000000E+00  0.00000000000E+00 -0.15599811694E+04  0.15599811694E+04  0.50400001928E-02 0. -1.
    10030    2    1    2    0    0  0.00000000000E+00  0.00000000000E+00  0.56481493133E+03  0.36847772702E+04  0.36412316081E+04 0.  0.
        3    1    3    3  502    0 -0.99021283311E+03  0.65670424718E+03 -0.11135312520E+04  0.16284144996E+04  0.10100000352E+00 0. -1.
       -3    1    3    3    0  502  0.99021283311E+03 -0.65670424718E+03  0.16783461833E+04  0.20563627706E+04  0.10100000352E+00 0.  1.
</event>
<event>
 5   0  0.2287500E-07  0.3712503E+04  0.7818609E-02  0.8065197E-01
       -1   -1    0    0    0  501  0.00000000000E+00  0.00000000000E+00  0.29854269368E+04  0.29854269368E+04  0.50400001928E-02 0.  1.
        1   -1    0    0  501    0  0.00000000000E+00  0.00000000000E+00 -0.11541629309E+04  0.11541629309E+04  0.50400001928E-02 0. -1.
    10030    2    1    2    0    0  0.00000000000E+00  0.00000000000E+00  0.18312640059E+04  0.41395898677E+04  0.37125027157E+04 0.  0.
        4    1    3    3  502    0  0.96880088901E+03  0.94168348158E+03  0.23349886669E+04  0.26976872742E+04  0.12699999809E+01 0.  1.
       -4    1    3    3    0  502 -0.96880088901E+03 -0.94168348158E+03 -0.50372466106E+03  0.14419025935E+04  0.12699999809E+01 0. -1.
</event>
<event>
 5   0  0.2345471E-07  0.3693268E+04  0.7818609E-02  0.8069455E-01
       -1   -1    0    0    0  501  0.00000000000E+00  0.00000000000E+00  0.19627721915E+04  0.19627721915E+04  0.50400001928E-02 0. -1.
        1   -1    0    0  501    0  0.00000000000E+00  0.00000000000E+00 -0.17373678487E+04  0.17373678487E+04  0.50400001928E-02 0.  1.
    10030    2    1    2    0    0  0.00000000000E+00  0.00000000000E+00  0.22540434286E+03  0.37001400402E+04  0.36932680920E+04 0.  0.
        5    1    3    3  502    0  0.12542492364E+04  0.28063531406E+03  0.14411172399E+04  0.19309941263E+04  0.46999998093E+01 0. -1.
       -5    1    3    3    0  502 -0.12542492364E+04 -0.28063531406E+03 -0.12157128971E+04  0.17691459139E+04  0.46999998093E+01 0.  1.
</event>
<event>
 5   0  0.2287500E-07  0.3718872E+04  0.7818609E-02  0.8063792E-01
        1   -1    0    0  501    0  0.00000000000E+00  0.00000000000E+00  0.11022785941E+04  0.11022785941E+04  0.50400001928E-02 0.  1.
       -1   -1    0    0    0  501  0.00000000000E+00  0.00000000000E+00 -0.31366859253E+04  0.31366859253E+04  0.50400001928E-02 0. -1.
    10030    2    1    2    0    0  0.00000000000E+00  0.00000000000E+00 -0.20344073311E+04  0.42389645194E+04  0.37188717386E+04 0.  0.
        4    1    3    3  502    0 -0.17672682422E+04  0.44778482910E+03 -0.60033574705E+03  0.19194147324E+04  0.12699999809E+01 0. -1.
       -4    1    3    3    0  502  0.17672682422E+04 -0.44778482910E+03 -0.14340715841E+04  0.23195497870E+04  0.12699999809E+01 0.  1.
</event>
<event>
 5   0  0.7300916E-07  0.3750019E+04  0.7818609E-02  0.8056967E-01
       -2   -1    0    0    0  501  0.00000000000E+00  0.00000000000E+00  0.16482907971E+04  0.16482907971E+04  0.25500000920E-02 0.  1.
        2   -1    0    0  501    0  0.00000000000E+00  0.00000000000E+00 -0.21329126835E+04  0.21329126835E+04  0.25500000920E-02 0. -1.
    10030    2    1    2    0    0  0.00000000000E+00  0.00000000000E+00 -0.48462188644E+03  0.37812034806E+04  0.37500188518E+04 0.  0.
        1    1    3    3  502    0  0.17695713367E+04  0.49833554675E+03 -0.61407648702E+03  0.19382494588E+04  0.50400001928E-02 0.  1.
       -1    1    3    3    0  502 -0.17695713367E+04 -0.49833554675E+03  0.12945460058E+03  0.18429540218E+04  0.50400001928E-02 0. -1.
</event>
<event>
 5   0  0.2411746E-07  0.3849339E+04  0.7818609E-02  0.8035649E-01
        1   -1    0    0  501    0  0.00000000000E+00  0.00000000000E+00  0.21433724780E+04  0.21433724780E+04  0.50400001928E-02 0. -1.
       -1   -1    0    0    0  501  0.00000000000E+00  0.00000000000E+00 -0.17282821785E+04  0.17282821785E+04  0.50400001928E-02 0.  1.
    10030    2    1    2    0    0  0.00000000000E+00  0.00000000000E+00  0.41509029945E+03  0.38716546565E+04  0.38493388812E+04 0.  0.
        1    1    3    3  502    0 -0.48472859865E+03 -0.41568242806E+03 -0.16186345522E+04  0.17400377895E+04  0.50400001928E-02 0.  1.
       -1    1    3    3    0  502  0.48472859865E+03  0.41568242806E+03  0.20337248516E+04  0.21316168670E+04  0.50400001928E-02 0. -1.
</event>
<event>
 5   0  0.7074157E-07  0.3415784E+04  0.7818609E-02  0.8134043E-01
        2   -1    0    0  501    0  0.00000000000E+00  0.00000000000E+00  0.13168777562E+04  0.13168777562E+04  0.25500000920E-02 0.  1.
       -2   -1    0    0    0  501  0.00000000000E+00  0.00000000000E+00 -0.22150082397E+04  0.22150082397E+04  0.25500000920E-02 0. -1.
    10030    2    1    2    0    0  0.00000000000E+00  0.00000000000E+00 -0.89813048352E+03  0.35318859960E+04  0.34157839983E+04 0.  0.
        3    1    3    3  502    0 -0.23228133426E+03  0.51570551515E+03  0.12172273804E+04  0.13422180532E+04  0.10100000352E+00 0.  1.
       -3    1    3    3    0  502  0.23228133426E+03 -0.51570551515E+03 -0.21153578639E+04  0.21896679427E+04  0.10100000352E+00 0. -1.
</event>
<event>
 5   0  0.6939921E-07  0.3589278E+04  0.7818609E-02  0.8092952E-01
        2   -1    0    0  501    0  0.00000000000E+00  0.00000000000E+00  0.22821789652E+04  0.22821789652E+04  0.25500000920E-02 0. -1.
       -2   -1    0    0    0  501  0.00000000000E+00  0.00000000000E+00 -0.14112519445E+04  0.14112519445E+04  0.25500000920E-02 0.  1.
    10030    2    1    2    0    0  0.00000000000E+00  0.00000000000E+00  0.87092702065E+03  0.36934309097E+04  0.35892782017E+04 0.  0.
        4    1    3    3  502    0  0.12983318265E+04 -0.52630197772E+03  0.15896474239E+04  0.21188770254E+04  0.12699999809E+01 0. -1.
       -4    1    3    3    0  502 -0.12983318265E+04  0.52630197772E+03 -0.71872040329E+03  0.15745538843E+04  0.12699999809E+01 0.  1.
</event>
<event>
 5   0  0.2287500E-07  0.3698596E+04  0.7818609E-02  0.8068273E-01
        1   -1    0    0  501    0  0.00000000000E+00  0.00000000000E+00  0.24265752513E+04  0.24265752513E+04  0.50400001928E-02 0.  1.
       -1   -1    0    0    0  501  0.00000000000E+00  0.00000000000E+00 -0.14093541877E+04  0.14093541877E+04  0.50400001928E-02 0. -1.
    10030    2    1    2    0    0  0.00000000000E+00  0.00000000000E+00  0.10172210636E+04  0.38359294390E+04  0.36985964864E+04 0.  0.
        4    1    3    3  502    0  0.14403707798E+04 -0.88575545903E+03  0.12851936769E+04  0.21239009197E+04  0.12699999809E+01 0.  1.
       -4    1    3    3    0  502 -0.14403707798E+04  0.88575545903E+03 -0.26797261331E+03  0.17120285193E+04  0.12699999809E+01 0. -1.
</event>
<event>
 5   0  0.2411746E-07  0.3837471E+04  0.7818609E-02  0.8038161E-01
        1   -1    0    0  501    0  0.00000000000E+00  0.00000000000E+00  0.32124752479E+04  0.32124752479E+04  0.50400001928E-02 0. -1.
       -1   -1    0    0    0  501  0.00000000000E+00  0.00000000000E+00 -0.11460156133E+04  0.11460156133E+04  0.50400001928E-02 0.  1.
    10030    2    1    2    0    0  0.00000000000E+00  0.00000000000E+00  0.20664596347E+04  0.43584908612E+04  0.38374714547E+04 0.  0.
        1    1    3    3  502    0 -0.66763389373E+03 -0.24889164712E+03 -0.99018622020E+03  0.12198978723E+04  0.50400001928E-02 0.  1.
       -1    1    3    3    0  502  0.66763389373E+03  0.24889164712E+03  0.30566458549E+04  0.31385929889E+04  0.50400001928E-02 0. -1.
</event>
<event>
 5   0  0.7124627E-07  0.3675243E+04  0.7818609E-02  0.8073471E-01
        2   -1    0    0  501    0  0.00000000000E+00  0.00000000000E+00  0.17539174913E+04  0.17539174913E+04  0.25500000920E-02 0.  1.
       -2   -1    0    0    0  501  0.00000000000E+00  0.00000000000E+00 -0.19253199908E+04  0.19253199908E+04  0.25500000920E-02 0. -1.
    10030    2    1    2    0    0  0.00000000000E+00  0.00000000000E+00 -0.17140249948E+03  0.36792374822E+04  0.36752427992E+04 0.  0.
        2    1    3    3  502    0 -0.12844060784E+04 -0.12315767063E+04  0.37346082760E+03  0.18182280241E+04  0.25500000920E-02 0.  1.
       -2    1    3    3    0  502  0.12844060784E+04  0.12315767063E+04 -0.54486332708E+03  0.18610094581E+04  0.25500000920E-02 0. -1.
</event>
<event>
 5   0  0.7074157E-07  0.3658473E+04  0.7818609E-02  0.8077228E-01
        2   -1    0    0  501    0  0.00000000000E+00  0.00000000000E+00  0.23717774116E+04  0.23717774116E+04  0.25500000920E-02 0. -1.
       -2   -1    0    0    0  501  0.00000000000E+00  0.00000000000E+00 -0.14108007566E+04  0.14108007566E+04  0.25500000920E-02 0.  1.
    10030    2    1    2    0    0  0.00000000000E+00  0.00000000000E+00  0.96097665499E+03  0.37825781682E+04  0.36584725593E+04 0.  0.
        3    1    3    3  502    0  0.27988757969E+03  0.16222931804E+03 -0.13809890802E+04  0.14183745129E+04  0.10100000352E+00 0.  1.
       -3    1    3    3    0  502 -0.27988757969E+03 -0.16222931804E+03  0.23419657352E+04  0.23642036553E+04  0.10100000352E+00 0. -1.
</event>
<event>
 5   0  0.2287500E-07  0.3685818E+04  0.7818609E-02  0.8071112E-01
       -1   -1    0    0    0  501  0.00000000000E+00  0.00000000000E+00  0.16096468080E+04  0.16096468080E+04  0.50400001928E-02 0. -1.
        1   -1    0    0  501    0  0.00000000000E+00  0.00000000000E+00 -0.21099748231E+04  0.21099748232E+04  0.50400001928E-02 0.  1.
    10030    2    1    2    0    0  0.00000000000E+00  0.00000000000E+00 -0.50032801511E+03  0.37196216312E+04  0.36858183564E+04 0.  0.
        4    1    3    3  502    0  0.45118799106E+03 -0.69754447073E+03  0.14099681927E+04  0.16365056704E+04  0.12699999809E+01 0. -1.
       -4    1    3    3    0  502 -0.45118799106E+03  0.69754447073E+03 -0.19102962078E+04  0.20831159608E+04  0.12699999809E+01 0.  1.
</event>
<event>
 5   0  0.2287500E-07  0.3683307E+04  0.7818609E-02  0.8071671E-01
        1   -1    0    0  501    0  0.00000000000E+00  0.00000000000E+00  0.17390519960E+04  0.17390519961E+04  0.50400001928E-02 0.  1.
       -1   -1    0    0    0  501  0.00000000000E+00  0.00000000000E+00 -0.19503087212E+04  0.19503087212E+04  0.50400001928E-02 0. -1.
    10030    2    1    2    0    0  0.00000000000E+00  0.00000000000E+00 -0.21125672518E+03  0.36893607173E+04  0.36833073586E+04 0.  0.
        2    1    3    3  502    0 -0.86105702991E+03 -0.22799479498E+03 -0.17201979047E+04  0.19371323307E+04  0.25500000920E-02 0. -1.
       -2    1    3    3    0  502  0.86105702991E+03  0.22799479498E+03  0.15089411796E+04  0.17522283866E+04  0.25500000920E-02 0.  1.
</event>
<event>
 5   0  0.2411746E-07  0.3621202E+04  0.7818609E-02  0.8085652E-01
        1   -1    0    0  501    0  0.00000000000E+00  0.00000000000E+00  0.19885474660E+04  0.19885474660E+04  0.50400001928E-02 0.  1.
       -1   -1    0    0    0  501  0.00000000000E+00  0.00000000000E+00 -0.16485781000E+04  0.16485781000E+04  0.50400001928E-02 0. -1.
    10030    2    1    2    0    0  0.00000000000E+00  0.00000000000E+00  0.33996936598E+03  0.36371255661E+04  0.36212019018E+04 0.  0.
        1    1    3    3  502    0 -0.97004611943E+03  0.20827960690E+03 -0.13512399784E+04  0.16763708861E+04  0.50400001928E-02 0. -1.
       -1    1    3    3    0  502  0.97004611943E+03 -0.20827960690E+03  0.16912093444E+04  0.19607546800E+04  0.50400001928E-02 0.  1.
</event>
<event>
 5   0  0.7124627E-07  0.3641088E+04  0.7818609E-02  0.8081144E-01
        2   -1    0    0  501    0  0.00000000000E+00  0.00000000000E+00  0.15815530560E+04  0.15815530560E+04  0.25500000920E-02 0.  1.
       -2   -1    0    0    0  501  0.00000000000E+00  0.00000000000E+00 -0.20956487106E+04  0.20956487106E+04  0.25500000920E-02 0. -1.
    10030    2    1    2    0    0  0.00000000000E+00  0.00000000000E+00 -0.51409565451E+03  0.36772017666E+04  0.36410875422E+04 0.  0.
        2    1    3    3  502    0  0.27548074451E+03  0.17361476512E+04  0.22123290618E+03  0.17717342651E+04  0.25500000920E-02 0.  1.
       -2    1    3    3    0  502 -0.27548074451E+03 -0.17361476512E+04 -0.73532856069E+03  0.19054675015E+04  0.25500000920E-02 0. -1.
</event>
<event>
 5   0  0.2345471E-07  0.3719450E+04  0.7818609E-02  0.8063665E-01
        1   -1    0    0  501    0  0.00000000000E+00  0.00000000000E+00  0.23564249005E+04  0.23564249005E+04  0.50400001928E-02 0. -1.
       -1   -1    0    0    0  501  0.00000000000E+00  0.00000000000E+00 -0.14677218647E+04  0.14677218647E+04  0.50400001928E-02 0.  1.
    10030    2    1    2    0    0  0.00000000000E+00  0.00000000000E+00  0.88870303577E+03  0.38241467653E+04  0.37194496093E+04 0.  0.
        5    1    3    3  502    0  0.95317830737E+03 -0.14938599126E+04  0.10244933383E+04  0.20468939919E+04  0.46999998093E+01 0.  1.
       -5    1    3    3    0  502 -0.95317830737E+03  0.14938599126E+04 -0.13579030249E+03  0.17772527733E+04  0.46999998093E+01 0. -1.
</event>
<event>
 5   0  0.2287500E-07  0.2999966E+04  0.7818609E-02  0.8243741E-01
       -1   -1    0    0    0  501  0.00000000000E+00  0.00000000000E+00  0.16355893592E+04  0.16355893592E+04  0.50400001928E-02 0. -1.
        1   -1    0    0  501    0  0.00000000000E+00  0.00000000000E+00 -0.13756197603E+04  0.13756197603E+04  0.50400001928E-02 0.  1.
    10030    2    1    2    0    0  0.00000000000E+00  0.00000000000E+00  0.25996959897E+03  0.30112091195E+04  0.29999660280E+04 0.  0.
        3    1    3    3  502    0 -0.13190566063E+04  0.11739974322E+03  0.83707931127E+03  0.15666508270E+04  0.10100000352E+00 0. -1.
       -3    1    3    3    0  502  0.13190566063E+04 -0.11739974322E+03 -0.57710971229E+03  0.14445582925E+04  0.10100000352E+00 0.  1.
</event>
<event>
 5   0  0.7074157E-07  0.3688246E+04  0.7818609E-02  0.8070572E-01
       -2   -1    0    0    0  501  0.00000000000E+00  0.00000000000E+00  0.12244406235E+04  0.12244406235E+04  0.25500000920E-02 0.  1.
        2   -1    0    0  501    0  0.00000000000E+00  0.00000000000E+00 -0.27774231697E+04  0.27774231697E+04  0.25500000920E-02 0. -1.
    10030    2    1    2    0    0  0.00000000000E+00  0.00000000000E+00 -0.15529825462E+04  0.40018637932E+04  0.36882460642E+04 0.  0.
        3    1    3    3  502    0  0.85898568477E+03 -0.48300455224E+03 -0.24677629451E+04  0.26572549309E+04  0.10100000352E+00 0. -1.
       -3    1    3    3    0  502 -0.85898568477E+03  0.48300455224E+03  0.91478039891E+03  0.13446088623E+04  0.10100000352E+00 0.  1.
</event>
<event>
 5   0  0.7074157E-07  0.3646880E+04  0.7818609E-02  0.8079837E-01
       -2   -1    0    0    0  501  0.00000000000E+00  0.00000000000E+00  0.13354496614E+04  0.13354496614E+04  0.25500000920E-02 0.  1.
        2   -1    0    0  501    0  0.00000000000E+00  0.00000000000E+00 -0.24897479084E+04  0.24897479084E+04  0.25500000920E-02 0. -1.
    10030    2    1    2    0    0  0.00000000000E+00  0.00000000000E+00 -0.11542982471E+04  0.38251975698E+04  0.36468797629E+04 0.  0.
        3    1    3    3  502    0 -0.12839942856E+04  0.54666741451E+03 -0.18081823670E+04  0.22840775096E+04  0.10100000352E+00 0. -1.
       -3    1    3    3    0  502  0.12839942856E+04 -0.54666741451E+03  0.65388411994E+03  0.15411200602E+04  0.10100000352E+00 0.  1.
</event>
<event>
 5   0  0.2411746E-07  0.3687691E+04  0.7818609E-02  0.8070695E-01
        1   -1    0    0  501    0  0.00000000000E+00  0.00000000000E+00  0.18626516349E+04  0.18626516349E+04  0.50400001928E-02 0. -1.
       -1   -1    0    0    0  501  0.00000000000E+00  0.00000000000E+00 -0.18252292658E+04  0.18252292658E+04  0.50400001928E-02 0.  1.
    10030    2    1    2    0    0  0.00000000000E+00  0.00000000000E+00  0.37422369043E+02  0.36878809007E+04  0.36876910261E+04 0.  0.
        1    1    3    3  502    0 -0.15834670901E+04  0.57898264346E+03 -0.72777038067E+03  0.18363656101E+04  0.50400001928E-02 0.  1.
       -1    1    3    3    0  502  0.15834670901E+04 -0.57898264346E+03  0.76519274971E+03  0.18515152906E+04  0.50400001928E-02 0. -1.
</event>
<event>
 5   0  0.7300916E-07  0.3777696E+04  0.7818609E-02  0.8050958E-01
       -2   -1    0    0    0  501  0.00000000000E+00  0.00000000000E+00  0.19665785359E+04  0.19665785359E+04  0.25500000920E-02 0. -1.
        2   -1    0    0  501    0  0.00000000000E+00  0.00000000000E+00 -0.18141900061E+04  0.18141900061E+04  0.25500000920E-02 0.  1.
    10030    2    1    2    0    0  0.00000000000E+00  0.00000000000E+00  0.15238852987E+03  0.37807685420E+04  0.37776961900E+04 0.  0.
        1    1    3    3  502    0  0.31366895329E+03 -0.72426992911E+03  0.17936295198E+04  0.19596076129E+04  0.50400001928E-02 0. -1.
       -1    1    3    3    0  502 -0.31366895329E+03  0.72426992911E+03 -0.16412409899E+04  0.18211609290E+04  0.50400001928E-02 0.  1.
</event>
<event>
 5   0  0.2287500E-07  0.3618531E+04  0.7818609E-02  0.8086260E-01
       -1   -1    0    0    0  501  0.00000000000E+00  0.00000000000E+00  0.12863578640E+04  0.12863578640E+04  0.50400001928E-02 0.  1.
        1   -1    0    0  501    0  0.00000000000E+00  0.00000000000E+00 -0.25447358795E+04  0.25447358795E+04  0.50400001928E-02 0. -1.
    10030    2    1    2    0    0  0.00000000000E+00  0.00000000000E+00 -0.12583780155E+04  0.38310937436E+04  0.36185306469E+04 0.  0.
        2    1    3    3  502    0  0.90319267183E+03  0.41438119110E+03  0.97157016638E+03  0.13897544251E+04  0.25500000920E-02 0.  1.
       -2    1    3    3    0  502 -0.90319267183E+03 -0.41438119110E+03 -0.22299481819E+04  0.24413393185E+04  0.25500000920E-02 0. -1.
</event>
<event>
 5   0  0.2411746E-07  0.3330816E+04  0.7818609E-02  0.8155098E-01
        1   -1    0    0  501    0  0.00000000000E+00  0.00000000000E+00  0.16041731407E+04  0.16041731407E+04  0.50400001928E-02 0.  1.
       -1   -1    0    0    0  501  0.00000000000E+00  0.00000000000E+00 -0.17289804182E+04  0.17289804182E+04  0.50400001928E-02 0. -1.
    10030    2    1    2    0    0  0.00000000000E+00  0.00000000000E+00 -0.12480727745E+03  0.33331535589E+04  0.33308160848E+04 0.  0.
        1    1    3    3  502    0  0.41916250460E+03  0.15135059053E+04  0.49222949988E+03  0.16458089838E+04  0.50400001928E-02 0.  1.
       -1    1    3    3    0  502 -0.41916250460E+03 -0.15135059053E+04 -0.61703677733E+03  0.16873445751E+04  0.50400001928E-02 0. -1.
</event>
<event>
 5   0  0.6949625E-07  0.3683291E+04  0.7818609E-02  0.8071675E-01
        2   -1    0    0  501    0  0.00000000000E+00  0.00000000000E+00  0.20917485228E+04  0.20917485229E+04  0.25500000920E-02 0.  1.
       -2   -1    0    0    0  501  0.00000000000E+00  0.00000000000E+00 -0.16214466071E+04  0.16214466071E+04  0.25500000920E-02 0. -1.
    10030    2    1    2    0    0  0.00000000000E+00  0.00000000000E+00  0.47030191576E+03  0.37131951299E+04  0.36832912159E+04 0.  0.
        5    1    3    3  502    0 -0.11214433317E+04 -0.14387736859E+04 -0.19748825663E+02  0.18243127395E+04  0.46999998093E+01 0.  1.
       -5    1    3    3    0  502  0.11214433317E+04  0.14387736859E+04  0.49005074143E+03  0.18888823904E+04  0.46999998093E+01 0. -1.
</event>
<event>
 5   0  0.7300916E-07  0.3644859E+04  0.7818609E-02  0.8080293E-01
       -2   -1    0    0    0  501  0.00000000000E+00  0.00000000000E+00  0.17172409115E+04  0.17172409115E+04  0.25500000920E-02 0. -1.
        2   -1    0    0  501    0  0.00000000000E+00  0.00000000000E+00 -0.19340610012E+04  0.19340610012E+04  0.25500000920E-02 0.  1.
    10030    2    1    2    0    0  0.00000000000E+00  0.00000000000E+00 -0.21682008969E+03  0.36513019127E+04  0.36448586676E+04 0.  0.
        1    1    3    3  502    0 -0.76484383998E+03  0.93963534958E+03  0.12553737861E+04  0.17446673128E+04  0.50400001928E-02 0. -1.
       -1    1    3    3    0  502  0.76484383998E+03 -0.93963534958E+03 -0.14721938757E+04  0.19066345999E+04  0.50400001928E-02 0.  1.
</event>
<event>
 5   0  0.2287500E-07  0.3191612E+04  0.7818609E-02  0.8191036E-01
        1   -1    0    0  501    0  0.00000000000E+00  0.00000000000E+00  0.16036530158E+04  0.16036530158E+04  0.50400001928E-02 0.  1.
       -1   -1    0    0    0  501  0.00000000000E+00  0.00000000000E+00 -0.15879971275E+04  0.15879971275E+04  0.50400001928E-02 0. -1.
    10030    2    1    2    0    0  0.00000000000E+00  0.00000000000E+00  0.15655888329E+02  0.31916501433E+04  0.31916117450E+04 0.  0.
        2    1    3    3  502    0  0.10451308562E+04  0.10287098799E+04  0.63716361681E+03  0.15989121296E+04  0.25500000920E-02 0.  1.
       -2    1    3    3    0  502 -0.10451308562E+04 -0.10287098799E+04 -0.62150772848E+03  0.15927380137E+04  0.25500000920E-02 0. -1.
</event>
<event>
 5   0  0.2287500E-07  0.3676305E+04  0.7818609E-02  0.8073233E-01
        1   -1    0    0  501    0  0.00000000000E+00  0.00000000000E+00  0.16209553824E+04  0.16209553824E+04  0.50400001928E-02 0.  1.
       -1   -1    0    0    0  501  0.00000000000E+00  0.00000000000E+00 -0.20844522893E+04  0.20844522894E+04  0.50400001928E-02 0. -1.
    10030    2    1    2    0    0  0.00000000000E+00  0.00000000000E+00 -0.46349690698E+03  0.37054076717E+04  0.36763047522E+04 0.  0.
        2    1    3    3  502    0  0.97212919659E+03  0.57528188915E+02  0.13395861849E+04  0.16561509032E+04  0.25500000920E-02 0.  1.
       -2    1    3    3    0  502 -0.97212919659E+03 -0.57528188915E+02 -0.18030830918E+04  0.20492567686E+04  0.25500000920E-02 0. -1.
</event>
<event>
 5   0  0.7124627E-07  0.3707275E+04  0.7818609E-02  0.8066352E-01
        2   -1    0    0  501    0  0.00000000000E+00  0.00000000000E+00  0.12614205036E+04  0.12614205036E+04  0.25500000920E-02 0.  1.
       -2   -1    0    0    0  501  0.00000000000E+00  0.00000000000E+00 -0.27238910608E+04  0.27238910608E+04  0.25500000920E-02 0. -1.
    10030    2    1    2    0    0  0.00000000000E+00  0.00000000000E+00 -0.14624705572E+04  0.39853115644E+04  0.37072750282E+04 0.  0.
        2    1    3    3  502    0  0.32803907438E+03  0.17704714645E+04 -0.12044701430E+04  0.21663164972E+04  0.25500000920E-02 0. -1.
       -2    1    3    3    0  502 -0.32803907438E+03 -0.17704714645E+04 -0.25800041429E+03  0.18189950672E+04  0.25500000920E-02 0.  1.
</event>
<event>
 5   0  0.2287500E-07  0.3717544E+04  0.7818609E-02  0.8064085E-01
       -1   -1    0    0    0  501  0.00000000000E+00  0.00000000000E+00  0.16173297024E+04  0.16173297024E+04  0.50400001928E-02 0.  1.
        1   -1    0    0  501    0  0.00000000000E+00  0.00000000000E+00 -0.21362574289E+04  0.21362574289E+04  0.50400001928E-02 0. -1.
    10030    2    1    2    0    0  0.00000000000E+00  0.00000000000E+00 -0.51892772651E+03  0.37535871313E+04  0.37175435932E+04 0.  0.
        3    1    3    3  502    0 -0.21986069769E+03 -0.11001663359E+04 -0.17558339565E+04  0.20836644610E+04  0.10100000352E+00 0. -1.
       -3    1    3    3    0  502  0.21986069769E+03  0.11001663359E+04  0.12369062300E+04  0.16699226704E+04  0.10100000352E+00 0.  1.
</event>
<event>
 5   0  0.6949625E-07  0.3730592E+04  0.7818609E-02  0.8061216E-01
        2   -1    0    0  501    0  0.00000000000E+00  0.00000000000E+00  0.19516611554E+04  0.19516611554E+04  0.25500000920E-02 0.  1.
       -2   -1    0    0    0  501  0.00000000000E+00  0.00000000000E+00 -0.17827529186E+04  0.17827529186E+04  0.25500000920E-02 0. -1.
    10030    2    1    2    0    0  0.00000000000E+00  0.00000000000E+00  0.16890823681E+03  0.37344140740E+04  0.37305922430E+04 0.  0.
        5    1    3    3  502    0 -0.97325942769E+03 -0.33786759826E+03  0.16410130633E+04  0.19376104849E+04  0.46999998093E+01 0.  1.
       -5    1    3    3    0  502  0.97325942769E+03  0.33786759826E+03 -0.14721048265E+04  0.17968035890E+04  0.46999998093E+01 0. -1.
</event>
<event>
 5   0  0.2287500E-07  0.3667251E+04  0.7818609E-02  0.8075258E-01
        1   -1    0    0  501    0  0.00000000000E+00  0.00000000000E+00  0.21096987354E+04  0.21096987354E+04  0.50400001928E-02 0.  1.
       -1   -1    0    0    0  501  0.00000000000E+00  0.00000000000E+00 -0.15936788995E+04  0.15936788995E+04  0.50400001928E-02 0. -1.
    10030    2    1    2    0    0  0.00000000000E+00  0.00000000000E+00  0.51601983591E+03  0.37033776349E+04  0.36672509371E+04 0.  0.
        3    1    3    3  502    0 -0.11342863547E+04  0.49822075068E+02 -0.11959985267E+04  0.16490907373E+04  0.10100000352E+00 0. -1.
       -3    1    3    3    0  502  0.11342863547E+04 -0.49822075068E+02  0.17120183626E+04  0.20542868976E+04  0.10100000352E+00 0.  1.
</event>
<event>
 5   0  0.7124627E-07  0.3729296E+04  0.7818609E-02  0.8061500E-01
       -2   -1    0    0    0  501  0.00000000000E+00  0.00000000000E+00  0.22899716853E+04  0.22899716853E+04  0.25500000920E-02 0.  1.
        2   -1    0    0  501    0  0.00000000000E+00  0.00000000000E+00 -0.15183207023E+04  0.15183207023E+04  0.25500000920E-02 0. -1.
    10030    2    1    2    0    0  0.00000000000E+00  0.00000000000E+00  0.77165098306E+03  0.38082923876E+04  0.37292955997E+04 0.  0.
        2    1    3    3  502    0 -0.51694205617E+03 -0.16092177460E+04  0.11899708185E+04  0.20670852407E+04  0.25500000920E-02 0.  1.
       -2    1    3    3    0  502  0.51694205617E+03  0.16092177460E+04 -0.41831983545E+03  0.17412071468E+04  0.25500000920E-02 0. -1.
</event>
<event>
 5   0  0.7124627E-07  0.3652307E+04  0.7818609E-02  0.8078614E-01
        2   -1    0    0  501    0  0.00000000000E+00  0.00000000000E+00  0.23085771530E+04  0.23085771530E+04  0.25500000920E-02 0. -1.
       -2   -1    0    0    0  501  0.00000000000E+00  0.00000000000E+00 -0.14445422080E+04  0.14445422080E+04  0.25500000920E-02 0.  1.
    10030    2    1    2    0    0  0.00000000000E+00  0.00000000000E+00  0.86403494504E+03  0.37531193610E+04  0.36523072915E+04 0.  0.
        2    1    3    3  502    0  0.41672388626E+03  0.64025945862E+03  0.21364891591E+04  0.22689594308E+04  0.25500000920E-02 0. -1.
       -2    1    3    3    0  502 -0.41672388626E+03 -0.64025945862E+03 -0.12724542140E+04  0.14841599302E+04  0.25500000920E-02 0.  1.
</event>
<event>
 5   0  0.2411746E-07  0.3665952E+04  0.7818609E-02  0.8075549E-01
       -1   -1    0    0    0  501  0.00000000000E+00  0.00000000000E+00  0.14563099696E+04  0.14563099696E+04  0.50400001928E-02 0.  1.
        1   -1    0    0  501    0  0.00000000000E+00  0.00000000000E+00 -0.23070641544E+04  0.23070641544E+04  0.50400001928E-02 0. -1.
    10030    2    1    2    0    0  0.00000000000E+00  0.00000000000E+00 -0.85075418480E+03  0.37633741239E+04  0.36659517337E+04 0.  0.
        1    1    3    3  502    0 -0.16989686988E+04 -0.42249236997E+03 -0.98276670935E+03  0.20076914223E+04  0.50400001928E-02 0. -1.
       -1    1    3    3    0  502  0.16989686988E+04  0.42249236997E+03  0.13201252455E+03  0.17556827016E+04  0.50400001928E-02 0.  1.
</event>
<event>
 5   0  0.7074157E-07  0.3619324E+04  0.7818609E-02  0.8086080E-01
       -2   -1    0    0    0  501  0.00000000000E+00  0.00000000000E+00  0.11360011167E+04  0.11360011167E+04  0.25500000920E-02 0. -1.
        2   -1    0    0  501    0  0.00000000000E+00  0.00000000000E+00 -0.28828106855E+04  0.28828106855E+04  0.25500000920E-02 0.  1.
    10030    2    1    2    0    0  0.00000000000E+00  0.00000000000E+00 -0.17468095688E+04  0.40188118022E+04  0.36193237810E+04 0.  0.
        3    1    3    3  502    0  0.91901533276E+03 -0.86757785097E+03  0.56477730789E+03  0.13842882384E+04  0.10100000352E+00 0. -1.
       -3    1    3    3    0  502 -0.91901533276E+03  0.86757785097E+03 -0.23115868767E+04  0.26345235638E+04  0.10100000352E+00 0.  1.
</event>
<event>
 5   0  0.7124627E-07  0.3690226E+04  0.7818609E-02  0.8070131E-01
        2   -1    0    0  501    0  0.00000000000E+00  0.00000000000E+00  0.24482295790E+04  0.24482295790E+04  0.25500000920E-02 0.  1.
       -2   -1    0    0    0  501  0.00000000000E+00  0.00000000000E+00 -0.13905729001E+04  0.13905729001E+04  0.25500000920E-02 0. -1.
    10030    2    1    2    0    0  0.00000000000E+00  0.00000000000E+00  0.10576566789E+04  0.38388024791E+04  0.36902258499E+04 0.  0.
        2    1    3    3  502    0  0.14102849039E+04 -0.22724260826E+03 -0.68605317569E+03  0.15846803062E+04  0.25500000920E-02 0. -1.
       -2    1    3    3    0  502 -0.14102849039E+04  0.22724260826E+03  0.17437098546E+04  0.22541221729E+04  0.25500000920E-02 0.  1.
</event>
<event>
 5   0  0.2287500E-07  0.3663134E+04  0.7818609E-02  0.8076181E-01
       -1   -1    0    0    0  501  0.00000000000E+00  0.00000000000E+00  0.16636698379E+04  0.16636698379E+04  0.50400001928E-02 0.  1.
        1   -1    0    0  501    0  0.00000000000E+00  0.00000000000E+00 -0.20164084000E+04  0.20164084000E+04  0.50400001928E-02 0. -1.
    10030    2    1    2    0    0  0.00000000000E+00  0.00000000000E+00 -0.35273856217E+03  0.36800782379E+04  0.36631340876E+04 0.  0.
        3    1    3    3  502    0  0.11318537191E+04 -0.14199034142E+04  0.64362319016E+02  0.18169647947E+04  0.10100000352E+00 0.  1.
       -3    1    3    3    0  502 -0.11318537191E+04  0.14199034142E+04 -0.41710088119E+03  0.18631134432E+04  0.10100000352E+00 0. -1.
</event>
<event>
 5   0  0.2287500E-07  0.3673041E+04  0.7818609E-02  0.8073963E-01
       -1   -1    0    0    0  501  0.00000000000E+00  0.00000000000E+00  0.14086116069E+04  0.14086116069E+04  0.50400001928E-02 0. -1.
        1   -1    0    0  501    0  0.00000000000E+00  0.00000000000E+00 -0.23944202007E+04  0.23944202008E+04  0.50400001928E-02 0.  1.
    10030    2    1    2    0    0  0.00000000000E+00  0.00000000000E+00 -0.98580859390E+03  0.38030318076E+04  0.36730412938E+04 0.  0.
        3    1    3    3  502    0 -0.68664509524E+03  0.16271668052E+04 -0.10143699042E+04  0.20366883933E+04  0.10100000352E+00 0.  1.
       -3    1    3    3    0  502  0.68664509524E+03 -0.16271668052E+04  0.28561310305E+02  0.17663434143E+04  0.10100000352E+00 0. -1.
</event>
<event>
 5   0  0.2287500E-07  0.3708047E+04  0.7818609E-02  0.8066181E-01
        1   -1    0    0  501    0  0.00000000000E+00  0.00000000000E+00  0.19525732078E+04  0.19525732078E+04  0.50400001928E-02 0.  1.
       -1   -1    0    0    0  501  0.00000000000E+00  0.00000000000E+00 -0.17604478451E+04  0.17604478451E+04  0.50400001928E-02 0. -1.
    10030    2    1    2    0    0  0.00000000000E+00  0.00000000000E+00  0.19212536273E+03  0.37130210529E+04  0.37080470849E+04 0.  0.
        4    1    3    3  502    0 -0.14545804190E+04  0.11109427897E+04  0.39210026202E+03  0.18718285994E+04  0.12699999809E+01 0. -1.
       -4    1    3    3    0  502  0.14545804190E+04 -0.11109427897E+04 -0.19997489929E+03  0.18411924534E+04  0.12699999809E+01 0.  1.
</event>
<event>
 5   0  0.7074157E-07  0.3691892E+04  0.7818609E-02  0.8069761E-01
       -2   -1    0    0    0  501  0.00000000000E+00  0.00000000000E+00  0.24129673632E+04  0.24129673632E+04  0.25500000920E-02 0. -1.
        2   -1    0    0  501    0  0.00000000000E+00  0.00000000000E+00 -0.14121688729E+04  0.14121688729E+04  0.25500000920E-02 0.  1.
    10030    2    1    2    0    0  0.00000000000E+00  0.00000000000E+00  0.10007984902E+04  0.38251362361E+04  0.36918924154E+04 0.  0.
        3    1    3    3  502    0 -0.75537749116E+03  0.25251612624E+03 -0.12249823678E+04  0.14611438532E+04  0.10100000352E+00 0.  1.
       -3    1    3    3    0  502  0.75537749116E+03 -0.25251612624E+03  0.22257808580E+04  0.23639923829E+04  0.10100000352E+00 0. -1.
</event>
<event>
 5   0  0.7124627E-07  0.3652691E+04  0.7818609E-02  0.8078528E-01
       -2   -1    0    0    0  501  0.00000000000E+00  0.00000000000E+00  0.13668123637E+04  0.13668123638E+04  0.25500000920E-02 0.  1.
        2   -1    0    0  501    0  0.00000000000E+00  0.00000000000E+00 -0.24403769974E+04  0.24403769974E+04  0.25500000920E-02 0. -1.
    10030    2    1    2    0    0  0.00000000000E+00  0.00000000000E+00 -0.10735646337E+04  0.38071893612E+04  0.36526907629E+04 0.  0.
        2    1    3    3  502    0  0.28902705737E+03 -0.25783278105E+03  0.13235132414E+04  0.13790220024E+04  0.25500000920E-02 0.  1.
       -2    1    3    3    0  502 -0.28902705737E+03  0.25783278105E+03 -0.23970778751E+04  0.24281673588E+04  0.25500000920E-02 0. -1.
</event>
<event>
 5   0  0.6939921E-07  0.3694531E+04  0.7818609E-02  0.8069175E-01
       -2   -1    0    0    0  501  0.00000000000E+00  0.00000000000E+00  0.26570358556E+04  0.26570358556E+04  0.25500000920E-02 0. -1.
        2   -1    0    0  501    0  0.00000000000E+00  0.00000000000E+00 -0.12842846354E+04  0.12842846354E+04  0.25500000920E-02 0.  1.
    10030    2    1    2    0    0  0.00000000000E+00  0.00000000000E+00  0.13727512202E+04  0.39413204910E+04  0.36945312693E+04 0.  0.
        4    1    3    3  502    0 -0.17713161202E+04  0.45622645249E+02  0.12923862633E+03  0.17766109475E+04  0.12699999809E+01 0.  1.
       -4    1    3    3    0  502  0.17713161202E+04 -0.45622645249E+02  0.12435125939E+04  0.21647095434E+04  0.12699999809E+01 0. -1.
</event>
<event>
 5   0  0.2287500E-07  0.3101968E+04  0.7818609E-02  0.8215198E-01
        1   -1    0    0  501    0  0.00000000000E+00  0.00000000000E+00  0.17337255276E+04  0.17337255276E+04  0.50400001928E-02 0.  1.
       -1   -1    0    0    0  501  0.00000000000E+00  0.00000000000E+00 -0.13875043009E+04  0.13875043009E+04  0.50400001928E-02 0. -1.
    10030    2    1    2    0    0  0.00000000000E+00  0.00000000000E+00  0.34622122670E+03  0.31212298286E+04  0.31019681663E+04 0.  0.
        2    1    3    3  502    0  0.11276580276E+04  0.61697743259E+03  0.10464157403E+04  0.16574859520E+04  0.25500000920E-02 0.  1.
       -2    1    3    3    0  502 -0.11276580276E+04 -0.61697743259E+03 -0.70019451357E+03  0.14637438766E+04  0.25500000920E-02 0. -1.
</event>
<event>
 5   0  0.7300916E-07  0.3734934E+04  0.7818609E-02  0.8060264E-01
        2   -1    0    0  501    0  0.00000000000E+00  0.00000000000E+00  0.19465598317E+04  0.19465598317E+04  0.25500000920E-02 0. -1.
       -2   -1    0    0    0  501  0.00000000000E+00  0.00000000000E+00 -0.17915882258E+04  0.17915882258E+04  0.25500000920E-02 0.  1.
    10030    2    1    2    0    0  0.00000000000E+00  0.00000000000E+00  0.15497160589E+03  0.37381480574E+04  0.37349343636E+04 0.  0.
        1    1    3    3  502    0 -0.42047768680E+03 -0.11318934463E+04 -0.13483274265E+04  0.18099643941E+04  0.50400001928E-02 0.  1.
       -1    1    3    3    0  502  0.42047768680E+03  0.11318934463E+04  0.15032990324E+04  0.19281836633E+04  0.50400001928E-02 0. -1.
</event>
<event>
 5   0  0.7124627E-07  0.3633501E+04  0.7818609E-02  0.8082861E-01
        2   -1    0    0  501    0  0.00000000000E+00  0.00000000000E+00  0.22538450786E+04  0.22538450786E+04  0.25500000920E-02 0. -1.
       -2   -1    0    0    0  501  0.00000000000E+00  0.00000000000E+00 -0.14644227531E+04  0.14644227531E+04  0.25500000920E-02 0.  1.
    10030    2    1    2    0    0  0.00000000000E+00  0.00000000000E+00  0.78942232553E+03  0.37182678317E+04  0.36335007995E+04 0.  0.
        2    1    3    3  502    0  0.21075786821E+03  0.14694985664E+04  0.14663949894E+04  0.20866622105E+04  0.25500000920E-02 0. -1.
       -2    1    3    3    0  502 -0.21075786821E+03 -0.14694985664E+04 -0.67697266386E+03  0.16316056212E+04  0.25500000920E-02 0.  1.
</event>
<event>
 5   0  0.2411746E-07  0.3746475E+04  0.7818609E-02  0.8057740E-01
        1   -1    0    0  501    0  0.00000000000E+00  0.00000000000E+00  0.19975436131E+04  0.19975436131E+04  0.50400001928E-02 0. -1.
       -1   -1    0    0    0  501  0.00000000000E+00  0.00000000000E+00 -0.17566667795E+04  0.17566667795E+04  0.50400001928E-02 0.  1.
    10030    2    1    2    0    0  0.00000000000E+00  0.00000000000E+00  0.24087683357E+03  0.37542103926E+04  0.37464748796E+04 0.  0.
        1    1    3    3  502    0  0.12614923795E+04  0.77622951393E+03  0.12695944624E+04  0.19508370975E+04  0.50400001928E-02 0. -1.
       -1    1    3    3    0  502 -0.12614923795E+04 -0.77622951393E+03 -0.10287176288E+04  0.18033732952E+04  0.50400001928E-02 0.  1.
</event>
<event>
 5   0  0.2287500E-07  0.3704214E+04  0.7818609E-02  0.8067029E-01
        1   -1    0    0  501    0  0.00000000000E+00  0.00000000000E+00  0.16183761964E+04  0.16183761964E+04  0.50400001928E-02 0. -1.
       -1   -1    0    0    0  501  0.00000000000E+00  0.00000000000E+00 -0.21195944078E+04  0.21195944078E+04  0.50400001928E-02 0.  1.
    10030    2    1    2    0    0  0.00000000000E+00  0.00000000000E+00 -0.50121821144E+03  0.37379706042E+04  0.37042144299E+04 0.  0.
        3    1    3    3  502    0 -0.10965738669E+04 -0.24393052451E+03  0.12353331364E+04  0.16697377981E+04  0.10100000352E+00 0. -1.
       -3    1    3    3    0  502  0.10965738669E+04  0.24393052451E+03 -0.17365513479E+04  0.20682328061E+04  0.10100000352E+00 0.  1.
</event>
<event>
 5   0  0.2287500E-07  0.3715593E+04  0.7818609E-02  0.8064515E-01
       -1   -1    0    0    0  501  0.00000000000E+00  0.00000000000E+00  0.28568802918E+04  0.28568802918E+04  0.50400001928E-02 0. -1.
        1   -1    0    0  501    0  0.00000000000E+00  0.00000000000E+00 -0.12081038704E+04  0.12081038704E+04  0.50400001928E-02 0.  1.
    10030    2    1    2    0    0  0.00000000000E+00  0.00000000000E+00  0.16487764214E+04  0.40649841623E+04  0.37155931629E+04 0.  0.
        4    1    3    3  502    0 -0.37140762913E+02 -0.12486206170E+04 -0.68004683133E+03  0.14222862536E+04  0.12699999809E+01 0.  1.
       -4    1    3    3    0  502  0.37140762913E+02  0.12486206170E+04  0.23288232527E+04  0.26426979087E+04  0.12699999809E+01 0. -1.
</event>
<event>
 5   0  0.2287500E-07  0.3671733E+04  0.7818609E-02  0.8074255E-01
       -1   -1    0    0    0  501  0.00000000000E+00  0.00000000000E+00  0.29684574773E+04  0.29684574774E+04  0.50400001928E-02 0.  1.
        1   -1    0    0  501    0  0.00000000000E+00  0.00000000000E+00 -0.11354064633E+04  0.11354064633E+04  0.50400001928E-02 0. -1.
    10030    2    1    2    0    0  0.00000000000E+00  0.00000000000E+00  0.18330510141E+04  0.41038639406E+04  0.36717330000E+04 0.  0.
        3    1    3    3  502    0 -0.14783589228E+04 -0.77864767931E+03  0.66368288095E+02  0.16721967805E+04  0.10100000352E+00 0. -1.
       -3    1    3    3    0  502  0.14783589228E+04  0.77864767931E+03  0.17666827260E+04  0.24316671601E+04  0.10100000352E+00 0.  1.
</event>
<event>
 5   0  0.7074157E-07  0.3677316E+04  0.7818609E-02  0.8073008E-01
       -2   -1    0    0    0  501  0.00000000000E+00  0.00000000000E+00  0.14578301741E+04  0.14578301741E+04  0.25500000920E-02 0.  1.
        2   -1    0    0  501    0  0.00000000000E+00  0.00000000000E+00 -0.23189693638E+04  0.23189693638E+04  0.25500000920E-02 0. -1.
    10030    2    1    2    0    0  0.00000000000E+00  0.00000000000E+00 -0.86113918973E+03  0.37767995378E+04  0.36773161470E+04 0.  0.
        3    1    3    3  502    0 -0.71993409743E+03 -0.32739372364E+03  0.12742063303E+04  0.14996978153E+04  0.10100000352E+00 0.  1.
       -3    1    3    3    0  502  0.71993409743E+03  0.32739372364E+03 -0.21353455200E+04  0.22771017226E+04  0.10100000352E+00 0. -1.
</event>
<event>
 5   0  0.2287500E-07  0.3732694E+04  0.7818609E-02  0.8060755E-01
       -1   -1    0    0    0  501  0.00000000000E+00  0.00000000000E+00  0.16924154889E+04  0.16924154889E+04  0.50400001928E-02 0. -1.
        1   -1    0    0  501    0  0.00000000000E+00  0.00000000000E+00 -0.20581540784E+04  0.20581540784E+04  0.50400001928E-02 0.  1.
    10030    2    1    2    0    0  0.00000000000E+00  0.00000000000E+00 -0.36573858947E+03  0.37505695673E+04  0.37326943839E+04 0.  0.
        2    1    3    3  502    0  0.14398942150E+04  0.11849278181E+04 -0.10567328415E+03  0.18677569777E+04  0.25500000920E-02 0.  1.
       -2    1    3    3    0  502 -0.14398942150E+04 -0.11849278181E+04 -0.26006530533E+03  0.18828125896E+04  0.25500000920E-02 0. -1.
</event>
<event>
 5   0  0.7300916E-07  0.3634665E+04  0.7818609E-02  0.8082597E-01
       -2   -1    0    0    0  501  0.00000000000E+00  0.00000000000E+00  0.18981981711E+04  0.18981981711E+04  0.25500000920E-02 0. -1.
        2   -1    0    0  501    0  0.00000000000E+00  0.00000000000E+00 -0.17399118774E+04  0.17399118775E+04  0.25500000920E-02 0.  1.
    10030    2    1    2    0    0  0.00000000000E+00  0.00000000000E+00  0.15828629367E+03  0.36381100486E+04  0.36346650705E+04 0.  0.
        1    1    3    3  502    0 -0.58165984942E+02 -0.16754725057E+04 -0.62302452150E+03  0.17885052288E+04  0.50400001928E-02 0. -1.
       -1    1    3    3    0  502  0.58165984942E+02  0.16754725057E+04  0.78131081517E+03  0.18496048197E+04  0.50400001928E-02 0.  1.
</event>
<event>
 5   0  0.2287500E-07  0.3718643E+04  0.7818609E-02  0.8063843E-01
        1   -1    0    0  501    0  0.00000000000E+00  0.00000000000E+00  0.19856240940E+04  0.19856240940E+04  0.50400001928E-02 0. -1.
       -1   -1    0    0    0  501  0.00000000000E+00  0.00000000000E+00 -0.17410531382E+04  0.17410531382E+04  0.50400001928E-02 0.  1.
    10030    2    1    2    0    0  0.00000000000E+00  0.00000000000E+00  0.24457095587E+03  0.37266772322E+04  0.37186433333E+04 0.  0.
        2    1    3    3  502    0 -0.89259830269E+02  0.19346552388E+03 -0.17287785968E+04  0.17418586805E+04  0.25500000920E-02 0.  1.
       -2    1    3    3    0  502  0.89259830269E+02 -0.19346552388E+03  0.19733495526E+04  0.19848185517E+04  0.25500000920E-02 0. -1.
</event>
<event>
 5   0  0.2287500E-07  0.3697820E+04  0.7818609E-02  0.8068445E-01
        1   -1    0    0  501    0  0.00000000000E+00  0.00000000000E+00  0.12480586445E+04  0.12480586445E+04  0.50400001928E-02 0.  1.
       -1   -1    0    0    0  501  0.00000000000E+00  0.00000000000E+00 -0.27390279409E+04  0.27390279409E+04  0.50400001928E-02 0. -1.
    10030    2    1    2    0    0  0.00000000000E+00  0.00000000000E+00 -0.14909692964E+04  0.39870865854E+04  0.36978196273E+04 0.  0.
        3    1    3    3  502    0 -0.78020772092E+03 -0.29873985779E+03 -0.25239038597E+04  0.26585823842E+04  0.10100000352E+00 0. -1.
       -3    1    3    3    0  502  0.78020772092E+03  0.29873985779E+03  0.10329345632E+04  0.13285042012E+04  0.10100000352E+00 0.  1.
</event>
<event>
 5   0  0.6939921E-07  0.3725523E+04  0.7818609E-02  0.8062329E-01
       -2   -1    0    0    0  501  0.00000000000E+00  0.00000000000E+00  0.12583772679E+04  0.12583772679E+04  0.25500000920E-02 0.  1.
        2   -1    0    0  501    0  0.00000000000E+00  0.00000000000E+00 -0.27574244646E+04  0.27574244646E+04  0.25500000920E-02 0. -1.
    10030    2    1    2    0    0  0.00000000000E+00  0.00000000000E+00 -0.14990471967E+04  0.40158017325E+04  0.37255229239E+04 0.  0.
        4    1    3    3  502    0  0.13174205838E+04  0.36178572636E+03 -0.21144366285E+04  0.25174053657E+04  0.12699999809E+01 0. -1.
       -4    1    3    3    0  502 -0.13174205838E+04 -0.36178572636E+03  0.61538943182E+03  0.14983963668E+04  0.12699999809E+01 0.  1.
</event>
<event>
 5   0  0.2287500E-07  0.3723898E+04  0.7818609E-02  0.8062686E-01
        1   -1    0    0  501    0  0.00000000000E+00  0.00000000000E+00  0.20403705333E+04  0.20403705334E+04  0.50400001928E-02 0.  1.
       -1   -1    0    0    0  501  0.00000000000E+00  0.00000000000E+00 -0.16991292192E+04  0.16991292193E+04  0.50400001928E-02 0. -1.
    10030    2    1    2    0    0  0.00000000000E+00  0.00000000000E+00  0.34124131410E+03  0.37394997526E+04  0.37238975235E+04 0.  0.
        4    1    3    3  502    0 -0.95364402165E+03 -0.13458685942E+04  0.10379827726E+04  0.19488994438E+04  0.12699999809E+01 0.  1.
       -4    1    3    3    0  502  0.95364402165E+03  0.13458685942E+04 -0.69674145850E+03  0.17906003088E+04  0.12699999809E+01 0. -1.
</event>
<event>
 5   0  0.7124627E-07  0.3632588E+04  0.7818609E-02  0.8083067E-01
       -2   -1    0    0    0  501  0.00000000000E+00  0.00000000000E+00  0.19823172126E+04  0.19823172127E+04  0.25500000920E-02 0. -1.
        2   -1    0    0  501    0  0.00000000000E+00  0.00000000000E+00 -0.16641758828E+04  0.16641758829E+04  0.25500000920E-02 0.  1.
    10030    2    1    2    0    0  0.00000000000E+00  0.00000000000E+00  0.31814132980E+03  0.36464930955E+04  0.36325883320E+04 0.  0.
        2    1    3    3  502    0 -0.17762779981E+03  0.12961608061E+04  0.14237901097E+04  0.19335880500E+04  0.25500000920E-02 0. -1.
       -2    1    3    3    0  502  0.17762779981E+03 -0.12961608061E+04 -0.11056487799E+04  0.17129050455E+04  0.25500000920E-02 0.  1.
</event>
<event>
 5   0  0.2345471E-07  0.3787097E+04  0.7818609E-02  0.8048929E-01
       -1   -1    0    0    0  501  0.00000000000E+00  0.00000000000E+00  0.15804188486E+04  0.15804188487E+04  0.50400001928E-02 0. -1.
        1   -1    0    0  501    0  0.00000000000E+00  0.00000000000E+00 -0.22687188397E+04  0.22687188397E+04  0.50400001928E-02 0.  1.
    10030    2    1    2    0    0  0.00000000000E+00  0.00000000000E+00 -0.68829999105E+03  0.38491376884E+04  0.37870970500E+04 0.  0.
        5    1    3    3  502    0  0.99452841379E+03  0.16084272743E+04 -0.44258104845E+03  0.19421702132E+04  0.46999998093E+01 0. -1.
       -5    1    3    3    0  502 -0.99452841379E+03 -0.16084272743E+04 -0.24571894260E+03  0.19069674752E+04  0.46999998093E+01 0.  1.
</event>
<event>
 5   0  0.7074157E-07  0.3687021E+04  0.7818609E-02  0.8070844E-01
       -2   -1    0    0    0  501  0.00000000000E+00  0.00000000000E+00  0.13605856979E+04  0.13605856979E+04  0.25500000920E-02 0.  1.
        2   -1    0    0  501    0  0.00000000000E+00  0.00000000000E+00 -0.24978441738E+04  0.24978441738E+04  0.25500000920E-02 0. -1.
    10030    2    1    2    0    0  0.00000000000E+00  0.00000000000E+00 -0.11372584759E+04  0.38584298717E+04  0.36870210515E+04 0.  0.
        3    1    3    3  502    0  0.70299208166E+02 -0.70805335720E+03  0.12110956439E+04  0.14046473594E+04  0.10100000352E+00 0.  1.
       -3    1    3    3    0  502 -0.70299208166E+02  0.70805335720E+03 -0.23483541199E+04  0.24537825123E+04  0.10100000352E+00 0. -1.
</event>
<event>
 5   0  0.2287500E-07  0.3607065E+04  0.7818609E-02  0.8088875E-01
        1   -1    0    0  501    0  0.00000000000E+00  0.00000000000E+00  0.17979948707E+04  0.17979948707E+04  0.50400001928E-02 0. -1.
       -1   -1    0    0    0  501  0.00000000000E+00  0.00000000000E+00 -0.18090870164E+04  0.18090870164E+04  0.50400001928E-02 0.  1.
    10030    2    1    2    0    0  0.00000000000E+00  0.00000000000E+00 -0.11092145742E+02  0.36070818871E+04  0.36070648323E+04 0.  0.
        2    1    3    3  502    0 -0.32134383984E+03 -0.15592635089E+04 -0.85299602055E+03  0.18061469388E+04  0.25500000920E-02 0. -1.
       -2    1    3    3    0  502  0.32134383984E+03  0.15592635089E+04  0.84190387481E+03  0.18009349483E+04  0.25500000920E-02 0.  1.
</event>
<event>
 5   0  0.7124627E-07  0.3703957E+04  0.7818609E-02  0.8067085E-01
        2   -1    0    0  501    0  0.00000000000E+00  0.00000000000E+00  0.21247681663E+04  0.21247681663E+04  0.25500000920E-02 0. -1.
       -2   -1    0    0    0  501  0.00000000000E+00  0.00000000000E+00 -0.16142115370E+04  0.16142115370E+04  0.25500000920E-02 0.  1.
    10030    2    1    2    0    0  0.00000000000E+00  0.00000000000E+00  0.51055662927E+03  0.37389797033E+04  0.37039574984E+04 0.  0.
        2    1    3    3  502    0 -0.10154553818E+04 -0.42826072351E+02 -0.13075338329E+04  0.16560882914E+04  0.25500000920E-02 0.  1.
       -2    1    3    3    0  502  0.10154553818E+04  0.42826072351E+02  0.18180904622E+04  0.20828914118E+04  0.25500000920E-02 0. -1.
</event>
<event>
 5   0  0.7300916E-07  0.3697158E+04  0.7818609E-02  0.8068592E-01
        2   -1    0    0  501    0  0.00000000000E+00  0.00000000000E+00  0.10785828433E+04  0.10785828433E+04  0.25500000920E-02 0. -1.
       -2   -1    0    0    0  501  0.00000000000E+00  0.00000000000E+00 -0.31682720553E+04  0.31682720553E+04  0.25500000920E-02 0.  1.
    10030    2    1    2    0    0  0.00000000000E+00  0.00000000000E+00 -0.20896892120E+04  0.42468548986E+04  0.36971577634E+04 0.  0.
        1    1    3    3  502    0 -0.16414790065E+04  0.64552635808E+03 -0.40933610090E+03  0.18107218592E+04  0.50400001928E-02 0. -1.
       -1    1    3    3    0  502  0.16414790065E+04 -0.64552635808E+03 -0.16803531111E+04  0.24361330394E+04  0.50400001928E-02 0.  1.
</event>
<event>
 5   0  0.2287500E-07  0.3609314E+04  0.7818609E-02  0.8088362E-01
       -1   -1    0    0    0  501  0.00000000000E+00  0.00000000000E+00  0.18608896271E+04  0.18608896271E+04  0.50400001928E-02 0.  1.
        1   -1    0    0  501    0  0.00000000000E+00  0.00000000000E+00 -0.17501237460E+04  0.17501237460E+04  0.50400001928E-02 0. -1.
    10030    2    1    2    0    0  0.00000000000E+00  0.00000000000E+00  0.11076588104E+03  0.36110133731E+04  0.36093141316E+04 0.  0.
        3    1    3    3  502    0 -0.70510176300E+03  0.13962714424E+04  0.95583148696E+03  0.18331274584E+04  0.10100000352E+00 0.  1.
       -3    1    3    3    0  502  0.70510176300E+03 -0.13962714424E+04 -0.84506560593E+03  0.17778859147E+04  0.10100000352E+00 0. -1.
</event>
<event>
 5   0  0.2287500E-07  0.3647222E+04  0.7818609E-02  0.8079760E-01
       -1   -1    0    0    0  501  0.00000000000E+00  0.00000000000E+00  0.12975809335E+04  0.12975809336E+04  0.50400001928E-02 0.  1.
        1   -1    0    0  501    0  0.00000000000E+00  0.00000000000E+00 -0.25628899677E+04  0.25628899677E+04  0.50400001928E-02 0. -1.
    10030    2    1    2    0    0  0.00000000000E+00  0.00000000000E+00 -0.12653090341E+04  0.38604709012E+04  0.36472220425E+04 0.  0.
        4    1    3    3  502    0 -0.62477914147E+03 -0.31785953383E+03 -0.24145867022E+04  0.25142820475E+04  0.12699999809E+01 0. -1.
       -4    1    3    3    0  502  0.62477914147E+03  0.31785953383E+03  0.11492776681E+04  0.13461888538E+04  0.12699999809E+01 0.  1.
</event>
<event>
 5   0  0.7124627E-07  0.3721456E+04  0.7818609E-02  0.8063223E-01
       -2   -1    0    0    0  501  0.00000000000E+00  0.00000000000E+00  0.18463779563E+04  0.18463779563E+04  0.25500000920E-02 0. -1.
        2   -1    0    0  501    0  0.00000000000E+00  0.00000000000E+00 -0.18751898564E+04  0.18751898564E+04  0.25500000920E-02 0.  1.
    10030    2    1    2    0    0  0.00000000000E+00  0.00000000000E+00 -0.28811900041E+02  0.37215678127E+04  0.37214562820E+04 0.  0.
        2    1    3    3  502    0 -0.16011973922E+04 -0.86275114433E+03 -0.40702004548E+03  0.18638234742E+04  0.25500000920E-02 0. -1.
       -2    1    3    3    0  502  0.16011973922E+04  0.86275114433E+03  0.37820814544E+03  0.18577443384E+04  0.25500000920E-02 0.  1.
</event>
<event>
 5   0  0.6939921E-07  0.3576255E+04  0.7818609E-02  0.8095953E-01
        2   -1    0    0  501    0  0.00000000000E+00  0.00000000000E+00  0.16221085767E+04  0.16221085767E+04  0.25500000920E-02 0.  1.
       -2   -1    0    0    0  501  0.00000000000E+00  0.00000000000E+00 -0.19711377289E+04  0.19711377289E+04  0.25500000920E-02 0. -1.
    10030    2    1    2    0    0  0.00000000000E+00  0.00000000000E+00 -0.34902915225E+03  0.35932463056E+04  0.35762546978E+04 0.  0.
        4    1    3    3  502    0 -0.14916226733E+04  0.54078068308E+03  0.65403417328E+03  0.17161422609E+04  0.12699999809E+01 0.  1.
       -4    1    3    3    0  502  0.14916226733E+04 -0.54078068308E+03 -0.10030633255E+04  0.18771040447E+04  0.12699999809E+01 0. -1.
</event>
<event>
 5   0  0.7074157E-07  0.3686355E+04  0.7818609E-02  0.8070992E-01
        2   -1    0    0  501    0  0.00000000000E+00  0.00000000000E+00  0.19955636259E+04  0.19955636259E+04  0.25500000920E-02 0.  1.
       -2   -1    0    0    0  501  0.00000000000E+00  0.00000000000E+00 -0.17024279937E+04  0.17024279937E+04  0.25500000920E-02 0. -1.
    10030    2    1    2    0    0  0.00000000000E+00  0.00000000000E+00  0.29313563228E+03  0.36979916196E+04  0.36863550453E+04 0.  0.
        3    1    3    3  502    0 -0.10828094256E+04 -0.14889452222E+04  0.57579039271E+02  0.18419417697E+04  0.10100000352E+00 0. -1.
       -3    1    3    3    0  502  0.10828094256E+04  0.14889452222E+04  0.23555659301E+03  0.18560498500E+04  0.10100000352E+00 0.  1.
</event>
<event>
 5   0  0.6949625E-07  0.3651764E+04  0.7818609E-02  0.8078736E-01
        2   -1    0    0  501    0  0.00000000000E+00  0.00000000000E+00  0.16340150513E+04  0.16340150513E+04  0.25500000920E-02 0. -1.
       -2   -1    0    0    0  501  0.00000000000E+00  0.00000000000E+00 -0.20402778565E+04  0.20402778565E+04  0.25500000920E-02 0.  1.
    10030    2    1    2    0    0  0.00000000000E+00  0.00000000000E+00 -0.40626280514E+03  0.36742929078E+04  0.36517638075E+04 0.  0.
        5    1    3    3  502    0  0.71273073938E+03  0.13390474063E+04 -0.12256636586E+04  0.19502067986E+04  0.46999998093E+01 0.  1.
       -5    1    3    3    0  502 -0.71273073938E+03 -0.13390474063E+04  0.81940085350E+03  0.17240861092E+04  0.46999998093E+01 0. -1.
</event>
<event>
 5   0  0.2287500E-07  0.3698219E+04  0.7818609E-02  0.8068357E-01
        1   -1    0    0  501    0  0.00000000000E+00  0.00000000000E+00  0.13397199277E+04  0.13397199277E+04  0.50400001928E-02 0.  1.
       -1   -1    0    0    0  501  0.00000000000E+00  0.00000000000E+00 -0.25521802035E+04  0.25521802035E+04  0.50400001928E-02 0. -1.
    10030    2    1    2    0    0  0.00000000000E+00  0.00000000000E+00 -0.12124602758E+04  0.38919001311E+04  0.36982193973E+04 0.  0.
        4    1    3    3  502    0  0.59253993492E+03 -0.15642399885E+04  0.22324595992E+03  0.16875398329E+04  0.12699999809E+01 0. -1.
       -4    1    3    3    0  502 -0.59253993492E+03  0.15642399885E+04 -0.14357062357E+04  0.22043602982E+04  0.12699999809E+01 0.  1.
</event>
<event>
 5   0  0.2345471E-07  0.3681309E+04  0.7818609E-02  0.8072117E-01
        1   -1    0    0  501    0  0.00000000000E+00  0.00000000000E+00  0.32676511142E+04  0.32676511142E+04  0.50400001928E-02 0.  1.
       -1   -1    0    0    0  501  0.00000000000E+00  0.00000000000E+00 -0.10368331447E+04  0.10368331447E+04  0.50400001928E-02 0. -1.
    10030    2    1    2    0    0  0.00000000000E+00  0.00000000000E+00  0.22308179695E+04  0.43044842590E+04  0.36813089958E+04 0.  0.
        5    1    3    3  502    0 -0.14226288346E+04 -0.34216074275E+03 -0.19033809755E+03  0.14755329398E+04  0.46999998093E+01 0. -1.
       -5    1    3    3    0  502  0.14226288346E+04  0.34216074275E+03  0.24211560671E+04  0.28289513192E+04  0.46999998093E+01 0.  1.
</event>
<event>
 5   0  0.2411746E-07  0.3692420E+04  0.7818609E-02  0.8069644E-01
        1   -1    0    0  501    0  0.00000000000E+00  0.00000000000E+00  0.18080450720E+04  0.18080450720E+04  0.50400001928E-02 0. -1.
       -1   -1    0    0    0  501  0.00000000000E+00  0.00000000000E+00 -0.18851801410E+04  0.18851801410E+04  0.50400001928E-02 0.  1.
    10030    2    1    2    0    0  0.00000000000E+00  0.00000000000E+00 -0.77135069008E+02  0.36932252130E+04  0.36924196207E+04 0.  0.
        1    1    3    3  502    0 -0.61838036231E+03 -0.11091264077E+04  0.13018498421E+04  0.18186172418E+04  0.50400001928E-02 0. -1.
       -1    1    3    3    0  502  0.61838036231E+03  0.11091264077E+04 -0.13789849111E+04  0.18746079712E+04  0.50400001928E-02 0.  1.
</event>
<event>
 5   0  0.6939921E-07  0.3685097E+04  0.7818609E-02  0.8071273E-01
        2   -1    0    0  501    0  0.00000000000E+00  0.00000000000E+00  0.24095854848E+04  0.24095854848E+04  0.25500000920E-02 0. -1.
       -2   -1    0    0    0  501  0.00000000000E+00  0.00000000000E+00 -0.14089494710E+04  0.14089494710E+04  0.25500000920E-02 0.  1.
    10030    2    1    2    0    0  0.00000000000E+00  0.00000000000E+00  0.10006360139E+04  0.38185349558E+04  0.36850965763E+04 0.  0.
        4    1    3    3  502    0  0.11108840505E+04 -0.31774788641E+03  0.19875434776E+04  0.22989906005E+04  0.12699999809E+01 0. -1.
       -4    1    3    3    0  502 -0.11108840505E+04  0.31774788641E+03 -0.98690746371E+03  0.15195443553E+04  0.12699999809E+01 0.  1.
</event>
<event>
 5   0  0.6939921E-07  0.3549257E+04  0.7818609E-02  0.8102215E-01
        2   -1    0    0  501    0  0.00000000000E+00  0.00000000000E+00  0.14019984799E+04  0.14019984799E+04  0.25500000920E-02 0. -1.
       -2   -1    0    0    0  501  0.00000000000E+00  0.00000000000E+00 -0.22462984378E+04  0.22462984378E+04  0.25500000920E-02 0.  1.
    10030    2    1    2    0    0  0.00000000000E+00  0.00000000000E+00 -0.84429995792E+03  0.36482969177E+04  0.35492573844E+04 0.  0.
        4    1    3    3  502    0  0.10206695490E+04 -0.46478580569E+03 -0.18358503465E+04  0.21513112934E+04  0.12699999809E+01 0.  1.
       -4    1    3    3    0  502 -0.10206695490E+04  0.46478580569E+03  0.99155038856E+03  0.14969856243E+04  0.12699999809E+01 0. -1.
</event>
<event>
 5   0  0.2287500E-07  0.3675899E+04  0.7818609E-02  0.8073324E-01
        3   -1    0    0  501    0  0.00000000000E+00  0.00000000000E+00  0.11246756465E+04  0.11246756510E+04  0.10100000352E+00 0.  1.
       -3   -1    0    0    0  501  0.00000000000E+00  0.00000000000E+00 -0.30035846389E+04  0.30035846406E+04  0.10100000352E+00 0. -1.
    10030    2    1    2    0    0  0.00000000000E+00  0.00000000000E+00 -0.18789089924E+04  0.41282602916E+04  0.36758990782E+04 0.  0.
        1    1    3    3  502    0  0.17942600284E+04  0.39779492008E+03 -0.96324274059E+03  0.20749569695E+04  0.50400001928E-02 0.  1.
       -1    1    3    3    0  502 -0.17942600284E+04 -0.39779492008E+03 -0.91566625182E+03  0.20533033221E+04  0.50400001928E-02 0. -1.
</event>
<event>
 5   0  0.7124627E-07  0.3617081E+04  0.7818609E-02  0.8086590E-01
       -2   -1    0    0    0  501  0.00000000000E+00  0.00000000000E+00  0.24356349226E+04  0.24356349226E+04  0.25500000920E-02 0.  1.
        2   -1    0    0  501    0  0.00000000000E+00  0.00000000000E+00 -0.13429020010E+04  0.13429020010E+04  0.25500000920E-02 0. -1.
    10030    2    1    2    0    0  0.00000000000E+00  0.00000000000E+00  0.10927329216E+04  0.37785369236E+04  0.36170811499E+04 0.  0.
        2    1    3    3  502    0 -0.11520014131E+04  0.12567584104E+03  0.19968393729E+04  0.23087375672E+04  0.25500000920E-02 0.  1.
       -2    1    3    3    0  502  0.11520014131E+04 -0.12567584104E+03 -0.90410645132E+03  0.14697993564E+04  0.25500000920E-02 0. -1.
</event>
<event>
 5   0  0.2287500E-07  0.3693842E+04  0.7818609E-02  0.8069328E-01
       -1   -1    0    0    0  501  0.00000000000E+00  0.00000000000E+00  0.24195894590E+04  0.24195894590E+04  0.50400001928E-02 0. -1.
        1   -1    0    0  501    0  0.00000000000E+00  0.00000000000E+00 -0.14097916166E+04  0.14097916166E+04  0.50400001928E-02 0.  1.
    10030    2    1    2    0    0  0.00000000000E+00  0.00000000000E+00  0.10097978423E+04  0.38293810756E+04  0.36938418672E+04 0.  0.
        2    1    3    3  502    0  0.32283699589E+03  0.10399807874E+04  0.20513913854E+04  0.23224965834E+04  0.25500000920E-02 0. -1.
       -2    1    3    3    0  502 -0.32283699589E+03 -0.10399807874E+04 -0.10415935430E+04  0.15068844922E+04  0.25500000920E-02 0.  1.
</event>
<event>
 5   0  0.2287500E-07  0.3697207E+04  0.7818609E-02  0.8068581E-01
       -1   -1    0    0    0  501  0.00000000000E+00  0.00000000000E+00  0.15122783163E+04  0.15122783163E+04  0.50400001928E-02 0.  1.
        1   -1    0    0  501    0  0.00000000000E+00  0.00000000000E+00 -0.22597267780E+04  0.22597267780E+04  0.50400001928E-02 0. -1.
    10030    2    1    2    0    0  0.00000000000E+00  0.00000000000E+00 -0.74744846172E+03  0.37720050943E+04  0.36972074906E+04 0.  0.
        3    1    3    3  502    0  0.14206283603E+04 -0.54336995063E+03  0.69819806493E+03  0.16735938544E+04  0.10100000352E+00 0.  1.
       -3    1    3    3    0  502 -0.14206283603E+04  0.54336995063E+03 -0.14456465266E+04  0.20984112399E+04  0.10100000352E+00 0. -1.
</event>
<event>
 5   0  0.7074157E-07  0.3659257E+04  0.7818609E-02  0.8077051E-01
        2   -1    0    0  501    0  0.00000000000E+00  0.00000000000E+00  0.18079934791E+04  0.18079934791E+04  0.25500000920E-02 0. -1.
       -2   -1    0    0    0  501  0.00000000000E+00  0.00000000000E+00 -0.18515228295E+04  0.18515228295E+04  0.25500000920E-02 0.  1.
    10030    2    1    2    0    0  0.00000000000E+00  0.00000000000E+00 -0.43529350454E+02  0.36595163086E+04  0.36592574122E+04 0.  0.
        3    1    3    3  502    0 -0.82220118692E+03 -0.12038249162E+04 -0.11274341286E+04  0.18429099124E+04  0.10100000352E+00 0.  1.
       -3    1    3    3    0  502  0.82220118692E+03  0.12038249162E+04  0.10839047781E+04  0.18166063962E+04  0.10100000352E+00 0. -1.
</event>
<event>
 5   0  0.7300916E-07  0.3821755E+04  0.7818609E-02  0.8041502E-01
        2   -1    0    0  501    0  0.00000000000E+00  0.00000000000E+00  0.19130331642E+04  0.19130331642E+04  0.25500000920E-02 0. -1.
       -2   -1    0    0    0  501  0.00000000000E+00  0.00000000000E+00 -0.19087244596E+04  0.19087244596E+04  0.25500000920E-02 0.  1.
    10030    2    1    2    0    0  0.00000000000E+00  0.00000000000E+00  0.43087046174E+01  0.38217576237E+04  0.38217551949E+04 0.  0.
        1    1    3    3  502    0 -0.17793707095E+04  0.54069676930E+03 -0.43709537090E+03  0.19103835954E+04  0.50400001928E-02 0.  1.
       -1    1    3    3    0  502  0.17793707095E+04 -0.54069676930E+03  0.44140407552E+03  0.19113740283E+04  0.50400001928E-02 0. -1.
</event>
<event>
 5   0  0.2287500E-07  0.3665353E+04  0.7818609E-02  0.8075684E-01
       -1   -1    0    0    0  501  0.00000000000E+00  0.00000000000E+00  0.15908853187E+04  0.15908853187E+04  0.50400001928E-02 0.  1.
        1   -1    0    0  501    0  0.00000000000E+00  0.00000000000E+00 -0.21112161075E+04  0.21112161075E+04  0.50400001928E-02 0. -1.
    10030    2    1    2    0    0  0.00000000000E+00  0.00000000000E+00 -0.52033078872E+03  0.37021014262E+04  0.36653527580E+04 0.  0.
        4    1    3    3  502    0  0.17417222748E+03  0.17752264450E+04 -0.68502054183E+03  0.19107641538E+04  0.12699999809E+01 0.  1.
       -4    1    3    3    0  502 -0.17417222748E+03 -0.17752264450E+04  0.16468975311E+03  0.17913372724E+04  0.12699999809E+01 0. -1.
</event>
<event>
 5   0  0.2287500E-07  0.3615597E+04  0.7818609E-02  0.8086928E-01
        1   -1    0    0  501    0  0.00000000000E+00  0.00000000000E+00  0.15075397422E+04  0.15075397422E+04  0.50400001928E-02 0. -1.
       -1   -1    0    0    0  501  0.00000000000E+00  0.00000000000E+00 -0.21678599190E+04  0.21678599190E+04  0.50400001928E-02 0.  1.
    10030    2    1    2    0    0  0.00000000000E+00  0.00000000000E+00 -0.66032017674E+03  0.36753996612E+04  0.36155967604E+04 0.  0.
        4    1    3    3  502    0 -0.16789388679E+04 -0.13294985545E+03 -0.99800613711E+03  0.19576846654E+04  0.12699999809E+01 0.  1.
       -4    1    3    3    0  502  0.16789388679E+04  0.13294985545E+03  0.33768596037E+03  0.17177149959E+04  0.12699999809E+01 0. -1.
</event>
<event>
 5   0  0.2345471E-07  0.3637230E+04  0.7818609E-02  0.8082017E-01
       -1   -1    0    0    0  501  0.00000000000E+00  0.00000000000E+00  0.11874175935E+04  0.11874175935E+04  0.50400001928E-02 0. -1.
        1   -1    0    0  501    0  0.00000000000E+00  0.00000000000E+00 -0.27853385926E+04  0.27853385926E+04  0.50400001928E-02 0.  1.
    10030    2    1    2    0    0  0.00000000000E+00  0.00000000000E+00 -0.15979209991E+04  0.39727561861E+04  0.36372297419E+04 0.  0.
        5    1    3    3  502    0  0.14618505537E+04  0.91259082495E+03 -0.16441349838E+03  0.17311507570E+04  0.46999998093E+01 0. -1.
       -5    1    3    3    0  502 -0.14618505537E+04 -0.91259082495E+03 -0.14335075008E+04  0.22416054291E+04  0.46999998093E+01 0.  1.
</event>
<event>
 5   0  0.6939921E-07  0.3112471E+04  0.7818609E-02  0.8212324E-01
        2   -1    0    0  501    0  0.00000000000E+00  0.00000000000E+00  0.11252988333E+04  0.11252988333E+04  0.25500000920E-02 0. -1.
       -2   -1    0    0    0  501  0.00000000000E+00  0.00000000000E+00 -0.21522009610E+04  0.21522009610E+04  0.25500000920E-02 0.  1.
    10030    2    1    2    0    0  0.00000000000E+00  0.00000000000E+00 -0.10269021277E+04  0.32774997943E+04  0.31124711921E+04 0.  0.
        4    1    3    3  502    0 -0.62844384946E+03 -0.43950151804E+03  0.91251469361E+03  0.11919680932E+04  0.12699999809E+01 0. -1.
       -4    1    3    3    0  502  0.62844384946E+03  0.43950151804E+03 -0.19394168213E+04  0.20855317010E+04  0.12699999809E+01 0.  1.
</event>
<event>
 5   0  0.2345471E-07  0.3120219E+04  0.7818609E-02  0.8210211E-01
       -1   -1    0    0    0  501  0.00000000000E+00  0.00000000000E+00  0.17995271561E+04  0.17995271561E+04  0.50400001928E-02 0.  1.
        1   -1    0    0  501    0  0.00000000000E+00  0.00000000000E+00 -0.13525447802E+04  0.13525447802E+04  0.50400001928E-02 0. -1.
    10030    2    1    2    0    0  0.00000000000E+00  0.00000000000E+00  0.44698237591E+03  0.31520719364E+04  0.31202186218E+04 0.  0.
        5    1    3    3  502    0  0.14253855315E+04 -0.10036779515E+03 -0.40909739347E+03  0.14863311795E+04  0.46999998093E+01 0. -1.
       -5    1    3    3    0  502 -0.14253855315E+04  0.10036779515E+03  0.85607976938E+03  0.16657407569E+04  0.46999998093E+01 0.  1.
</event>
<event>
 5   0  0.7074157E-07  0.3696528E+04  0.7818609E-02  0.8068732E-01
       -2   -1    0    0    0  501  0.00000000000E+00  0.00000000000E+00  0.12636035959E+04  0.12636035959E+04  0.25500000920E-02 0.  1.
        2   -1    0    0  501    0  0.00000000000E+00  0.00000000000E+00 -0.27034421504E+04  0.27034421504E+04  0.25500000920E-02 0. -1.
    10030    2    1    2    0    0  0.00000000000E+00  0.00000000000E+00 -0.14398385545E+04  0.39670457463E+04  0.36965276801E+04 0.  0.
        3    1    3    3  502    0 -0.16323591161E+04  0.17200327570E+03  0.19190490459E+03  0.16525764470E+04  0.10100000352E+00 0.  1.
       -3    1    3    3    0  502  0.16323591161E+04 -0.17200327570E+03 -0.16317434591E+04  0.23144692993E+04  0.10100000352E+00 0. -1.
</event>
<event>
 5   0  0.7074157E-07  0.3721220E+04  0.7818609E-02  0.8063276E-01
        2   -1    0    0  501    0  0.00000000000E+00  0.00000000000E+00  0.20024766572E+04  0.20024766572E+04  0.25500000920E-02 0.  1.
       -2   -1    0    0    0  501  0.00000000000E+00  0.00000000000E+00 -0.17287935880E+04  0.17287935880E+04  0.25500000920E-02 0. -1.
    10030    2    1    2    0    0  0.00000000000E+00  0.00000000000E+00  0.27368306922E+03  0.37312702452E+04  0.37212195878E+04 0.  0.
        3    1    3    3  502    0  0.78319115970E+03  0.18330518917E+03  0.18191333001E+04  0.19890286973E+04  0.10100000352E+00 0.  1.
       -3    1    3    3    0  502 -0.78319115970E+03 -0.18330518917E+03 -0.15454502309E+04  0.17422415479E+04  0.10100000352E+00 0. -1.
</event>
<event>
 5   0  0.2287500E-07  0.3699918E+04  0.7818609E-02  0.8067980E-01
       -3   -1    0    0    0  501  0.00000000000E+00  0.00000000000E+00  0.16468745436E+04  0.16468745467E+04  0.10100000352E+00 0.  1.
        3   -1    0    0  501    0  0.00000000000E+00  0.00000000000E+00 -0.20780872803E+04  0.20780872828E+04  0.10100000352E+00 0. -1.
    10030    2    1    2    0    0  0.00000000000E+00  0.00000000000E+00 -0.43121273673E+03  0.37249618294E+04  0.36999184054E+04 0.  0.
        5    1    3    3  502    0 -0.12208592009E+03 -0.34357904966E+03 -0.20415459453E+04  0.20738571484E+04  0.46999998093E+01 0. -1.
       -5    1    3    3    0  502  0.12208592009E+03  0.34357904966E+03  0.16103332085E+04  0.16511046810E+04  0.46999998093E+01 0.  1.
</event>
<event>
 5   0  0.2345471E-07  0.3685562E+04  0.7818609E-02  0.8071169E-01
        1   -1    0    0  501    0  0.00000000000E+00  0.00000000000E+00  0.19623080769E+04  0.19623080769E+04  0.50400001928E-02 0. -1.
       -1   -1    0    0    0  501  0.00000000000E+00  0.00000000000E+00 -0.17305346350E+04  0.17305346350E+04  0.50400001928E-02 0.  1.
    10030    2    1    2    0    0  0.00000000000E+00  0.00000000000E+00  0.23177344191E+03  0.36928427118E+04  0.36855621506E+04 0.  0.
        5    1    3    3  502    0  0.97888259071E+03 -0.13146338847E+04 -0.72800421886E+03  0.17934563306E+04  0.46999998093E+01 0.  1.
       -5    1    3    3    0  502 -0.97888259071E+03  0.13146338847E+04  0.95977766077E+03  0.18993863812E+04  0.46999998093E+01 0. -1.
</event>
<event>
 5   0  0.7074157E-07  0.2934945E+04  0.7818609E-02  0.8262556E-01
        2   -1    0    0  501    0  0.00000000000E+00  0.00000000000E+00  0.17500399458E+04  0.17500399458E+04  0.25500000920E-02 0.  1.
       -2   -1    0    0    0  501  0.00000000000E+00  0.00000000000E+00 -0.12305294873E+04  0.12305294873E+04  0.25500000920E-02 0. -1.
    10030    2    1    2    0    0  0.00000000000E+00  0.00000000000E+00  0.51951045845E+03  0.29805694331E+04  0.29349451493E+04 0.  0.
        3    1    3    3  502    0  0.82405048800E+03 -0.32571321765E+03  0.14476945898E+04  0.16973414336E+04  0.10100000352E+00 0.  1.
       -3    1    3    3    0  502 -0.82405048800E+03  0.32571321765E+03 -0.92818413130E+03  0.12832279995E+04  0.10100000352E+00 0. -1.
</event>
<event>
 5   0  0.7124627E-07  0.3723442E+04  0.7818609E-02  0.8062787E-01
       -2   -1    0    0    0  501  0.00000000000E+00  0.00000000000E+00  0.17542840386E+04  0.17542840386E+04  0.25500000920E-02 0. -1.
        2   -1    0    0  501    0  0.00000000000E+00  0.00000000000E+00 -0.19757373986E+04  0.19757373986E+04  0.25500000920E-02 0.  1.
    10030    2    1    2    0    0  0.00000000000E+00  0.00000000000E+00 -0.22145335998E+03  0.37300214371E+04  0.37234417319E+04 0.  0.
        2    1    3    3  502    0  0.23263003897E+03 -0.19514829244E+03 -0.19507645190E+04  0.19742547454E+04  0.25500000920E-02 0.  1.
       -2    1    3    3    0  502 -0.23263003897E+03  0.19514829244E+03  0.17293111590E+04  0.17557666917E+04  0.25500000920E-02 0. -1.
</event>
<event>
 5   0  0.7300916E-07  0.3640582E+04  0.7818609E-02  0.8081259E-01
        2   -1    0    0  501    0  0.00000000000E+00  0.00000000000E+00  0.23180558786E+04  0.23180558786E+04  0.25500000920E-02 0.  1.
       -2   -1    0    0    0  501  0.00000000000E+00  0.00000000000E+00 -0.14294134103E+04  0.14294134103E+04  0.25500000920E-02 0. -1.
    10030    2    1    2    0    0  0.00000000000E+00  0.00000000000E+00  0.88864246827E+03  0.37474692890E+04  0.36405824583E+04 0.  0.
        1    1    3    3  502    0  0.10703932508E+04  0.33091696676E+03 -0.10324468790E+04  0.15235466216E+04  0.50400001928E-02 0. -1.
       -1    1    3    3    0  502 -0.10703932508E+04 -0.33091696676E+03  0.19210893473E+04  0.22239226674E+04  0.50400001928E-02 0.  1.
</event>
<event>
 5   0  0.2411746E-07  0.3679911E+04  0.7818609E-02  0.8072428E-01
       -1   -1    0    0    0  501  0.00000000000E+00  0.00000000000E+00  0.18471063028E+04  0.18471063028E+04  0.50400001928E-02 0. -1.
        1   -1    0    0  501    0  0.00000000000E+00  0.00000000000E+00 -0.18328328447E+04  0.18328328447E+04  0.50400001928E-02 0.  1.
    10030    2    1    2    0    0  0.00000000000E+00  0.00000000000E+00  0.14273458091E+02  0.36799391476E+04  0.36799114661E+04 0.  0.
        1    1    3    3  502    0 -0.98913095765E+03  0.89891169707E+03  0.12716678144E+04  0.18448743374E+04  0.50400001928E-02 0.  1.
       -1    1    3    3    0  502  0.98913095765E+03 -0.89891169707E+03 -0.12573943563E+04  0.18350648102E+04  0.50400001928E-02 0. -1.
</event>
<event>
 5   0  0.6939921E-07  0.3699188E+04  0.7818609E-02  0.8068142E-01
        2   -1    0    0  501    0  0.00000000000E+00  0.00000000000E+00  0.21114963540E+04  0.21114963540E+04  0.25500000920E-02 0. -1.
       -2   -1    0    0    0  501  0.00000000000E+00  0.00000000000E+00 -0.16201770136E+04  0.16201770136E+04  0.25500000920E-02 0.  1.
    10030    2    1    2    0    0  0.00000000000E+00  0.00000000000E+00  0.49131934036E+03  0.37316733676E+04  0.36991879417E+04 0.  0.
        4    1    3    3  502    0  0.29140580784E+03 -0.45257008642E+03 -0.15394164368E+04  0.16308101075E+04  0.12699999809E+01 0.  1.
       -4    1    3    3    0  502 -0.29140580784E+03  0.45257008642E+03  0.20307357771E+04  0.21008632601E+04  0.12699999809E+01 0. -1.
</event>
<event>
 5   0  0.6939921E-07  0.3738368E+04  0.7818609E-02  0.8059512E-01
        2   -1    0    0  501    0  0.00000000000E+00  0.00000000000E+00  0.24065443013E+04  0.24065443013E+04  0.25500000920E-02 0. -1.
       -2   -1    0    0    0  501  0.00000000000E+00  0.00000000000E+00 -0.14518114925E+04  0.14518114925E+04  0.25500000920E-02 0.  1.
    10030    2    1    2    0    0  0.00000000000E+00  0.00000000000E+00  0.95473280872E+03  0.38583557938E+04  0.37383679187E+04 0.  0.
        4    1    3    3  502    0 -0.10917099858E+04  0.14541269353E+04  0.92431443295E+03  0.20397731788E+04  0.12699999809E+01 0. -1.
       -4    1    3    3    0  502  0.10917099858E+04 -0.14541269353E+04  0.30418375772E+02  0.18185826150E+04  0.12699999809E+01 0.  1.
</event>
<event>
 5   0  0.7074157E-07  0.3367624E+04  0.7818609E-02  0.8145898E-01
       -2   -1    0    0    0  501  0.00000000000E+00  0.00000000000E+00  0.16591512890E+04  0.16591512890E+04  0.25500000920E-02 0. -1.
        2   -1    0    0  501    0  0.00000000000E+00  0.00000000000E+00 -0.17088394132E+04  0.17088394132E+04  0.25500000920E-02 0.  1.
    10030    2    1    2    0    0  0.00000000000E+00  0.00000000000E+00 -0.49688124268E+02  0.33679907022E+04  0.33676241567E+04 0.  0.
        3    1    3    3  502    0 -0.46205981912E+03  0.77729859480E+03 -0.14453967500E+04  0.17049528313E+04  0.10100000352E+00 0.  1.
       -3    1    3    3    0  502  0.46205981912E+03 -0.77729859480E+03  0.13957086257E+04  0.16630378709E+04  0.10100000352E+00 0. -1.
</event>
<event>
 5   0  0.2287500E-07  0.3788919E+04  0.7818609E-02  0.8048537E-01
        1   -1    0    0  501    0  0.00000000000E+00  0.00000000000E+00  0.30499121520E+04  0.30499121520E+04  0.50400001928E-02 0.  1.
       -1   -1    0    0    0  501  0.00000000000E+00  0.00000000000E+00 -0.11767476075E+04  0.11767476075E+04  0.50400001928E-02 0. -1.
    10030    2    1    2    0    0  0.00000000000E+00  0.00000000000E+00  0.18731645445E+04  0.42266597595E+04  0.37889190163E+04 0.  0.
        4    1    3    3  502    0  0.43816269746E+02 -0.27497234434E+03  0.30269608019E+04  0.30397406081E+04  0.12699999809E+01 0.  1.
       -4    1    3    3    0  502 -0.43816269746E+02  0.27497234434E+03 -0.11537962573E+04  0.11869191514E+04  0.12699999809E+01 0. -1.
</event>
<event>
 5   0  0.2287500E-07  0.3801017E+04  0.7818609E-02  0.8045937E-01
        1   -1    0    0  501    0  0.00000000000E+00  0.00000000000E+00  0.22813692278E+04  0.22813692278E+04  0.50400001928E-02 0.  1.
       -1   -1    0    0    0  501  0.00000000000E+00  0.00000000000E+00 -0.15832305701E+04  0.15832305701E+04  0.50400001928E-02 0. -1.
    10030    2    1    2    0    0  0.00000000000E+00  0.00000000000E+00  0.69813865774E+03  0.38645997979E+04  0.38010174970E+04 0.  0.
        2    1    3    3  502    0  0.58101735375E+03  0.15820779785E+04 -0.54390566595E+03  0.17709842655E+04  0.25500000920E-02 0. -1.
       -2    1    3    3    0  502 -0.58101735375E+03 -0.15820779785E+04  0.12420443237E+04  0.20936155324E+04  0.25500000920E-02 0.  1.
</event>
<event>
 5   0  0.7074157E-07  0.3233837E+04  0.7818609E-02  0.8179938E-01
        2   -1    0    0  501    0  0.00000000000E+00  0.00000000000E+00  0.28472964228E+04  0.28472964228E+04  0.25500000920E-02 0.  1.
       -2   -1    0    0    0  501  0.00000000000E+00  0.00000000000E+00 -0.91821350845E+03  0.91821350845E+03  0.25500000920E-02 0. -1.
    10030    2    1    2    0    0  0.00000000000E+00  0.00000000000E+00  0.19290829144E+04  0.37655099313E+04  0.32338373725E+04 0.  0.
        3    1    3    3  502    0 -0.12906442474E+04  0.16242078649E+03  0.20827883751E+04  0.24556364778E+04  0.10100000352E+00 0.  1.
       -3    1    3    3    0  502  0.12906442474E+04 -0.16242078649E+03 -0.15370546072E+03  0.13098734535E+04  0.10100000352E+00 0. -1.
</event>
<event>
 5   0  0.6939921E-07  0.3720612E+04  0.7818609E-02  0.8063409E-01
        2   -1    0    0  501    0  0.00000000000E+00  0.00000000000E+00  0.19523931621E+04  0.19523931621E+04  0.25500000920E-02 0. -1.
       -2   -1    0    0    0  501  0.00000000000E+00  0.00000000000E+00 -0.17725626462E+04  0.17725626462E+04  0.25500000920E-02 0.  1.
    10030    2    1    2    0    0  0.00000000000E+00  0.00000000000E+00  0.17983051597E+03  0.37249558083E+04  0.37206124173E+04 0.  0.
        4    1    3    3  502    0  0.77038305341E+03  0.63697066152E+02 -0.16041564673E+04  0.17806928285E+04  0.12699999809E+01 0.  1.
       -4    1    3    3    0  502 -0.77038305341E+03 -0.63697066152E+02  0.17839869833E+04  0.19442629798E+04  0.12699999809E+01 0. -1.
</event>
<event>
 5   0  0.6939921E-07  0.3684692E+04  0.7818609E-02  0.8071363E-01
        2   -1    0    0  501    0  0.00000000000E+00  0.00000000000E+00  0.16011352099E+04  0.16011352099E+04  0.25500000920E-02 0.  1.
       -2   -1    0    0    0  501  0.00000000000E+00  0.00000000000E+00 -0.21198956786E+04  0.21198956786E+04  0.25500000920E-02 0. -1.
    10030    2    1    2    0    0  0.00000000000E+00  0.00000000000E+00 -0.51876046871E+03  0.37210308885E+04  0.36846924497E+04 0.  0.
        4    1    3    3  502    0 -0.11863373046E+04  0.60729201459E+03 -0.15439462171E+04  0.20396007760E+04  0.12699999809E+01 0. -1.
       -4    1    3    3    0  502  0.11863373046E+04 -0.60729201459E+03  0.10251857484E+04  0.16814301124E+04  0.12699999809E+01 0.  1.
</event>
<event>
 5   0  0.2287500E-07  0.2756483E+04  0.7818609E-02  0.8316907E-01
        1   -1    0    0  501    0  0.00000000000E+00  0.00000000000E+00  0.20387695123E+04  0.20387695123E+04  0.50400001928E-02 0.  1.
       -1   -1    0    0    0  501  0.00000000000E+00  0.00000000000E+00 -0.93171375135E+03  0.93171375136E+03  0.50400001928E-02 0. -1.
    10030    2    1    2    0    0  0.00000000000E+00  0.00000000000E+00  0.11070557610E+04  0.29704832637E+04  0.27564829696E+04 0.  0.
        3    1    3    3  502    0 -0.81684777587E+03  0.72373934970E+03  0.14606066161E+04  0.18232966387E+04  0.10100000352E+00 0.  1.
       -3    1    3    3    0  502  0.81684777587E+03 -0.72373934970E+03 -0.35355085517E+03  0.11471866250E+04  0.10100000352E+00 0. -1.
</event>
<event>
 5   0  0.2411746E-07  0.3757071E+04  0.7818609E-02  0.8055431E-01
        1   -1    0    0  501    0  0.00000000000E+00  0.00000000000E+00  0.21010397445E+04  0.21010397445E+04  0.50400001928E-02 0.  1.
       -1   -1    0    0    0  501  0.00000000000E+00  0.00000000000E+00 -0.16795946689E+04  0.16795946689E+04  0.50400001928E-02 0. -1.
    10030    2    1    2    0    0  0.00000000000E+00  0.00000000000E+00  0.42144507558E+03  0.37806344134E+04  0.37570707495E+04 0.  0.
        1    1    3    3  502    0 -0.14713224205E+04 -0.56479989382E+03 -0.81799370854E+03  0.17756413749E+04  0.50400001928E-02 0. -1.
       -1    1    3    3    0  502  0.14713224205E+04  0.56479989382E+03  0.12394387841E+04  0.20049930385E+04  0.50400001928E-02 0.  1.
</event>
<event>
 5   0  0.2287500E-07  0.3658069E+04  0.7818609E-02  0.8077318E-01
       -1   -1    0    0    0  501  0.00000000000E+00  0.00000000000E+00  0.20917990693E+04  0.20917990693E+04  0.50400001928E-02 0.  1.
        1   -1    0    0  501    0  0.00000000000E+00  0.00000000000E+00 -0.15992775337E+04  0.15992775337E+04  0.50400001928E-02 0. -1.
    10030    2    1    2    0    0  0.00000000000E+00  0.00000000000E+00  0.49252153556E+03  0.36910766030E+04  0.36580690297E+04 0.  0.
        2    1    3    3  502    0  0.12811218565E+04 -0.65364672437E+03 -0.89390868813E+03  0.16933989471E+04  0.25500000920E-02 0. -1.
       -2    1    3    3    0  502 -0.12811218565E+04  0.65364672437E+03  0.13864302237E+04  0.19976776558E+04  0.25500000920E-02 0.  1.
</event>
<event>
 5   0  0.7300916E-07  0.3672893E+04  0.7818609E-02  0.8073996E-01
        2   -1    0    0  501    0  0.00000000000E+00  0.00000000000E+00  0.15574340655E+04  0.15574340655E+04  0.25500000920E-02 0. -1.
       -2   -1    0    0    0  501  0.00000000000E+00  0.00000000000E+00 -0.21654440273E+04  0.21654440273E+04  0.25500000920E-02 0.  1.
    10030    2    1    2    0    0  0.00000000000E+00  0.00000000000E+00 -0.60800996186E+03  0.37228780928E+04  0.36728932982E+04 0.  0.
        1    1    3    3  502    0  0.18066207535E+04  0.27467090759E+03 -0.48873128657E+03  0.18916080262E+04  0.50400001928E-02 0. -1.
       -1    1    3    3    0  502 -0.18066207535E+04 -0.27467090759E+03 -0.11927867529E+03  0.18312700666E+04  0.50400001928E-02 0.  1.
</event>
<event>
 5   0  0.6939921E-07  0.3771392E+04  0.7818609E-02  0.8052322E-01
       -2   -1    0    0    0  501  0.00000000000E+00  0.00000000000E+00  0.13054663576E+04  0.13054663576E+04  0.25500000920E-02 0.  1.
        2   -1    0    0  501    0  0.00000000000E+00  0.00000000000E+00 -0.27238157769E+04  0.27238157769E+04  0.25500000920E-02 0. -1.
    10030    2    1    2    0    0  0.00000000000E+00  0.00000000000E+00 -0.14183494193E+04  0.40292821346E+04  0.37713922422E+04 0.  0.
        4    1    3    3  502    0 -0.11918455938E+04 -0.91029936772E+03  0.51210501863E+03  0.15847378400E+04  0.12699999809E+01 0.  1.
       -4    1    3    3    0  502  0.11918455938E+04  0.91029936772E+03 -0.19304544379E+04  0.24445442946E+04  0.12699999809E+01 0. -1.
</event>
<event>
 5   0  0.2345471E-07  0.3724104E+04  0.7818609E-02  0.8062641E-01
       -1   -1    0    0    0  501  0.00000000000E+00  0.00000000000E+00  0.16374751464E+04  0.16374751464E+04  0.50400001928E-02 0.  1.
        1   -1    0    0  501    0  0.00000000000E+00  0.00000000000E+00 -0.21174292821E+04  0.21174292822E+04  0.50400001928E-02 0. -1.
    10030    2    1    2    0    0  0.00000000000E+00  0.00000000000E+00 -0.47995413576E+03  0.37549044285E+04  0.37241040929E+04 0.  0.
        5    1    3    3  502    0 -0.98438974960E+03 -0.93417932345E+03  0.10455190505E+04  0.17131393295E+04  0.46999998093E+01 0.  1.
       -5    1    3    3    0  502  0.98438974960E+03  0.93417932345E+03 -0.15254731863E+04  0.20417650990E+04  0.46999998093E+01 0. -1.
</event>
<event>
 5   0  0.6939921E-07  0.3739140E+04  0.7818609E-02  0.8059343E-01
        2   -1    0    0  501    0  0.00000000000E+00  0.00000000000E+00  0.12030127878E+04  0.12030127878E+04  0.25500000920E-02 0. -1.
       -2   -1    0    0    0  501  0.00000000000E+00  0.00000000000E+00 -0.29054482605E+04  0.29054482605E+04  0.25500000920E-02 0.  1.
    10030    2    1    2    0    0  0.00000000000E+00  0.00000000000E+00 -0.17024354727E+04  0.41084610483E+04  0.37391396934E+04 0.  0.
        4    1    3    3  502    0  0.48903258139E+03  0.16538959091E+04 -0.16441361139E+04  0.23827945185E+04  0.12699999809E+01 0.  1.
       -4    1    3    3    0  502 -0.48903258139E+03 -0.16538959091E+04 -0.58299358846E+02  0.17256665297E+04  0.12699999809E+01 0. -1.
</event>
<event>
 5   0  0.2287500E-07  0.3711692E+04  0.7818609E-02  0.8065376E-01
        1   -1    0    0  501    0  0.00000000000E+00  0.00000000000E+00  0.22389610301E+04  0.22389610301E+04  0.50400001928E-02 0.  1.
       -1   -1    0    0    0  501  0.00000000000E+00  0.00000000000E+00 -0.15382866514E+04  0.15382866514E+04  0.50400001928E-02 0. -1.
    10030    2    1    2    0    0  0.00000000000E+00  0.00000000000E+00  0.70067437869E+03  0.37772476816E+04  0.37116917252E+04 0.  0.
        3    1    3    3  502    0 -0.76212122402E+03 -0.16617358351E+04  0.25371223803E+02  0.18283430900E+04  0.10100000352E+00 0. -1.
       -3    1    3    3    0  502  0.76212122402E+03  0.16617358351E+04  0.67530315489E+03  0.19489045915E+04  0.10100000352E+00 0.  1.
</event>
<event>
 5   0  0.2287500E-07  0.3708398E+04  0.7818609E-02  0.8066103E-01
        3   -1    0    0  501    0  0.00000000000E+00  0.00000000000E+00  0.20920457877E+04  0.20920457902E+04  0.10100000352E+00 0.  1.
       -3   -1    0    0    0  501  0.00000000000E+00  0.00000000000E+00 -0.16433930578E+04  0.16433930609E+04  0.10100000352E+00 0. -1.
    10030    2    1    2    0    0  0.00000000000E+00  0.00000000000E+00  0.44865272996E+03  0.37354388510E+04  0.37083977858E+04 0.  0.
        4    1    3    3  502    0  0.45920857862E+02  0.13763263202E+04 -0.10263671447E+04  0.17175022543E+04  0.12699999809E+01 0. -1.
       -4    1    3    3    0  502 -0.45920857862E+02 -0.13763263202E+04  0.14750198747E+04  0.20179365967E+04  0.12699999809E+01 0.  1.
</event>
<event>
 5   0  0.2345471E-07  0.3572371E+04  0.7818609E-02  0.8096850E-01
        1   -1    0    0  501    0  0.00000000000E+00  0.00000000000E+00  0.25714994877E+04  0.25714994877E+04  0.50400001928E-02 0.  1.
       -1   -1    0    0    0  501  0.00000000000E+00  0.00000000000E+00 -0.12406995523E+04  0.12406995523E+04  0.50400001928E-02 0. -1.
    10030    2    1    2    0    0  0.00000000000E+00  0.00000000000E+00  0.13307999354E+04  0.38121990400E+04  0.35723707887E+04 0.  0.
        5    1    3    3  502    0  0.20532461968E+03  0.14159602545E+04  0.18064526556E+04  0.23044294150E+04  0.46999998093E+01 0.  1.
       -5    1    3    3    0  502 -0.20532461968E+03 -0.14159602545E+04 -0.47565272013E+03  0.15077696250E+04  0.46999998093E+01 0. -1.
</event>
<event>
 5   0  0.6949625E-07  0.3636340E+04  0.7818609E-02  0.8082218E-01
        2   -1    0    0  501    0  0.00000000000E+00  0.00000000000E+00  0.21603558737E+04  0.21603558737E+04  0.25500000920E-02 0. -1.
       -2   -1    0    0    0  501  0.00000000000E+00  0.00000000000E+00 -0.15301837805E+04  0.15301837805E+04  0.25500000920E-02 0.  1.
    10030    2    1    2    0    0  0.00000000000E+00  0.00000000000E+00  0.63017209314E+03  0.36905396542E+04  0.36363396530E+04 0.  0.
        5    1    3    3  502    0 -0.57438148613E+03  0.15113178656E+04  0.11591818578E+04  0.19894020338E+04  0.46999998093E+01 0. -1.
       -5    1    3    3    0  502  0.57438148613E+03 -0.15113178656E+04 -0.52900976468E+03  0.17011376204E+04  0.46999998093E+01 0.  1.
</event>
<event>
 5   0  0.6949625E-07  0.3880474E+04  0.7818609E-02  0.8029103E-01
       -2   -1    0    0    0  501  0.00000000000E+00  0.00000000000E+00  0.16493260052E+04  0.16493260052E+04  0.25500000920E-02 0.  1.
        2   -1    0    0  501    0  0.00000000000E+00  0.00000000000E+00 -0.22824588108E+04  0.22824588108E+04  0.25500000920E-02 0. -1.
    10030    2    1    2    0    0  0.00000000000E+00  0.00000000000E+00 -0.63313280560E+03  0.39317848159E+04  0.38804735135E+04 0.  0.
        5    1    3    3  502    0  0.43518680980E+03 -0.45303827207E+03 -0.21765593246E+04  0.22654058839E+04  0.46999998093E+01 0. -1.
       -5    1    3    3    0  502 -0.43518680980E+03  0.45303827207E+03  0.15434265190E+04  0.16663789320E+04  0.46999998093E+01 0.  1.
</event>
<event>
 5   0  0.7124627E-07  0.3679368E+04  0.7818609E-02  0.8072549E-01
       -2   -1    0    0    0  501  0.00000000000E+00  0.00000000000E+00  0.17882838184E+04  0.17882838184E+04  0.25500000920E-02 0.  1.
        2   -1    0    0  501    0  0.00000000000E+00  0.00000000000E+00 -0.18925619336E+04  0.18925619336E+04  0.25500000920E-02 0. -1.
    10030    2    1    2    0    0  0.00000000000E+00  0.00000000000E+00 -0.10427811519E+03  0.36808457521E+04  0.36793683595E+04 0.  0.
        2    1    3    3  502    0  0.14815635856E+03  0.53864457819E+03  0.17013766668E+04  0.17907458923E+04  0.25500000920E-02 0.  1.
       -2    1    3    3    0  502 -0.14815635856E+03 -0.53864457819E+03 -0.18056547820E+04  0.18900998598E+04  0.25500000920E-02 0. -1.
</event>
<event>
 5   0  0.2411746E-07  0.3678683E+04  0.7818609E-02  0.8072702E-01
        1   -1    0    0  501    0  0.00000000000E+00  0.00000000000E+00  0.18078416711E+04  0.18078416711E+04  0.50400001928E-02 0. -1.
       -1   -1    0    0    0  501  0.00000000000E+00  0.00000000000E+00 -0.18713900200E+04  0.18713900201E+04  0.50400001928E-02 0.  1.
    10030    2    1    2    0    0  0.00000000000E+00  0.00000000000E+00 -0.63548348971E+02  0.36792316911E+04  0.36786828410E+04 0.  0.
        1    1    3    3  502    0 -0.79003004336E+01  0.14451764589E+04 -0.11697398039E+04  0.18592709918E+04  0.50400001928E-02 0.  1.
       -1    1    3    3    0  502  0.79003004336E+01 -0.14451764589E+04  0.11061914549E+04  0.18199606993E+04  0.50400001928E-02 0. -1.
</event>
<event>
 5   0  0.6949625E-07  0.3654471E+04  0.7818609E-02  0.8078127E-01
        2   -1    0    0  501    0  0.00000000000E+00  0.00000000000E+00  0.18277458733E+04  0.18277458733E+04  0.25500000920E-02 0.  1.
       -2   -1    0    0    0  501  0.00000000000E+00  0.00000000000E+00 -0.18267252748E+04  0.18267252748E+04  0.25500000920E-02 0. -1.
    10030    2    1    2    0    0  0.00000000000E+00  0.00000000000E+00  0.10205985058E+01  0.36544711481E+04  0.36544710056E+04 0.  0.
        5    1    3    3  502    0  0.11936602633E+04  0.63057324268E+03 -0.12308792299E+04  0.18268916791E+04  0.46999998093E+01 0. -1.
       -5    1    3    3    0  502 -0.11936602633E+04 -0.63057324268E+03  0.12318998284E+04  0.18275794690E+04  0.46999998093E+01 0.  1.
</event>
<event>
 5   0  0.2345471E-07  0.3769850E+04  0.7818609E-02  0.8052656E-01
        1   -1    0    0  501    0  0.00000000000E+00  0.00000000000E+00  0.21318829887E+04  0.21318829887E+04  0.50400001928E-02 0. -1.
       -1   -1    0    0    0  501  0.00000000000E+00  0.00000000000E+00 -0.16665746712E+04  0.16665746712E+04  0.50400001928E-02 0.  1.
    10030    2    1    2    0    0  0.00000000000E+00  0.00000000000E+00  0.46530831750E+03  0.37984576599E+04  0.37698499657E+04 0.  0.
        5    1    3    3  502    0  0.42877934693E+03 -0.65966140096E+02  0.20808904111E+04  0.21256364348E+04  0.46999998093E+01 0. -1.
       -5    1    3    3    0  502 -0.42877934693E+03  0.65966140096E+02 -0.16155820936E+04  0.16728212251E+04  0.46999998093E+01 0.  1.
</event>
<event>
 5   0  0.7074157E-07  0.3629685E+04  0.7818609E-02  0.8083726E-01
        2   -1    0    0  501    0  0.00000000000E+00  0.00000000000E+00  0.32786518781E+04  0.32786518781E+04  0.25500000920E-02 0.  1.
       -2   -1    0    0    0  501  0.00000000000E+00  0.00000000000E+00 -0.10045756068E+04  0.10045756068E+04  0.25500000920E-02 0. -1.
    10030    2    1    2    0    0  0.00000000000E+00  0.00000000000E+00  0.22740762713E+04  0.42832274849E+04  0.36296852204E+04 0.  0.
        3    1    3    3  502    0  0.55910994883E+03  0.16034774309E+04  0.38151742767E+03  0.17404882546E+04  0.10100000352E+00 0.  1.
       -3    1    3    3    0  502 -0.55910994883E+03 -0.16034774309E+04  0.18925588437E+04  0.25427392303E+04  0.10100000352E+00 0. -1.
</event>
<event>
 5   0  0.6949625E-07  0.3722601E+04  0.7818609E-02  0.8062972E-01
       -2   -1    0    0    0  501  0.00000000000E+00  0.00000000000E+00  0.15605625084E+04  0.15605625084E+04  0.25500000920E-02 0.  1.
        2   -1    0    0  501    0  0.00000000000E+00  0.00000000000E+00 -0.22199935871E+04  0.22199935871E+04  0.25500000920E-02 0. -1.
    10030    2    1    2    0    0  0.00000000000E+00  0.00000000000E+00 -0.65943107870E+03  0.37805560955E+04  0.37226005754E+04 0.  0.
        5    1    3    3  502    0  0.32958996338E+03 -0.13646079735E+03  0.15255160221E+04  0.15666755621E+04  0.46999998093E+01 0.  1.
       -5    1    3    3    0  502 -0.32958996338E+03  0.13646079735E+03 -0.21849471008E+04  0.22138805335E+04  0.46999998093E+01 0. -1.
</event>
<event>
 5   0  0.2287500E-07  0.3707298E+04  0.7818609E-02  0.8066347E-01
        1   -1    0    0  501    0  0.00000000000E+00  0.00000000000E+00  0.29402578715E+04  0.29402578715E+04  0.50400001928E-02 0. -1.
       -1   -1    0    0    0  501  0.00000000000E+00  0.00000000000E+00 -0.11686096770E+04  0.11686096771E+04  0.50400001928E-02 0.  1.
    10030    2    1    2    0    0  0.00000000000E+00  0.00000000000E+00  0.17716481944E+04  0.41088675485E+04  0.37072975611E+04 0.  0.
        4    1    3    3  502    0  0.11695731108E+04 -0.14079053074E+04  0.56096458674E+03  0.19143619033E+04  0.12699999809E+01 0.  1.
       -4    1    3    3    0  502 -0.11695731108E+04  0.14079053074E+04  0.12106836077E+04  0.21945056453E+04  0.12699999809E+01 0. -1.
</event>
<event>
 5   0  0.7074157E-07  0.3652675E+04  0.7818609E-02  0.8078531E-01
       -2   -1    0    0    0  501  0.00000000000E+00  0.00000000000E+00  0.20748019467E+04  0.20748019468E+04  0.25500000920E-02 0. -1.
        2   -1    0    0  501    0  0.00000000000E+00  0.00000000000E+00 -0.16076274602E+04  0.16076274602E+04  0.25500000920E-02 0.  1.
    10030    2    1    2    0    0  0.00000000000E+00  0.00000000000E+00  0.46717448651E+03  0.36824294070E+04  0.36526749563E+04 0.  0.
        3    1    3    3  502    0  0.40634500544E+03 -0.16848825050E+04  0.81409309267E+03  0.19148610636E+04  0.10100000352E+00 0.  1.
       -3    1    3    3    0  502 -0.40634500544E+03  0.16848825050E+04 -0.34691860616E+03  0.17675683434E+04  0.10100000352E+00 0. -1.
</event>
<event>
 5   0  0.7124627E-07  0.3614231E+04  0.7818609E-02  0.8087240E-01
        2   -1    0    0  501    0  0.00000000000E+00  0.00000000000E+00  0.20367397027E+04  0.20367397027E+04  0.25500000920E-02 0. -1.
       -2   -1    0    0    0  501  0.00000000000E+00  0.00000000000E+00 -0.16033797084E+04  0.16033797084E+04  0.25500000920E-02 0.  1.
    10030    2    1    2    0    0  0.00000000000E+00  0.00000000000E+00  0.43335999429E+03  0.36401194110E+04  0.36142313764E+04 0.  0.
        2    1    3    3  502    0 -0.65659380438E+03 -0.90640322147E+02  0.19098929234E+04  0.20216384619E+04  0.25500000920E-02 0. -1.
       -2    1    3    3    0  502  0.65659380438E+03  0.90640322147E+02 -0.14765329291E+04  0.16184809491E+04  0.25500000920E-02 0.  1.
</event>
<event>
 5   0  0.6939921E-07  0.3623597E+04  0.7818609E-02  0.8085108E-01
        2   -1    0    0  501    0  0.00000000000E+00  0.00000000000E+00  0.14688930456E+04  0.14688930456E+04  0.25500000920E-02 0.  1.
       -2   -1    0    0    0  501  0.00000000000E+00  0.00000000000E+00 -0.22347538843E+04  0.22347538843E+04  0.25500000920E-02 0. -1.
    10030    2    1    2    0    0  0.00000000000E+00  0.00000000000E+00 -0.76586083870E+03  0.37036469300E+04  0.36235973504E+04 0.  0.
        4    1    3    3  502    0  0.14711547968E+04  0.10397620019E+04 -0.18576648602E+03  0.18110528035E+04  0.12699999809E+01 0.  1.
       -4    1    3    3    0  502 -0.14711547968E+04 -0.10397620019E+04 -0.58009435268E+03  0.18925941265E+04  0.12699999809E+01 0. -1.
</event>
<event>
 5   0  0.7074157E-07  0.3703435E+04  0.7818609E-02  0.8067201E-01
        2   -1    0    0  501    0  0.00000000000E+00  0.00000000000E+00  0.18237947977E+04  0.18237947977E+04  0.25500000920E-02 0. -1.
       -2   -1    0    0    0  501  0.00000000000E+00  0.00000000000E+00 -0.18800675014E+04  0.18800675014E+04  0.25500000920E-02 0.  1.
    10030    2    1    2    0    0  0.00000000000E+00  0.00000000000E+00 -0.56272703680E+02  0.37038622992E+04  0.37034347995E+04 0.  0.
        3    1    3    3  502    0  0.44406454261E+03 -0.17826476202E+04  0.20390651308E+03  0.18484057271E+04  0.10100000352E+00 0. -1.
       -3    1    3    3    0  502 -0.44406454261E+03  0.17826476202E+04 -0.26017921676E+03  0.18554565721E+04  0.10100000352E+00 0.  1.
</event>
<event>
 5   0  0.7300916E-07  0.2857731E+04  0.7818609E-02  0.8285566E-01
       -2   -1    0    0    0  501  0.00000000000E+00  0.00000000000E+00  0.17093978345E+04  0.17093978345E+04  0.25500000920E-02 0.  1.
        2   -1    0    0  501    0  0.00000000000E+00  0.00000000000E+00 -0.11943714888E+04  0.11943714888E+04  0.25500000920E-02 0. -1.
    10030    2    1    2    0    0  0.00000000000E+00  0.00000000000E+00  0.51502634574E+03  0.29037693233E+04  0.28577305937E+04 0.  0.
        1    1    3    3  502    0  0.10472158598E+04  0.95643501645E+03  0.80853008312E+02  0.14205513742E+04  0.50400001928E-02 0. -1.
       -1    1    3    3    0  502 -0.10472158598E+04 -0.95643501645E+03  0.43417333743E+03  0.14832179491E+04  0.50400001928E-02 0.  1.
</event>
<event>
 5   0  0.7300916E-07  0.3702825E+04  0.7818609E-02  0.8067336E-01
       -2   -1    0    0    0  501  0.00000000000E+00  0.00000000000E+00  0.18071537812E+04  0.18071537812E+04  0.25500000920E-02 0.  1.
        2   -1    0    0  501    0  0.00000000000E+00  0.00000000000E+00 -0.18967551304E+04  0.18967551304E+04  0.25500000920E-02 0. -1.
    10030    2    1    2    0    0  0.00000000000E+00  0.00000000000E+00 -0.89601349147E+02  0.37039089116E+04  0.37028249788E+04 0.  0.
        1    1    3    3  502    0  0.63424169699E+03 -0.47951625620E+03 -0.17172739190E+04  0.18924132961E+04  0.50400001928E-02 0. -1.
       -1    1    3    3    0  502 -0.63424169699E+03  0.47951625620E+03  0.16276725699E+04  0.18114956155E+04  0.50400001928E-02 0.  1.
</event>
<event>
 5   0  0.2411746E-07  0.3719280E+04  0.7818609E-02  0.8063702E-01
        1   -1    0    0  501    0  0.00000000000E+00  0.00000000000E+00  0.18931173060E+04  0.18931173060E+04  0.50400001928E-02 0.  1.
       -1   -1    0    0    0  501  0.00000000000E+00  0.00000000000E+00 -0.18267549431E+04  0.18267549431E+04  0.50400001928E-02 0. -1.
    10030    2    1    2    0    0  0.00000000000E+00  0.00000000000E+00  0.66362362981E+02  0.37198722491E+04  0.37192802511E+04 0.  0.
        1    1    3    3  502    0 -0.13995307913E+04  0.51914491477E+03  0.11424400007E+04  0.18797252548E+04  0.50400001928E-02 0.  1.
       -1    1    3    3    0  502  0.13995307913E+04 -0.51914491477E+03 -0.10760776377E+04  0.18401469943E+04  0.50400001928E-02 0. -1.
</event>
<event>
 5   0  0.2287500E-07  0.3759687E+04  0.7818609E-02  0.8054862E-01
       -1   -1    0    0    0  501  0.00000000000E+00  0.00000000000E+00  0.17857788892E+04  0.17857788892E+04  0.50400001928E-02 0. -1.
        1   -1    0    0  501    0  0.00000000000E+00  0.00000000000E+00 -0.19788631479E+04  0.19788631479E+04  0.50400001928E-02 0.  1.
    10030    2    1    2    0    0  0.00000000000E+00  0.00000000000E+00 -0.19308425874E+03  0.37646420371E+04  0.37596872392E+04 0.  0.
        2    1    3    3  502    0  0.16711205367E+04  0.39890300450E+03  0.66738176336E+03  0.18431402207E+04  0.25500000920E-02 0. -1.
       -2    1    3    3    0  502 -0.16711205367E+04 -0.39890300450E+03 -0.86046602211E+03  0.19215018164E+04  0.25500000920E-02 0.  1.
</event>
<event>
 5   0  0.7300916E-07  0.3650821E+04  0.7818609E-02  0.8078949E-01
       -2   -1    0    0    0  501  0.00000000000E+00  0.00000000000E+00  0.20010128372E+04  0.20010128372E+04  0.25500000920E-02 0. -1.
        2   -1    0    0  501    0  0.00000000000E+00  0.00000000000E+00 -0.16652181637E+04  0.16652181637E+04  0.25500000920E-02 0.  1.
    10030    2    1    2    0    0  0.00000000000E+00  0.00000000000E+00  0.33579467352E+03  0.36662310009E+04  0.36508206871E+04 0.  0.
        1    1    3    3  502    0 -0.32321909390E+03 -0.11775420489E+04  0.15304765770E+04  0.19579158338E+04  0.50400001928E-02 0. -1.
       -1    1    3    3    0  502  0.32321909390E+03  0.11775420489E+04 -0.11946819035E+04  0.17083151671E+04  0.50400001928E-02 0.  1.
</event>
<event>
 5   0  0.2345471E-07  0.3689274E+04  0.7818609E-02  0.8070343E-01
        1   -1    0    0  501    0  0.00000000000E+00  0.00000000000E+00  0.14440442701E+04  0.14440442701E+04  0.50400001928E-02 0.  1.
       -1   -1    0    0    0  501  0.00000000000E+00  0.00000000000E+00 -0.23563580232E+04  0.23563580232E+04  0.50400001928E-02 0. -1.
    10030    2    1    2    0    0  0.00000000000E+00  0.00000000000E+00 -0.91231375310E+03  0.38004022932E+04  0.36892738047E+04 0.  0.
        5    1    3    3  502    0  0.13126178297E+04  0.60839557647E+03  0.72267028744E+03  0.16172152543E+04  0.46999998093E+01 0.  1.
       -5    1    3    3    0  502 -0.13126178297E+04 -0.60839557647E+03 -0.16349840405E+04  0.21831870390E+04  0.46999998093E+01 0. -1.
</event>
<event>
 5   0  0.6949625E-07  0.3617367E+04  0.7818609E-02  0.8086525E-01
       -2   -1    0    0    0  501  0.00000000000E+00  0.00000000000E+00  0.15624584411E+04  0.15624584411E+04  0.25500000920E-02 0. -1.
        2   -1    0    0  501    0  0.00000000000E+00  0.00000000000E+00 -0.20937103795E+04  0.20937103795E+04  0.25500000920E-02 0.  1.
    10030    2    1    2    0    0  0.00000000000E+00  0.00000000000E+00 -0.53125193838E+03  0.36561688206E+04  0.36173666973E+04 0.  0.
        5    1    3    3  502    0  0.19552281498E+01  0.13503292252E+04  0.95057702189E+03  0.16513665868E+04  0.46999998093E+01 0. -1.
       -5    1    3    3    0  502 -0.19552281498E+01 -0.13503292252E+04 -0.14818289603E+04  0.20048022338E+04  0.46999998093E+01 0.  1.
</event>
<event>
 5   0  0.2287500E-07  0.3700243E+04  0.7818609E-02  0.8067908E-01
       -1   -1    0    0    0  501  0.00000000000E+00  0.00000000000E+00  0.24654500772E+04  0.24654500772E+04  0.50400001928E-02 0.  1.
        1   -1    0    0  501    0  0.00000000000E+00  0.00000000000E+00 -0.13883670087E+04  0.13883670088E+04  0.50400001928E-02 0. -1.
    10030    2    1    2    0    0  0.00000000000E+00  0.00000000000E+00  0.10770830684E+04  0.38538170859E+04  0.37002429914E+04 0.  0.
        3    1    3    3  502    0 -0.16310769622E+04  0.32250260680E+03 -0.30663705618E+03  0.16906940239E+04  0.10100000352E+00 0. -1.
       -3    1    3    3    0  502  0.16310769622E+04 -0.32250260680E+03  0.13837201246E+04  0.21631230620E+04  0.10100000352E+00 0.  1.
</event>
<event>
 5   0  0.7124627E-07  0.2748819E+04  0.7818609E-02  0.8319336E-01
        2   -1    0    0  501    0  0.00000000000E+00  0.00000000000E+00  0.14555138404E+04  0.14555138404E+04  0.25500000920E-02 0. -1.
       -2   -1    0    0    0  501  0.00000000000E+00  0.00000000000E+00 -0.12978245850E+04  0.12978245850E+04  0.25500000920E-02 0.  1.
    10030    2    1    2    0    0  0.00000000000E+00  0.00000000000E+00  0.15768925537E+03  0.27533384254E+04  0.27488191253E+04 0.  0.
        2    1    3    3  502    0  0.43548824932E+02 -0.11544603403E+04  0.82459974138E+03  0.14193801150E+04  0.25500000920E-02 0. -1.
       -2    1    3    3    0  502 -0.43548824932E+02  0.11544603403E+04 -0.66691048600E+03  0.13339583104E+04  0.25500000920E-02 0.  1.
</event>
<event>
 5   0  0.2287500E-07  0.3679324E+04  0.7818609E-02  0.8072559E-01
        1   -1    0    0  501    0  0.00000000000E+00  0.00000000000E+00  0.22655454577E+04  0.22655454577E+04  0.50400001928E-02 0.  1.
       -1   -1    0    0    0  501  0.00000000000E+00  0.00000000000E+00 -0.14938372911E+04  0.14938372911E+04  0.50400001928E-02 0. -1.
    10030    2    1    2    0    0  0.00000000000E+00  0.00000000000E+00  0.77170816662E+03  0.37593827488E+04  0.36793240082E+04 0.  0.
        4    1    3    3  502    0  0.46700666435E+03 -0.30511160024E+02  0.22037035008E+04  0.22528508356E+04  0.12699999809E+01 0.  1.
       -4    1    3    3    0  502 -0.46700666435E+03  0.30511160024E+02 -0.14319953342E+04  0.15065319132E+04  0.12699999809E+01 0. -1.
</event>
<event>
 5   0  0.2345471E-07  0.3688522E+04  0.7818609E-02  0.8070510E-01
        1   -1    0    0  501    0  0.00000000000E+00  0.00000000000E+00  0.12614265259E+04  0.12614265259E+04  0.50400001928E-02 0.  1.
       -1   -1    0    0    0  501  0.00000000000E+00  0.00000000000E+00 -0.26963900155E+04  0.26963900155E+04  0.50400001928E-02 0. -1.
    10030    2    1    2    0    0  0.00000000000E+00  0.00000000000E+00 -0.14349634896E+04  0.39578165414E+04  0.36885215953E+04 0.  0.
        5    1    3    3  502    0  0.45899821729E+03 -0.15045283624E+04 -0.17505786270E+04  0.23534724506E+04  0.46999998093E+01 0. -1.
       -5    1    3    3    0  502 -0.45899821729E+03  0.15045283624E+04  0.31561513738E+03  0.16043440908E+04  0.46999998093E+01 0.  1.
</event>
<event>
 5   0  0.2411746E-07  0.3665328E+04  0.7818609E-02  0.8075689E-01
        1   -1    0    0  501    0  0.00000000000E+00  0.00000000000E+00  0.19521074498E+04  0.19521074498E+04  0.50400001928E-02 0.  1.
       -1   -1    0    0    0  501  0.00000000000E+00  0.00000000000E+00 -0.17205286108E+04  0.17205286108E+04  0.50400001928E-02 0. -1.
    10030    2    1    2    0    0  0.00000000000E+00  0.00000000000E+00  0.23157883903E+03  0.36726360606E+04  0.36653276627E+04 0.  0.
        1    1    3    3  502    0  0.11145805880E+04  0.13510270740E+04 -0.42481641616E+03  0.18022300157E+04  0.50400001928E-02 0. -1.
       -1    1    3    3    0  502 -0.11145805880E+04 -0.13510270740E+04  0.65639525519E+03  0.18704060449E+04  0.50400001928E-02 0.  1.
</event>
<event>
 5   0  0.2287500E-07  0.3676386E+04  0.7818609E-02  0.8073215E-01
       -1   -1    0    0    0  501  0.00000000000E+00  0.00000000000E+00  0.18026710008E+04  0.18026710008E+04  0.50400001928E-02 0. -1.
        1   -1    0    0  501    0  0.00000000000E+00  0.00000000000E+00 -0.18744151206E+04  0.18744151206E+04  0.50400001928E-02 0.  1.
    10030    2    1    2    0    0  0.00000000000E+00  0.00000000000E+00 -0.71744119807E+02  0.36770861214E+04  0.36763861503E+04 0.  0.
        2    1    3    3  502    0 -0.11820303092E+03 -0.35620715158E+03 -0.18356863428E+04  0.18736594783E+04  0.25500000920E-02 0.  1.
       -2    1    3    3    0  502  0.11820303092E+03  0.35620715158E+03  0.17639422230E+04  0.18034266432E+04  0.25500000920E-02 0. -1.
</event>
<event>
 5   0  0.7074157E-07  0.3664390E+04  0.7818609E-02  0.8075900E-01
        2   -1    0    0  501    0  0.00000000000E+00  0.00000000000E+00  0.16786924780E+04  0.16786924780E+04  0.25500000920E-02 0. -1.
       -2   -1    0    0    0  501  0.00000000000E+00  0.00000000000E+00 -0.19997340882E+04  0.19997340882E+04  0.25500000920E-02 0.  1.
    10030    2    1    2    0    0  0.00000000000E+00  0.00000000000E+00 -0.32104161019E+03  0.36784265662E+04  0.36643900294E+04 0.  0.
        3    1    3    3  502    0 -0.33157936657E+03  0.87875182882E+03  0.14186513519E+04  0.17013880573E+04  0.10100000352E+00 0. -1.
       -3    1    3    3    0  502  0.33157936657E+03 -0.87875182882E+03 -0.17396929621E+04  0.19770385089E+04  0.10100000352E+00 0.  1.
</event>
<event>
 5   0  0.7300916E-07  0.3778929E+04  0.7818609E-02  0.8050692E-01
       -2   -1    0    0    0  501  0.00000000000E+00  0.00000000000E+00  0.19019596997E+04  0.19019596997E+04  0.25500000920E-02 0. -1.
        2   -1    0    0  501    0  0.00000000000E+00  0.00000000000E+00 -0.18770512221E+04  0.18770512221E+04  0.25500000920E-02 0.  1.
    10030    2    1    2    0    0  0.00000000000E+00  0.00000000000E+00  0.24908477644E+02  0.37790109218E+04  0.37789288317E+04 0.  0.
        1    1    3    3  502    0  0.16095790093E+04  0.40683931415E+03  0.91458966194E+03  0.18954516782E+04  0.50400001928E-02 0.  1.
       -1    1    3    3    0  502 -0.16095790093E+04 -0.40683931415E+03 -0.88968118430E+03  0.18835592436E+04  0.50400001928E-02 0. -1.
</event>
<event>
 5   0  0.2287500E-07  0.3793986E+04  0.7818609E-02  0.8047447E-01
        1   -1    0    0  501    0  0.00000000000E+00  0.00000000000E+00  0.20277523757E+04  0.20277523757E+04  0.50400001928E-02 0.  1.
       -1   -1    0    0    0  501  0.00000000000E+00  0.00000000000E+00 -0.17746656605E+04  0.17746656605E+04  0.50400001928E-02 0. -1.
    10030    2    1    2    0    0  0.00000000000E+00  0.00000000000E+00  0.25308671515E+03  0.38024180362E+04  0.37939860354E+04 0.  0.
        2    1    3    3  502    0 -0.86460882132E+03  0.16863036087E+04  0.21284067445E+03  0.19069529169E+04  0.25500000920E-02 0. -1.
       -2    1    3    3    0  502  0.86460882132E+03 -0.16863036087E+04  0.40246040701E+02  0.18954651193E+04  0.25500000920E-02 0.  1.
</event>
<event>
 5   0  0.2287500E-07  0.3617707E+04  0.7818609E-02  0.8086448E-01
        1   -1    0    0  501    0  0.00000000000E+00  0.00000000000E+00  0.24489164949E+04  0.24489164949E+04  0.50400001928E-02 0. -1.
       -1   -1    0    0    0  501  0.00000000000E+00  0.00000000000E+00 -0.13360807482E+04  0.13360807482E+04  0.50400001928E-02 0.  1.
    10030    2    1    2    0    0  0.00000000000E+00  0.00000000000E+00  0.11128357467E+04  0.37849972431E+04  0.36177065568E+04 0.  0.
        4    1    3    3  502    0 -0.15520334739E+04  0.68008093174E+02  0.15258252435E+04  0.21775163125E+04  0.12699999809E+01 0.  1.
       -4    1    3    3    0  502  0.15520334739E+04 -0.68008093174E+02 -0.41298949677E+03  0.16074809306E+04  0.12699999809E+01 0. -1.
</event>
<event>
 5   0  0.2287500E-07  0.3688468E+04  0.7818609E-02  0.8070522E-01
       -1   -1    0    0    0  501  0.00000000000E+00  0.00000000000E+00  0.24868396346E+04  0.24868396346E+04  0.50400001928E-02 0. -1.
        1   -1    0    0  501    0  0.00000000000E+00  0.00000000000E+00 -0.13676794522E+04  0.13676794522E+04  0.50400001928E-02 0.  1.
    10030    2    1    2    0    0  0.00000000000E+00  0.00000000000E+00  0.11191601824E+04  0.38545190869E+04  0.36884682291E+04 0.  0.
        3    1    3    3  502    0  0.78008764226E+03 -0.13949502710E+04 -0.40205110668E+03  0.16480497840E+04  0.10100000352E+00 0.  1.
       -3    1    3    3    0  502 -0.78008764226E+03  0.13949502710E+04  0.15212112890E+04  0.22064693028E+04  0.10100000352E+00 0. -1.
</event>
<event>
 5   0  0.2287500E-07  0.3765698E+04  0.7818609E-02  0.8053556E-01
        1   -1    0    0  501    0  0.00000000000E+00  0.00000000000E+00  0.17401258623E+04  0.17401258623E+04  0.50400001928E-02 0. -1.
       -1   -1    0    0    0  501  0.00000000000E+00  0.00000000000E+00 -0.20372782630E+04  0.20372782630E+04  0.50400001928E-02 0.  1.
    10030    2    1    2    0    0  0.00000000000E+00  0.00000000000E+00 -0.29715240072E+03  0.37774041252E+04  0.37656981260E+04 0.  0.
        4    1    3    3  502    0 -0.99022377229E+03 -0.80944962008E+03  0.12375177691E+04  0.17796639145E+04  0.12699999809E+01 0. -1.
       -4    1    3    3    0  502  0.99022377229E+03  0.80944962008E+03 -0.15346701698E+04  0.19977402108E+04  0.12699999809E+01 0.  1.
</event>
<event>
 5   0  0.7124627E-07  0.3692189E+04  0.7818609E-02  0.8069695E-01
       -2   -1    0    0    0  501  0.00000000000E+00  0.00000000000E+00  0.21410047289E+04  0.21410047289E+04  0.25500000920E-02 0. -1.
        2   -1    0    0  501    0  0.00000000000E+00  0.00000000000E+00 -0.15918063327E+04  0.15918063327E+04  0.25500000920E-02 0.  1.
    10030    2    1    2    0    0  0.00000000000E+00  0.00000000000E+00  0.54919839613E+03  0.37328110616E+04  0.36921889907E+04 0.  0.
        2    1    3    3  502    0 -0.21274737104E+03 -0.17909845348E+04 -0.12366102602E+03  0.18078105811E+04  0.25500000920E-02 0. -1.
       -2    1    3    3    0  502  0.21274737104E+03  0.17909845348E+04  0.67285942215E+03  0.19250004805E+04  0.25500000920E-02 0.  1.
</event>
<event>
 5   0  0.7300916E-07  0.3755923E+04  0.7818609E-02  0.8055680E-01
       -2   -1    0    0    0  501  0.00000000000E+00  0.00000000000E+00  0.24399513190E+04  0.24399513190E+04  0.25500000920E-02 0. -1.
        2   -1    0    0  501    0  0.00000000000E+00  0.00000000000E+00 -0.14454140595E+04  0.14454140595E+04  0.25500000920E-02 0.  1.
    10030    2    1    2    0    0  0.00000000000E+00  0.00000000000E+00  0.99453725947E+03  0.38853653785E+04  0.37559232904E+04 0.  0.
        1    1    3    3  502    0 -0.11900502456E+03  0.16990985430E+03 -0.14335258530E+04  0.14484570846E+04  0.50400001928E-02 0.  1.
       -1    1    3    3    0  502  0.11900502456E+03 -0.16990985430E+03  0.24280631125E+04  0.24369082939E+04  0.50400001928E-02 0. -1.
</event>
<event>
 5   0  0.2411746E-07  0.3724896E+04  0.7818609E-02  0.8062467E-01
        1   -1    0    0  501    0  0.00000000000E+00  0.00000000000E+00  0.23627799249E+04  0.23627799249E+04  0.50400001928E-02 0.  1.
       -1   -1    0    0    0  501  0.00000000000E+00  0.00000000000E+00 -0.14680644430E+04  0.14680644430E+04  0.50400001928E-02 0. -1.
    10030    2    1    2    0    0  0.00000000000E+00  0.00000000000E+00  0.89471548184E+03  0.38308443679E+04  0.37248963446E+04 0.  0.
        1    1    3    3  502    0  0.71001650791E+03  0.17152448766E+04  0.29300637995E+03  0.18793725461E+04  0.50400001928E-02 0. -1.
       -1    1    3    3    0  502 -0.71001650791E+03 -0.17152448766E+04  0.60170910189E+03  0.19514718219E+04  0.50400001928E-02 0.  1.
</event>
<event>
 5   0  0.7124627E-07  0.3763462E+04  0.7818609E-02  0.8054041E-01
        2   -1    0    0  501    0  0.00000000000E+00  0.00000000000E+00  0.21493517309E+04  0.21493517309E+04  0.25500000920E-02 0.  1.
       -2   -1    0    0    0  501  0.00000000000E+00  0.00000000000E+00 -0.16474327790E+04  0.16474327790E+04  0.25500000920E-02 0. -1.
    10030    2    1    2    0    0  0.00000000000E+00  0.00000000000E+00  0.50191895198E+03  0.37967845099E+04  0.37634624988E+04 0.  0.
        2    1    3    3  502    0  0.89060068714E+03  0.13197703364E+04 -0.76089107983E+03  0.17646298649E+04  0.25500000920E-02 0. -1.
       -2    1    3    3    0  502 -0.89060068714E+03 -0.13197703364E+04  0.12628100318E+04  0.20321546450E+04  0.25500000920E-02 0.  1.
</event>
<event>
 5   0  0.2287500E-07  0.3676089E+04  0.7818609E-02  0.8073282E-01
        1   -1    0    0  501    0  0.00000000000E+00  0.00000000000E+00  0.19384227313E+04  0.19384227313E+04  0.50400001928E-02 0. -1.
       -1   -1    0    0    0  501  0.00000000000E+00  0.00000000000E+00 -0.17428642272E+04  0.17428642272E+04  0.50400001928E-02 0.  1.
    10030    2    1    2    0    0  0.00000000000E+00  0.00000000000E+00  0.19555850411E+03  0.36812869586E+04  0.36760890281E+04 0.  0.
        3    1    3    3  502    0 -0.89846316024E+03 -0.13646602777E+04  0.94091624643E+03  0.18854328726E+04  0.10100000352E+00 0. -1.
       -3    1    3    3    0  502  0.89846316024E+03  0.13646602777E+04 -0.74535774231E+03  0.17958540860E+04  0.10100000352E+00 0.  1.
</event>
<event>
 5   0  0.7300916E-07  0.3512313E+04  0.7818609E-02  0.8110878E-01
       -2   -1    0    0    0  501  0.00000000000E+00  0.00000000000E+00  0.13586626827E+04  0.13586626827E+04  0.25500000920E-02 0.  1.
        2   -1    0    0  501    0  0.00000000000E+00  0.00000000000E+00 -0.22699419140E+04  0.22699419140E+04  0.25500000920E-02 0. -1.
    10030    2    1    2    0    0  0.00000000000E+00  0.00000000000E+00 -0.91127923132E+03  0.36286045968E+04  0.35123128395E+04 0.  0.
        1    1    3    3  502    0  0.48038569673E+03  0.11317639311E+04  0.83984265696E+03  0.14889579248E+04  0.50400001928E-02 0.  1.
       -1    1    3    3    0  502 -0.48038569673E+03 -0.11317639311E+04 -0.17511218883E+04  0.21396466720E+04  0.50400001928E-02 0. -1.
</event>
<event>
 5   0  0.2287500E-07  0.3960752E+04  0.7818609E-02  0.8012511E-01
       -1   -1    0    0    0  501  0.00000000000E+00  0.00000000000E+00  0.16358053851E+04  0.16358053851E+04  0.50400001928E-02 0. -1.
        1   -1    0    0  501    0  0.00000000000E+00  0.00000000000E+00 -0.23975278125E+04  0.23975278125E+04  0.50400001928E-02 0.  1.
    10030    2    1    2    0    0  0.00000000000E+00  0.00000000000E+00 -0.76172242741E+03  0.40333331976E+04  0.39607519017E+04 0.  0.
        3    1    3    3  502    0 -0.38206612315E+03 -0.57173882039E+03  0.15103276009E+04  0.16595027187E+04  0.10100000352E+00 0. -1.
       -3    1    3    3    0  502  0.38206612315E+03  0.57173882039E+03 -0.22720500283E+04  0.23738304789E+04  0.10100000352E+00 0.  1.
</event>
<event>
 5   0  0.6949625E-07  0.3713319E+04  0.7818609E-02  0.8065017E-01
        2   -1    0    0  501    0  0.00000000000E+00  0.00000000000E+00  0.26975631823E+04  0.26975631823E+04  0.25500000920E-02 0.  1.
       -2   -1    0    0    0  501  0.00000000000E+00  0.00000000000E+00 -0.12778881730E+04  0.12778881730E+04  0.25500000920E-02 0. -1.
    10030    2    1    2    0    0  0.00000000000E+00  0.00000000000E+00  0.14196750093E+04  0.39754513554E+04  0.37133187780E+04 0.  0.
        5    1    3    3  502    0 -0.28150974140E+03 -0.21922576207E+03  0.26605071402E+04  0.26843300844E+04  0.46999998093E+01 0.  1.
       -5    1    3    3    0  502  0.28150974140E+03  0.21922576207E+03 -0.12408321309E+04  0.12911212709E+04  0.46999998093E+01 0. -1.
</event>
<event>
 5   0  0.7300916E-07  0.3707683E+04  0.7818609E-02  0.8066261E-01
        2   -1    0    0  501    0  0.00000000000E+00  0.00000000000E+00  0.17528820117E+04  0.17528820117E+04  0.25500000920E-02 0.  1.
       -2   -1    0    0    0  501  0.00000000000E+00  0.00000000000E+00 -0.19606163228E+04  0.19606163228E+04  0.25500000920E-02 0. -1.
    10030    2    1    2    0    0  0.00000000000E+00  0.00000000000E+00 -0.20773431108E+03  0.37134983345E+04  0.37076834191E+04 0.  0.
        1    1    3    3  502    0 -0.78163285502E+03 -0.15291472112E+04  0.59543125371E+03  0.18176301856E+04  0.50400001928E-02 0.  1.
       -1    1    3    3    0  502  0.78163285502E+03  0.15291472112E+04 -0.80316556479E+03  0.18958681489E+04  0.50400001928E-02 0. -1.
</event>
<event>
 5   0  0.2287500E-07  0.3674004E+04  0.7818609E-02  0.8073747E-01
        1   -1    0    0  501    0  0.00000000000E+00  0.00000000000E+00  0.17864498603E+04  0.17864498604E+04  0.50400001928E-02 0.  1.
       -1   -1    0    0    0  501  0.00000000000E+00  0.00000000000E+00 -0.18889842340E+04  0.18889842340E+04  0.50400001928E-02 0. -1.
    10030    2    1    2    0    0  0.00000000000E+00  0.00000000000E+00 -0.10253437363E+03  0.36754340943E+04  0.36740036042E+04 0.  0.
        2    1    3    3  502    0 -0.12104229193E+04  0.13460685773E+04  0.26118655609E+03  0.18290004581E+04  0.25500000920E-02 0. -1.
       -2    1    3    3    0  502  0.12104229193E+04 -0.13460685773E+04 -0.36372092971E+03  0.18464336363E+04  0.25500000920E-02 0.  1.
</event>
<event>
 5   0  0.7124627E-07  0.3696780E+04  0.7818609E-02  0.8068676E-01
       -2   -1    0    0    0  501  0.00000000000E+00  0.00000000000E+00  0.20092200556E+04  0.20092200556E+04  0.25500000920E-02 0.  1.
        2   -1    0    0  501    0  0.00000000000E+00  0.00000000000E+00 -0.17004339929E+04  0.17004339929E+04  0.25500000920E-02 0. -1.
    10030    2    1    2    0    0  0.00000000000E+00  0.00000000000E+00  0.30878606271E+03  0.37096540486E+04  0.36967802650E+04 0.  0.
        2    1    3    3  502    0  0.39094512848E+03 -0.84198326210E+03  0.17583246991E+04  0.19883359009E+04  0.25500000920E-02 0.  1.
       -2    1    3    3    0  502 -0.39094512848E+03  0.84198326210E+03 -0.14495386364E+04  0.17213181477E+04  0.25500000920E-02 0. -1.
</event>
<event>
 5   0  0.7300916E-07  0.3649176E+04  0.7818609E-02  0.8079319E-01
       -2   -1    0    0    0  501  0.00000000000E+00  0.00000000000E+00  0.25330284453E+04  0.25330284453E+04  0.25500000920E-02 0. -1.
        2   -1    0    0  501    0  0.00000000000E+00  0.00000000000E+00 -0.13142847858E+04  0.13142847858E+04  0.25500000920E-02 0.  1.
    10030    2    1    2    0    0  0.00000000000E+00  0.00000000000E+00  0.12187436595E+04  0.38473132311E+04  0.36491756590E+04 0.  0.
        1    1    3    3  502    0 -0.65159093040E+03 -0.23385787868E+03 -0.11704420024E+04  0.13598509951E+04  0.50400001928E-02 0.  1.
       -1    1    3    3    0  502  0.65159093040E+03  0.23385787868E+03  0.23891856619E+04  0.24874622359E+04  0.50400001928E-02 0. -1.
</event>
<event>
 5   0  0.2287500E-07  0.3520151E+04  0.7818609E-02  0.8109031E-01
       -1   -1    0    0    0  501  0.00000000000E+00  0.00000000000E+00  0.18668215729E+04  0.18668215729E+04  0.50400001928E-02 0. -1.
        1   -1    0    0  501    0  0.00000000000E+00  0.00000000000E+00 -0.16594329174E+04  0.16594329174E+04  0.50400001928E-02 0.  1.
    10030    2    1    2    0    0  0.00000000000E+00  0.00000000000E+00  0.20738865548E+03  0.35262544903E+04  0.35201506610E+04 0.  0.
        2    1    3    3  502    0  0.18227772947E+03 -0.11664439748E+04 -0.12039612489E+04  0.16862204500E+04  0.25500000920E-02 0.  1.
       -2    1    3    3    0  502 -0.18227772947E+03  0.11664439748E+04  0.14113499044E+04  0.18400340403E+04  0.25500000920E-02 0. -1.
</event>
<event>
 5   0  0.2287500E-07  0.3701513E+04  0.7818609E-02  0.8067627E-01
       -1   -1    0    0    0  501  0.00000000000E+00  0.00000000000E+00  0.27564822670E+04  0.27564822670E+04  0.50400001928E-02 0. -1.
        1   -1    0    0  501    0  0.00000000000E+00  0.00000000000E+00 -0.12426346215E+04  0.12426346215E+04  0.50400001928E-02 0.  1.
    10030    2    1    2    0    0  0.00000000000E+00  0.00000000000E+00  0.15138476455E+04  0.39991168885E+04  0.37015133654E+04 0.  0.
        4    1    3    3  502    0 -0.67581945089E+03 -0.16116189513E+04  0.14152159441E+04  0.22487519552E+04  0.12699999809E+01 0. -1.
       -4    1    3    3    0  502  0.67581945089E+03  0.16116189513E+04  0.98631701391E+02  0.17503649333E+04  0.12699999809E+01 0.  1.
</event>
<event>
 5   0  0.6949625E-07  0.2958925E+04  0.7818609E-02  0.8255558E-01
        2   -1    0    0  501    0  0.00000000000E+00  0.00000000000E+00  0.22827234754E+04  0.22827234754E+04  0.25500000920E-02 0.  1.
       -2   -1    0    0    0  501  0.00000000000E+00  0.00000000000E+00 -0.95885890707E+03  0.95885890707E+03  0.25500000920E-02 0. -1.
    10030    2    1    2    0    0  0.00000000000E+00  0.00000000000E+00  0.13238645683E+04  0.32415823825E+04  0.29589253027E+04 0.  0.
        5    1    3    3  502    0 -0.88309353051E+03  0.10204619301E+04  0.13261423376E+04  0.18920550531E+04  0.46999998093E+01 0.  1.
       -5    1    3    3    0  502  0.88309353051E+03 -0.10204619301E+04 -0.22777693126E+01  0.13495273293E+04  0.46999998093E+01 0. -1.
</event>
<event>
 5   0  0.2287500E-07  0.3906597E+04  0.7818609E-02  0.8023659E-01
        1   -1    0    0  501    0  0.00000000000E+00  0.00000000000E+00  0.20666143085E+04  0.20666143085E+04  0.50400001928E-02 0. -1.
       -1   -1    0    0    0  501  0.00000000000E+00  0.00000000000E+00 -0.18461955284E+04  0.18461955284E+04  0.50400001928E-02 0.  1.
    10030    2    1    2    0    0  0.00000000000E+00  0.00000000000E+00  0.22041878012E+03  0.39128098370E+04  0.39065965215E+04 0.  0.
        3    1    3    3  502    0 -0.54791517810E+02 -0.17085186723E+04  0.10568771378E+04  0.20097331810E+04  0.10100000352E+00 0. -1.
       -3    1    3    3    0  502  0.54791517810E+02  0.17085186723E+04 -0.83645835769E+03  0.19030766560E+04  0.10100000352E+00 0.  1.
</event>
<event>
 5   0  0.2287500E-07  0.3675444E+04  0.7818609E-02  0.8073426E-01
       -1   -1    0    0    0  501  0.00000000000E+00  0.00000000000E+00  0.21465043956E+04  0.21465043956E+04  0.50400001928E-02 0.  1.
        1   -1    0    0  501    0  0.00000000000E+00  0.00000000000E+00 -0.15733591514E+04  0.15733591514E+04  0.50400001928E-02 0. -1.
    10030    2    1    2    0    0  0.00000000000E+00  0.00000000000E+00  0.57314524424E+03  0.37198635470E+04  0.36754441007E+04 0.  0.
        3    1    3    3  502    0  0.10098959063E+04  0.15758706456E+03  0.18322822463E+04  0.20980900040E+04  0.10100000352E+00 0.  1.
       -3    1    3    3    0  502 -0.10098959063E+04 -0.15758706456E+03 -0.12591370021E+04  0.16217735430E+04  0.10100000352E+00 0. -1.
</event>
<event>
 5   0  0.7074157E-07  0.3835699E+04  0.7818609E-02  0.8038537E-01
       -2   -1    0    0    0  501  0.00000000000E+00  0.00000000000E+00  0.15224671598E+04  0.15224671598E+04  0.25500000920E-02 0. -1.
        2   -1    0    0  501    0  0.00000000000E+00  0.00000000000E+00 -0.24159119651E+04  0.24159119651E+04  0.25500000920E-02 0.  1.
    10030    2    1    2    0    0  0.00000000000E+00  0.00000000000E+00 -0.89344480524E+03  0.39383791249E+04  0.38356989599E+04 0.  0.
        3    1    3    3  502    0 -0.16721905108E+04 -0.52529030428E+03  0.35257379118E+03  0.17878644514E+04  0.10100000352E+00 0. -1.
       -3    1    3    3    0  502  0.16721905108E+04  0.52529030428E+03 -0.12460185964E+04  0.21505146735E+04  0.10100000352E+00 0.  1.
</event>
<event>
 5   0  0.6949625E-07  0.3109194E+04  0.7818609E-02  0.8213219E-01
       -2   -1    0    0    0  501  0.00000000000E+00  0.00000000000E+00  0.26718028497E+04  0.26718028497E+04  0.25500000920E-02 0.  1.
        2   -1    0    0  501    0  0.00000000000E+00  0.00000000000E+00 -0.90454706738E+03  0.90454706739E+03  0.25500000920E-02 0. -1.
    10030    2    1    2    0    0  0.00000000000E+00  0.00000000000E+00  0.17672557823E+04  0.35763499171E+04  0.31091937426E+04 0.  0.
        5    1    3    3  502    0 -0.78517793575E+03 -0.49779469794E+03 -0.54955094233E+03  0.10799686478E+04  0.46999998093E+01 0. -1.
       -5    1    3    3    0  502  0.78517793575E+03  0.49779469794E+03  0.23168067246E+04  0.24963812692E+04  0.46999998093E+01 0.  1.
</event>
<event>
 5   0  0.2345471E-07  0.3681448E+04  0.7818609E-02  0.8072086E-01
       -1   -1    0    0    0  501  0.00000000000E+00  0.00000000000E+00  0.14161149129E+04  0.14161149129E+04  0.50400001928E-02 0. -1.
        1   -1    0    0  501    0  0.00000000000E+00  0.00000000000E+00 -0.23926478932E+04  0.23926478932E+04  0.50400001928E-02 0.  1.
    10030    2    1    2    0    0  0.00000000000E+00  0.00000000000E+00 -0.97653298032E+03  0.38087628061E+04  0.36814477386E+04 0.  0.
        5    1    3    3  502    0  0.31081168454E+03  0.18136003385E+04 -0.43661829603E+03  0.18911392645E+04  0.46999998093E+01 0. -1.
       -5    1    3    3    0  502 -0.31081168454E+03 -0.18136003385E+04 -0.53991468429E+03  0.19176235417E+04  0.46999998093E+01 0.  1.
</event>
<event>
 5   0  0.2287500E-07  0.3723123E+04  0.7818609E-02  0.8062857E-01
        1   -1    0    0  501    0  0.00000000000E+00  0.00000000000E+00  0.24402128913E+04  0.24402128913E+04  0.50400001928E-02 0.  1.
       -1   -1    0    0    0  501  0.00000000000E+00  0.00000000000E+00 -0.14201263260E+04  0.14201263260E+04  0.50400001928E-02 0. -1.
    10030    2    1    2    0    0  0.00000000000E+00  0.00000000000E+00  0.10200865653E+04  0.38603392173E+04  0.37231226507E+04 0.  0.
        2    1    3    3  502    0  0.10689325262E+04 -0.67092212059E+03 -0.90884199645E+03  0.15552321409E+04  0.25500000920E-02 0. -1.
       -2    1    3    3    0  502 -0.10689325262E+04  0.67092212059E+03  0.19289285617E+04  0.23051070764E+04  0.25500000920E-02 0.  1.
</event>
<event>
 5   0  0.6939921E-07  0.3758044E+04  0.7818609E-02  0.8055219E-01
        2   -1    0    0  501    0  0.00000000000E+00  0.00000000000E+00  0.13574112975E+04  0.13574112975E+04  0.25500000920E-02 0. -1.
       -2   -1    0    0    0  501  0.00000000000E+00  0.00000000000E+00 -0.26010714439E+04  0.26010714439E+04  0.25500000920E-02 0.  1.
    10030    2    1    2    0    0  0.00000000000E+00  0.00000000000E+00 -0.12436601464E+04  0.39584827415E+04  0.37580440464E+04 0.  0.
        4    1    3    3  502    0 -0.86311590535E+03 -0.41604790979E+03 -0.23244123452E+04  0.25141518038E+04  0.12699999809E+01 0.  1.
       -4    1    3    3    0  502  0.86311590535E+03  0.41604790979E+03  0.10807521988E+04  0.14443309376E+04  0.12699999809E+01 0. -1.
</event>
<event>
 5   0  0.6949625E-07  0.3735698E+04  0.7818609E-02  0.8060096E-01
        2   -1    0    0  501    0  0.00000000000E+00  0.00000000000E+00  0.23046439044E+04  0.23046439044E+04  0.25500000920E-02 0. -1.
       -2   -1    0    0    0  501  0.00000000000E+00  0.00000000000E+00 -0.15138393969E+04  0.15138393969E+04  0.25500000920E-02 0.  1.
    10030    2    1    2    0    0  0.00000000000E+00  0.00000000000E+00  0.79080450751E+03  0.38184833013E+04  0.37356984558E+04 0.  0.
        5    1    3    3  502    0 -0.32598053000E+03  0.75846559503E+03  0.21080336619E+04  0.22639260974E+04  0.46999998093E+01 0. -1.
       -5    1    3    3    0  502  0.32598053000E+03 -0.75846559503E+03 -0.13172291544E+04  0.15545572038E+04  0.46999998093E+01 0.  1.
</event>
<event>
 5   0  0.2411746E-07  0.3664569E+04  0.7818609E-02  0.8075859E-01
       -1   -1    0    0    0  501  0.00000000000E+00  0.00000000000E+00  0.16197150118E+04  0.16197150118E+04  0.50400001928E-02 0. -1.
        1   -1    0    0  501    0  0.00000000000E+00  0.00000000000E+00 -0.20727514646E+04  0.20727514647E+04  0.50400001928E-02 0.  1.
    10030    2    1    2    0    0  0.00000000000E+00  0.00000000000E+00 -0.45303645285E+03  0.36924664765E+04  0.36645690950E+04 0.  0.
        1    1    3    3  502    0  0.13888126944E+04 -0.74947644672E+03 -0.11646002783E+04  0.19613284918E+04  0.50400001928E-02 0.  1.
       -1    1    3    3    0  502 -0.13888126944E+04  0.74947644672E+03  0.71156382548E+03  0.17311379847E+04  0.50400001928E-02 0. -1.
</event>
<event>
 5   0  0.7124627E-07  0.3145234E+04  0.7818609E-02  0.8203432E-01
       -2   -1    0    0    0  501  0.00000000000E+00  0.00000000000E+00  0.18258213099E+04  0.18258213099E+04  0.25500000920E-02 0.  1.
        2   -1    0    0  501    0  0.00000000000E+00  0.00000000000E+00 -0.13545271703E+04  0.13545271703E+04  0.25500000920E-02 0. -1.
    10030    2    1    2    0    0  0.00000000000E+00  0.00000000000E+00  0.47129413958E+03  0.31803484802E+04  0.31452342185E+04 0.  0.
        2    1    3    3  502    0 -0.12441713578E+03 -0.79144878000E+03 -0.11326991110E+04  0.13873997517E+04  0.25500000920E-02 0. -1.
       -2    1    3    3    0  502  0.12441713578E+03  0.79144878000E+03  0.16039932506E+04  0.17929487285E+04  0.25500000920E-02 0.  1.
</event>
<event>
 5   0  0.2287500E-07  0.3617561E+04  0.7818609E-02  0.8086481E-01
       -1   -1    0    0    0  501  0.00000000000E+00  0.00000000000E+00  0.28389334905E+04  0.28389334905E+04  0.50400001928E-02 0. -1.
        1   -1    0    0  501    0  0.00000000000E+00  0.00000000000E+00 -0.11524352604E+04  0.11524352604E+04  0.50400001928E-02 0.  1.
    10030    2    1    2    0    0  0.00000000000E+00  0.00000000000E+00  0.16864982301E+04  0.39913687509E+04  0.36175610880E+04 0.  0.
        2    1    3    3  502    0 -0.12426208799E+04  0.66984532999E+03 -0.40448535795E+03  0.14684712534E+04  0.25500000920E-02 0.  1.
       -2    1    3    3    0  502  0.12426208799E+04 -0.66984532999E+03  0.20909835881E+04  0.25228974975E+04  0.25500000920E-02 0. -1.
</event>
<event>
 5   0  0.7300916E-07  0.3767353E+04  0.7818609E-02  0.8053197E-01
       -2   -1    0    0    0  501  0.00000000000E+00  0.00000000000E+00  0.16152862487E+04  0.16152862487E+04  0.25500000920E-02 0.  1.
        2   -1    0    0  501    0  0.00000000000E+00  0.00000000000E+00 -0.21966618854E+04  0.21966618854E+04  0.25500000920E-02 0. -1.
    10030    2    1    2    0    0  0.00000000000E+00  0.00000000000E+00 -0.58137563673E+03  0.38119481341E+04  0.37673533079E+04 0.  0.
        1    1    3    3  502    0  0.11464341397E+03  0.46320314114E+02 -0.21925512121E+04  0.21960349500E+04  0.50400001928E-02 0. -1.
       -1    1    3    3    0  502 -0.11464341397E+03 -0.46320314114E+02  0.16111755754E+04  0.16159131841E+04  0.50400001928E-02 0.  1.
</event>
<event>
 5   0  0.2287500E-07  0.3653157E+04  0.7818609E-02  0.8078423E-01
       -1   -1    0    0    0  501  0.00000000000E+00  0.00000000000E+00  0.15879448989E+04  0.15879448989E+04  0.50400001928E-02 0.  1.
        1   -1    0    0  501    0  0.00000000000E+00  0.00000000000E+00 -0.21010740886E+04  0.21010740886E+04  0.50400001928E-02 0. -1.
    10030    2    1    2    0    0  0.00000000000E+00  0.00000000000E+00 -0.51312918972E+03  0.36890189875E+04  0.36531574733E+04 0.  0.
        3    1    3    3  502    0  0.19666235898E+03 -0.16978238552E+04 -0.90717801858E+03  0.19350074662E+04  0.10100000352E+00 0. -1.
       -3    1    3    3    0  502 -0.19666235898E+03  0.16978238552E+04  0.39404882886E+03  0.17540115212E+04  0.10100000352E+00 0.  1.
</event>
<event>
 5   0  0.2287500E-07  0.3636744E+04  0.7818609E-02  0.8082126E-01
        1   -1    0    0  501    0  0.00000000000E+00  0.00000000000E+00  0.17603265195E+04  0.17603265195E+04  0.50400001928E-02 0. -1.
       -1   -1    0    0    0  501  0.00000000000E+00  0.00000000000E+00 -0.18783318027E+04  0.18783318027E+04  0.50400001928E-02 0.  1.
    10030    2    1    2    0    0  0.00000000000E+00  0.00000000000E+00 -0.11800528312E+03  0.36386583222E+04  0.36367443049E+04 0.  0.
        3    1    3    3  502    0  0.17855378070E+03 -0.51063869156E+03  0.16779536485E+04  0.17629979531E+04  0.10100000352E+00 0. -1.
       -3    1    3    3    0  502 -0.17855378070E+03  0.51063869156E+03 -0.17959589316E+04  0.18756603691E+04  0.10100000352E+00 0.  1.
</event>
<event>
 5   0  0.6939921E-07  0.3792449E+04  0.7818609E-02  0.8047777E-01
        2   -1    0    0  501    0  0.00000000000E+00  0.00000000000E+00  0.16621193117E+04  0.16621193117E+04  0.25500000920E-02 0.  1.
       -2   -1    0    0    0  501  0.00000000000E+00  0.00000000000E+00 -0.21633028571E+04  0.21633028571E+04  0.25500000920E-02 0. -1.
    10030    2    1    2    0    0  0.00000000000E+00  0.00000000000E+00 -0.50118354542E+03  0.38254221688E+04  0.37924490535E+04 0.  0.
        4    1    3    3  502    0  0.11739208326E+04  0.14889647563E+04 -0.27445493501E+03  0.19158374908E+04  0.12699999809E+01 0.  1.
       -4    1    3    3    0  502 -0.11739208326E+04 -0.14889647563E+04 -0.22672861041E+03  0.19095846780E+04  0.12699999809E+01 0. -1.
</event>
<event>
 5   0  0.7300916E-07  0.3764389E+04  0.7818609E-02  0.8053840E-01
       -2   -1    0    0    0  501  0.00000000000E+00  0.00000000000E+00  0.12773611554E+04  0.12773611554E+04  0.25500000920E-02 0. -1.
        2   -1    0    0  501    0  0.00000000000E+00  0.00000000000E+00 -0.27734174905E+04  0.27734174905E+04  0.25500000920E-02 0.  1.
    10030    2    1    2    0    0  0.00000000000E+00  0.00000000000E+00 -0.14960563351E+04  0.40507786460E+04  0.37643888058E+04 0.  0.
        1    1    3    3  502    0 -0.94720821312E+03  0.64050397328E+03  0.86077501271E+03  0.14312170909E+04  0.50400001928E-02 0. -1.
       -1    1    3    3    0  502  0.94720821312E+03 -0.64050397328E+03 -0.23568313478E+04  0.26195615551E+04  0.50400001928E-02 0.  1.
</event>
<event>
 5   0  0.6949625E-07  0.3662503E+04  0.7818609E-02  0.8076323E-01
        2   -1    0    0  501    0  0.00000000000E+00  0.00000000000E+00  0.22677815085E+04  0.22677815085E+04  0.25500000920E-02 0.  1.
       -2   -1    0    0    0  501  0.00000000000E+00  0.00000000000E+00 -0.14787497397E+04  0.14787497397E+04  0.25500000920E-02 0. -1.
    10030    2    1    2    0    0  0.00000000000E+00  0.00000000000E+00  0.78903176882E+03  0.37465312483E+04  0.36625025955E+04 0.  0.
        5    1    3    3  502    0 -0.69555848375E+03  0.19961012884E+03  0.21153155732E+04  0.22356716825E+04  0.46999998093E+01 0.  1.
       -5    1    3    3    0  502  0.69555848375E+03 -0.19961012884E+03 -0.13262838043E+04  0.15108595658E+04  0.46999998093E+01 0. -1.
</event>
<event>
 5   0  0.2287500E-07  0.2774607E+04  0.7818609E-02  0.8311195E-01
        1   -1    0    0  501    0  0.00000000000E+00  0.00000000000E+00  0.15356645613E+04  0.15356645613E+04  0.50400001928E-02 0. -1.
       -1   -1    0    0    0  501  0.00000000000E+00  0.00000000000E+00 -0.12532758307E+04  0.12532758307E+04  0.50400001928E-02 0.  1.
    10030    2    1    2    0    0  0.00000000000E+00  0.00000000000E+00  0.28238873062E+03  0.27889403920E+04  0.27746072001E+04 0.  0.
        4    1    3    3  502    0  0.12817136858E+04  0.50828305187E+03  0.29517853091E+03  0.14100615629E+04  0.12699999809E+01 0. -1.
       -4    1    3    3    0  502 -0.12817136858E+04 -0.50828305187E+03 -0.12789800293E+02  0.13788788290E+04  0.12699999809E+01 0.  1.
</event>
<event>
 5   0  0.2345471E-07  0.3667629E+04  0.7818609E-02  0.8075174E-01
        1   -1    0    0  501    0  0.00000000000E+00  0.00000000000E+00  0.24633327955E+04  0.24633327955E+04  0.50400001928E-02 0. -1.
       -1   -1    0    0    0  501  0.00000000000E+00  0.00000000000E+00 -0.13651727770E+04  0.13651727770E+04  0.50400001928E-02 0.  1.
    10030    2    1    2    0    0  0.00000000000E+00  0.00000000000E+00  0.10981600185E+04  0.38285055726E+04  0.36676285926E+04 0.  0.
        5    1    3    3  502    0  0.79924434470E+03 -0.84963305631E+03 -0.92797281678E+03  0.14905782407E+04  0.46999998093E+01 0.  1.
       -5    1    3    3    0  502 -0.79924434470E+03  0.84963305631E+03  0.20261328353E+04  0.23379273319E+04  0.46999998093E+01 0. -1.
</event>
<event>
 5   0  0.7124627E-07  0.3729271E+04  0.7818609E-02  0.8061506E-01
       -2   -1    0    0    0  501  0.00000000000E+00  0.00000000000E+00  0.13934715193E+04  0.13934715193E+04  0.25500000920E-02 0. -1.
        2   -1    0    0  501    0  0.00000000000E+00  0.00000000000E+00 -0.24951099582E+04  0.24951099582E+04  0.25500000920E-02 0.  1.
    10030    2    1    2    0    0  0.00000000000E+00  0.00000000000E+00 -0.11016384389E+04  0.38885814776E+04  0.37292705262E+04 0.  0.
        2    1    3    3  502    0  0.33470863942E+03 -0.20226344385E+03  0.13502278761E+04  0.14057224802E+04  0.25500000920E-02 0. -1.
       -2    1    3    3    0  502 -0.33470863942E+03  0.20226344385E+03 -0.24518663150E+04  0.24828589973E+04  0.25500000920E-02 0.  1.
</event>
<event>
 5   0  0.2287500E-07  0.3686815E+04  0.7818609E-02  0.8070890E-01
        1   -1    0    0  501    0  0.00000000000E+00  0.00000000000E+00  0.21788172950E+04  0.21788172950E+04  0.50400001928E-02 0. -1.
       -1   -1    0    0    0  501  0.00000000000E+00  0.00000000000E+00 -0.15596311935E+04  0.15596311935E+04  0.50400001928E-02 0.  1.
    10030    2    1    2    0    0  0.00000000000E+00  0.00000000000E+00  0.61918610147E+03  0.37384484885E+04  0.36868151124E+04 0.  0.
        4    1    3    3  502    0 -0.85635691795E+02 -0.12076425489E+04  0.17191750098E+04  0.21026883566E+04  0.12699999809E+01 0. -1.
       -4    1    3    3    0  502  0.85635691795E+02  0.12076425489E+04 -0.10999889083E+04  0.16357601319E+04  0.12699999809E+01 0.  1.
</event>
<event>
 5   0  0.6949625E-07  0.3814360E+04  0.7818609E-02  0.8043080E-01
        2   -1    0    0  501    0  0.00000000000E+00  0.00000000000E+00  0.15678839602E+04  0.15678839602E+04  0.25500000920E-02 0. -1.
       -2   -1    0    0    0  501  0.00000000000E+00  0.00000000000E+00 -0.23199007714E+04  0.23199007714E+04  0.25500000920E-02 0.  1.
    10030    2    1    2    0    0  0.00000000000E+00  0.00000000000E+00 -0.75201681118E+03  0.38877847316E+04  0.38143598198E+04 0.  0.
        5    1    3    3  502    0 -0.18644449714E+03 -0.19823433202E+03 -0.23000036105E+04  0.23160520502E+04  0.46999998093E+01 0.  1.
       -5    1    3    3    0  502  0.18644449714E+03  0.19823433202E+03  0.15479867993E+04  0.15717326814E+04  0.46999998093E+01 0. -1.
</event>
<event>
 5   0  0.2345471E-07  0.2830177E+04  0.7818609E-02  0.8293960E-01
        1   -1    0    0  501    0  0.00000000000E+00  0.00000000000E+00  0.17220944826E+04  0.17220944827E+04  0.50400001928E-02 0.  1.
       -1   -1    0    0    0  501  0.00000000000E+00  0.00000000000E+00 -0.11628141319E+04  0.11628141319E+04  0.50400001928E-02 0. -1.
    10030    2    1    2    0    0  0.00000000000E+00  0.00000000000E+00  0.55928035075E+03  0.28849086146E+04  0.28301772389E+04 0.  0.
        5    1    3    3  502    0  0.14003464501E+04 -0.17220428600E+03  0.16877468591E+03  0.14209614636E+04  0.46999998093E+01 0. -1.
       -5    1    3    3    0  502 -0.14003464501E+04  0.17220428600E+03  0.39050566484E+03  0.14639471509E+04  0.46999998093E+01 0.  1.
</event>
<event>
 5   0  0.2411746E-07  0.3712494E+04  0.7818609E-02  0.8065199E-01
       -1   -1    0    0    0  501  0.00000000000E+00  0.00000000000E+00  0.16112121925E+04  0.16112121925E+04  0.50400001928E-02 0. -1.
        1   -1    0    0  501    0  0.00000000000E+00  0.00000000000E+00 -0.21385468507E+04  0.21385468507E+04  0.50400001928E-02 0.  1.
    10030    2    1    2    0    0  0.00000000000E+00  0.00000000000E+00 -0.52733465821E+03  0.37497590432E+04  0.37124939111E+04 0.  0.
        1    1    3    3  502    0  0.40077603982E+03 -0.18038323806E+04 -0.44213293825E+03  0.18999774279E+04  0.50400001928E-02 0.  1.
       -1    1    3    3    0  502 -0.40077603982E+03  0.18038323806E+04 -0.85201719953E+02  0.18497816153E+04  0.50400001928E-02 0. -1.
</event>
<event>
 5   0  0.7124627E-07  0.3633142E+04  0.7818609E-02  0.8082942E-01
       -2   -1    0    0    0  501  0.00000000000E+00  0.00000000000E+00  0.18497984972E+04  0.18497984973E+04  0.25500000920E-02 0.  1.
        2   -1    0    0  501    0  0.00000000000E+00  0.00000000000E+00 -0.17839406562E+04  0.17839406562E+04  0.25500000920E-02 0. -1.
    10030    2    1    2    0    0  0.00000000000E+00  0.00000000000E+00  0.65857841053E+02  0.36337391534E+04  0.36331423011E+04 0.  0.
        2    1    3    3  502    0 -0.23322109864E+03 -0.13603605610E+04  0.12142062686E+04  0.18382790320E+04  0.25500000920E-02 0.  1.
       -2    1    3    3    0  502  0.23322109864E+03  0.13603605610E+04 -0.11483484275E+04  0.17954601215E+04  0.25500000920E-02 0. -1.
</event>
<event>
 5   0  0.2345471E-07  0.3686178E+04  0.7818609E-02  0.8071032E-01
        1   -1    0    0  501    0  0.00000000000E+00  0.00000000000E+00  0.23800560288E+04  0.23800560288E+04  0.50400001928E-02 0.  1.
       -1   -1    0    0    0  501  0.00000000000E+00  0.00000000000E+00 -0.14272675517E+04  0.14272675517E+04  0.50400001928E-02 0. -1.
    10030    2    1    2    0    0  0.00000000000E+00  0.00000000000E+00  0.95278847714E+03  0.38073235805E+04  0.36861778260E+04 0.  0.
        5    1    3    3  502    0 -0.12480878662E+04 -0.61272530565E+03 -0.77324379192E+03  0.15909379855E+04  0.46999998093E+01 0. -1.
       -5    1    3    3    0  502  0.12480878662E+04  0.61272530565E+03  0.17260322691E+04  0.22163855950E+04  0.46999998093E+01 0.  1.
</event>
<event>
 5   0  0.7300916E-07  0.2823431E+04  0.7818609E-02  0.8296031E-01
       -2   -1    0    0    0  501  0.00000000000E+00  0.00000000000E+00  0.14101598592E+04  0.14101598592E+04  0.25500000920E-02 0. -1.
        2   -1    0    0  501    0  0.00000000000E+00  0.00000000000E+00 -0.14132724380E+04  0.14132724380E+04  0.25500000920E-02 0.  1.
    10030    2    1    2    0    0  0.00000000000E+00  0.00000000000E+00 -0.31125788241E+01  0.28234322972E+04  0.28234305815E+04 0.  0.
        1    1    3    3  502    0 -0.57869774005E+03 -0.12201897939E+04 -0.41287862084E+03  0.14121695943E+04  0.50400001928E-02 0. -1.
       -1    1    3    3    0  502  0.57869774005E+03  0.12201897939E+04  0.40976604202E+03  0.14112627029E+04  0.50400001928E-02 0.  1.
</event>
<event>
 5   0  0.2411746E-07  0.3642396E+04  0.7818609E-02  0.8080849E-01
       -1   -1    0    0    0  501  0.00000000000E+00  0.00000000000E+00  0.13420918525E+04  0.13420918525E+04  0.50400001928E-02 0.  1.
        1   -1    0    0  501    0  0.00000000000E+00  0.00000000000E+00 -0.24713382717E+04  0.24713382717E+04  0.50400001928E-02 0. -1.
    10030    2    1    2    0    0  0.00000000000E+00  0.00000000000E+00 -0.11292464192E+04  0.38134301242E+04  0.36423964414E+04 0.  0.
        1    1    3    3  502    0 -0.61787241374E+03 -0.78839554184E+03  0.10277933232E+04  0.14351630449E+04  0.50400001928E-02 0.  1.
       -1    1    3    3    0  502  0.61787241374E+03  0.78839554184E+03 -0.21570397424E+04  0.23782670793E+04  0.50400001928E-02 0. -1.
</event>
<event>
 5   0  0.2287500E-07  0.3698364E+04  0.7818609E-02  0.8068325E-01
        1   -1    0    0  501    0  0.00000000000E+00  0.00000000000E+00  0.18192810107E+04  0.18192810107E+04  0.50400001928E-02 0. -1.
       -1   -1    0    0    0  501  0.00000000000E+00  0.00000000000E+00 -0.18795740277E+04  0.18795740277E+04  0.50400001928E-02 0.  1.
    10030    2    1    2    0    0  0.00000000000E+00  0.00000000000E+00 -0.60293016930E+02  0.36988550384E+04  0.36983636040E+04 0.  0.
        2    1    3    3  502    0  0.14141129939E+04  0.29818395728E+03  0.11236289509E+04  0.18306204552E+04  0.25500000920E-02 0. -1.
       -2    1    3    3    0  502 -0.14141129939E+04 -0.29818395728E+03 -0.11839219678E+04  0.18682345832E+04  0.25500000920E-02 0.  1.
</event>
<event>
 5   0  0.6939921E-07  0.3668800E+04  0.7818609E-02  0.8074911E-01
       -2   -1    0    0    0  501  0.00000000000E+00  0.00000000000E+00  0.25002869200E+04  0.25002869200E+04  0.25500000920E-02 0.  1.
        2   -1    0    0  501    0  0.00000000000E+00  0.00000000000E+00 -0.13458549152E+04  0.13458549152E+04  0.25500000920E-02 0. -1.
    10030    2    1    2    0    0  0.00000000000E+00  0.00000000000E+00  0.11544320048E+04  0.38461418351E+04  0.36688000439E+04 0.  0.
        4    1    3    3  502    0  0.10232647228E+04  0.10131174769E+04 -0.61417927773E+03  0.15654697420E+04  0.12699999809E+01 0.  1.
       -4    1    3    3    0  502 -0.10232647228E+04 -0.10131174769E+04  0.17686112825E+04  0.22806720931E+04  0.12699999809E+01 0. -1.
</event>
<event>
 5   0  0.7124627E-07  0.3659153E+04  0.7818609E-02  0.8077075E-01
        2   -1    0    0  501    0  0.00000000000E+00  0.00000000000E+00  0.22217977535E+04  0.22217977535E+04  0.25500000920E-02 0.  1.
       -2   -1    0    0    0  501  0.00000000000E+00  0.00000000000E+00 -0.15065953149E+04  0.15065953149E+04  0.25500000920E-02 0. -1.
    10030    2    1    2    0    0  0.00000000000E+00  0.00000000000E+00  0.71520243855E+03  0.37283930684E+04  0.36591529545E+04 0.  0.
        2    1    3    3  502    0 -0.16909652174E+04 -0.16331876072E+03  0.10496541392E+04  0.19969502238E+04  0.25500000920E-02 0.  1.
       -2    1    3    3    0  502  0.16909652174E+04  0.16331876072E+03 -0.33445170070E+03  0.17314428446E+04  0.25500000920E-02 0. -1.
</event>
<event>
 5   0  0.6939921E-07  0.3536431E+04  0.7818609E-02  0.8105210E-01
       -2   -1    0    0    0  501  0.00000000000E+00  0.00000000000E+00  0.19219310072E+04  0.19219310072E+04  0.25500000920E-02 0.  1.
        2   -1    0    0  501    0  0.00000000000E+00  0.00000000000E+00 -0.16267945236E+04  0.16267945236E+04  0.25500000920E-02 0. -1.
    10030    2    1    2    0    0  0.00000000000E+00  0.00000000000E+00  0.29513648352E+03  0.35487255308E+04  0.35364314427E+04 0.  0.
        4    1    3    3  502    0 -0.16944635081E+04  0.78127052227E+02 -0.35344172177E+03  0.17326953224E+04  0.12699999809E+01 0. -1.
       -4    1    3    3    0  502  0.16944635081E+04 -0.78127052227E+02  0.64857820529E+03  0.18160302084E+04  0.12699999809E+01 0.  1.
</event>
<event>
 5   0  0.2287500E-07  0.3744025E+04  0.7818609E-02  0.8058275E-01
        1   -1    0    0  501    0  0.00000000000E+00  0.00000000000E+00  0.14996296877E+04  0.14996296877E+04  0.50400001928E-02 0. -1.
       -1   -1    0    0    0  501  0.00000000000E+00  0.00000000000E+00 -0.23368638053E+04  0.23368638053E+04  0.50400001928E-02 0.  1.
    10030    2    1    2    0    0  0.00000000000E+00  0.00000000000E+00 -0.83723411766E+03  0.38364934930E+04  0.37440247534E+04 0.  0.
        2    1    3    3  502    0  0.50754261821E+03 -0.40164719058E+03 -0.22185621603E+04  0.23110469563E+04  0.25500000920E-02 0.  1.
       -2    1    3    3    0  502 -0.50754261821E+03  0.40164719058E+03  0.13813280427E+04  0.15254465367E+04  0.25500000920E-02 0. -1.
</event>
<event>
 5   0  0.7300916E-07  0.3749135E+04  0.7818609E-02  0.8057159E-01
       -2   -1    0    0    0  501  0.00000000000E+00  0.00000000000E+00  0.29637423097E+04  0.29637423097E+04  0.25500000920E-02 0.  1.
        2   -1    0    0  501    0  0.00000000000E+00  0.00000000000E+00 -0.11856639660E+04  0.11856639660E+04  0.25500000920E-02 0. -1.
    10030    2    1    2    0    0  0.00000000000E+00  0.00000000000E+00  0.17780783436E+04  0.41494062757E+04  0.37491345461E+04 0.  0.
        1    1    3    3  502    0  0.29596055014E+03  0.14871781316E+03  0.29310986522E+04  0.29497540481E+04  0.50400001928E-02 0.  1.
       -1    1    3    3    0  502 -0.29596055014E+03 -0.14871781316E+03 -0.11530203086E+04  0.11996522276E+04  0.50400001928E-02 0. -1.
</event>
<event>
 5   0  0.2287500E-07  0.3820678E+04  0.7818609E-02  0.8041732E-01
       -1   -1    0    0    0  501  0.00000000000E+00  0.00000000000E+00  0.24408476019E+04  0.24408476019E+04  0.50400001928E-02 0. -1.
        1   -1    0    0  501    0  0.00000000000E+00  0.00000000000E+00 -0.14951341896E+04  0.14951341896E+04  0.50400001928E-02 0.  1.
    10030    2    1    2    0    0  0.00000000000E+00  0.00000000000E+00  0.94571341226E+03  0.39359817915E+04  0.38206777939E+04 0.  0.
        4    1    3    3  502    0  0.66140427342E+03  0.83671566282E+03  0.21055666233E+04  0.23602883577E+04  0.12699999809E+01 0. -1.
       -4    1    3    3    0  502 -0.66140427342E+03 -0.83671566282E+03 -0.11598532110E+04  0.15756934338E+04  0.12699999809E+01 0.  1.
</event>
<event>
 5   0  0.2287500E-07  0.3692507E+04  0.7818609E-02  0.8069624E-01
        1   -1    0    0  501    0  0.00000000000E+00  0.00000000000E+00  0.18897120792E+04  0.18897120792E+04  0.50400001928E-02 0.  1.
       -1   -1    0    0    0  501  0.00000000000E+00  0.00000000000E+00 -0.18037947843E+04  0.18037947843E+04  0.50400001928E-02 0. -1.
    10030    2    1    2    0    0  0.00000000000E+00  0.00000000000E+00  0.85917294890E+02  0.36935068636E+04  0.36925074367E+04 0.  0.
        2    1    3    3  502    0  0.11318824283E+04  0.10818767578E+04  0.10215064400E+04  0.18695161292E+04  0.25500000920E-02 0.  1.
       -2    1    3    3    0  502 -0.11318824283E+04 -0.10818767578E+04 -0.93558914512E+03  0.18239907343E+04  0.25500000920E-02 0. -1.
</event>
<event>
 5   0  0.2411746E-07  0.3700177E+04  0.7818609E-02  0.8067923E-01
        1   -1    0    0  501    0  0.00000000000E+00  0.00000000000E+00  0.18046336781E+04  0.18046336781E+04  0.50400001928E-02 0. -1.
       -1   -1    0    0    0  501  0.00000000000E+00  0.00000000000E+00 -0.18966884983E+04  0.18966884983E+04  0.50400001928E-02 0.  1.
    10030    2    1    2    0    0  0.00000000000E+00  0.00000000000E+00 -0.92054820195E+02  0.37013221764E+04  0.37001772611E+04 0.  0.
        1    1    3    3  502    0  0.60721921470E+03 -0.72287300767E+03  0.15455549055E+04  0.18110771728E+04  0.50400001928E-02 0. -1.
       -1    1    3    3    0  502 -0.60721921470E+03  0.72287300767E+03 -0.16376097257E+04  0.18902450036E+04  0.50400001928E-02 0.  1.
</event>
<event>
 5   0  0.6939921E-07  0.3680187E+04  0.7818609E-02  0.8072367E-01
       -2   -1    0    0    0  501  0.00000000000E+00  0.00000000000E+00  0.12821953841E+04  0.12821953841E+04  0.25500000920E-02 0. -1.
        2   -1    0    0  501    0  0.00000000000E+00  0.00000000000E+00 -0.26407402678E+04  0.26407402678E+04  0.25500000920E-02 0.  1.
    10030    2    1    2    0    0  0.00000000000E+00  0.00000000000E+00 -0.13585448836E+04  0.39229356519E+04  0.36801874855E+04 0.  0.
        4    1    3    3  502    0  0.14405203463E+04 -0.88878009356E+03 -0.14486232974E+04  0.22279003554E+04  0.12699999809E+01 0.  1.
       -4    1    3    3    0  502 -0.14405203463E+04  0.88878009356E+03  0.90078413761E+02  0.16950352965E+04  0.12699999809E+01 0. -1.
</event>
<event>
 5   0  0.2287500E-07  0.3677740E+04  0.7818609E-02  0.8072913E-01
        1   -1    0    0  501    0  0.00000000000E+00  0.00000000000E+00  0.11284499413E+04  0.11284499413E+04  0.50400001928E-02 0.  1.
       -1   -1    0    0    0  501  0.00000000000E+00  0.00000000000E+00 -0.29965372931E+04  0.29965372931E+04  0.50400001928E-02 0. -1.
    10030    2    1    2    0    0  0.00000000000E+00  0.00000000000E+00 -0.18680873519E+04  0.41249872344E+04  0.36777397040E+04 0.  0.
        3    1    3    3  502    0 -0.11123526883E+04 -0.10308233481E+04 -0.21004726652E+04  0.25907355530E+04  0.10100000352E+00 0. -1.
       -3    1    3    3    0  502  0.11123526883E+04  0.10308233481E+04  0.23238531333E+03  0.15342516815E+04  0.10100000352E+00 0.  1.
</event>
<event>
 5   0  0.2345471E-07  0.3674425E+04  0.7818609E-02  0.8073653E-01
       -1   -1    0    0    0  501  0.00000000000E+00  0.00000000000E+00  0.25574803165E+04  0.25574803165E+04  0.50400001928E-02 0.  1.
        1   -1    0    0  501    0  0.00000000000E+00  0.00000000000E+00 -0.13197951026E+04  0.13197951026E+04  0.50400001928E-02 0. -1.
    10030    2    1    2    0    0  0.00000000000E+00  0.00000000000E+00  0.12376852139E+04  0.38772754191E+04  0.36744251233E+04 0.  0.
        5    1    3    3  502    0  0.80510918446E+03  0.97634619945E+03  0.20242388293E+04  0.23872615333E+04  0.46999998093E+01 0.  1.
       -5    1    3    3    0  502 -0.80510918446E+03 -0.97634619945E+03 -0.78655361540E+03  0.14900138858E+04  0.46999998093E+01 0. -1.
</event>
<event>
 5   0  0.2287500E-07  0.3656404E+04  0.7818609E-02  0.8077692E-01
        1   -1    0    0  501    0  0.00000000000E+00  0.00000000000E+00  0.21347800540E+04  0.21347800540E+04  0.50400001928E-02 0. -1.
       -1   -1    0    0    0  501  0.00000000000E+00  0.00000000000E+00 -0.15656523337E+04  0.15656523338E+04  0.50400001928E-02 0.  1.
    10030    2    1    2    0    0  0.00000000000E+00  0.00000000000E+00  0.56912772021E+03  0.37004323877E+04  0.36564044489E+04 0.  0.
        3    1    3    3  502    0  0.32694356475E+03  0.64619302632E+03  0.19834270289E+04  0.21115019089E+04  0.10100000352E+00 0. -1.
       -3    1    3    3    0  502 -0.32694356475E+03 -0.64619302632E+03 -0.14142993087E+04  0.15889304789E+04  0.10100000352E+00 0.  1.
</event>
<event>
 5   0  0.7124627E-07  0.3720232E+04  0.7818609E-02  0.8063493E-01
        2   -1    0    0  501    0  0.00000000000E+00  0.00000000000E+00  0.16740734362E+04  0.16740734362E+04  0.25500000920E-02 0. -1.
       -2   -1    0    0    0  501  0.00000000000E+00  0.00000000000E+00 -0.20668341845E+04  0.20668341845E+04  0.25500000920E-02 0.  1.
    10030    2    1    2    0    0  0.00000000000E+00  0.00000000000E+00 -0.39276074825E+03  0.37409076207E+04  0.37202323612E+04 0.  0.
        2    1    3    3  502    0 -0.86585286634E+03 -0.16343476952E+04 -0.39556867991E+03  0.18913667427E+04  0.25500000920E-02 0.  1.
       -2    1    3    3    0  502  0.86585286634E+03  0.16343476952E+04  0.28079316568E+01  0.18495408780E+04  0.25500000920E-02 0. -1.
</event>
<event>
 5   0  0.7124627E-07  0.3673788E+04  0.7818609E-02  0.8073796E-01
        2   -1    0    0  501    0  0.00000000000E+00  0.00000000000E+00  0.17496279101E+04  0.17496279101E+04  0.25500000920E-02 0. -1.
       -2   -1    0    0    0  501  0.00000000000E+00  0.00000000000E+00 -0.19285126372E+04  0.19285126372E+04  0.25500000920E-02 0.  1.
    10030    2    1    2    0    0  0.00000000000E+00  0.00000000000E+00 -0.17888472702E+03  0.36781405473E+04  0.36737879825E+04 0.  0.
        2    1    3    3  502    0 -0.32672262941E+03 -0.16456096635E+04  0.65937469861E+03  0.18026518894E+04  0.25500000920E-02 0. -1.
       -2    1    3    3    0  502  0.32672262941E+03  0.16456096635E+04 -0.83825942563E+03  0.18754886579E+04  0.25500000920E-02 0.  1.
</event>
<event>
 5   0  0.6939921E-07  0.3816933E+04  0.7818609E-02  0.8042531E-01
        2   -1    0    0  501    0  0.00000000000E+00  0.00000000000E+00  0.14602961321E+04  0.14602961321E+04  0.25500000920E-02 0. -1.
       -2   -1    0    0    0  501  0.00000000000E+00  0.00000000000E+00 -0.24941815224E+04  0.24941815224E+04  0.25500000920E-02 0.  1.
    10030    2    1    2    0    0  0.00000000000E+00  0.00000000000E+00 -0.10338853903E+04  0.39544776545E+04  0.38169326062E+04 0.  0.
        4    1    3    3  502    0  0.94209066418E+03 -0.17399813647E+03  0.11931222642E+04  0.15301478756E+04  0.12699999809E+01 0. -1.
       -4    1    3    3    0  502 -0.94209066418E+03  0.17399813647E+03 -0.22270076545E+04  0.24243297790E+04  0.12699999809E+01 0.  1.
</event>
<event>
 5   0  0.2287500E-07  0.3687629E+04  0.7818609E-02  0.8070709E-01
        3   -1    0    0  501    0  0.00000000000E+00  0.00000000000E+00  0.12130924447E+04  0.12130924489E+04  0.10100000352E+00 0. -1.
       -3   -1    0    0    0  501  0.00000000000E+00  0.00000000000E+00 -0.28024679947E+04  0.28024679965E+04  0.10100000352E+00 0.  1.
    10030    2    1    2    0    0  0.00000000000E+00  0.00000000000E+00 -0.15893755500E+04  0.40155604454E+04  0.36876294624E+04 0.  0.
        5    1    3    3  502    0  0.97433704422E+03  0.50118289801E+03  0.82012707128E+03  0.13686297805E+04  0.46999998093E+01 0.  1.
       -5    1    3    3    0  502 -0.97433704422E+03 -0.50118289801E+03 -0.24095026213E+04  0.26469306649E+04  0.46999998093E+01 0. -1.
</event>
<event>
 5   0  0.2287500E-07  0.3699400E+04  0.7818609E-02  0.8068095E-01
        1   -1    0    0  501    0  0.00000000000E+00  0.00000000000E+00  0.20356313992E+04  0.20356313992E+04  0.50400001928E-02 0.  1.
       -1   -1    0    0    0  501  0.00000000000E+00  0.00000000000E+00 -0.16807510986E+04  0.16807510986E+04  0.50400001928E-02 0. -1.
    10030    2    1    2    0    0  0.00000000000E+00  0.00000000000E+00  0.35488030066E+03  0.37163824978E+04  0.36993997949E+04 0.  0.
        3    1    3    3  502    0  0.16394883429E+04  0.11355867963E+03  0.10302021893E+04  0.19396221697E+04  0.10100000352E+00 0.  1.
       -3    1    3    3    0  502 -0.16394883429E+04 -0.11355867963E+03 -0.67532188869E+03  0.17767603281E+04  0.10100000352E+00 0. -1.
</event>
<event>
 5   0  0.2287500E-07  0.3562814E+04  0.7818609E-02  0.8099063E-01
        1   -1    0    0  501    0  0.00000000000E+00  0.00000000000E+00  0.95019741922E+03  0.95019741923E+03  0.50400001928E-02 0. -1.
       -1   -1    0    0    0  501  0.00000000000E+00  0.00000000000E+00 -0.33397393401E+04  0.33397393401E+04  0.50400001928E-02 0.  1.
    10030    2    1    2    0    0  0.00000000000E+00  0.00000000000E+00 -0.23895419209E+04  0.42899367593E+04  0.35628144503E+04 0.  0.
        4    1    3    3  502    0 -0.83655325917E+02 -0.94890504081E+03  0.61776563877E+03  0.11353655743E+04  0.12699999809E+01 0. -1.
       -4    1    3    3    0  502  0.83655325917E+02  0.94890504081E+03 -0.30073075596E+04  0.31545711850E+04  0.12699999809E+01 0.  1.
</event>
<event>
 5   0  0.6949625E-07  0.3456091E+04  0.7818609E-02  0.8124275E-01
        2   -1    0    0  501    0  0.00000000000E+00  0.00000000000E+00  0.21129629068E+04  0.21129629068E+04  0.25500000920E-02 0. -1.
       -2   -1    0    0    0  501  0.00000000000E+00  0.00000000000E+00 -0.14132485713E+04  0.14132485713E+04  0.25500000920E-02 0.  1.
    10030    2    1    2    0    0  0.00000000000E+00  0.00000000000E+00  0.69971433546E+03  0.35262114781E+04  0.34560913236E+04 0.  0.
        5    1    3    3  502    0  0.16290546982E+04 -0.96765597924E+02 -0.22994789087E+03  0.16480536743E+04  0.46999998093E+01 0.  1.
       -5    1    3    3    0  502 -0.16290546982E+04  0.96765597924E+02  0.92966222633E+03  0.18781578038E+04  0.46999998093E+01 0. -1.
</event>
<event>
 5   0  0.2345471E-07  0.3668427E+04  0.7818609E-02  0.8074995E-01
       -1   -1    0    0    0  501  0.00000000000E+00  0.00000000000E+00  0.26302442728E+04  0.26302442728E+04  0.50400001928E-02 0.  1.
        1   -1    0    0  501    0  0.00000000000E+00  0.00000000000E+00 -0.12790973025E+04  0.12790973025E+04  0.50400001928E-02 0. -1.
    10030    2    1    2    0    0  0.00000000000E+00  0.00000000000E+00  0.13511469704E+04  0.39093415753E+04  0.36684265588E+04 0.  0.
        5    1    3    3  502    0  0.83887931278E+03 -0.16075127161E+04  0.38082180034E+03  0.18527986851E+04  0.46999998093E+01 0. -1.
       -5    1    3    3    0  502 -0.83887931278E+03  0.16075127161E+04  0.97032517004E+03  0.20565428902E+04  0.46999998093E+01 0.  1.
</event>
<event>
 5   0  0.2287500E-07  0.3694503E+04  0.7818609E-02  0.8069181E-01
        1   -1    0    0  501    0  0.00000000000E+00  0.00000000000E+00  0.13663874878E+04  0.13663874878E+04  0.50400001928E-02 0.  1.
       -1   -1    0    0    0  501  0.00000000000E+00  0.00000000000E+00 -0.24973435481E+04  0.24973435481E+04  0.50400001928E-02 0. -1.
    10030    2    1    2    0    0  0.00000000000E+00  0.00000000000E+00 -0.11309560603E+04  0.38637310359E+04  0.36945034724E+04 0.  0.
        2    1    3    3  502    0 -0.12622168768E+04  0.16200748164E+03  0.83484739843E+03  0.15219750480E+04  0.25500000920E-02 0.  1.
       -2    1    3    3    0  502  0.12622168768E+04 -0.16200748164E+03 -0.19658034587E+04  0.23417559878E+04  0.25500000920E-02 0. -1.
</event>
<event>
 5   0  0.7074157E-07  0.3587944E+04  0.7818609E-02  0.8093259E-01
       -2   -1    0    0    0  501  0.00000000000E+00  0.00000000000E+00  0.13075464645E+04  0.13075464645E+04  0.25500000920E-02 0.  1.
        2   -1    0    0  501    0  0.00000000000E+00  0.00000000000E+00 -0.24613550525E+04  0.24613550525E+04  0.25500000920E-02 0. -1.
    10030    2    1    2    0    0  0.00000000000E+00  0.00000000000E+00 -0.11538085880E+04  0.37689015171E+04  0.35879443122E+04 0.  0.
        3    1    3    3  502    0  0.28861223418E+00 -0.29986507477E+03 -0.24348431179E+04  0.24532387094E+04  0.10100000352E+00 0. -1.
       -3    1    3    3    0  502 -0.28861223418E+00  0.29986507477E+03  0.12810345299E+04  0.13156628076E+04  0.10100000352E+00 0.  1.
</event>
<event>
 5   0  0.2287500E-07  0.3703017E+04  0.7818609E-02  0.8067294E-01
        1   -1    0    0  501    0  0.00000000000E+00  0.00000000000E+00  0.11914033111E+04  0.11914033111E+04  0.50400001928E-02 0.  1.
       -1   -1    0    0    0  501  0.00000000000E+00  0.00000000000E+00 -0.28773487939E+04  0.28773487939E+04  0.50400001928E-02 0. -1.
    10030    2    1    2    0    0  0.00000000000E+00  0.00000000000E+00 -0.16859454828E+04  0.40687521051E+04  0.37030165435E+04 0.  0.
        3    1    3    3  502    0  0.98464554822E+03 -0.11910381978E+04  0.27754545250E+03  0.15700733527E+04  0.10100000352E+00 0.  1.
       -3    1    3    3    0  502 -0.98464554822E+03  0.11910381978E+04 -0.19634909353E+04  0.24986787524E+04  0.10100000352E+00 0. -1.
</event>
<event>
 5   0  0.2287500E-07  0.3674208E+04  0.7818609E-02  0.8073702E-01
       -1   -1    0    0    0  501  0.00000000000E+00  0.00000000000E+00  0.23478904964E+04  0.23478904964E+04  0.50400001928E-02 0.  1.
        1   -1    0    0  501    0  0.00000000000E+00  0.00000000000E+00 -0.14374395886E+04  0.14374395886E+04  0.50400001928E-02 0. -1.
    10030    2    1    2    0    0  0.00000000000E+00  0.00000000000E+00  0.91045090779E+03  0.37853300850E+04  0.36742078053E+04 0.  0.
        3    1    3    3  502    0  0.32317241906E+03  0.63834744673E+03  0.21984464542E+04  0.23119460844E+04  0.10100000352E+00 0.  1.
       -3    1    3    3    0  502 -0.32317241906E+03 -0.63834744673E+03 -0.12879955464E+04  0.14733840005E+04  0.10100000352E+00 0. -1.
</event>
<event>
 5   0  0.2287500E-07  0.3716164E+04  0.7818609E-02  0.8064389E-01
       -1   -1    0    0    0  501  0.00000000000E+00  0.00000000000E+00  0.16651523180E+04  0.16651523180E+04  0.50400001928E-02 0. -1.
        1   -1    0    0  501    0  0.00000000000E+00  0.00000000000E+00 -0.20733656650E+04  0.20733656650E+04  0.50400001928E-02 0.  1.
    10030    2    1    2    0    0  0.00000000000E+00  0.00000000000E+00 -0.40821334699E+03  0.37385179830E+04  0.37161644975E+04 0.  0.
        3    1    3    3  502    0 -0.12204293464E+04 -0.70812668989E+03  0.10121230340E+04  0.17364573835E+04  0.10100000352E+00 0. -1.
       -3    1    3    3    0  502  0.12204293464E+04  0.70812668989E+03 -0.14203363810E+04  0.20020605995E+04  0.10100000352E+00 0.  1.
</event>
<event>
 5   0  0.6949625E-07  0.3347134E+04  0.7818609E-02  0.8151005E-01
        2   -1    0    0  501    0  0.00000000000E+00  0.00000000000E+00  0.28802690439E+04  0.28802690439E+04  0.25500000920E-02 0.  1.
       -2   -1    0    0    0  501  0.00000000000E+00  0.00000000000E+00 -0.97241819034E+03  0.97241819034E+03  0.25500000920E-02 0. -1.
    10030    2    1    2    0    0  0.00000000000E+00  0.00000000000E+00  0.19078508535E+04  0.38526872342E+04  0.33471337059E+04 0.  0.
        5    1    3    3  502    0  0.12099867786E+04 -0.79644037065E+03 -0.10766647874E+02  0.14486280679E+04  0.46999998093E+01 0. -1.
       -5    1    3    3    0  502 -0.12099867786E+04  0.79644037065E+03  0.19186175014E+04  0.24040591663E+04  0.46999998093E+01 0.  1.
</event>
<event>
 5   0  0.2287500E-07  0.3496821E+04  0.7818609E-02  0.8114544E-01
        1   -1    0    0  501    0  0.00000000000E+00  0.00000000000E+00  0.28279224804E+04  0.28279224804E+04  0.50400001928E-02 0.  1.
       -1   -1    0    0    0  501  0.00000000000E+00  0.00000000000E+00 -0.10809840693E+04  0.10809840693E+04  0.50400001928E-02 0. -1.
    10030    2    1    2    0    0  0.00000000000E+00  0.00000000000E+00  0.17469384110E+04  0.39089065497E+04  0.34968209280E+04 0.  0.
        4    1    3    3  502    0 -0.11817913534E+04 -0.35158347857E+03  0.22591903577E+04  0.25737491002E+04  0.12699999809E+01 0.  1.
       -4    1    3    3    0  502  0.11817913534E+04  0.35158347857E+03 -0.51225194667E+03  0.13351574495E+04  0.12699999809E+01 0. -1.
</event>
<event>
 5   0  0.2287500E-07  0.3779504E+04  0.7818609E-02  0.8050568E-01
        1   -1    0    0  501    0  0.00000000000E+00  0.00000000000E+00  0.20510219335E+04  0.20510219335E+04  0.50400001928E-02 0.  1.
       -1   -1    0    0    0  501  0.00000000000E+00  0.00000000000E+00 -0.17411628890E+04  0.17411628890E+04  0.50400001928E-02 0. -1.
    10030    2    1    2    0    0  0.00000000000E+00  0.00000000000E+00  0.30985904451E+03  0.37921848226E+04  0.37795043460E+04 0.  0.
        4    1    3    3  502    0 -0.11176861936E+04  0.13888198434E+04  0.78402488762E+03  0.19474957310E+04  0.12699999809E+01 0.  1.
       -4    1    3    3    0  502  0.11176861936E+04 -0.13888198434E+04 -0.47416584311E+03  0.18446890916E+04  0.12699999809E+01 0. -1.
</event>
<event>
 5   0  0.7074157E-07  0.3648620E+04  0.7818609E-02  0.8079445E-01
        2   -1    0    0  501    0  0.00000000000E+00  0.00000000000E+00  0.17528218282E+04  0.17528218282E+04  0.25500000920E-02 0.  1.
       -2   -1    0    0    0  501  0.00000000000E+00  0.00000000000E+00 -0.18987133334E+04  0.18987133334E+04  0.25500000920E-02 0. -1.
    10030    2    1    2    0    0  0.00000000000E+00  0.00000000000E+00 -0.14589150526E+03  0.36515351616E+04  0.36486195616E+04 0.  0.
        3    1    3    3  502    0 -0.36881324317E+03 -0.89146293205E+03  0.14766379984E+04  0.17638563309E+04  0.10100000352E+00 0.  1.
       -3    1    3    3    0  502  0.36881324317E+03  0.89146293205E+03 -0.16225295036E+04  0.18876788307E+04  0.10100000352E+00 0. -1.
</event>
<event>
 5   0  0.6939921E-07  0.3766719E+04  0.7818609E-02  0.8053335E-01
        2   -1    0    0  501    0  0.00000000000E+00  0.00000000000E+00  0.25603532267E+04  0.25603532267E+04  0.25500000920E-02 0.  1.
       -2   -1    0    0    0  501  0.00000000000E+00  0.00000000000E+00 -0.13853722762E+04  0.13853722762E+04  0.25500000920E-02 0. -1.
    10030    2    1    2    0    0  0.00000000000E+00  0.00000000000E+00  0.11749809505E+04  0.39457255030E+04  0.37667186662E+04 0.  0.
        4    1    3    3  502    0  0.14711926484E+04  0.16403922043E+03  0.18071801329E+04  0.23360689888E+04  0.12699999809E+01 0.  1.
       -4    1    3    3    0  502 -0.14711926484E+04 -0.16403922043E+03 -0.63219918238E+03  0.16096565142E+04  0.12699999809E+01 0. -1.
</event>
<event>
 5   0  0.6939921E-07  0.3716455E+04  0.7818609E-02  0.8064325E-01
        2   -1    0    0  501    0  0.00000000000E+00  0.00000000000E+00  0.21750632767E+04  0.21750632767E+04  0.25500000920E-02 0.  1.
       -2   -1    0    0    0  501  0.00000000000E+00  0.00000000000E+00 -0.15875442871E+04  0.15875442871E+04  0.25500000920E-02 0. -1.
    10030    2    1    2    0    0  0.00000000000E+00  0.00000000000E+00  0.58751898962E+03  0.37626075638E+04  0.37164549125E+04 0.  0.
        4    1    3    3  502    0  0.14773739646E+04  0.93068362809E+03 -0.34990445787E+03  0.17807977396E+04  0.12699999809E+01 0. -1.
       -4    1    3    3    0  502 -0.14773739646E+04 -0.93068362809E+03  0.93742344750E+03  0.19818098243E+04  0.12699999809E+01 0.  1.
</event>
<event>
 5   0  0.2345471E-07  0.3686699E+04  0.7818609E-02  0.8070916E-01
        1   -1    0    0  501    0  0.00000000000E+00  0.00000000000E+00  0.19204334182E+04  0.19204334182E+04  0.50400001928E-02 0. -1.
       -1   -1    0    0    0  501  0.00000000000E+00  0.00000000000E+00 -0.17693600183E+04  0.17693600183E+04  0.50400001928E-02 0.  1.
    10030    2    1    2    0    0  0.00000000000E+00  0.00000000000E+00  0.15107339991E+03  0.36897934365E+04  0.36866993954E+04 0.  0.
        5    1    3    3  502    0 -0.42541125835E+03  0.13319670454E+04  0.12777129837E+04  0.18941181345E+04  0.46999998093E+01 0. -1.
       -5    1    3    3    0  502  0.42541125835E+03 -0.13319670454E+04 -0.11266395837E+04  0.17956753020E+04  0.46999998093E+01 0.  1.
</event>
<event>
 5   0  0.2287500E-07  0.3350074E+04  0.7818609E-02  0.8150270E-01
        1   -1    0    0  501    0  0.00000000000E+00  0.00000000000E+00  0.19405259218E+04  0.19405259218E+04  0.50400001928E-02 0.  1.
       -1   -1    0    0    0  501  0.00000000000E+00  0.00000000000E+00 -0.14458701052E+04  0.14458701053E+04  0.50400001928E-02 0. -1.
    10030    2    1    2    0    0  0.00000000000E+00  0.00000000000E+00  0.49465581651E+03  0.33863960270E+04  0.33500736820E+04 0.  0.
        3    1    3    3  502    0 -0.36940817802E+03  0.13278713213E+04  0.12095115605E+04  0.18337455857E+04  0.10100000352E+00 0.  1.
       -3    1    3    3    0  502  0.36940817802E+03 -0.13278713213E+04 -0.71485574398E+03  0.15526504413E+04  0.10100000352E+00 0. -1.
</event>
<event>
 5   0  0.6939921E-07  0.3607990E+04  0.7818609E-02  0.8088664E-01
        2   -1    0    0  501    0  0.00000000000E+00  0.00000000000E+00  0.23249381835E+04  0.23249381835E+04  0.25500000920E-02 0. -1.
       -2   -1    0    0    0  501  0.00000000000E+00  0.00000000000E+00 -0.13997782455E+04  0.13997782455E+04  0.25500000920E-02 0.  1.
    10030    2    1    2    0    0  0.00000000000E+00  0.00000000000E+00  0.92515993799E+03  0.37247164290E+04  0.36079899619E+04 0.  0.
        4    1    3    3  502    0  0.69464099744E+03 -0.16099603978E+04  0.24714521177E+02  0.17535994463E+04  0.12699999809E+01 0. -1.
       -4    1    3    3    0  502 -0.69464099744E+03  0.16099603978E+04  0.90044541681E+03  0.19711169826E+04  0.12699999809E+01 0.  1.
</event>
<event>
 5   0  0.6949625E-07  0.3790221E+04  0.7818609E-02  0.8048257E-01
        2   -1    0    0  501    0  0.00000000000E+00  0.00000000000E+00  0.10083806420E+04  0.10083806420E+04  0.25500000920E-02 0. -1.
       -2   -1    0    0    0  501  0.00000000000E+00  0.00000000000E+00 -0.35615949042E+04  0.35615949042E+04  0.25500000920E-02 0.  1.
    10030    2    1    2    0    0  0.00000000000E+00  0.00000000000E+00 -0.25532142622E+04  0.45699755462E+04  0.37902207620E+04 0.  0.
        5    1    3    3  502    0 -0.17967512173E+03 -0.68633841211E+03  0.84221001927E+03  0.11012190390E+04  0.46999998093E+01 0. -1.
       -5    1    3    3    0  502  0.17967512173E+03  0.68633841211E+03 -0.33954242814E+04  0.34687565072E+04  0.46999998093E+01 0.  1.
</event>
<event>
 5   0  0.2345471E-07  0.3702651E+04  0.7818609E-02  0.8067375E-01
        1   -1    0    0  501    0  0.00000000000E+00  0.00000000000E+00  0.20488870760E+04  0.20488870760E+04  0.50400001928E-02 0.  1.
       -1   -1    0    0    0  501  0.00000000000E+00  0.00000000000E+00 -0.16728131722E+04  0.16728131722E+04  0.50400001928E-02 0. -1.
    10030    2    1    2    0    0  0.00000000000E+00  0.00000000000E+00  0.37607390377E+03  0.37217002482E+04  0.37026505583E+04 0.  0.
        5    1    3    3  502    0 -0.11287886259E+04 -0.42309100828E+03  0.16003329096E+04  0.20035611483E+04  0.46999998093E+01 0.  1.
       -5    1    3    3    0  502  0.11287886259E+04  0.42309100828E+03 -0.12242590059E+04  0.17181390999E+04  0.46999998093E+01 0. -1.
</event>
<event>
 5   0  0.2287500E-07  0.3553308E+04  0.7818609E-02  0.8101272E-01
        1   -1    0    0  501    0  0.00000000000E+00  0.00000000000E+00  0.17638570491E+04  0.17638570491E+04  0.50400001928E-02 0. -1.
       -1   -1    0    0    0  501  0.00000000000E+00  0.00000000000E+00 -0.17895433558E+04  0.17895433558E+04  0.50400001928E-02 0.  1.
    10030    2    1    2    0    0  0.00000000000E+00  0.00000000000E+00 -0.25686306658E+02  0.35534004049E+04  0.35533075650E+04 0.  0.
        3    1    3    3  502    0  0.34299225748E+03  0.16297752113E+03  0.17227981410E+04  0.17641538498E+04  0.10100000352E+00 0. -1.
       -3    1    3    3    0  502 -0.34299225748E+03 -0.16297752113E+03 -0.17484844476E+04  0.17892465551E+04  0.10100000352E+00 0.  1.
</event>
<event>
 5   0  0.7124627E-07  0.3642575E+04  0.7818609E-02  0.8080808E-01
       -2   -1    0    0    0  501  0.00000000000E+00  0.00000000000E+00  0.13068931858E+04  0.13068931858E+04  0.25500000920E-02 0. -1.
        2   -1    0    0  501    0  0.00000000000E+00  0.00000000000E+00 -0.25381485429E+04  0.25381485429E+04  0.25500000920E-02 0.  1.
    10030    2    1    2    0    0  0.00000000000E+00  0.00000000000E+00 -0.12312553570E+04  0.38450417287E+04  0.36425754819E+04 0.  0.
        2    1    3    3  502    0  0.50214247403E+03 -0.13766897290E+04 -0.17572532368E+04  0.22880910411E+04  0.25500000920E-02 0.  1.
       -2    1    3    3    0  502 -0.50214247403E+03  0.13766897290E+04  0.52599787972E+03  0.15569506876E+04  0.25500000920E-02 0. -1.
</event>
<event>
 5   0  0.6949625E-07  0.3550238E+04  0.7818609E-02  0.8101986E-01
       -2   -1    0    0    0  501  0.00000000000E+00  0.00000000000E+00  0.14632820039E+04  0.14632820039E+04  0.25500000920E-02 0. -1.
        2   -1    0    0  501    0  0.00000000000E+00  0.00000000000E+00 -0.21534105542E+04  0.21534105542E+04  0.25500000920E-02 0.  1.
    10030    2    1    2    0    0  0.00000000000E+00  0.00000000000E+00 -0.69012855023E+03  0.36166925581E+04  0.35502376884E+04 0.  0.
        5    1    3    3  502    0  0.15463060075E+04  0.27411822446E+03 -0.11880940921E+04  0.19692111953E+04  0.46999998093E+01 0.  1.
       -5    1    3    3    0  502 -0.15463060075E+04 -0.27411822446E+03  0.49796554186E+03  0.16474813628E+04  0.46999998093E+01 0. -1.
</event>
<event>
 5   0  0.7300916E-07  0.3703748E+04  0.7818609E-02  0.8067132E-01
        2   -1    0    0  501    0  0.00000000000E+00  0.00000000000E+00  0.14987460548E+04  0.14987460548E+04  0.25500000920E-02 0.  1.
       -2   -1    0    0    0  501  0.00000000000E+00  0.00000000000E+00 -0.22882048731E+04  0.22882048731E+04  0.25500000920E-02 0. -1.
    10030    2    1    2    0    0  0.00000000000E+00  0.00000000000E+00 -0.78945881834E+03  0.37869509278E+04  0.37037483856E+04 0.  0.
        1    1    3    3  502    0  0.10086765862E+04 -0.12317998571E+04 -0.13618524878E+04  0.20950898649E+04  0.50400001928E-02 0. -1.
       -1    1    3    3    0  502 -0.10086765862E+04  0.12317998571E+04  0.57239366950E+03  0.16918610629E+04  0.50400001928E-02 0.  1.
</event>
<event>
 5   0  0.6939921E-07  0.3650378E+04  0.7818609E-02  0.8079049E-01
        2   -1    0    0  501    0  0.00000000000E+00  0.00000000000E+00  0.20011837210E+04  0.20011837210E+04  0.25500000920E-02 0. -1.
       -2   -1    0    0    0  501  0.00000000000E+00  0.00000000000E+00 -0.16646718754E+04  0.16646718754E+04  0.25500000920E-02 0.  1.
    10030    2    1    2    0    0  0.00000000000E+00  0.00000000000E+00  0.33651184564E+03  0.36658555965E+04  0.36503776560E+04 0.  0.
        4    1    3    3  502    0 -0.11599798959E+03  0.16963626985E+03 -0.16530161038E+04  0.16657418317E+04  0.12699999809E+01 0.  1.
       -4    1    3    3    0  502  0.11599798959E+03 -0.16963626985E+03  0.19895279494E+04  0.20001137648E+04  0.12699999809E+01 0. -1.
</event>
<event>
 5   0  0.6949625E-07  0.3652597E+04  0.7818609E-02  0.8078549E-01
       -2   -1    0    0    0  501  0.00000000000E+00  0.00000000000E+00  0.15565842631E+04  0.15565842631E+04  0.25500000920E-02 0. -1.
        2   -1    0    0  501    0  0.00000000000E+00  0.00000000000E+00 -0.21427470927E+04  0.21427470927E+04  0.25500000920E-02 0.  1.
    10030    2    1    2    0    0  0.00000000000E+00  0.00000000000E+00 -0.58616282954E+03  0.36993313558E+04  0.36525971058E+04 0.  0.
        5    1    3    3  502    0 -0.10334905140E+02  0.60710063045E+03 -0.20375205218E+04  0.21260738351E+04  0.46999998093E+01 0.  1.
       -5    1    3    3    0  502  0.10334905140E+02 -0.60710063045E+03  0.14513576922E+04  0.15732575207E+04  0.46999998093E+01 0. -1.
</event>
<event>
 5   0  0.7074157E-07  0.3731671E+04  0.7818609E-02  0.8060979E-01
        2   -1    0    0  501    0  0.00000000000E+00  0.00000000000E+00  0.22359907617E+04  0.22359907617E+04  0.25500000920E-02 0.  1.
       -2   -1    0    0    0  501  0.00000000000E+00  0.00000000000E+00 -0.15569572841E+04  0.15569572841E+04  0.25500000920E-02 0. -1.
    10030    2    1    2    0    0  0.00000000000E+00  0.00000000000E+00  0.67903347755E+03  0.37929480458E+04  0.37316709949E+04 0.  0.
        3    1    3    3  502    0  0.17303922529E+04  0.72077184264E+01  0.10488537967E+04  0.20234632680E+04  0.10100000352E+00 0.  1.
       -3    1    3    3    0  502 -0.17303922529E+04 -0.72077184264E+01 -0.36982031913E+03  0.17694847778E+04  0.10100000352E+00 0. -1.
</event>
<event>
 5   0  0.2287500E-07  0.3700932E+04  0.7818609E-02  0.8067755E-01
       -1   -1    0    0    0  501  0.00000000000E+00  0.00000000000E+00  0.15014953897E+04  0.15014953897E+04  0.50400001928E-02 0. -1.
        1   -1    0    0  501    0  0.00000000000E+00  0.00000000000E+00 -0.22805421569E+04  0.22805421570E+04  0.50400001928E-02 0.  1.
    10030    2    1    2    0    0  0.00000000000E+00  0.00000000000E+00 -0.77904676721E+03  0.37820375467E+04  0.37009315232E+04 0.  0.
        4    1    3    3  502    0 -0.13364294827E+04  0.30211619679E+03 -0.16605260526E+04  0.21528275228E+04  0.12699999809E+01 0.  1.
       -4    1    3    3    0  502  0.13364294827E+04 -0.30211619679E+03  0.88147928542E+03  0.16292100239E+04  0.12699999809E+01 0. -1.
</event>
<event>
 5   0  0.6949625E-07  0.3788382E+04  0.7818609E-02  0.8048653E-01
       -2   -1    0    0    0  501  0.00000000000E+00  0.00000000000E+00  0.12246574775E+04  0.12246574775E+04  0.25500000920E-02 0. -1.
        2   -1    0    0  501    0  0.00000000000E+00  0.00000000000E+00 -0.29297654242E+04  0.29297654242E+04  0.25500000920E-02 0.  1.
    10030    2    1    2    0    0  0.00000000000E+00  0.00000000000E+00 -0.17051079467E+04  0.41544229017E+04  0.37883817834E+04 0.  0.
        5    1    3    3  502    0  0.13956227903E+04  0.68405044917E+03 -0.20398715845E+04  0.25645245487E+04  0.46999998093E+01 0.  1.
       -5    1    3    3    0  502 -0.13956227903E+04 -0.68405044917E+03  0.33476363780E+03  0.15898983530E+04  0.46999998093E+01 0. -1.
</event>
<event>
 5   0  0.2345471E-07  0.3697334E+04  0.7818609E-02  0.8068553E-01
       -1   -1    0    0    0  501  0.00000000000E+00  0.00000000000E+00  0.13117469846E+04  0.13117469846E+04  0.50400001928E-02 0. -1.
        1   -1    0    0  501    0  0.00000000000E+00  0.00000000000E+00 -0.26053570612E+04  0.26053570612E+04  0.50400001928E-02 0.  1.
    10030    2    1    2    0    0  0.00000000000E+00  0.00000000000E+00 -0.12936100766E+04  0.39171040458E+04  0.36973337792E+04 0.  0.
        5    1    3    3  502    0 -0.12571220178E+03 -0.13071344755E+04  0.73174736376E+03  0.15032898553E+04  0.46999998093E+01 0. -1.
       -5    1    3    3    0  502  0.12571220178E+03  0.13071344755E+04 -0.20253574404E+04  0.24138141905E+04  0.46999998093E+01 0.  1.
</event>
<event>
 5   0  0.2345471E-07  0.3499602E+04  0.7818609E-02  0.8113884E-01
       -1   -1    0    0    0  501  0.00000000000E+00  0.00000000000E+00  0.23019712057E+04  0.23019712057E+04  0.50400001928E-02 0. -1.
        1   -1    0    0  501    0  0.00000000000E+00  0.00000000000E+00 -0.13300787621E+04  0.13300787621E+04  0.50400001928E-02 0.  1.
    10030    2    1    2    0    0  0.00000000000E+00  0.00000000000E+00  0.97189244360E+03  0.36320499679E+04  0.34996016984E+04 0.  0.
        5    1    3    3  502    0 -0.95439411636E+03 -0.48823513948E+03 -0.94933952937E+03  0.14319599550E+04  0.46999998093E+01 0.  1.
       -5    1    3    3    0  502  0.95439411636E+03  0.48823513948E+03  0.19212319730E+04  0.22000900129E+04  0.46999998093E+01 0. -1.
</event>
<event>
 5   0  0.2345471E-07  0.2651913E+04  0.7818609E-02  0.8350778E-01
       -1   -1    0    0    0  501  0.00000000000E+00  0.00000000000E+00  0.12678786376E+04  0.12678786376E+04  0.50400001928E-02 0. -1.
        1   -1    0    0  501    0  0.00000000000E+00  0.00000000000E+00 -0.13866944396E+04  0.13866944396E+04  0.50400001928E-02 0.  1.
    10030    2    1    2    0    0  0.00000000000E+00  0.00000000000E+00 -0.11881580199E+03  0.26545730773E+04  0.26519127112E+04 0.  0.
        5    1    3    3  502    0  0.46554088464E+03 -0.62576804047E+03  0.10139663801E+04  0.12792434740E+04  0.46999998093E+01 0. -1.
       -5    1    3    3    0  502 -0.46554088464E+03  0.62576804047E+03 -0.11327821821E+04  0.13753296033E+04  0.46999998093E+01 0.  1.
</event>
<event>
 5   0  0.2411746E-07  0.3231757E+04  0.7818609E-02  0.8180480E-01
       -1   -1    0    0    0  501  0.00000000000E+00  0.00000000000E+00  0.15185988528E+04  0.15185988528E+04  0.50400001928E-02 0. -1.
        1   -1    0    0  501    0  0.00000000000E+00  0.00000000000E+00 -0.17193895525E+04  0.17193895525E+04  0.50400001928E-02 0.  1.
    10030    2    1    2    0    0  0.00000000000E+00  0.00000000000E+00 -0.20079069964E+03  0.32379884053E+04  0.32317567990E+04 0.  0.
        1    1    3    3  502    0 -0.67078813552E+03 -0.14566423264E+04  0.98227699595E+02  0.16066774010E+04  0.50400001928E-02 0. -1.
       -1    1    3    3    0  502  0.67078813552E+03  0.14566423264E+04 -0.29901839924E+03  0.16313110043E+04  0.50400001928E-02 0.  1.
</event>
<event>
 5   0  0.7074157E-07  0.3682658E+04  0.7818609E-02  0.8071816E-01
       -2   -1    0    0    0  501  0.00000000000E+00  0.00000000000E+00  0.18079341664E+04  0.18079341664E+04  0.25500000920E-02 0. -1.
        2   -1    0    0  501    0  0.00000000000E+00  0.00000000000E+00 -0.18753409671E+04  0.18753409671E+04  0.25500000920E-02 0.  1.
    10030    2    1    2    0    0  0.00000000000E+00  0.00000000000E+00 -0.67406800662E+02  0.36832751335E+04  0.36826582834E+04 0.  0.
        3    1    3    3  502    0  0.11416216875E+04  0.13095319069E+04 -0.64398517433E+03  0.18528061980E+04  0.10100000352E+00 0.  1.
       -3    1    3    3    0  502 -0.11416216875E+04 -0.13095319069E+04  0.57657837367E+03  0.18304689355E+04  0.10100000352E+00 0. -1.
</event>
<event>
 5   0  0.6949625E-07  0.3118180E+04  0.7818609E-02  0.8210766E-01
       -2   -1    0    0    0  501  0.00000000000E+00  0.00000000000E+00  0.11879411292E+04  0.11879411292E+04  0.25500000920E-02 0. -1.
        2   -1    0    0  501    0  0.00000000000E+00  0.00000000000E+00 -0.20461964343E+04  0.20461964343E+04  0.25500000920E-02 0.  1.
    10030    2    1    2    0    0  0.00000000000E+00  0.00000000000E+00 -0.85825530511E+03  0.32341375634E+04  0.31181795347E+04 0.  0.
        5    1    3    3  502    0  0.92471499857E+03  0.12381786628E+04 -0.64308664382E+03  0.16738478877E+04  0.46999998093E+01 0. -1.
       -5    1    3    3    0  502 -0.92471499857E+03 -0.12381786628E+04 -0.21516866129E+03  0.15602896758E+04  0.46999998093E+01 0.  1.
</event>
<event>
 5   0  0.2287500E-07  0.3715791E+04  0.7818609E-02  0.8064471E-01
       -1   -1    0    0    0  501  0.00000000000E+00  0.00000000000E+00  0.14366380353E+04  0.14366380353E+04  0.50400001928E-02 0. -1.
        1   -1    0    0  501    0  0.00000000000E+00  0.00000000000E+00 -0.24026759510E+04  0.24026759510E+04  0.50400001928E-02 0.  1.
    10030    2    1    2    0    0  0.00000000000E+00  0.00000000000E+00 -0.96603791563E+03  0.38393139863E+04  0.37157909832E+04 0.  0.
        4    1    3    3  502    0  0.19321946276E+03 -0.95492600167E+03 -0.21175542801E+04  0.23309343988E+04  0.12699999809E+01 0.  1.
       -4    1    3    3    0  502 -0.19321946276E+03  0.95492600167E+03  0.11515163645E+04  0.15083795875E+04  0.12699999809E+01 0. -1.
</event>
<event>
 5   0  0.7124627E-07  0.3732698E+04  0.7818609E-02  0.8060754E-01
        2   -1    0    0  501    0  0.00000000000E+00  0.00000000000E+00  0.28596769066E+04  0.28596769066E+04  0.25500000920E-02 0. -1.
       -2   -1    0    0    0  501  0.00000000000E+00  0.00000000000E+00 -0.12180600025E+04  0.12180600025E+04  0.25500000920E-02 0.  1.
    10030    2    1    2    0    0  0.00000000000E+00  0.00000000000E+00  0.16416169041E+04  0.40777369091E+04  0.37326977162E+04 0.  0.
        2    1    3    3  502    0 -0.15647604350E+04 -0.10153818661E+04  0.75362129565E+03  0.20118202231E+04  0.25500000920E-02 0.  1.
       -2    1    3    3    0  502  0.15647604350E+04  0.10153818661E+04  0.88799560841E+03  0.20659166860E+04  0.25500000920E-02 0. -1.
</event>
<event>
 5   0  0.7124627E-07  0.3389613E+04  0.7818609E-02  0.8140460E-01
        2   -1    0    0  501    0  0.00000000000E+00  0.00000000000E+00  0.18121416183E+04  0.18121416183E+04  0.25500000920E-02 0.  1.
       -2   -1    0    0    0  501  0.00000000000E+00  0.00000000000E+00 -0.15850688668E+04  0.15850688668E+04  0.25500000920E-02 0. -1.
    10030    2    1    2    0    0  0.00000000000E+00  0.00000000000E+00  0.22707275147E+03  0.33972104850E+04  0.33896131114E+04 0.  0.
        2    1    3    3  502    0 -0.82344437017E+03 -0.12663441054E+04  0.88381689205E+03  0.17500915184E+04  0.25500000920E-02 0. -1.
       -2    1    3    3    0  502  0.82344437017E+03  0.12663441054E+04 -0.65674414058E+03  0.16471189666E+04  0.25500000920E-02 0.  1.
</event>
<event>
 5   0  0.2411746E-07  0.3724358E+04  0.7818609E-02  0.8062585E-01
       -1   -1    0    0    0  501  0.00000000000E+00  0.00000000000E+00  0.21137868954E+04  0.21137868954E+04  0.50400001928E-02 0. -1.
        1   -1    0    0  501    0  0.00000000000E+00  0.00000000000E+00 -0.16405204696E+04  0.16405204696E+04  0.50400001928E-02 0.  1.
    10030    2    1    2    0    0  0.00000000000E+00  0.00000000000E+00  0.47326642577E+03  0.37543073650E+04  0.37243580226E+04 0.  0.
        1    1    3    3  502    0 -0.13839336387E+04  0.60262330396E+03  0.13359455464E+04  0.20157325383E+04  0.50400001928E-02 0. -1.
       -1    1    3    3    0  502  0.13839336387E+04 -0.60262330396E+03 -0.86267912068E+03  0.17385748267E+04  0.50400001928E-02 0.  1.
</event>
<event>
 5   0  0.6949625E-07  0.3680597E+04  0.7818609E-02  0.8072275E-01
       -2   -1    0    0    0  501  0.00000000000E+00  0.00000000000E+00  0.14923609710E+04  0.14923609710E+04  0.25500000920E-02 0. -1.
        2   -1    0    0  501    0  0.00000000000E+00  0.00000000000E+00 -0.22693567784E+04  0.22693567784E+04  0.25500000920E-02 0.  1.
    10030    2    1    2    0    0  0.00000000000E+00  0.00000000000E+00 -0.77699580737E+03  0.37617177495E+04  0.36805974979E+04 0.  0.
        5    1    3    3  502    0 -0.12718192244E+04  0.13123432120E+04 -0.16714058608E+03  0.18351367554E+04  0.46999998093E+01 0. -1.
       -5    1    3    3    0  502  0.12718192244E+04 -0.13123432120E+04 -0.60985522129E+03  0.19265809940E+04  0.46999998093E+01 0.  1.
</event>
<event>
 5   0  0.2287500E-07  0.3652469E+04  0.7818609E-02  0.8078578E-01
        1   -1    0    0  501    0  0.00000000000E+00  0.00000000000E+00  0.16662906825E+04  0.16662906825E+04  0.50400001928E-02 0. -1.
       -1   -1    0    0    0  501  0.00000000000E+00  0.00000000000E+00 -0.20015307427E+04  0.20015307427E+04  0.50400001928E-02 0.  1.
    10030    2    1    2    0    0  0.00000000000E+00  0.00000000000E+00 -0.33524006013E+03  0.36678214252E+04  0.36524687691E+04 0.  0.
        3    1    3    3  502    0 -0.35173881948E+03  0.73190292351E+03  0.14750215439E+04  0.16837727435E+04  0.10100000352E+00 0. -1.
       -3    1    3    3    0  502  0.35173881948E+03 -0.73190292351E+03 -0.18102616040E+04  0.19840486818E+04  0.10100000352E+00 0.  1.
</event>
<event>
 5   0  0.6939921E-07  0.3211934E+04  0.7818609E-02  0.8185673E-01
       -2   -1    0    0    0  501  0.00000000000E+00  0.00000000000E+00  0.12870607545E+04  0.12870607545E+04  0.25500000920E-02 0.  1.
        2   -1    0    0  501    0  0.00000000000E+00  0.00000000000E+00 -0.20038912673E+04  0.20038912673E+04  0.25500000920E-02 0. -1.
    10030    2    1    2    0    0  0.00000000000E+00  0.00000000000E+00 -0.71683051287E+03  0.32909520218E+04  0.32119338763E+04 0.  0.
        4    1    3    3  502    0 -0.34403930444E+02 -0.11124651198E+04 -0.15446390841E+04  0.19038576066E+04  0.12699999809E+01 0. -1.
       -4    1    3    3    0  502  0.34403930444E+02  0.11124651198E+04  0.82780857122E+03  0.13870944152E+04  0.12699999809E+01 0.  1.
</event>
<event>
 5   0  0.6949625E-07  0.3757878E+04  0.7818609E-02  0.8055255E-01
       -2   -1    0    0    0  501  0.00000000000E+00  0.00000000000E+00  0.14183962095E+04  0.14183962095E+04  0.25500000920E-02 0. -1.
        2   -1    0    0  501    0  0.00000000000E+00  0.00000000000E+00 -0.24890161403E+04  0.24890161403E+04  0.25500000920E-02 0.  1.
    10030    2    1    2    0    0  0.00000000000E+00  0.00000000000E+00 -0.10706199308E+04  0.39074123498E+04  0.37578776238E+04 0.  0.
        5    1    3    3  502    0 -0.93498014824E+03 -0.11862718968E+04 -0.16973494635E+04  0.22721017103E+04  0.46999998093E+01 0.  1.
       -5    1    3    3    0  502  0.93498014824E+03  0.11862718968E+04  0.62672953268E+03  0.16353106395E+04  0.46999998093E+01 0. -1.
</event>
<event>
 5   0  0.2411746E-07  0.3714492E+04  0.7818609E-02  0.8064758E-01
        1   -1    0    0  501    0  0.00000000000E+00  0.00000000000E+00  0.21820787811E+04  0.21820787811E+04  0.50400001928E-02 0.  1.
       -1   -1    0    0    0  501  0.00000000000E+00  0.00000000000E+00 -0.15807691875E+04  0.15807691875E+04  0.50400001928E-02 0. -1.
    10030    2    1    2    0    0  0.00000000000E+00  0.00000000000E+00  0.60130959362E+03  0.37628479686E+04  0.37144921062E+04 0.  0.
        1    1    3    3  502    0  0.16858022921E+04 -0.59359698107E+03 -0.21097068344E+03  0.17996653503E+04  0.50400001928E-02 0. -1.
       -1    1    3    3    0  502 -0.16858022921E+04  0.59359698107E+03  0.81228027706E+03  0.19631826182E+04  0.50400001928E-02 0.  1.
</event>
<event>
 5   0  0.2411746E-07  0.3703522E+04  0.7818609E-02  0.8067182E-01
        1   -1    0    0  501    0  0.00000000000E+00  0.00000000000E+00  0.12979907400E+04  0.12979907400E+04  0.50400001928E-02 0. -1.
       -1   -1    0    0    0  501  0.00000000000E+00  0.00000000000E+00 -0.26417897883E+04  0.26417897883E+04  0.50400001928E-02 0.  1.
    10030    2    1    2    0    0  0.00000000000E+00  0.00000000000E+00 -0.13437990483E+04  0.39397805283E+04  0.37035219358E+04 0.  0.
        1    1    3    3  502    0  0.11761701628E+04  0.70389833797E+03 -0.19963835063E+04  0.24216515493E+04  0.50400001928E-02 0.  1.
       -1    1    3    3    0  502 -0.11761701628E+04 -0.70389833797E+03  0.65258445796E+03  0.15181289790E+04  0.50400001928E-02 0. -1.
</event>
<event>
 5   0  0.2287500E-07  0.3426481E+04  0.7818609E-02  0.8131437E-01
       -1   -1    0    0    0  501  0.00000000000E+00  0.00000000000E+00  0.14680764598E+04  0.14680764599E+04  0.50400001928E-02 0. -1.
        1   -1    0    0  501    0  0.00000000000E+00  0.00000000000E+00 -0.19993459077E+04  0.19993459077E+04  0.50400001928E-02 0.  1.
    10030    2    1    2    0    0  0.00000000000E+00  0.00000000000E+00 -0.53126944785E+03  0.34674223676E+04  0.34264807965E+04 0.  0.
        3    1    3    3  502    0 -0.10743714489E+04 -0.11553453814E+04 -0.94151917984E+03  0.18372684444E+04  0.10100000352E+00 0.  1.
       -3    1    3    3    0  502  0.10743714489E+04  0.11553453814E+04  0.41024973199E+03  0.16301539232E+04  0.10100000352E+00 0. -1.
</event>
<event>
 5   0  0.6939921E-07  0.3877542E+04  0.7818609E-02  0.8029716E-01
       -2   -1    0    0    0  501  0.00000000000E+00  0.00000000000E+00  0.17455727881E+04  0.17455727881E+04  0.25500000920E-02 0. -1.
        2   -1    0    0  501    0  0.00000000000E+00  0.00000000000E+00 -0.21533519538E+04  0.21533519538E+04  0.25500000920E-02 0.  1.
    10030    2    1    2    0    0  0.00000000000E+00  0.00000000000E+00 -0.40777916569E+03  0.38989247419E+04  0.38775417851E+04 0.  0.
        4    1    3    3  502    0  0.14015155599E+04  0.12231742603E+04  0.34541026435E+03  0.18920124205E+04  0.12699999809E+01 0. -1.
       -4    1    3    3    0  502 -0.14015155599E+04 -0.12231742603E+04 -0.75318943004E+03  0.20069123214E+04  0.12699999809E+01 0.  1.
</event>
<event>
 5   0  0.7300916E-07  0.3653759E+04  0.7818609E-02  0.8078287E-01
       -2   -1    0    0    0  501  0.00000000000E+00  0.00000000000E+00  0.26838748041E+04  0.26838748041E+04  0.25500000920E-02 0. -1.
        2   -1    0    0  501    0  0.00000000000E+00  0.00000000000E+00 -0.12435339630E+04  0.12435339630E+04  0.25500000920E-02 0.  1.
    10030    2    1    2    0    0  0.00000000000E+00  0.00000000000E+00  0.14403408412E+04  0.39274087671E+04  0.36537594181E+04 0.  0.
        1    1    3    3  502    0 -0.17545055140E+04 -0.97878174610E+02  0.18313167851E+03  0.17667503919E+04  0.50400001928E-02 0.  1.
       -1    1    3    3    0  502  0.17545055140E+04  0.97878174610E+02  0.12572091626E+04  0.21606583752E+04  0.50400001928E-02 0. -1.
</event>
<event>
 5   0  0.6949625E-07  0.3711237E+04  0.7818609E-02  0.8065476E-01
        2   -1    0    0  501    0  0.00000000000E+00  0.00000000000E+00  0.17828651516E+04  0.17828651516E+04  0.25500000920E-02 0. -1.
       -2   -1    0    0    0  501  0.00000000000E+00  0.00000000000E+00 -0.19313407012E+04  0.19313407012E+04  0.25500000920E-02 0.  1.
    10030    2    1    2    0    0  0.00000000000E+00  0.00000000000E+00 -0.14847554964E+03  0.37142058529E+04  0.37112370079E+04 0.  0.
        5    1    3    3  502    0 -0.76861784776E+03  0.63563678771E+03 -0.16402548185E+04  0.19197045297E+04  0.46999998093E+01 0.  1.
       -5    1    3    3    0  502  0.76861784776E+03 -0.63563678771E+03  0.14917792689E+04  0.17945013231E+04  0.46999998093E+01 0. -1.
</event>
<event>
 5   0  0.2287500E-07  0.3693345E+04  0.7818609E-02  0.8069438E-01
        1   -1    0    0  501    0  0.00000000000E+00  0.00000000000E+00  0.16648605393E+04  0.16648605393E+04  0.50400001928E-02 0.  1.
       -1   -1    0    0    0  501  0.00000000000E+00  0.00000000000E+00 -0.20483388137E+04  0.20483388137E+04  0.50400001928E-02 0. -1.
    10030    2    1    2    0    0  0.00000000000E+00  0.00000000000E+00 -0.38347827446E+03  0.37131993530E+04  0.36933445342E+04 0.  0.
        2    1    3    3  502    0 -0.11067508927E+04 -0.77144441877E+03  0.10760610937E+04  0.17256684232E+04  0.25500000920E-02 0.  1.
       -2    1    3    3    0  502  0.11067508927E+04  0.77144441877E+03 -0.14595393681E+04  0.19875309298E+04  0.25500000920E-02 0. -1.
</event>
<event>
 5   0  0.2287500E-07  0.3423357E+04  0.7818609E-02  0.8132198E-01
        3   -1    0    0  501    0  0.00000000000E+00  0.00000000000E+00  0.15746732384E+04  0.15746732416E+04  0.10100000352E+00 0. -1.
       -3   -1    0    0    0  501  0.00000000000E+00  0.00000000000E+00 -0.18606036436E+04  0.18606036463E+04  0.10100000352E+00 0.  1.
    10030    2    1    2    0    0  0.00000000000E+00  0.00000000000E+00 -0.28593040517E+03  0.34352768880E+04  0.34233567007E+04 0.  0.
        4    1    3    3  502    0 -0.55555026586E+03 -0.15976727297E+04  0.11995266468E+03  0.16957548478E+04  0.12699999809E+01 0.  1.
       -4    1    3    3    0  502  0.55555026586E+03  0.15976727297E+04 -0.40588306985E+03  0.17395220402E+04  0.12699999809E+01 0. -1.
</event>
<event>
 5   0  0.6939921E-07  0.3698619E+04  0.7818609E-02  0.8068268E-01
        2   -1    0    0  501    0  0.00000000000E+00  0.00000000000E+00  0.20017994041E+04  0.20017994041E+04  0.25500000920E-02 0. -1.
       -2   -1    0    0    0  501  0.00000000000E+00  0.00000000000E+00 -0.17084356979E+04  0.17084356979E+04  0.25500000920E-02 0.  1.
    10030    2    1    2    0    0  0.00000000000E+00  0.00000000000E+00  0.29336370617E+03  0.37102351020E+04  0.36986189650E+04 0.  0.
        4    1    3    3  502    0 -0.12331740414E+04  0.13747222784E+04  0.24375555354E+03  0.18627930486E+04  0.12699999809E+01 0. -1.
       -4    1    3    3    0  502  0.12331740414E+04 -0.13747222784E+04  0.49608152632E+02  0.18474420534E+04  0.12699999809E+01 0.  1.
</event>
<event>
 5   0  0.2287500E-07  0.3715481E+04  0.7818609E-02  0.8064540E-01
        1   -1    0    0  501    0  0.00000000000E+00  0.00000000000E+00  0.28306789977E+04  0.28306789977E+04  0.50400001928E-02 0.  1.
       -1   -1    0    0    0  501  0.00000000000E+00  0.00000000000E+00 -0.12192125899E+04  0.12192125899E+04  0.50400001928E-02 0. -1.
    10030    2    1    2    0    0  0.00000000000E+00  0.00000000000E+00  0.16114664078E+04  0.40498915877E+04  0.37154808421E+04 0.  0.
        3    1    3    3  502    0  0.16771286644E+04 -0.71576236235E+03  0.41863088904E+03  0.18709163925E+04  0.10100000352E+00 0. -1.
       -3    1    3    3    0  502 -0.16771286644E+04  0.71576236235E+03  0.11928355188E+04  0.21789751952E+04  0.10100000352E+00 0.  1.
</event>
<event>
 5   0  0.6939921E-07  0.3619567E+04  0.7818609E-02  0.8086024E-01
        2   -1    0    0  501    0  0.00000000000E+00  0.00000000000E+00  0.21544919253E+04  0.21544919253E+04  0.25500000920E-02 0.  1.
       -2   -1    0    0    0  501  0.00000000000E+00  0.00000000000E+00 -0.15202266238E+04  0.15202266238E+04  0.25500000920E-02 0. -1.
    10030    2    1    2    0    0  0.00000000000E+00  0.00000000000E+00  0.63426530151E+03  0.36747185490E+04  0.36195668169E+04 0.  0.
        4    1    3    3  502    0  0.49132282437E+03  0.16969687103E+01  0.20854860915E+04  0.21425813516E+04  0.12699999809E+01 0.  1.
       -4    1    3    3    0  502 -0.49132282437E+03 -0.16969687103E+01 -0.14512207900E+04  0.15321371974E+04  0.12699999809E+01 0. -1.
</event>
<event>
 5   0  0.2287500E-07  0.3692394E+04  0.7818609E-02  0.8069649E-01
       -1   -1    0    0    0  501  0.00000000000E+00  0.00000000000E+00  0.11355376336E+04  0.11355376336E+04  0.50400001928E-02 0. -1.
        1   -1    0    0  501    0  0.00000000000E+00  0.00000000000E+00 -0.30016124135E+04  0.30016124135E+04  0.50400001928E-02 0.  1.
    10030    2    1    2    0    0  0.00000000000E+00  0.00000000000E+00 -0.18660747799E+04  0.41371500471E+04  0.36923942677E+04 0.  0.
        3    1    3    3  502    0 -0.79735924989E+03  0.11453382242E+04  0.42120955215E+03  0.14577376027E+04  0.10100000352E+00 0. -1.
       -3    1    3    3    0  502  0.79735924989E+03 -0.11453382242E+04 -0.22872843321E+04  0.26794124444E+04  0.10100000352E+00 0.  1.
</event>
<event>
 5   0  0.2287500E-07  0.3697808E+04  0.7818609E-02  0.8068448E-01
       -1   -1    0    0    0  501  0.00000000000E+00  0.00000000000E+00  0.15181192645E+04  0.15181192645E+04  0.50400001928E-02 0.  1.
        1   -1    0    0  501    0  0.00000000000E+00  0.00000000000E+00 -0.22517642111E+04  0.22517642111E+04  0.50400001928E-02 0. -1.
    10030    2    1    2    0    0  0.00000000000E+00  0.00000000000E+00 -0.73364494652E+03  0.37698834756E+04  0.36978083390E+04 0.  0.
        3    1    3    3  502    0  0.99683048986E+03 -0.14671293433E+04  0.16517919926E+03  0.17814105966E+04  0.10100000352E+00 0. -1.
       -3    1    3    3    0  502 -0.99683048986E+03  0.14671293433E+04 -0.89882414578E+03  0.19884728790E+04  0.10100000352E+00 0.  1.
</event>
<event>
 5   0  0.6939921E-07  0.3739065E+04  0.7818609E-02  0.8059359E-01
       -2   -1    0    0    0  501  0.00000000000E+00  0.00000000000E+00  0.18174015228E+04  0.18174015228E+04  0.25500000920E-02 0. -1.
        2   -1    0    0  501    0  0.00000000000E+00  0.00000000000E+00 -0.19231586778E+04  0.19231586778E+04  0.25500000920E-02 0.  1.
    10030    2    1    2    0    0  0.00000000000E+00  0.00000000000E+00 -0.10575715504E+03  0.37405602006E+04  0.37390648615E+04 0.  0.
        4    1    3    3  502    0 -0.19383192430E+03  0.13624537962E+04  0.12130518252E+04  0.18344883497E+04  0.12699999809E+01 0. -1.
       -4    1    3    3    0  502  0.19383192430E+03 -0.13624537962E+04 -0.13188089803E+04  0.19060718509E+04  0.12699999809E+01 0.  1.
</event>
<event>
 5   0  0.7300916E-07  0.3103592E+04  0.7818609E-02  0.8214753E-01
       -2   -1    0    0    0  501  0.00000000000E+00  0.00000000000E+00  0.10579493378E+04  0.10579493378E+04  0.25500000920E-02 0.  1.
        2   -1    0    0  501    0  0.00000000000E+00  0.00000000000E+00 -0.22761690516E+04  0.22761690516E+04  0.25500000920E-02 0. -1.
    10030    2    1    2    0    0  0.00000000000E+00  0.00000000000E+00 -0.12182197137E+04  0.33341183894E+04  0.31035924609E+04 0.  0.
        1    1    3    3  502    0  0.65665973484E+03 -0.33336080241E+03 -0.20764875159E+04  0.22032094398E+04  0.50400001928E-02 0. -1.
       -1    1    3    3    0  502 -0.65665973484E+03  0.33336080241E+03  0.85826780218E+03  0.11309089496E+04  0.50400001928E-02 0.  1.
</event>
<event>
 5   0  0.7124627E-07  0.3685940E+04  0.7818609E-02  0.8071085E-01
       -2   -1    0    0    0  501  0.00000000000E+00  0.00000000000E+00  0.14703569617E+04  0.14703569617E+04  0.25500000920E-02 0. -1.
        2   -1    0    0  501    0  0.00000000000E+00  0.00000000000E+00 -0.23100094990E+04  0.23100094990E+04  0.25500000920E-02 0.  1.
    10030    2    1    2    0    0  0.00000000000E+00  0.00000000000E+00 -0.83965253731E+03  0.37803664606E+04  0.36859400692E+04 0.  0.
        2    1    3    3  502    0  0.12548382949E+04  0.12175962503E+04  0.17766005606E+03  0.17574762788E+04  0.25500000920E-02 0. -1.
       -2    1    3    3    0  502 -0.12548382949E+04 -0.12175962503E+04 -0.10173125934E+04  0.20228901818E+04  0.25500000920E-02 0.  1.
</event>
<event>
 5   0  0.6939921E-07  0.3729333E+04  0.7818609E-02  0.8061492E-01
        2   -1    0    0  501    0  0.00000000000E+00  0.00000000000E+00  0.26928143635E+04  0.26928143635E+04  0.25500000920E-02 0.  1.
       -2   -1    0    0    0  501  0.00000000000E+00  0.00000000000E+00 -0.12912071112E+04  0.12912071112E+04  0.25500000920E-02 0. -1.
    10030    2    1    2    0    0  0.00000000000E+00  0.00000000000E+00  0.14016072523E+04  0.39840214747E+04  0.37293329459E+04 0.  0.
        4    1    3    3  502    0  0.18244519725E+04 -0.35655746827E+03  0.54517996437E+03  0.19372612200E+04  0.12699999809E+01 0. -1.
       -4    1    3    3    0  502 -0.18244519725E+04  0.35655746827E+03  0.85642728789E+03  0.20467602547E+04  0.12699999809E+01 0.  1.
</event>
<event>
 5   0  0.2411746E-07  0.3686489E+04  0.7818609E-02  0.8070963E-01
        1   -1    0    0  501    0  0.00000000000E+00  0.00000000000E+00  0.18805029603E+04  0.18805029603E+04  0.50400001928E-02 0.  1.
       -1   -1    0    0    0  501  0.00000000000E+00  0.00000000000E+00 -0.18067246003E+04  0.18067246003E+04  0.50400001928E-02 0. -1.
    10030    2    1    2    0    0  0.00000000000E+00  0.00000000000E+00  0.73778360067E+02  0.36872275606E+04  0.36864893649E+04 0.  0.
        1    1    3    3  502    0 -0.17181040274E+04 -0.62797191449E+03  0.26347545554E+03  0.18481475834E+04  0.50400001928E-02 0. -1.
       -1    1    3    3    0  502  0.17181040274E+04  0.62797191449E+03 -0.18969709547E+03  0.18390799772E+04  0.50400001928E-02 0.  1.
</event>
<event>
 5   0  0.2287500E-07  0.3696210E+04  0.7818609E-02  0.8068802E-01
       -1   -1    0    0    0  501  0.00000000000E+00  0.00000000000E+00  0.23305716739E+04  0.23305716740E+04  0.50400001928E-02 0. -1.
        1   -1    0    0  501    0  0.00000000000E+00  0.00000000000E+00 -0.14655169055E+04  0.14655169056E+04  0.50400001928E-02 0.  1.
    10030    2    1    2    0    0  0.00000000000E+00  0.00000000000E+00  0.86505476840E+03  0.37960885795E+04  0.36962100524E+04 0.  0.
        3    1    3    3  502    0 -0.56897083909E+03 -0.45878266431E+03  0.21758294290E+04  0.22953089255E+04  0.10100000352E+00 0. -1.
       -3    1    3    3    0  502  0.56897083909E+03  0.45878266431E+03 -0.13107746606E+04  0.15007796540E+04  0.10100000352E+00 0.  1.
</event>
<event>
 5   0  0.7124627E-07  0.3611780E+04  0.7818609E-02  0.8087799E-01
        2   -1    0    0  501    0  0.00000000000E+00  0.00000000000E+00  0.14807822867E+04  0.14807822867E+04  0.25500000920E-02 0.  1.
       -2   -1    0    0    0  501  0.00000000000E+00  0.00000000000E+00 -0.22023754529E+04  0.22023754529E+04  0.25500000920E-02 0. -1.
    10030    2    1    2    0    0  0.00000000000E+00  0.00000000000E+00 -0.72159316618E+03  0.36831577396E+04  0.36117799264E+04 0.  0.
        2    1    3    3  502    0 -0.27164504991E+03 -0.17615234736E+04 -0.65719959906E+03  0.18996492555E+04  0.25500000920E-02 0. -1.
       -2    1    3    3    0  502  0.27164504991E+03  0.17615234736E+04 -0.64393567122E+02  0.17835084840E+04  0.25500000920E-02 0.  1.
</event>
<event>
 5   0  0.2287500E-07  0.3730565E+04  0.7818609E-02  0.8061222E-01
       -1   -1    0    0    0  501  0.00000000000E+00  0.00000000000E+00  0.22227610581E+04  0.22227610581E+04  0.50400001928E-02 0.  1.
        1   -1    0    0  501    0  0.00000000000E+00  0.00000000000E+00 -0.15652958529E+04  0.15652958529E+04  0.50400001928E-02 0. -1.
    10030    2    1    2    0    0  0.00000000000E+00  0.00000000000E+00  0.65746520518E+03  0.37880569110E+04  0.37305649257E+04 0.  0.
        2    1    3    3  502    0 -0.16399089372E+03  0.14122572661E+04 -0.89731689752E+03  0.16812320522E+04  0.25500000920E-02 0. -1.
       -2    1    3    3    0  502  0.16399089372E+03 -0.14122572661E+04  0.15547821027E+04  0.21068248588E+04  0.25500000920E-02 0.  1.
</event>
<event>
 5   0  0.2287500E-07  0.3659917E+04  0.7818609E-02  0.8076903E-01
        1   -1    0    0  501    0  0.00000000000E+00  0.00000000000E+00  0.25578666818E+04  0.25578666818E+04  0.50400001928E-02 0. -1.
       -1   -1    0    0    0  501  0.00000000000E+00  0.00000000000E+00 -0.13091957718E+04  0.13091957718E+04  0.50400001928E-02 0.  1.
    10030    2    1    2    0    0  0.00000000000E+00  0.00000000000E+00  0.12486709100E+04  0.38670624537E+04  0.36599170727E+04 0.  0.
        4    1    3    3  502    0 -0.17157377046E+04  0.62037067692E+03  0.47442136796E+03  0.18851241060E+04  0.12699999809E+01 0.  1.
       -4    1    3    3    0  502  0.17157377046E+04 -0.62037067692E+03  0.77424954203E+03  0.19819383477E+04  0.12699999809E+01 0. -1.
</event>
<event>
 5   0  0.2287500E-07  0.3660395E+04  0.7818609E-02  0.8076796E-01
       -1   -1    0    0    0  501  0.00000000000E+00  0.00000000000E+00  0.16414648373E+04  0.16414648373E+04  0.50400001928E-02 0.  1.
        1   -1    0    0  501    0  0.00000000000E+00  0.00000000000E+00 -0.20406307457E+04  0.20406307457E+04  0.50400001928E-02 0. -1.
    10030    2    1    2    0    0  0.00000000000E+00  0.00000000000E+00 -0.39916590838E+03  0.36820955830E+04  0.36603953967E+04 0.  0.
        4    1    3    3  502    0 -0.68821481999E+03  0.10821410135E+03 -0.19020322722E+04  0.20256056644E+04  0.12699999809E+01 0. -1.
       -4    1    3    3    0  502  0.68821481999E+03 -0.10821410135E+03  0.15028663638E+04  0.16564899187E+04  0.12699999809E+01 0.  1.
</event>
<event>
 5   0  0.7124627E-07  0.3876861E+04  0.7818609E-02  0.8029859E-01
        2   -1    0    0  501    0  0.00000000000E+00  0.00000000000E+00  0.26838205389E+04  0.26838205389E+04  0.25500000920E-02 0.  1.
       -2   -1    0    0    0  501  0.00000000000E+00  0.00000000000E+00 -0.14000613257E+04  0.14000613257E+04  0.25500000920E-02 0. -1.
    10030    2    1    2    0    0  0.00000000000E+00  0.00000000000E+00  0.12837592132E+04  0.40838818646E+04  0.38768612777E+04 0.  0.
        2    1    3    3  502    0  0.11936458525E+04 -0.12475762440E+04 -0.28623393871E+03  0.17501904963E+04  0.25500000920E-02 0. -1.
       -2    1    3    3    0  502 -0.11936458525E+04  0.12475762440E+04  0.15699931519E+04  0.23336913683E+04  0.25500000920E-02 0.  1.
</event>
<event>
 5   0  0.2411746E-07  0.3742541E+04  0.7818609E-02  0.8058599E-01
       -1   -1    0    0    0  501  0.00000000000E+00  0.00000000000E+00  0.14573402577E+04  0.14573402577E+04  0.50400001928E-02 0.  1.
        1   -1    0    0  501    0  0.00000000000E+00  0.00000000000E+00 -0.24027695254E+04  0.24027695254E+04  0.50400001928E-02 0. -1.
    10030    2    1    2    0    0  0.00000000000E+00  0.00000000000E+00 -0.94542926774E+03  0.38601097831E+04  0.37425407195E+04 0.  0.
        1    1    3    3  502    0  0.12367348337E+04 -0.47999984899E+03 -0.18339234931E+04  0.22634461077E+04  0.50400001928E-02 0. -1.
       -1    1    3    3    0  502 -0.12367348337E+04  0.47999984899E+03  0.88849422533E+03  0.15966636754E+04  0.50400001928E-02 0.  1.
</event>
<event>
 5   0  0.7124627E-07  0.3662811E+04  0.7818609E-02  0.8076254E-01
        2   -1    0    0  501    0  0.00000000000E+00  0.00000000000E+00  0.26272906409E+04  0.26272906409E+04  0.25500000920E-02 0.  1.
       -2   -1    0    0    0  501  0.00000000000E+00  0.00000000000E+00 -0.12766178571E+04  0.12766178571E+04  0.25500000920E-02 0. -1.
    10030    2    1    2    0    0  0.00000000000E+00  0.00000000000E+00  0.13506727838E+04  0.39039084980E+04  0.36628110233E+04 0.  0.
        2    1    3    3  502    0 -0.62972626420E+03 -0.42502267946E+03  0.24514104455E+04  0.25664396775E+04  0.25500000920E-02 0.  1.
       -2    1    3    3    0  502  0.62972626420E+03  0.42502267946E+03 -0.11007376617E+04  0.13374688205E+04  0.25500000920E-02 0. -1.
</event>
<event>
 5   0  0.7124627E-07  0.3761726E+04  0.7818609E-02  0.8054419E-01
       -2   -1    0    0    0  501  0.00000000000E+00  0.00000000000E+00  0.20339432886E+04  0.20339432886E+04  0.25500000920E-02 0.  1.
        2   -1    0    0  501    0  0.00000000000E+00  0.00000000000E+00 -0.17393036982E+04  0.17393036982E+04  0.25500000920E-02 0. -1.
    10030    2    1    2    0    0  0.00000000000E+00  0.00000000000E+00  0.29463959044E+03  0.37732469868E+04  0.37617257124E+04 0.  0.
        2    1    3    3  502    0 -0.80120945724E+03 -0.10644011369E+04  0.14790754295E+04  0.19906156084E+04  0.25500000920E-02 0.  1.
       -2    1    3    3    0  502  0.80120945724E+03  0.10644011369E+04 -0.11844358390E+04  0.17826313784E+04  0.25500000920E-02 0. -1.
</event>
<event>
 5   0  0.7124627E-07  0.3719414E+04  0.7818609E-02  0.8063673E-01
       -2   -1    0    0    0  501  0.00000000000E+00  0.00000000000E+00  0.19231015287E+04  0.19231015287E+04  0.25500000920E-02 0. -1.
        2   -1    0    0  501    0  0.00000000000E+00  0.00000000000E+00 -0.17984023268E+04  0.17984023268E+04  0.25500000920E-02 0.  1.
    10030    2    1    2    0    0  0.00000000000E+00  0.00000000000E+00  0.12469920197E+03  0.37215038555E+04  0.37194140742E+04 0.  0.
        2    1    3    3  502    0 -0.67192698620E+02  0.70696096723E+03  0.17820944106E+04  0.19183766982E+04  0.25500000920E-02 0. -1.
       -2    1    3    3    0  502  0.67192698620E+02 -0.70696096723E+03 -0.16573952086E+04  0.18031271573E+04  0.25500000920E-02 0.  1.
</event>
<event>
 5   0  0.7300916E-07  0.3687669E+04  0.7818609E-02  0.8070700E-01
        2   -1    0    0  501    0  0.00000000000E+00  0.00000000000E+00  0.24835629300E+04  0.24835629300E+04  0.25500000920E-02 0. -1.
       -2   -1    0    0    0  501  0.00000000000E+00  0.00000000000E+00 -0.13688905087E+04  0.13688905087E+04  0.25500000920E-02 0.  1.
    10030    2    1    2    0    0  0.00000000000E+00  0.00000000000E+00  0.11146724213E+04  0.38524534387E+04  0.36876690321E+04 0.  0.
        1    1    3    3  502    0  0.76748290078E+03  0.95202003520E+03 -0.88431185861E+03  0.15090989410E+04  0.50400001928E-02 0.  1.
       -1    1    3    3    0  502 -0.76748290078E+03 -0.95202003520E+03  0.19989842799E+04  0.23433544977E+04  0.50400001928E-02 0. -1.
</event>
<event>
 5   0  0.2287500E-07  0.3621780E+04  0.7818609E-02  0.8085521E-01
       -1   -1    0    0    0  501  0.00000000000E+00  0.00000000000E+00  0.14321852456E+04  0.14321852456E+04  0.50400001928E-02 0.  1.
        1   -1    0    0  501    0  0.00000000000E+00  0.00000000000E+00 -0.22897334533E+04  0.22897334533E+04  0.50400001928E-02 0. -1.
    10030    2    1    2    0    0  0.00000000000E+00  0.00000000000E+00 -0.85754820774E+03  0.37219186989E+04  0.36217799316E+04 0.  0.
        2    1    3    3  502    0  0.14546921434E+04  0.10739970168E+04 -0.53010907523E+03  0.18843074207E+04  0.25500000920E-02 0. -1.
       -2    1    3    3    0  502 -0.14546921434E+04 -0.10739970168E+04 -0.32743913252E+03  0.18376112782E+04  0.25500000920E-02 0.  1.
</event>
<event>
 5   0  0.6939921E-07  0.3693302E+04  0.7818609E-02  0.8069448E-01
       -2   -1    0    0    0  501  0.00000000000E+00  0.00000000000E+00  0.28402515626E+04  0.28402515626E+04  0.25500000920E-02 0. -1.
        2   -1    0    0  501    0  0.00000000000E+00  0.00000000000E+00 -0.12006398681E+04  0.12006398681E+04  0.25500000920E-02 0.  1.
    10030    2    1    2    0    0  0.00000000000E+00  0.00000000000E+00  0.16396116944E+04  0.40408914307E+04  0.36933016457E+04 0.  0.
        4    1    3    3  502    0 -0.14104758809E+04 -0.97358689130E+03  0.67485210299E+02  0.17151878940E+04  0.12699999809E+01 0.  1.
       -4    1    3    3    0  502  0.14104758809E+04  0.97358689130E+03  0.15721264841E+04  0.23257035367E+04  0.12699999809E+01 0. -1.
</event>
<event>
 5   0  0.6949625E-07  0.3701470E+04  0.7818609E-02  0.8067636E-01
        2   -1    0    0  501    0  0.00000000000E+00  0.00000000000E+00  0.19829584216E+04  0.19829584216E+04  0.25500000920E-02 0.  1.
       -2   -1    0    0    0  501  0.00000000000E+00  0.00000000000E+00 -0.17273282964E+04  0.17273282964E+04  0.25500000920E-02 0. -1.
    10030    2    1    2    0    0  0.00000000000E+00  0.00000000000E+00  0.25563012520E+03  0.37102867181E+04  0.37014700822E+04 0.  0.
        5    1    3    3  502    0  0.11524315534E+04 -0.29018907578E+03  0.15499579725E+04  0.19531256978E+04  0.46999998093E+01 0.  1.
       -5    1    3    3    0  502 -0.11524315534E+04  0.29018907578E+03 -0.12943278473E+04  0.17571610203E+04  0.46999998093E+01 0. -1.
</event>
<event>
 5   0  0.2287500E-07  0.3551461E+04  0.7818609E-02  0.8101702E-01
       -1   -1    0    0    0  501  0.00000000000E+00  0.00000000000E+00  0.16073700040E+04  0.16073700040E+04  0.50400001928E-02 0. -1.
        1   -1    0    0  501    0  0.00000000000E+00  0.00000000000E+00 -0.19617251041E+04  0.19617251041E+04  0.50400001928E-02 0.  1.
    10030    2    1    2    0    0  0.00000000000E+00  0.00000000000E+00 -0.35435510006E+03  0.35690951081E+04  0.35514605944E+04 0.  0.
        3    1    3    3  502    0  0.37377832637E+03  0.16617828503E+04 -0.68165177493E+03  0.18346339230E+04  0.10100000352E+00 0.  1.
       -3    1    3    3    0  502 -0.37377832637E+03 -0.16617828503E+04  0.32729667487E+03  0.17344611851E+04  0.10100000352E+00 0. -1.
</event>
<event>
 5   0  0.6949625E-07  0.3790754E+04  0.7818609E-02  0.8048142E-01
       -2   -1    0    0    0  501  0.00000000000E+00  0.00000000000E+00  0.12952434561E+04  0.12952434561E+04  0.25500000920E-02 0. -1.
        2   -1    0    0  501    0  0.00000000000E+00  0.00000000000E+00 -0.27735738187E+04  0.27735738187E+04  0.25500000920E-02 0.  1.
    10030    2    1    2    0    0  0.00000000000E+00  0.00000000000E+00 -0.14783303625E+04  0.40688172748E+04  0.37907536658E+04 0.  0.
        5    1    3    3  502    0 -0.85528388974E+03  0.16837478259E+04 -0.56637874581E+03  0.19716298453E+04  0.46999998093E+01 0.  1.
       -5    1    3    3    0  502  0.85528388974E+03 -0.16837478259E+04 -0.91195161673E+03  0.20971874295E+04  0.46999998093E+01 0. -1.
</event>
<event>
 5   0  0.2345471E-07  0.3728019E+04  0.7818609E-02  0.8061781E-01
        1   -1    0    0  501    0  0.00000000000E+00  0.00000000000E+00  0.21437390042E+04  0.21437390042E+04  0.50400001928E-02 0. -1.
       -1   -1    0    0    0  501  0.00000000000E+00  0.00000000000E+00 -0.16207806836E+04  0.16207806836E+04  0.50400001928E-02 0.  1.
    10030    2    1    2    0    0  0.00000000000E+00  0.00000000000E+00  0.52295832060E+03  0.37645196878E+04  0.37280186527E+04 0.  0.
        5    1    3    3  502    0 -0.14351801291E+04  0.11556705169E+04  0.54564578049E+03  0.19217356099E+04  0.46999998093E+01 0. -1.
       -5    1    3    3    0  502  0.14351801291E+04 -0.11556705169E+04 -0.22687459886E+02  0.18427840778E+04  0.46999998093E+01 0.  1.
</event>
<event>
 5   0  0.6949625E-07  0.3756258E+04  0.7818609E-02  0.8055608E-01
       -2   -1    0    0    0  501  0.00000000000E+00  0.00000000000E+00  0.15561492972E+04  0.15561492972E+04  0.25500000920E-02 0.  1.
        2   -1    0    0  501    0  0.00000000000E+00  0.00000000000E+00 -0.22667286171E+04  0.22667286171E+04  0.25500000920E-02 0. -1.
    10030    2    1    2    0    0  0.00000000000E+00  0.00000000000E+00 -0.71057931992E+03  0.38228779143E+04  0.37562577891E+04 0.  0.
        5    1    3    3  502    0  0.66241941892E+03  0.16239390346E+04 -0.10390449526E+04  0.20385323098E+04  0.46999998093E+01 0. -1.
       -5    1    3    3    0  502 -0.66241941892E+03 -0.16239390346E+04  0.32846563266E+03  0.17843456045E+04  0.46999998093E+01 0.  1.
</event>
<event>
 5   0  0.7124627E-07  0.3497598E+04  0.7818609E-02  0.8114359E-01
        2   -1    0    0  501    0  0.00000000000E+00  0.00000000000E+00  0.24033495276E+04  0.24033495276E+04  0.25500000920E-02 0. -1.
       -2   -1    0    0    0  501  0.00000000000E+00  0.00000000000E+00 -0.12725147578E+04  0.12725147578E+04  0.25500000920E-02 0.  1.
    10030    2    1    2    0    0  0.00000000000E+00  0.00000000000E+00  0.11308347698E+04  0.36758642855E+04  0.34975978855E+04 0.  0.
        2    1    3    3  502    0 -0.77292725735E+03 -0.13022249996E+04 -0.35385922023E+03  0.15551279184E+04  0.25500000920E-02 0.  1.
       -2    1    3    3    0  502  0.77292725735E+03  0.13022249996E+04  0.14846939900E+04  0.21207363671E+04  0.25500000920E-02 0. -1.
</event>
<event>
 5   0  0.2411746E-07  0.3622210E+04  0.7818609E-02  0.8085423E-01
       -1   -1    0    0    0  501  0.00000000000E+00  0.00000000000E+00  0.17947690779E+04  0.17947690780E+04  0.50400001928E-02 0. -1.
        1   -1    0    0  501    0  0.00000000000E+00  0.00000000000E+00 -0.18275893945E+04  0.18275893945E+04  0.50400001928E-02 0.  1.
    10030    2    1    2    0    0  0.00000000000E+00  0.00000000000E+00 -0.32820316549E+02  0.36223584725E+04  0.36222097855E+04 0.  0.
        1    1    3    3  502    0  0.37028625449E+03 -0.17458026010E+04 -0.32490669508E+03  0.18139743638E+04  0.50400001928E-02 0. -1.
       -1    1    3    3    0  502 -0.37028625449E+03  0.17458026010E+04  0.29208637853E+03  0.18083841087E+04  0.50400001928E-02 0.  1.
</event>
<event>
 5   0  0.2287500E-07  0.3705289E+04  0.7818609E-02  0.8066791E-01
        1   -1    0    0  501    0  0.00000000000E+00  0.00000000000E+00  0.21430645937E+04  0.21430645937E+04  0.50400001928E-02 0. -1.
       -1   -1    0    0    0  501  0.00000000000E+00  0.00000000000E+00 -0.16015813938E+04  0.16015813938E+04  0.50400001928E-02 0.  1.
    10030    2    1    2    0    0  0.00000000000E+00  0.00000000000E+00  0.54148319988E+03  0.37446459876E+04  0.37052893971E+04 0.  0.
        3    1    3    3  502    0  0.68926370434E+03  0.15795007362E+04  0.95795348294E+03  0.19716951883E+04  0.10100000352E+00 0. -1.
       -3    1    3    3    0  502 -0.68926370434E+03 -0.15795007362E+04 -0.41647028306E+03  0.17729507993E+04  0.10100000352E+00 0.  1.
</event>
<event>
 5   0  0.6939921E-07  0.3688276E+04  0.7818609E-02  0.8070565E-01
       -2   -1    0    0    0  501  0.00000000000E+00  0.00000000000E+00  0.28415423129E+04  0.28415423129E+04  0.25500000920E-02 0.  1.
        2   -1    0    0  501    0  0.00000000000E+00  0.00000000000E+00 -0.11968307672E+04  0.11968307672E+04  0.25500000920E-02 0. -1.
    10030    2    1    2    0    0  0.00000000000E+00  0.00000000000E+00  0.16447115457E+04  0.40383730801E+04  0.36882761645E+04 0.  0.
        4    1    3    3  502    0 -0.15594767552E+03 -0.10396019840E+04  0.24813522457E+04  0.26948474062E+04  0.12699999809E+01 0.  1.
       -4    1    3    3    0  502  0.15594767552E+03  0.10396019840E+04 -0.83664069999E+03  0.13435256739E+04  0.12699999809E+01 0. -1.
</event>
<event>
 5   0  0.6939921E-07  0.3753016E+04  0.7818609E-02  0.8056313E-01
       -2   -1    0    0    0  501  0.00000000000E+00  0.00000000000E+00  0.20241456272E+04  0.20241456272E+04  0.25500000920E-02 0.  1.
        2   -1    0    0  501    0  0.00000000000E+00  0.00000000000E+00 -0.17396389663E+04  0.17396389663E+04  0.25500000920E-02 0. -1.
    10030    2    1    2    0    0  0.00000000000E+00  0.00000000000E+00  0.28450666088E+03  0.37637845935E+04  0.37530161771E+04 0.  0.
        4    1    3    3  502    0 -0.63496482023E+03  0.15922165191E+04 -0.62344719332E+03  0.18240125499E+04  0.12699999809E+01 0. -1.
       -4    1    3    3    0  502  0.63496482023E+03 -0.15922165191E+04  0.90795385420E+03  0.19397720435E+04  0.12699999809E+01 0.  1.
</event>
<event>
 5   0  0.7300916E-07  0.3657984E+04  0.7818609E-02  0.8077337E-01
        2   -1    0    0  501    0  0.00000000000E+00  0.00000000000E+00  0.24396688946E+04  0.24396688946E+04  0.25500000920E-02 0. -1.
       -2   -1    0    0    0  501  0.00000000000E+00  0.00000000000E+00 -0.13711747465E+04  0.13711747465E+04  0.25500000920E-02 0.  1.
    10030    2    1    2    0    0  0.00000000000E+00  0.00000000000E+00  0.10684941481E+04  0.38108436411E+04  0.36579843510E+04 0.  0.
        1    1    3    3  502    0 -0.25799955992E+02 -0.18021289912E+04  0.20998846954E+03  0.18145053585E+04  0.50400001928E-02 0. -1.
       -1    1    3    3    0  502  0.25799955992E+02  0.18021289912E+04  0.85850567858E+03  0.19963382826E+04  0.50400001928E-02 0.  1.
</event>
<event>
 5   0  0.6949625E-07  0.3634570E+04  0.7818609E-02  0.8082619E-01
        2   -1    0    0  501    0  0.00000000000E+00  0.00000000000E+00  0.23631027077E+04  0.23631027077E+04  0.25500000920E-02 0.  1.
       -2   -1    0    0    0  501  0.00000000000E+00  0.00000000000E+00 -0.13975375187E+04  0.13975375187E+04  0.25500000920E-02 0. -1.
    10030    2    1    2    0    0  0.00000000000E+00  0.00000000000E+00  0.96556518901E+03  0.37606402264E+04  0.36345699578E+04 0.  0.
        5    1    3    3  502    0  0.55545733774E+03  0.10473207413E+04 -0.94234125937E+03  0.15144116773E+04  0.46999998093E+01 0. -1.
       -5    1    3    3    0  502 -0.55545733774E+03 -0.10473207413E+04  0.19079064484E+04  0.22462285491E+04  0.46999998093E+01 0.  1.
</event>
<event>
 5   0  0.2287500E-07  0.3653117E+04  0.7818609E-02  0.8078432E-01
       -1   -1    0    0    0  501  0.00000000000E+00  0.00000000000E+00  0.16498331339E+04  0.16498331339E+04  0.50400001928E-02 0. -1.
        1   -1    0    0  501    0  0.00000000000E+00  0.00000000000E+00 -0.20222142722E+04  0.20222142722E+04  0.50400001928E-02 0.  1.
    10030    2    1    2    0    0  0.00000000000E+00  0.00000000000E+00 -0.37238113838E+03  0.36720474061E+04  0.36531170855E+04 0.  0.
        3    1    3    3  502    0 -0.65860256018E+03  0.75090864446E+03  0.13510133344E+04  0.16801363530E+04  0.10100000352E+00 0. -1.
       -3    1    3    3    0  502  0.65860256018E+03 -0.75090864446E+03 -0.17233944728E+04  0.19919110531E+04  0.10100000352E+00 0.  1.
</event>
<event>
 5   0  0.2411746E-07  0.3688242E+04  0.7818609E-02  0.8070572E-01
        1   -1    0    0  501    0  0.00000000000E+00  0.00000000000E+00  0.19679803819E+04  0.19679803819E+04  0.50400001928E-02 0.  1.
       -1   -1    0    0    0  501  0.00000000000E+00  0.00000000000E+00 -0.17280574130E+04  0.17280574130E+04  0.50400001928E-02 0. -1.
    10030    2    1    2    0    0  0.00000000000E+00  0.00000000000E+00  0.23992296891E+03  0.36960377949E+04  0.36882424473E+04 0.  0.
        1    1    3    3  502    0 -0.13829009145E+04  0.11957390599E+04 -0.12257535840E+03  0.18322749677E+04  0.50400001928E-02 0. -1.
       -1    1    3    3    0  502  0.13829009145E+04 -0.11957390599E+04  0.36249832731E+03  0.18637628272E+04  0.50400001928E-02 0.  1.
</event>
<event>
 5   0  0.7124627E-07  0.3732627E+04  0.7818609E-02  0.8060770E-01
        2   -1    0    0  501    0  0.00000000000E+00  0.00000000000E+00  0.19910197735E+04  0.19910197735E+04  0.25500000920E-02 0. -1.
       -2   -1    0    0    0  501  0.00000000000E+00  0.00000000000E+00 -0.17494181884E+04  0.17494181884E+04  0.25500000920E-02 0.  1.
    10030    2    1    2    0    0  0.00000000000E+00  0.00000000000E+00  0.24160158508E+03  0.37404379619E+04  0.37326270669E+04 0.  0.
        2    1    3    3  502    0 -0.17114327569E+04  0.72612964928E+03  0.28503351718E+03  0.18808270667E+04  0.25500000920E-02 0.  1.
       -2    1    3    3    0  502  0.17114327569E+04 -0.72612964928E+03 -0.43431932106E+02  0.18596108952E+04  0.25500000920E-02 0. -1.
</event>
<event>
 5   0  0.2345471E-07  0.3803641E+04  0.7818609E-02  0.8045374E-01
       -1   -1    0    0    0  501  0.00000000000E+00  0.00000000000E+00  0.23174475780E+04  0.23174475780E+04  0.50400001928E-02 0.  1.
        1   -1    0    0  501    0  0.00000000000E+00  0.00000000000E+00 -0.15607345108E+04  0.15607345108E+04  0.50400001928E-02 0. -1.
    10030    2    1    2    0    0  0.00000000000E+00  0.00000000000E+00  0.75671306719E+03  0.38781820887E+04  0.38036405781E+04 0.  0.
        5    1    3    3  502    0 -0.20925869236E+02 -0.16050843341E+04  0.14182282885E+04  0.21419914052E+04  0.46999998093E+01 0.  1.
       -5    1    3    3    0  502  0.20925869236E+02  0.16050843341E+04 -0.66151522135E+03  0.17361906835E+04  0.46999998093E+01 0. -1.
</event>
<event>
 5   0  0.2287500E-07  0.3605737E+04  0.7818609E-02  0.8089179E-01
        1   -1    0    0  501    0  0.00000000000E+00  0.00000000000E+00  0.21628181159E+04  0.21628181159E+04  0.50400001928E-02 0.  1.
       -1   -1    0    0    0  501  0.00000000000E+00  0.00000000000E+00 -0.15028242115E+04  0.15028242115E+04  0.50400001928E-02 0. -1.
    10030    2    1    2    0    0  0.00000000000E+00  0.00000000000E+00  0.65999390441E+03  0.36656423274E+04  0.36057373335E+04 0.  0.
        3    1    3    3  502    0  0.16987461127E+04  0.11003873378E+03 -0.27357423792E+03  0.17241489936E+04  0.10100000352E+00 0.  1.
       -3    1    3    3    0  502 -0.16987461127E+04 -0.11003873378E+03  0.93356814233E+03  0.19414933337E+04  0.10100000352E+00 0. -1.
</event>
<event>
 5   0  0.2287500E-07  0.3713238E+04  0.7818609E-02  0.8065034E-01
        1   -1    0    0  501    0  0.00000000000E+00  0.00000000000E+00  0.18697333687E+04  0.18697333687E+04  0.50400001928E-02 0. -1.
       -1   -1    0    0    0  501  0.00000000000E+00  0.00000000000E+00 -0.18435965899E+04  0.18435965899E+04  0.50400001928E-02 0.  1.
    10030    2    1    2    0    0  0.00000000000E+00  0.00000000000E+00  0.26136778848E+02  0.37133299586E+04  0.37132379738E+04 0.  0.
        2    1    3    3  502    0  0.27990457249E+03  0.17329986455E+04 -0.59143247190E+03  0.18524101176E+04  0.25500000920E-02 0. -1.
       -2    1    3    3    0  502 -0.27990457249E+03 -0.17329986455E+04  0.61756925075E+03  0.18609198410E+04  0.25500000920E-02 0.  1.
</event>
<event>
 5   0  0.7124627E-07  0.3859199E+04  0.7818609E-02  0.8033569E-01
       -2   -1    0    0    0  501  0.00000000000E+00  0.00000000000E+00  0.21702631940E+04  0.21702631940E+04  0.25500000920E-02 0.  1.
        2   -1    0    0  501    0  0.00000000000E+00  0.00000000000E+00 -0.17156236516E+04  0.17156236516E+04  0.25500000920E-02 0. -1.
    10030    2    1    2    0    0  0.00000000000E+00  0.00000000000E+00  0.45463954243E+03  0.38858868456E+04  0.38591993293E+04 0.  0.
        2    1    3    3  502    0 -0.74566672179E+03  0.29123830052E+03 -0.15405311020E+04  0.17361090645E+04  0.25500000920E-02 0. -1.
       -2    1    3    3    0  502  0.74566672179E+03 -0.29123830052E+03  0.19951706444E+04  0.21497777811E+04  0.25500000920E-02 0.  1.
</event>
<event>
 5   0  0.7074157E-07  0.4091047E+04  0.7818609E-02  0.7986427E-01
        2   -1    0    0  501    0  0.00000000000E+00  0.00000000000E+00  0.14105248106E+04  0.14105248106E+04  0.25500000920E-02 0.  1.
       -2   -1    0    0    0  501  0.00000000000E+00  0.00000000000E+00 -0.29663893767E+04  0.29663893767E+04  0.25500000920E-02 0. -1.
    10030    2    1    2    0    0  0.00000000000E+00  0.00000000000E+00 -0.15558645661E+04  0.43769141873E+04  0.40910467188E+04 0.  0.
        3    1    3    3  502    0 -0.19722142189E+03  0.18028105270E+04  0.23429951749E+03  0.18286383895E+04  0.10100000352E+00 0.  1.
       -3    1    3    3    0  502  0.19722142189E+03 -0.18028105270E+04 -0.17901640836E+04  0.25482757978E+04  0.10100000352E+00 0. -1.
</event>
<event>
 5   0  0.2345471E-07  0.3186196E+04  0.7818609E-02  0.8192472E-01
       -1   -1    0    0    0  501  0.00000000000E+00  0.00000000000E+00  0.98230563781E+03  0.98230563782E+03  0.50400001928E-02 0.  1.
        1   -1    0    0  501    0  0.00000000000E+00  0.00000000000E+00 -0.25836785743E+04  0.25836785743E+04  0.50400001928E-02 0. -1.
    10030    2    1    2    0    0  0.00000000000E+00  0.00000000000E+00 -0.16013729365E+04  0.35659842121E+04  0.31861964973E+04 0.  0.
        5    1    3    3  502    0  0.93530961360E+03  0.10433615263E+04  0.47642300833E+02  0.14020339606E+04  0.46999998093E+01 0.  1.
       -5    1    3    3    0  502 -0.93530961360E+03 -0.10433615263E+04 -0.16490152373E+04  0.21639502515E+04  0.46999998093E+01 0. -1.
</event>
<event>
 5   0  0.2411746E-07  0.3272922E+04  0.7818609E-02  0.8169820E-01
       -1   -1    0    0    0  501  0.00000000000E+00  0.00000000000E+00  0.17288866187E+04  0.17288866187E+04  0.50400001928E-02 0. -1.
        1   -1    0    0  501    0  0.00000000000E+00  0.00000000000E+00 -0.15489765715E+04  0.15489765716E+04  0.50400001928E-02 0.  1.
    10030    2    1    2    0    0  0.00000000000E+00  0.00000000000E+00  0.17991004711E+03  0.32778631902E+04  0.32729221605E+04 0.  0.
        1    1    3    3  502    0  0.16383537615E+03 -0.24993665860E+03 -0.15214159914E+04  0.15504892721E+04  0.50400001928E-02 0.  1.
       -1    1    3    3    0  502 -0.16383537615E+03  0.24993665860E+03  0.17013260385E+04  0.17273739182E+04  0.50400001928E-02 0. -1.
</event>
<event>
 5   0  0.2345471E-07  0.3302780E+04  0.7818609E-02  0.8162188E-01
       -1   -1    0    0    0  501  0.00000000000E+00  0.00000000000E+00  0.12757866002E+04  0.12757866002E+04  0.50400001928E-02 0. -1.
        1   -1    0    0  501    0  0.00000000000E+00  0.00000000000E+00 -0.21375743430E+04  0.21375743430E+04  0.50400001928E-02 0.  1.
    10030    2    1    2    0    0  0.00000000000E+00  0.00000000000E+00 -0.86178774280E+03  0.34133609432E+04  0.33027798617E+04 0.  0.
        5    1    3    3  502    0  0.15809252855E+04 -0.17753592238E+03  0.26907804661E+02  0.15910970687E+04  0.46999998093E+01 0. -1.
       -5    1    3    3    0  502 -0.15809252855E+04  0.17753592238E+03 -0.88869554746E+03  0.18222638745E+04  0.46999998093E+01 0.  1.
</event>
<event>
 5   0  0.6949625E-07  0.3669689E+04  0.7818609E-02  0.8074713E-01
        2   -1    0    0  501    0  0.00000000000E+00  0.00000000000E+00  0.24373434558E+04  0.24373434558E+04  0.25500000920E-02 0.  1.
       -2   -1    0    0    0  501  0.00000000000E+00  0.00000000000E+00 -0.13812798923E+04  0.13812798923E+04  0.25500000920E-02 0. -1.
    10030    2    1    2    0    0  0.00000000000E+00  0.00000000000E+00  0.10560635635E+04  0.38186233481E+04  0.36696885459E+04 0.  0.
        5    1    3    3  502    0  0.50502118691E+03  0.38267810522E+03  0.23198766243E+04  0.24048572875E+04  0.46999998093E+01 0.  1.
       -5    1    3    3    0  502 -0.50502118691E+03 -0.38267810522E+03 -0.12638130607E+04  0.14137660605E+04  0.46999998093E+01 0. -1.
</event>
<event>
 5   0  0.2287500E-07  0.3694071E+04  0.7818609E-02  0.8069277E-01
        3   -1    0    0  501    0  0.00000000000E+00  0.00000000000E+00  0.24902192006E+04  0.24902192027E+04  0.10100000352E+00 0. -1.
       -3   -1    0    0    0  501  0.00000000000E+00  0.00000000000E+00 -0.13699757683E+04  0.13699757720E+04  0.10100000352E+00 0.  1.
    10030    2    1    2    0    0  0.00000000000E+00  0.00000000000E+00  0.11202434323E+04  0.38601949747E+04  0.36940709109E+04 0.  0.
        5    1    3    3  502    0 -0.69948166735E+03  0.10961392604E+04 -0.81063180184E+03  0.15322995429E+04  0.46999998093E+01 0.  1.
       -5    1    3    3    0  502  0.69948166735E+03 -0.10961392604E+04  0.19308752342E+04  0.23278954317E+04  0.46999998093E+01 0. -1.
</event>
<event>
 5   0  0.7124627E-07  0.3713672E+04  0.7818609E-02  0.8064939E-01
       -2   -1    0    0    0  501  0.00000000000E+00  0.00000000000E+00  0.27338652827E+04  0.27338652827E+04  0.25500000920E-02 0. -1.
        2   -1    0    0  501    0  0.00000000000E+00  0.00000000000E+00 -0.12611591633E+04  0.12611591633E+04  0.25500000920E-02 0.  1.
    10030    2    1    2    0    0  0.00000000000E+00  0.00000000000E+00  0.14727061194E+04  0.39950244460E+04  0.37136716347E+04 0.  0.
        2    1    3    3  502    0  0.13695295429E+04 -0.11461037534E+04  0.18922050445E+03  0.17958199748E+04  0.25500000920E-02 0.  1.
       -2    1    3    3    0  502 -0.13695295429E+04  0.11461037534E+04  0.12834856149E+04  0.21992044712E+04  0.25500000920E-02 0. -1.
</event>
<event>
 5   0  0.7124627E-07  0.3700642E+04  0.7818609E-02  0.8067820E-01
       -2   -1    0    0    0  501  0.00000000000E+00  0.00000000000E+00  0.24085866874E+04  0.24085866874E+04  0.25500000920E-02 0.  1.
        2   -1    0    0  501    0  0.00000000000E+00  0.00000000000E+00 -0.14214511233E+04  0.14214511233E+04  0.25500000920E-02 0. -1.
    10030    2    1    2    0    0  0.00000000000E+00  0.00000000000E+00  0.98713556407E+03  0.38300378107E+04  0.37006422428E+04 0.  0.
        2    1    3    3  502    0 -0.23377035737E+03 -0.13417571135E+04  0.17898504587E+04  0.22491165812E+04  0.25500000920E-02 0.  1.
       -2    1    3    3    0  502  0.23377035737E+03  0.13417571135E+04 -0.80271489460E+03  0.15809212294E+04  0.25500000920E-02 0. -1.
</event>
<event>
 5   0  0.6949625E-07  0.3623651E+04  0.7818609E-02  0.8085096E-01
        2   -1    0    0  501    0  0.00000000000E+00  0.00000000000E+00  0.21916015712E+04  0.21916015712E+04  0.25500000920E-02 0.  1.
       -2   -1    0    0    0  501  0.00000000000E+00  0.00000000000E+00 -0.14978593584E+04  0.14978593584E+04  0.25500000920E-02 0. -1.
    10030    2    1    2    0    0  0.00000000000E+00  0.00000000000E+00  0.69374221280E+03  0.36894609297E+04  0.36236506032E+04 0.  0.
        5    1    3    3  502    0  0.70666791032E+03  0.16435699692E+04  0.55337085995E+02  0.17899123057E+04  0.46999998093E+01 0. -1.
       -5    1    3    3    0  502 -0.70666791032E+03 -0.16435699692E+04  0.63840512681E+03  0.18995486240E+04  0.46999998093E+01 0.  1.
</event>
<event>
 5   0  0.7300916E-07  0.3688063E+04  0.7818609E-02  0.8070612E-01
        2   -1    0    0  501    0  0.00000000000E+00  0.00000000000E+00  0.19688386009E+04  0.19688386009E+04  0.25500000920E-02 0.  1.
       -2   -1    0    0    0  501  0.00000000000E+00  0.00000000000E+00 -0.17271361356E+04  0.17271361356E+04  0.25500000920E-02 0. -1.
    10030    2    1    2    0    0  0.00000000000E+00  0.00000000000E+00  0.24170246529E+03  0.36959747365E+04  0.36880630650E+04 0.  0.
        1    1    3    3  502    0  0.10784122929E+04 -0.85956287135E+03 -0.11059607103E+04  0.17677586080E+04  0.50400001928E-02 0. -1.
       -1    1    3    3    0  502 -0.10784122929E+04  0.85956287135E+03  0.13476631756E+04  0.19282161285E+04  0.50400001928E-02 0.  1.
</event>
<event>
 5   0  0.7124627E-07  0.3228341E+04  0.7818609E-02  0.8181372E-01
       -2   -1    0    0    0  501  0.00000000000E+00  0.00000000000E+00  0.19767822547E+04  0.19767822547E+04  0.25500000920E-02 0.  1.
        2   -1    0    0  501    0  0.00000000000E+00  0.00000000000E+00 -0.13180743183E+04  0.13180743183E+04  0.25500000920E-02 0. -1.
    10030    2    1    2    0    0  0.00000000000E+00  0.00000000000E+00  0.65870793644E+03  0.32948565730E+04  0.32283407024E+04 0.  0.
        2    1    3    3  502    0 -0.86456685273E+03  0.24912387618E+03 -0.10384101627E+04  0.13739847941E+04  0.25500000920E-02 0. -1.
       -2    1    3    3    0  502  0.86456685273E+03 -0.24912387618E+03  0.16971180991E+04  0.19208717789E+04  0.25500000920E-02 0.  1.
</event>
<event>
 5   0  0.7300916E-07  0.3705049E+04  0.7818609E-02  0.8066844E-01
        2   -1    0    0  501    0  0.00000000000E+00  0.00000000000E+00  0.19830027603E+04  0.19830027603E+04  0.25500000920E-02 0. -1.
       -2   -1    0    0    0  501  0.00000000000E+00  0.00000000000E+00 -0.17306312184E+04  0.17306312184E+04  0.25500000920E-02 0.  1.
    10030    2    1    2    0    0  0.00000000000E+00  0.00000000000E+00  0.25237154191E+03  0.37136339788E+04  0.37050487086E+04 0.  0.
        1    1    3    3  502    0 -0.13132233108E+04  0.11948004779E+04 -0.40394701346E+03  0.18207901680E+04  0.50400001928E-02 0.  1.
       -1    1    3    3    0  502  0.13132233108E+04 -0.11948004779E+04  0.65631855537E+03  0.18928438108E+04  0.50400001928E-02 0. -1.
</event>
<event>
 5   0  0.2287500E-07  0.3527597E+04  0.7818609E-02  0.8107281E-01
        1   -1    0    0  501    0  0.00000000000E+00  0.00000000000E+00  0.21471484545E+04  0.21471484545E+04  0.50400001928E-02 0.  1.
       -1   -1    0    0    0  501  0.00000000000E+00  0.00000000000E+00 -0.14488918032E+04  0.14488918033E+04  0.50400001928E-02 0. -1.
    10030    2    1    2    0    0  0.00000000000E+00  0.00000000000E+00  0.69825665124E+03  0.35960402578E+04  0.35275973671E+04 0.  0.
        4    1    3    3  502    0  0.12466988876E+04 -0.12413207020E+04  0.22079300015E+03  0.17731007764E+04  0.12699999809E+01 0.  1.
       -4    1    3    3    0  502 -0.12466988876E+04  0.12413207020E+04  0.47746365109E+03  0.18229394813E+04  0.12699999809E+01 0. -1.
</event>
<event>
 5   0  0.2287500E-07  0.3910986E+04  0.7818609E-02  0.8022748E-01
       -1   -1    0    0    0  501  0.00000000000E+00  0.00000000000E+00  0.14919923321E+04  0.14919923321E+04  0.50400001928E-02 0.  1.
        1   -1    0    0  501    0  0.00000000000E+00  0.00000000000E+00 -0.25629840202E+04  0.25629840202E+04  0.50400001928E-02 0. -1.
    10030    2    1    2    0    0  0.00000000000E+00  0.00000000000E+00 -0.10709916880E+04  0.40549763523E+04  0.39109858120E+04 0.  0.
        4    1    3    3  502    0  0.73808554426E+03 -0.83375318703E+02  0.13400338388E+04  0.15321272846E+04  0.12699999809E+01 0.  1.
       -4    1    3    3    0  502 -0.73808554426E+03  0.83375318703E+02 -0.24110255268E+04  0.25228490677E+04  0.12699999809E+01 0. -1.
</event>
<event>
 5   0  0.2287500E-07  0.3645028E+04  0.7818609E-02  0.8080255E-01
        1   -1    0    0  501    0  0.00000000000E+00  0.00000000000E+00  0.21648846271E+04  0.21648846271E+04  0.50400001928E-02 0.  1.
       -1   -1    0    0    0  501  0.00000000000E+00  0.00000000000E+00 -0.15342882471E+04  0.15342882471E+04  0.50400001928E-02 0. -1.
    10030    2    1    2    0    0  0.00000000000E+00  0.00000000000E+00  0.63059638001E+03  0.36991728742E+04  0.36450278680E+04 0.  0.
        4    1    3    3  502    0 -0.51699420901E+03  0.10031115097E+04 -0.11370574033E+04  0.16020040151E+04  0.12699999809E+01 0. -1.
       -4    1    3    3    0  502  0.51699420901E+03 -0.10031115097E+04  0.17676537833E+04  0.20971688591E+04  0.12699999809E+01 0.  1.
</event>
<event>
 5   0  0.6939921E-07  0.3181257E+04  0.7818609E-02  0.8193785E-01
        2   -1    0    0  501    0  0.00000000000E+00  0.00000000000E+00  0.17723803590E+04  0.17723803590E+04  0.25500000920E-02 0. -1.
       -2   -1    0    0    0  501  0.00000000000E+00  0.00000000000E+00 -0.14275147279E+04  0.14275147279E+04  0.25500000920E-02 0.  1.
    10030    2    1    2    0    0  0.00000000000E+00  0.00000000000E+00  0.34486563107E+03  0.31998950869E+04  0.31812570257E+04 0.  0.
        4    1    3    3  502    0  0.13607915992E+04 -0.18388728505E+03 -0.63509643117E+03  0.15129168516E+04  0.12699999809E+01 0.  1.
       -4    1    3    3    0  502 -0.13607915992E+04  0.18388728505E+03  0.97996206224E+03  0.16869782353E+04  0.12699999809E+01 0. -1.
</event>
<event>
 5   0  0.2345471E-07  0.3580099E+04  0.7818609E-02  0.8095066E-01
        1   -1    0    0  501    0  0.00000000000E+00  0.00000000000E+00  0.22696257687E+04  0.22696257687E+04  0.50400001928E-02 0.  1.
       -1   -1    0    0    0  501  0.00000000000E+00  0.00000000000E+00 -0.14118086576E+04  0.14118086576E+04  0.50400001928E-02 0. -1.
    10030    2    1    2    0    0  0.00000000000E+00  0.00000000000E+00  0.85781711115E+03  0.36814344263E+04  0.35800990543E+04 0.  0.
        5    1    3    3  502    0 -0.47373746172E+03 -0.16374931680E+04 -0.13285501187E+03  0.17098197572E+04  0.46999998093E+01 0.  1.
       -5    1    3    3    0  502  0.47373746172E+03  0.16374931680E+04  0.99067212302E+03  0.19716146691E+04  0.46999998093E+01 0. -1.
</event>
<event>
 5   0  0.2287500E-07  0.2967775E+04  0.7818609E-02  0.8252993E-01
        1   -1    0    0  501    0  0.00000000000E+00  0.00000000000E+00  0.11469374139E+04  0.11469374139E+04  0.50400001928E-02 0. -1.
       -1   -1    0    0    0  501  0.00000000000E+00  0.00000000000E+00 -0.19198279594E+04  0.19198279595E+04  0.50400001928E-02 0.  1.
    10030    2    1    2    0    0  0.00000000000E+00  0.00000000000E+00 -0.77289054551E+03  0.30667653734E+04  0.29677752712E+04 0.  0.
        2    1    3    3  502    0  0.12706892753E+04 -0.34448126578E+03  0.32093428691E+03  0.13551078899E+04  0.25500000920E-02 0. -1.
       -2    1    3    3    0  502 -0.12706892753E+04  0.34448126578E+03 -0.10938248324E+04  0.17116574835E+04  0.25500000920E-02 0.  1.
</event>
<event>
 5   0  0.2287500E-07  0.3804525E+04  0.7818609E-02  0.8045185E-01
        1   -1    0    0  501    0  0.00000000000E+00  0.00000000000E+00  0.14953697776E+04  0.14953697777E+04  0.50400001928E-02 0. -1.
       -1   -1    0    0    0  501  0.00000000000E+00  0.00000000000E+00 -0.24198711672E+04  0.24198711672E+04  0.50400001928E-02 0.  1.
    10030    2    1    2    0    0  0.00000000000E+00  0.00000000000E+00 -0.92450138956E+03  0.39152409449E+04  0.38045247847E+04 0.  0.
        4    1    3    3  502    0 -0.39985171426E+03  0.11336219463E+03 -0.23725763502E+04  0.24087034959E+04  0.12699999809E+01 0.  1.
       -4    1    3    3    0  502  0.39985171426E+03 -0.11336219463E+03  0.14480749607E+04  0.15065374490E+04  0.12699999809E+01 0. -1.
</event>
<event>
 5   0  0.2287500E-07  0.3655483E+04  0.7818609E-02  0.8077900E-01
        1   -1    0    0  501    0  0.00000000000E+00  0.00000000000E+00  0.15599635984E+04  0.15599635984E+04  0.50400001928E-02 0.  1.
       -1   -1    0    0    0  501  0.00000000000E+00  0.00000000000E+00 -0.21414851704E+04  0.21414851704E+04  0.50400001928E-02 0. -1.
    10030    2    1    2    0    0  0.00000000000E+00  0.00000000000E+00 -0.58152157204E+03  0.37014487688E+04  0.36554829571E+04 0.  0.
        4    1    3    3  502    0  0.17452260345E+04 -0.24984584165E+03  0.19738040400E+03  0.17740342423E+04  0.12699999809E+01 0.  1.
       -4    1    3    3    0  502 -0.17452260345E+04  0.24984584165E+03 -0.77890197604E+03  0.19274145265E+04  0.12699999809E+01 0. -1.
</event>
<event>
 5   0  0.7074157E-07  0.3702607E+04  0.7818609E-02  0.8067384E-01
        2   -1    0    0  501    0  0.00000000000E+00  0.00000000000E+00  0.18995390562E+04  0.18995390562E+04  0.25500000920E-02 0.  1.
       -2   -1    0    0    0  501  0.00000000000E+00  0.00000000000E+00 -0.18042931441E+04  0.18042931441E+04  0.25500000920E-02 0. -1.
    10030    2    1    2    0    0  0.00000000000E+00  0.00000000000E+00  0.95245912055E+02  0.37038322003E+04  0.37026073494E+04 0.  0.
        3    1    3    3  502    0  0.22971566386E+03  0.10862238830E+04  0.15295561345E+04  0.18900247588E+04  0.10100000352E+00 0.  1.
       -3    1    3    3    0  502 -0.22971566386E+03 -0.10862238830E+04 -0.14343102224E+04  0.18138074414E+04  0.10100000352E+00 0. -1.
</event>
<event>
 5   0  0.2287500E-07  0.3668643E+04  0.7818609E-02  0.8074947E-01
        1   -1    0    0  501    0  0.00000000000E+00  0.00000000000E+00  0.33089205051E+04  0.33089205051E+04  0.50400001928E-02 0. -1.
       -1   -1    0    0    0  501  0.00000000000E+00  0.00000000000E+00 -0.10168678281E+04  0.10168678281E+04  0.50400001928E-02 0.  1.
    10030    2    1    2    0    0  0.00000000000E+00  0.00000000000E+00  0.22920526771E+04  0.43257883332E+04  0.36686426958E+04 0.  0.
        2    1    3    3  502    0  0.63041430051E+03  0.41415128056E+03  0.31175964516E+04  0.32075459636E+04  0.25500000920E-02 0. -1.
       -2    1    3    3    0  502 -0.63041430051E+03 -0.41415128056E+03 -0.82554377454E+03  0.11182423696E+04  0.25500000920E-02 0.  1.
</event>
<event>
 5   0  0.7074157E-07  0.3656784E+04  0.7818609E-02  0.8077607E-01
        2   -1    0    0  501    0  0.00000000000E+00  0.00000000000E+00  0.18838204753E+04  0.18838204753E+04  0.25500000920E-02 0. -1.
       -2   -1    0    0    0  501  0.00000000000E+00  0.00000000000E+00 -0.17745942775E+04  0.17745942775E+04  0.25500000920E-02 0.  1.
    10030    2    1    2    0    0  0.00000000000E+00  0.00000000000E+00  0.10922619777E+03  0.36584147529E+04  0.36567838522E+04 0.  0.
        3    1    3    3  502    0  0.58670995657E+02  0.88586089611E+03 -0.15444818294E+04  0.17814645505E+04  0.10100000352E+00 0.  1.
       -3    1    3    3    0  502 -0.58670995657E+02 -0.88586089611E+03  0.16537080272E+04  0.18769502024E+04  0.10100000352E+00 0. -1.
</event>
<event>
 5   0  0.2345471E-07  0.3500418E+04  0.7818609E-02  0.8113691E-01
       -1   -1    0    0    0  501  0.00000000000E+00  0.00000000000E+00  0.15354876774E+04  0.15354876774E+04  0.50400001928E-02 0. -1.
        1   -1    0    0  501    0  0.00000000000E+00  0.00000000000E+00 -0.19949569700E+04  0.19949569700E+04  0.50400001928E-02 0.  1.
    10030    2    1    2    0    0  0.00000000000E+00  0.00000000000E+00 -0.45946929264E+03  0.35304446474E+04  0.35004181718E+04 0.  0.
        5    1    3    3  502    0  0.16891445765E+04 -0.21395780118E+03 -0.63845446038E+03  0.18184151146E+04  0.46999998093E+01 0.  1.
       -5    1    3    3    0  502 -0.16891445765E+04  0.21395780118E+03  0.17898516775E+03  0.17120295328E+04  0.46999998093E+01 0. -1.
</event>
<event>
 5   0  0.7074157E-07  0.3771682E+04  0.7818609E-02  0.8052259E-01
       -2   -1    0    0    0  501  0.00000000000E+00  0.00000000000E+00  0.17814729174E+04  0.17814729174E+04  0.25500000920E-02 0. -1.
        2   -1    0    0  501    0  0.00000000000E+00  0.00000000000E+00 -0.19963232161E+04  0.19963232161E+04  0.25500000920E-02 0.  1.
    10030    2    1    2    0    0  0.00000000000E+00  0.00000000000E+00 -0.21485029869E+03  0.37777961335E+04  0.37716817171E+04 0.  0.
        3    1    3    3  502    0  0.37744753867E+03  0.12553850066E+04 -0.14653284984E+04  0.19661245580E+04  0.10100000352E+00 0.  1.
       -3    1    3    3    0  502 -0.37744753867E+03 -0.12553850066E+04  0.12504781997E+04  0.18116715755E+04  0.10100000352E+00 0. -1.
</event>
<event>
 5   0  0.2287500E-07  0.3039804E+04  0.7818609E-02  0.8232455E-01
        1   -1    0    0  501    0  0.00000000000E+00  0.00000000000E+00  0.13890638791E+04  0.13890638791E+04  0.50400001928E-02 0. -1.
       -1   -1    0    0    0  501  0.00000000000E+00  0.00000000000E+00 -0.16630634735E+04  0.16630634735E+04  0.50400001928E-02 0.  1.
    10030    2    1    2    0    0  0.00000000000E+00  0.00000000000E+00 -0.27399959447E+03  0.30521273526E+04  0.30398035461E+04 0.  0.
        3    1    3    3  502    0 -0.81575203321E+02 -0.10857348054E+04  0.92778379316E+03  0.14304745222E+04  0.10100000352E+00 0. -1.
       -3    1    3    3    0  502  0.81575203321E+02  0.10857348054E+04 -0.12017833876E+04  0.16216528304E+04  0.10100000352E+00 0.  1.
</event>
<event>
 5   0  0.2345471E-07  0.3692541E+04  0.7818609E-02  0.8069617E-01
        1   -1    0    0  501    0  0.00000000000E+00  0.00000000000E+00  0.25460441228E+04  0.25460441228E+04  0.50400001928E-02 0. -1.
       -1   -1    0    0    0  501  0.00000000000E+00  0.00000000000E+00 -0.13388277472E+04  0.13388277472E+04  0.50400001928E-02 0.  1.
    10030    2    1    2    0    0  0.00000000000E+00  0.00000000000E+00  0.12072163756E+04  0.38848718701E+04  0.36925408690E+04 0.  0.
        5    1    3    3  502    0  0.12587902432E+03  0.15511725189E+04 -0.44146405026E+03  0.16176817703E+04  0.46999998093E+01 0.  1.
       -5    1    3    3    0  502 -0.12587902432E+03 -0.15511725189E+04  0.16486804259E+04  0.22671900998E+04  0.46999998093E+01 0. -1.
</event>
<event>
 5   0  0.7074157E-07  0.2839167E+04  0.7818609E-02  0.8291211E-01
        2   -1    0    0  501    0  0.00000000000E+00  0.00000000000E+00  0.25357924190E+04  0.25357924190E+04  0.25500000920E-02 0.  1.
       -2   -1    0    0    0  501  0.00000000000E+00  0.00000000000E+00 -0.79470900397E+03  0.79470900397E+03  0.25500000920E-02 0. -1.
    10030    2    1    2    0    0  0.00000000000E+00  0.00000000000E+00  0.17410834150E+04  0.33305014229E+04  0.28391668268E+04 0.  0.
        3    1    3    3  502    0 -0.10186877691E+03 -0.10972659127E+04  0.19203103033E+04  0.22140373534E+04  0.10100000352E+00 0.  1.
       -3    1    3    3    0  502  0.10186877691E+03  0.10972659127E+04 -0.17922688831E+03  0.11164640696E+04  0.10100000352E+00 0. -1.
</event>
<event>
 5   0  0.2287500E-07  0.3732814E+04  0.7818609E-02  0.8060729E-01
       -1   -1    0    0    0  501  0.00000000000E+00  0.00000000000E+00  0.24474756085E+04  0.24474756085E+04  0.50400001928E-02 0. -1.
        1   -1    0    0  501    0  0.00000000000E+00  0.00000000000E+00 -0.14232927424E+04  0.14232927424E+04  0.50400001928E-02 0.  1.
    10030    2    1    2    0    0  0.00000000000E+00  0.00000000000E+00  0.10241828661E+04  0.38707683509E+04  0.37328135613E+04 0.  0.
        3    1    3    3  502    0 -0.12494788526E+03  0.94208836242E+03 -0.11536157549E+04  0.14946477099E+04  0.10100000352E+00 0.  1.
       -3    1    3    3    0  502  0.12494788526E+03 -0.94208836242E+03  0.21777986210E+04  0.23761206410E+04  0.10100000352E+00 0. -1.
</event>
<event>
 5   0  0.2287500E-07  0.3615968E+04  0.7818609E-02  0.8086844E-01
       -1   -1    0    0    0  501  0.00000000000E+00  0.00000000000E+00  0.13505935755E+04  0.13505935755E+04  0.50400001928E-02 0.  1.
        1   -1    0    0  501    0  0.00000000000E+00  0.00000000000E+00 -0.24202738947E+04  0.24202738947E+04  0.50400001928E-02 0. -1.
    10030    2    1    2    0    0  0.00000000000E+00  0.00000000000E+00 -0.10696803192E+04  0.37708674702E+04  0.36159681266E+04 0.  0.
        2    1    3    3  502    0 -0.10613596527E+04 -0.14027570356E+04 -0.99095294735E+02  0.17618261807E+04  0.25500000920E-02 0.  1.
       -2    1    3    3    0  502  0.10613596527E+04  0.14027570356E+04 -0.97058502442E+03  0.20090412895E+04  0.25500000920E-02 0. -1.
</event>
<event>
 5   0  0.7124627E-07  0.2727686E+04  0.7818609E-02  0.8326077E-01
        2   -1    0    0  501    0  0.00000000000E+00  0.00000000000E+00  0.22781447627E+04  0.22781447627E+04  0.25500000920E-02 0.  1.
       -2   -1    0    0    0  501  0.00000000000E+00  0.00000000000E+00 -0.81648374513E+03  0.81648374514E+03  0.25500000920E-02 0. -1.
    10030    2    1    2    0    0  0.00000000000E+00  0.00000000000E+00  0.14616610176E+04  0.30946285078E+04  0.27276863220E+04 0.  0.
        2    1    3    3  502    0  0.10882789267E+04 -0.21010849803E+03  0.16324543359E+04  0.19731709916E+04  0.25500000920E-02 0.  1.
       -2    1    3    3    0  502 -0.10882789267E+04  0.21010849803E+03 -0.17079331831E+03  0.11214575163E+04  0.25500000920E-02 0. -1.
</event>
<event>
 5   0  0.7124627E-07  0.3802968E+04  0.7818609E-02  0.8045518E-01
        2   -1    0    0  501    0  0.00000000000E+00  0.00000000000E+00  0.21620398040E+04  0.21620398040E+04  0.25500000920E-02 0.  1.
       -2   -1    0    0    0  501  0.00000000000E+00  0.00000000000E+00 -0.16723290568E+04  0.16723290568E+04  0.25500000920E-02 0. -1.
    10030    2    1    2    0    0  0.00000000000E+00  0.00000000000E+00  0.48971074714E+03  0.38343688608E+04  0.38029683071E+04 0.  0.
        2    1    3    3  502    0  0.10036819425E+04 -0.13605627749E+04 -0.63246337069E+03  0.18051366767E+04  0.25500000920E-02 0. -1.
       -2    1    3    3    0  502 -0.10036819425E+04  0.13605627749E+04  0.11221741178E+04  0.20292321841E+04  0.25500000920E-02 0.  1.
</event>
<event>
 5   0  0.6939921E-07  0.3559986E+04  0.7818609E-02  0.8099719E-01
        2   -1    0    0  501    0  0.00000000000E+00  0.00000000000E+00  0.25969390889E+04  0.25969390889E+04  0.25500000920E-02 0.  1.
       -2   -1    0    0    0  501  0.00000000000E+00  0.00000000000E+00 -0.12200423607E+04  0.12200423607E+04  0.25500000920E-02 0. -1.
    10030    2    1    2    0    0  0.00000000000E+00  0.00000000000E+00  0.13768967283E+04  0.38169814496E+04  0.35599863463E+04 0.  0.
        4    1    3    3  502    0 -0.76850030685E+03 -0.11816152024E+04 -0.47702102307E+03  0.14880718657E+04  0.12699999809E+01 0. -1.
       -4    1    3    3    0  502  0.76850030685E+03  0.11816152024E+04  0.18539177513E+04  0.23289095839E+04  0.12699999809E+01 0.  1.
</event>
<event>
 5   0  0.7300916E-07  0.3386236E+04  0.7818609E-02  0.8141293E-01
        2   -1    0    0  501    0  0.00000000000E+00  0.00000000000E+00  0.15403973378E+04  0.15403973378E+04  0.25500000920E-02 0.  1.
       -2   -1    0    0    0  501  0.00000000000E+00  0.00000000000E+00 -0.18609803573E+04  0.18609803573E+04  0.25500000920E-02 0. -1.
    10030    2    1    2    0    0  0.00000000000E+00  0.00000000000E+00 -0.32058301957E+03  0.34013776951E+04  0.33862363698E+04 0.  0.
        1    1    3    3  502    0 -0.15698498079E+04  0.61803366679E+03 -0.17334525239E+02  0.16872150184E+04  0.50400001928E-02 0.  1.
       -1    1    3    3    0  502  0.15698498079E+04 -0.61803366679E+03 -0.30324849433E+03  0.17141626766E+04  0.50400001928E-02 0. -1.
</event>
<event>
 5   0  0.6949625E-07  0.3705740E+04  0.7818609E-02  0.8066691E-01
       -2   -1    0    0    0  501  0.00000000000E+00  0.00000000000E+00  0.18822184315E+04  0.18822184315E+04  0.25500000920E-02 0.  1.
        2   -1    0    0  501    0  0.00000000000E+00  0.00000000000E+00 -0.18239790388E+04  0.18239790388E+04  0.25500000920E-02 0. -1.
    10030    2    1    2    0    0  0.00000000000E+00  0.00000000000E+00  0.58239392672E+02  0.37061974703E+04  0.37057398536E+04 0.  0.
        5    1    3    3  502    0  0.15477398046E+04  0.58653237478E+02  0.10461848870E+04  0.18690809540E+04  0.46999998093E+01 0.  1.
       -5    1    3    3    0  502 -0.15477398046E+04 -0.58653237478E+02 -0.98794549429E+03  0.18371165163E+04  0.46999998093E+01 0. -1.
</event>
<event>
 5   0  0.7124627E-07  0.3428955E+04  0.7818609E-02  0.8130836E-01
        2   -1    0    0  501    0  0.00000000000E+00  0.00000000000E+00  0.21354056033E+04  0.21354056033E+04  0.25500000920E-02 0.  1.
       -2   -1    0    0    0  501  0.00000000000E+00  0.00000000000E+00 -0.13765219254E+04  0.13765219254E+04  0.25500000920E-02 0. -1.
    10030    2    1    2    0    0  0.00000000000E+00  0.00000000000E+00  0.75888367790E+03  0.35119275286E+04  0.34289547284E+04 0.  0.
        2    1    3    3  502    0  0.12522269400E+04 -0.97246002733E+03 -0.28878873859E+03  0.16115674821E+04  0.25500000920E-02 0. -1.
       -2    1    3    3    0  502 -0.12522269400E+04  0.97246002733E+03  0.10476724165E+04  0.19003600465E+04  0.25500000920E-02 0.  1.
</event>
<event>
 5   0  0.7300916E-07  0.3633439E+04  0.7818609E-02  0.8082875E-01
       -2   -1    0    0    0  501  0.00000000000E+00  0.00000000000E+00  0.14108387851E+04  0.14108387852E+04  0.25500000920E-02 0. -1.
        2   -1    0    0  501    0  0.00000000000E+00  0.00000000000E+00 -0.23393669646E+04  0.23393669646E+04  0.25500000920E-02 0.  1.
    10030    2    1    2    0    0  0.00000000000E+00  0.00000000000E+00 -0.92852817941E+03  0.37502057497E+04  0.36334389475E+04 0.  0.
        1    1    3    3  502    0 -0.10648325011E+04 -0.42589651737E+03  0.98999183996E+03  0.15150379342E+04  0.50400001928E-02 0. -1.
       -1    1    3    3    0  502  0.10648325011E+04  0.42589651737E+03 -0.19185200194E+04  0.22351678155E+04  0.50400001928E-02 0.  1.
</event>
<event>
 5   0  0.2287500E-07  0.3694287E+04  0.7818609E-02  0.8069229E-01
       -1   -1    0    0    0  501  0.00000000000E+00  0.00000000000E+00  0.14744642208E+04  0.14744642208E+04  0.50400001928E-02 0.  1.
        1   -1    0    0  501    0  0.00000000000E+00  0.00000000000E+00 -0.23140193433E+04  0.23140193433E+04  0.50400001928E-02 0. -1.
    10030    2    1    2    0    0  0.00000000000E+00  0.00000000000E+00 -0.83955512247E+03  0.37884835641E+04  0.36942867933E+04 0.  0.
        3    1    3    3  502    0  0.37360784340E+03 -0.40891811091E+03  0.13872947193E+04  0.14937816074E+04  0.10100000352E+00 0.  1.
       -3    1    3    3    0  502 -0.37360784340E+03  0.40891811091E+03 -0.22268498418E+04  0.22947019567E+04  0.10100000352E+00 0. -1.
</event>
<event>
 5   0  0.6949625E-07  0.3565357E+04  0.7818609E-02  0.8098473E-01
       -2   -1    0    0    0  501  0.00000000000E+00  0.00000000000E+00  0.14710934647E+04  0.14710934647E+04  0.25500000920E-02 0. -1.
        2   -1    0    0  501    0  0.00000000000E+00  0.00000000000E+00 -0.21602589510E+04  0.21602589510E+04  0.25500000920E-02 0.  1.
    10030    2    1    2    0    0  0.00000000000E+00  0.00000000000E+00 -0.68916548635E+03  0.36313524157E+04  0.35653571069E+04 0.  0.
        5    1    3    3  502    0 -0.17275641231E+04  0.14728402159E+03  0.77516119010E+02  0.17355694227E+04  0.46999998093E+01 0. -1.
       -5    1    3    3    0  502  0.17275641231E+04 -0.14728402159E+03 -0.76668160536E+03  0.18957829930E+04  0.46999998093E+01 0.  1.
</event>
<event>
 5   0  0.2287500E-07  0.3632811E+04  0.7818609E-02  0.8083017E-01
       -1   -1    0    0    0  501  0.00000000000E+00  0.00000000000E+00  0.30495985704E+04  0.30495985704E+04  0.50400001928E-02 0. -1.
        1   -1    0    0  501    0  0.00000000000E+00  0.00000000000E+00 -0.10818894494E+04  0.10818894495E+04  0.50400001928E-02 0.  1.
    10030    2    1    2    0    0  0.00000000000E+00  0.00000000000E+00  0.19677091209E+04  0.41314880199E+04  0.36328107677E+04 0.  0.
        4    1    3    3  502    0  0.12200271060E+04  0.13177150316E+04  0.12942436704E+04  0.22135734311E+04  0.12699999809E+01 0. -1.
       -4    1    3    3    0  502 -0.12200271060E+04 -0.13177150316E+04  0.67346545050E+03  0.19179145887E+04  0.12699999809E+01 0.  1.
</event>
<event>
 5   0  0.7300916E-07  0.3721875E+04  0.7818609E-02  0.8063131E-01
        2   -1    0    0  501    0  0.00000000000E+00  0.00000000000E+00  0.15355636257E+04  0.15355636257E+04  0.25500000920E-02 0. -1.
       -2   -1    0    0    0  501  0.00000000000E+00  0.00000000000E+00 -0.22552553439E+04  0.22552553439E+04  0.25500000920E-02 0.  1.
    10030    2    1    2    0    0  0.00000000000E+00  0.00000000000E+00 -0.71969171822E+03  0.37908189695E+04  0.37218748354E+04 0.  0.
        1    1    3    3  502    0 -0.14121017570E+04 -0.91859096809E+03 -0.11652191180E+04  0.20483106043E+04  0.50400001928E-02 0.  1.
       -1    1    3    3    0  502  0.14121017570E+04  0.91859096809E+03  0.44552739977E+03  0.17425083652E+04  0.50400001928E-02 0. -1.
</event>
<event>
 5   0  0.7124627E-07  0.4383269E+04  0.7818609E-02  0.7931398E-01
       -2   -1    0    0    0  501  0.00000000000E+00  0.00000000000E+00  0.21662015236E+04  0.21662015236E+04  0.25500000920E-02 0.  1.
        2   -1    0    0  501    0  0.00000000000E+00  0.00000000000E+00 -0.22173661832E+04  0.22173661832E+04  0.25500000920E-02 0. -1.
    10030    2    1    2    0    0  0.00000000000E+00  0.00000000000E+00 -0.51164659579E+02  0.43835677068E+04  0.43832691017E+04 0.  0.
        2    1    3    3  502    0  0.12140460001E+04 -0.49218606658E+03 -0.17827185839E+04  0.22122930104E+04  0.25500000920E-02 0. -1.
       -2    1    3    3    0  502 -0.12140460001E+04  0.49218606658E+03  0.17315539243E+04  0.21712746964E+04  0.25500000920E-02 0.  1.
</event>
<event>
 5   0  0.2345471E-07  0.3620927E+04  0.7818609E-02  0.8085715E-01
       -1   -1    0    0    0  501  0.00000000000E+00  0.00000000000E+00  0.25135000278E+04  0.25135000278E+04  0.50400001928E-02 0. -1.
        1   -1    0    0  501    0  0.00000000000E+00  0.00000000000E+00 -0.13040695298E+04  0.13040695298E+04  0.50400001928E-02 0.  1.
    10030    2    1    2    0    0  0.00000000000E+00  0.00000000000E+00  0.12094304980E+04  0.38175695575E+04  0.36209273946E+04 0.  0.
        5    1    3    3  502    0 -0.67960689398E+03 -0.59386771685E+03 -0.10499801743E+04  0.13845666657E+04  0.46999998093E+01 0.  1.
       -5    1    3    3    0  502  0.67960689398E+03  0.59386771685E+03  0.22594106723E+04  0.24330028918E+04  0.46999998093E+01 0. -1.
</event>
<event>
 5   0  0.6939921E-07  0.3739633E+04  0.7818609E-02  0.8059235E-01
        2   -1    0    0  501    0  0.00000000000E+00  0.00000000000E+00  0.17212865658E+04  0.17212865658E+04  0.25500000920E-02 0.  1.
       -2   -1    0    0    0  501  0.00000000000E+00  0.00000000000E+00 -0.20311635896E+04  0.20311635896E+04  0.25500000920E-02 0. -1.
    10030    2    1    2    0    0  0.00000000000E+00  0.00000000000E+00 -0.30987702381E+03  0.37524501555E+04  0.37396334579E+04 0.  0.
        4    1    3    3  502    0 -0.12993219081E+04 -0.12340392933E+03 -0.14984624290E+04  0.19871731718E+04  0.12699999809E+01 0. -1.
       -4    1    3    3    0  502  0.12993219081E+04  0.12340392933E+03  0.11885854052E+04  0.17652769837E+04  0.12699999809E+01 0.  1.
</event>
<event>
 5   0  0.6949625E-07  0.3707344E+04  0.7818609E-02  0.8066336E-01
       -2   -1    0    0    0  501  0.00000000000E+00  0.00000000000E+00  0.12980521461E+04  0.12980521461E+04  0.25500000920E-02 0.  1.
        2   -1    0    0  501    0  0.00000000000E+00  0.00000000000E+00 -0.26471197209E+04  0.26471197209E+04  0.25500000920E-02 0. -1.
    10030    2    1    2    0    0  0.00000000000E+00  0.00000000000E+00 -0.13490675748E+04  0.39451718670E+04  0.37073437578E+04 0.  0.
        5    1    3    3  502    0 -0.29114530338E+03 -0.94515195494E+03 -0.23429099222E+04  0.25430939422E+04  0.46999998093E+01 0. -1.
       -5    1    3    3    0  502  0.29114530338E+03  0.94515195494E+03  0.99384234736E+03  0.14020779247E+04  0.46999998093E+01 0.  1.
</event>
<event>
 5   0  0.2287500E-07  0.2773849E+04  0.7818609E-02  0.8311433E-01
       -1   -1    0    0    0  501  0.00000000000E+00  0.00000000000E+00  0.10564502917E+04  0.10564502917E+04  0.50400001928E-02 0.  1.
        1   -1    0    0  501    0  0.00000000000E+00  0.00000000000E+00 -0.18207768452E+04  0.18207768452E+04  0.50400001928E-02 0. -1.
    10030    2    1    2    0    0  0.00000000000E+00  0.00000000000E+00 -0.76432655342E+03  0.28772271369E+04  0.27738494763E+04 0.  0.
        4    1    3    3  502    0  0.21626269564E+03 -0.21817827575E+03  0.10207161507E+04  0.10659429566E+04  0.12699999809E+01 0.  1.
       -4    1    3    3    0  502 -0.21626269564E+03  0.21817827575E+03 -0.17850427041E+04  0.18112841803E+04  0.12699999809E+01 0. -1.
</event>
<event>
 5   0  0.7300916E-07  0.3705693E+04  0.7818609E-02  0.8066701E-01
        2   -1    0    0  501    0  0.00000000000E+00  0.00000000000E+00  0.24224764694E+04  0.24224764694E+04  0.25500000920E-02 0.  1.
       -2   -1    0    0    0  501  0.00000000000E+00  0.00000000000E+00 -0.14171614158E+04  0.14171614158E+04  0.25500000920E-02 0. -1.
    10030    2    1    2    0    0  0.00000000000E+00  0.00000000000E+00  0.10053150537E+04  0.38396378852E+04  0.37056930165E+04 0.  0.
        1    1    3    3  502    0 -0.81663961180E+02  0.52924587839E+03 -0.13352295431E+04  0.14386132681E+04  0.50400001928E-02 0. -1.
       -1    1    3    3    0  502  0.81663961180E+02 -0.52924587839E+03  0.23405445968E+04  0.24010246171E+04  0.50400001928E-02 0.  1.
</event>
<event>
 5   0  0.2287500E-07  0.3626876E+04  0.7818609E-02  0.8084363E-01
       -3   -1    0    0    0  501  0.00000000000E+00  0.00000000000E+00  0.14822710910E+04  0.14822710944E+04  0.10100000352E+00 0. -1.
        3   -1    0    0  501    0  0.00000000000E+00  0.00000000000E+00 -0.22185932461E+04  0.22185932484E+04  0.10100000352E+00 0.  1.
    10030    2    1    2    0    0  0.00000000000E+00  0.00000000000E+00 -0.73632215517E+03  0.37008643428E+04  0.36268755931E+04 0.  0.
        2    1    3    3  502    0  0.15495630399E+04  0.13014878079E+03 -0.13201852829E+04  0.20398464405E+04  0.25500000920E-02 0.  1.
       -2    1    3    3    0  502 -0.15495630399E+04 -0.13014878079E+03  0.58386312772E+03  0.16610179023E+04  0.25500000920E-02 0. -1.
</event>
<event>
 5   0  0.2287500E-07  0.3657552E+04  0.7818609E-02  0.8077434E-01
        1   -1    0    0  501    0  0.00000000000E+00  0.00000000000E+00  0.19008917831E+04  0.19008917831E+04  0.50400001928E-02 0.  1.
       -1   -1    0    0    0  501  0.00000000000E+00  0.00000000000E+00 -0.17593961481E+04  0.17593961481E+04  0.50400001928E-02 0. -1.
    10030    2    1    2    0    0  0.00000000000E+00  0.00000000000E+00  0.14149563503E+03  0.36602879312E+04  0.36575520126E+04 0.  0.
        3    1    3    3  502    0 -0.18357813509E+03  0.28476777735E+03  0.18692086889E+04  0.18996670107E+04  0.10100000352E+00 0.  1.
       -3    1    3    3    0  502  0.18357813509E+03 -0.28476777735E+03 -0.17277130539E+04  0.17606209205E+04  0.10100000352E+00 0. -1.
</event>
<event>
 5   0  0.2287500E-07  0.3752347E+04  0.7818609E-02  0.8056459E-01
        1   -1    0    0  501    0  0.00000000000E+00  0.00000000000E+00  0.20687442776E+04  0.20687442777E+04  0.50400001928E-02 0. -1.
       -1   -1    0    0    0  501  0.00000000000E+00  0.00000000000E+00 -0.17015283015E+04  0.17015283015E+04  0.50400001928E-02 0.  1.
    10030    2    1    2    0    0  0.00000000000E+00  0.00000000000E+00  0.36721597618E+03  0.37702725791E+04  0.37523469653E+04 0.  0.
        3    1    3    3  502    0  0.46365364273E+03 -0.12305885225E+04  0.15281725982E+04  0.20160938253E+04  0.10100000352E+00 0.  1.
       -3    1    3    3    0  502 -0.46365364273E+03  0.12305885225E+04 -0.11609566220E+04  0.17541787539E+04  0.10100000352E+00 0. -1.
</event>
<event>
 5   0  0.2411746E-07  0.3639821E+04  0.7818609E-02  0.8081431E-01
       -1   -1    0    0    0  501  0.00000000000E+00  0.00000000000E+00  0.13481958047E+04  0.13481958047E+04  0.50400001928E-02 0. -1.
        1   -1    0    0  501    0  0.00000000000E+00  0.00000000000E+00 -0.24566718848E+04  0.24566718848E+04  0.50400001928E-02 0.  1.
    10030    2    1    2    0    0  0.00000000000E+00  0.00000000000E+00 -0.11084760801E+04  0.38048676895E+04  0.36398212750E+04 0.  0.
        1    1    3    3  502    0 -0.15999719585E+04 -0.42950746596E+03 -0.13418535858E+04  0.21318907048E+04  0.50400001928E-02 0.  1.
       -1    1    3    3    0  502  0.15999719585E+04  0.42950746596E+03  0.23337750574E+03  0.16729769847E+04  0.50400001928E-02 0. -1.
</event>
<event>
 5   0  0.7074157E-07  0.3824240E+04  0.7818609E-02  0.8040973E-01
        2   -1    0    0  501    0  0.00000000000E+00  0.00000000000E+00  0.26088075857E+04  0.26088075857E+04  0.25500000920E-02 0.  1.
       -2   -1    0    0    0  501  0.00000000000E+00  0.00000000000E+00 -0.14014843504E+04  0.14014843504E+04  0.25500000920E-02 0. -1.
    10030    2    1    2    0    0  0.00000000000E+00  0.00000000000E+00  0.12073232353E+04  0.40102919361E+04  0.38242400576E+04 0.  0.
        3    1    3    3  502    0  0.39603619378E+03  0.21118973990E+03 -0.13454630119E+04  0.14183499214E+04  0.10100000352E+00 0. -1.
       -3    1    3    3    0  502 -0.39603619378E+03 -0.21118973990E+03  0.25527862472E+04  0.25919420146E+04  0.10100000352E+00 0.  1.
</event>
<event>
 5   0  0.2287500E-07  0.3730074E+04  0.7818609E-02  0.8061330E-01
       -3   -1    0    0    0  501  0.00000000000E+00  0.00000000000E+00  0.24231440084E+04  0.24231440105E+04  0.10100000352E+00 0. -1.
        3   -1    0    0  501    0  0.00000000000E+00  0.00000000000E+00 -0.14354749370E+04  0.14354749406E+04  0.10100000352E+00 0.  1.
    10030    2    1    2    0    0  0.00000000000E+00  0.00000000000E+00  0.98766907138E+03  0.38586189510E+04  0.37300737278E+04 0.  0.
        3    1    3    3  502    0 -0.59544050922E+02 -0.14626276763E+04 -0.70164593135E+03  0.16233090392E+04  0.10100000352E+00 0.  1.
       -3    1    3    3    0  502  0.59544050922E+02  0.14626276763E+04  0.16893150027E+04  0.22353099119E+04  0.10100000352E+00 0. -1.
</event>
<event>
 5   0  0.7074157E-07  0.3598649E+04  0.7818609E-02  0.8090801E-01
        2   -1    0    0  501    0  0.00000000000E+00  0.00000000000E+00  0.18834037046E+04  0.18834037046E+04  0.25500000920E-02 0. -1.
       -2   -1    0    0    0  501  0.00000000000E+00  0.00000000000E+00 -0.17189992259E+04  0.17189992259E+04  0.25500000920E-02 0.  1.
    10030    2    1    2    0    0  0.00000000000E+00  0.00000000000E+00  0.16440447862E+03  0.36024029305E+04  0.35986494746E+04 0.  0.
        3    1    3    3  502    0  0.11770657338E+04  0.47476989775E+03  0.13589459033E+04  0.18594687886E+04  0.10100000352E+00 0. -1.
       -3    1    3    3    0  502 -0.11770657338E+04 -0.47476989775E+03 -0.11945414247E+04  0.17429341419E+04  0.10100000352E+00 0.  1.
</event>
<event>
 5   0  0.6949625E-07  0.3580883E+04  0.7818609E-02  0.8094885E-01
       -2   -1    0    0    0  501  0.00000000000E+00  0.00000000000E+00  0.19166555868E+04  0.19166555868E+04  0.25500000920E-02 0. -1.
        2   -1    0    0  501    0  0.00000000000E+00  0.00000000000E+00 -0.16725385625E+04  0.16725385625E+04  0.25500000920E-02 0.  1.
    10030    2    1    2    0    0  0.00000000000E+00  0.00000000000E+00  0.24411702438E+03  0.35891941493E+04  0.35808827850E+04 0.  0.
        5    1    3    3  502    0 -0.98160965211E+03 -0.90704145662E+03  0.13161996582E+04  0.18758159141E+04  0.46999998093E+01 0. -1.
       -5    1    3    3    0  502  0.98160965211E+03  0.90704145662E+03 -0.10720826339E+04  0.17133782352E+04  0.46999998093E+01 0.  1.
</event>
<event>
 5   0  0.2287500E-07  0.2868321E+04  0.7818609E-02  0.8282366E-01
       -1   -1    0    0    0  501  0.00000000000E+00  0.00000000000E+00  0.13654925488E+04  0.13654925488E+04  0.50400001928E-02 0. -1.
        1   -1    0    0  501    0  0.00000000000E+00  0.00000000000E+00 -0.15062815561E+04  0.15062815561E+04  0.50400001928E-02 0.  1.
    10030    2    1    2    0    0  0.00000000000E+00  0.00000000000E+00 -0.14078900727E+03  0.28717741048E+04  0.28683209313E+04 0.  0.
        2    1    3    3  502    0  0.92546989968E+03 -0.24150532349E+03  0.99953457886E+03  0.13834336742E+04  0.25500000920E-02 0. -1.
       -2    1    3    3    0  502 -0.92546989968E+03  0.24150532349E+03 -0.11403235861E+04  0.14883404307E+04  0.25500000920E-02 0.  1.
</event>
<event>
 5   0  0.2287500E-07  0.2911020E+04  0.7818609E-02  0.8269606E-01
       -1   -1    0    0    0  501  0.00000000000E+00  0.00000000000E+00  0.81677925827E+03  0.81677925828E+03  0.50400001928E-02 0. -1.
        1   -1    0    0  501    0  0.00000000000E+00  0.00000000000E+00 -0.25937353479E+04  0.25937353479E+04  0.50400001928E-02 0.  1.
    10030    2    1    2    0    0  0.00000000000E+00  0.00000000000E+00 -0.17769560897E+04  0.34105146062E+04  0.29110199131E+04 0.  0.
        4    1    3    3  502    0 -0.67330574606E+03  0.25538717589E+03  0.59345021731E+03  0.93313879494E+03  0.12699999809E+01 0. -1.
       -4    1    3    3    0  502  0.67330574606E+03 -0.25538717589E+03 -0.23704063070E+04  0.24773758113E+04  0.12699999809E+01 0.  1.
</event>
<event>
 5   0  0.7124627E-07  0.2938255E+04  0.7818609E-02  0.8261586E-01
       -2   -1    0    0    0  501  0.00000000000E+00  0.00000000000E+00  0.12133252829E+04  0.12133252829E+04  0.25500000920E-02 0.  1.
        2   -1    0    0  501    0  0.00000000000E+00  0.00000000000E+00 -0.17788602956E+04  0.17788602956E+04  0.25500000920E-02 0. -1.
    10030    2    1    2    0    0  0.00000000000E+00  0.00000000000E+00 -0.56553501272E+03  0.29921855785E+04  0.29382553813E+04 0.  0.
        2    1    3    3  502    0 -0.99726313297E+03 -0.13711796887E+03 -0.13724549157E+04  0.17020480573E+04  0.25500000920E-02 0. -1.
       -2    1    3    3    0  502  0.99726313297E+03  0.13711796887E+03  0.80691990297E+03  0.12901375212E+04  0.25500000920E-02 0.  1.
</event>
<event>
 5   0  0.7074157E-07  0.3865133E+04  0.7818609E-02  0.8032320E-01
       -2   -1    0    0    0  501  0.00000000000E+00  0.00000000000E+00  0.27617154788E+04  0.27617154788E+04  0.25500000920E-02 0. -1.
        2   -1    0    0  501    0  0.00000000000E+00  0.00000000000E+00 -0.13523524405E+04  0.13523524405E+04  0.25500000920E-02 0.  1.
    10030    2    1    2    0    0  0.00000000000E+00  0.00000000000E+00  0.14093630382E+04  0.41140679193E+04  0.38651326848E+04 0.  0.
        3    1    3    3  502    0 -0.11048378834E+03  0.15984588998E+04 -0.44543549839E+03  0.16630364745E+04  0.10100000352E+00 0.  1.
       -3    1    3    3    0  502  0.11048378834E+03 -0.15984588998E+04  0.18547985366E+04  0.24510314448E+04  0.10100000352E+00 0. -1.
</event>
<event>
 5   0  0.2411746E-07  0.3528486E+04  0.7818609E-02  0.8107072E-01
       -1   -1    0    0    0  501  0.00000000000E+00  0.00000000000E+00  0.19932614095E+04  0.19932614095E+04  0.50400001928E-02 0. -1.
        1   -1    0    0  501    0  0.00000000000E+00  0.00000000000E+00 -0.15615381797E+04  0.15615381797E+04  0.50400001928E-02 0.  1.
    10030    2    1    2    0    0  0.00000000000E+00  0.00000000000E+00  0.43172322985E+03  0.35547995892E+04  0.35284862438E+04 0.  0.
        1    1    3    3  502    0  0.79520221926E+03 -0.13498601314E+04 -0.60141230226E+03  0.16781435282E+04  0.50400001928E-02 0.  1.
       -1    1    3    3    0  502 -0.79520221926E+03  0.13498601314E+04  0.10331355321E+04  0.18766560611E+04  0.50400001928E-02 0. -1.
</event>
<event>
 5   0  0.6949625E-07  0.3752887E+04  0.7818609E-02  0.8056341E-01
       -2   -1    0    0    0  501  0.00000000000E+00  0.00000000000E+00  0.16826559234E+04  0.16826559234E+04  0.25500000920E-02 0.  1.
        2   -1    0    0  501    0  0.00000000000E+00  0.00000000000E+00 -0.20925496442E+04  0.20925496442E+04  0.25500000920E-02 0. -1.
    10030    2    1    2    0    0  0.00000000000E+00  0.00000000000E+00 -0.40989372077E+03  0.37752055677E+04  0.37528874504E+04 0.  0.
        5    1    3    3  502    0 -0.15918617365E+04  0.72677323147E+03  0.47642595598E+03  0.18136225902E+04  0.46999998093E+01 0.  1.
       -5    1    3    3    0  502  0.15918617365E+04 -0.72677323147E+03 -0.88631967675E+03  0.19615829775E+04  0.46999998093E+01 0. -1.
</event>
<event>
 5   0  0.2287500E-07  0.3694038E+04  0.7818609E-02  0.8069284E-01
        1   -1    0    0  501    0  0.00000000000E+00  0.00000000000E+00  0.21417399457E+04  0.21417399457E+04  0.50400001928E-02 0.  1.
       -1   -1    0    0    0  501  0.00000000000E+00  0.00000000000E+00 -0.15928537350E+04  0.15928537350E+04  0.50400001928E-02 0. -1.
    10030    2    1    2    0    0  0.00000000000E+00  0.00000000000E+00  0.54888621069E+03  0.37345936808E+04  0.36940376133E+04 0.  0.
        4    1    3    3  502    0 -0.58421241905E+02 -0.11191438275E+04  0.17587517245E+04  0.20854508360E+04  0.12699999809E+01 0.  1.
       -4    1    3    3    0  502  0.58421241905E+02  0.11191438275E+04 -0.12098655138E+04  0.16491428448E+04  0.12699999809E+01 0. -1.
</event>
<event>
 5   0  0.2345471E-07  0.3539059E+04  0.7818609E-02  0.8104595E-01
        1   -1    0    0  501    0  0.00000000000E+00  0.00000000000E+00  0.10116058072E+04  0.10116058073E+04  0.50400001928E-02 0. -1.
       -1   -1    0    0    0  501  0.00000000000E+00  0.00000000000E+00 -0.30953118566E+04  0.30953118566E+04  0.50400001928E-02 0.  1.
    10030    2    1    2    0    0  0.00000000000E+00  0.00000000000E+00 -0.20837060493E+04  0.41069176638E+04  0.35390594510E+04 0.  0.
        5    1    3    3  502    0 -0.15093197603E+04  0.40759932765E+03 -0.79983884637E+02  0.15654401498E+04  0.46999998093E+01 0. -1.
       -5    1    3    3    0  502  0.15093197603E+04 -0.40759932765E+03 -0.20037221647E+04  0.25414775140E+04  0.46999998093E+01 0.  1.
</event>
<event>
 5   0  0.7124627E-07  0.3532834E+04  0.7818609E-02  0.8106052E-01
       -2   -1    0    0    0  501  0.00000000000E+00  0.00000000000E+00  0.22250894194E+04  0.22250894194E+04  0.25500000920E-02 0.  1.
        2   -1    0    0  501    0  0.00000000000E+00  0.00000000000E+00 -0.14022939279E+04  0.14022939279E+04  0.25500000920E-02 0. -1.
    10030    2    1    2    0    0  0.00000000000E+00  0.00000000000E+00  0.82279549143E+03  0.36273833473E+04  0.35328342060E+04 0.  0.
        2    1    3    3  502    0 -0.67070954255E+03  0.15944048028E+04  0.77910422543E+03  0.18970981418E+04  0.25500000920E-02 0.  1.
       -2    1    3    3    0  502  0.67070954255E+03 -0.15944048028E+04  0.43691265995E+02  0.17302852055E+04  0.25500000920E-02 0. -1.
</event>
<event>
 5   0  0.2411746E-07  0.3663412E+04  0.7818609E-02  0.8076119E-01
        1   -1    0    0  501    0  0.00000000000E+00  0.00000000000E+00  0.28255960152E+04  0.28255960152E+04  0.50400001928E-02 0.  1.
       -1   -1    0    0    0  501  0.00000000000E+00  0.00000000000E+00 -0.11874120113E+04  0.11874120113E+04  0.50400001928E-02 0. -1.
    10030    2    1    2    0    0  0.00000000000E+00  0.00000000000E+00  0.16381840039E+04  0.40130080265E+04  0.36634118784E+04 0.  0.
        1    1    3    3  502    0  0.17145252166E+03  0.17209208022E+04  0.15802773860E+03  0.17366453699E+04  0.50400001928E-02 0. -1.
       -1    1    3    3    0  502 -0.17145252166E+03 -0.17209208022E+04  0.14801562653E+04  0.22763626566E+04  0.50400001928E-02 0.  1.
</event>
<event>
 5   0  0.2287500E-07  0.3683351E+04  0.7818609E-02  0.8071662E-01
        1   -1    0    0  501    0  0.00000000000E+00  0.00000000000E+00  0.18192753044E+04  0.18192753045E+04  0.50400001928E-02 0.  1.
       -1   -1    0    0    0  501  0.00000000000E+00  0.00000000000E+00 -0.18643511638E+04  0.18643511638E+04  0.50400001928E-02 0. -1.
    10030    2    1    2    0    0  0.00000000000E+00  0.00000000000E+00 -0.45075859321E+02  0.36836264682E+04  0.36833506654E+04 0.  0.
        2    1    3    3  502    0 -0.11185582685E+04  0.19700909287E+03  0.14273233106E+04  0.18240715489E+04  0.25500000920E-02 0.  1.
       -2    1    3    3    0  502  0.11185582685E+04 -0.19700909287E+03 -0.14723991699E+04  0.18595549193E+04  0.25500000920E-02 0. -1.
</event>
<event>
 5   0  0.6949625E-07  0.3696771E+04  0.7818609E-02  0.8068678E-01
       -2   -1    0    0    0  501  0.00000000000E+00  0.00000000000E+00  0.13839212769E+04  0.13839212769E+04  0.25500000920E-02 0.  1.
        2   -1    0    0  501    0  0.00000000000E+00  0.00000000000E+00 -0.24687304752E+04  0.24687304752E+04  0.25500000920E-02 0. -1.
    10030    2    1    2    0    0  0.00000000000E+00  0.00000000000E+00 -0.10848091983E+04  0.38526517521E+04  0.36967708242E+04 0.  0.
        5    1    3    3  502    0 -0.18216441344E+04 -0.80574917279E+02 -0.22694143421E+03  0.18374994352E+04  0.46999998093E+01 0.  1.
       -5    1    3    3    0  502  0.18216441344E+04  0.80574917279E+02 -0.85786776406E+03  0.20151523169E+04  0.46999998093E+01 0. -1.
</event>
<event>
 5   0  0.6939921E-07  0.3751352E+04  0.7818609E-02  0.8056676E-01
        2   -1    0    0  501    0  0.00000000000E+00  0.00000000000E+00  0.17585205890E+04  0.17585205890E+04  0.25500000920E-02 0.  1.
       -2   -1    0    0    0  501  0.00000000000E+00  0.00000000000E+00 -0.20006366082E+04  0.20006366082E+04  0.25500000920E-02 0. -1.
    10030    2    1    2    0    0  0.00000000000E+00  0.00000000000E+00 -0.24211601918E+03  0.37591571972E+04  0.37513521118E+04 0.  0.
        4    1    3    3  502    0 -0.18907916771E+03  0.21072401633E+03 -0.19791012424E+04  0.19992495800E+04  0.12699999809E+01 0. -1.
       -4    1    3    3    0  502  0.18907916771E+03 -0.21072401633E+03  0.17369852232E+04  0.17599076172E+04  0.12699999809E+01 0.  1.
</event>
<event>
 5   0  0.2287500E-07  0.3666289E+04  0.7818609E-02  0.8075474E-01
        1   -1    0    0  501    0  0.00000000000E+00  0.00000000000E+00  0.23313198842E+04  0.23313198842E+04  0.50400001928E-02 0.  1.
       -1   -1    0    0    0  501  0.00000000000E+00  0.00000000000E+00 -0.14414230635E+04  0.14414230635E+04  0.50400001928E-02 0. -1.
    10030    2    1    2    0    0  0.00000000000E+00  0.00000000000E+00  0.88989682070E+03  0.37727429477E+04  0.36662887227E+04 0.  0.
        2    1    3    3  502    0 -0.17131660248E+04  0.48990582030E+03  0.88811862090E+03  0.19909043739E+04  0.25500000920E-02 0.  1.
       -2    1    3    3    0  502  0.17131660248E+04 -0.48990582030E+03  0.17781997980E+01  0.17818385738E+04  0.25500000920E-02 0. -1.
</event>
<event>
 5   0  0.2287500E-07  0.2899388E+04  0.7818609E-02  0.8273060E-01
        1   -1    0    0  501    0  0.00000000000E+00  0.00000000000E+00  0.13816497244E+04  0.13816497244E+04  0.50400001928E-02 0. -1.
       -1   -1    0    0    0  501  0.00000000000E+00  0.00000000000E+00 -0.15210888583E+04  0.15210888583E+04  0.50400001928E-02 0.  1.
    10030    2    1    2    0    0  0.00000000000E+00  0.00000000000E+00 -0.13943913384E+03  0.29027385827E+04  0.28993875228E+04 0.  0.
        3    1    3    3  502    0  0.76518119741E+03 -0.27876778550E+03  0.11309990178E+04  0.13936902567E+04  0.10100000352E+00 0. -1.
       -3    1    3    3    0  502 -0.76518119741E+03  0.27876778550E+03 -0.12704381516E+04  0.15090483261E+04  0.10100000352E+00 0.  1.
</event>
<event>
 5   0  0.2287500E-07  0.3639615E+04  0.7818609E-02  0.8081477E-01
       -1   -1    0    0    0  501  0.00000000000E+00  0.00000000000E+00  0.13265146950E+04  0.13265146950E+04  0.50400001928E-02 0. -1.
        1   -1    0    0  501    0  0.00000000000E+00  0.00000000000E+00 -0.24965422285E+04  0.24965422285E+04  0.50400001928E-02 0.  1.
    10030    2    1    2    0    0  0.00000000000E+00  0.00000000000E+00 -0.11700275336E+04  0.38230569235E+04  0.36396153383E+04 0.  0.
        2    1    3    3  502    0  0.11416414093E+04 -0.92901329015E+03 -0.17091342243E+04  0.22555599299E+04  0.25500000920E-02 0.  1.
       -2    1    3    3    0  502 -0.11416414093E+04  0.92901329015E+03  0.53910669074E+03  0.15674969936E+04  0.25500000920E-02 0. -1.
</event>
<event>
 5   0  0.7074157E-07  0.2842181E+04  0.7818609E-02  0.8290291E-01
       -2   -1    0    0    0  501  0.00000000000E+00  0.00000000000E+00  0.15092431187E+04  0.15092431187E+04  0.25500000920E-02 0.  1.
        2   -1    0    0  501    0  0.00000000000E+00  0.00000000000E+00 -0.13380863456E+04  0.13380863456E+04  0.25500000920E-02 0. -1.
    10030    2    1    2    0    0  0.00000000000E+00  0.00000000000E+00  0.17115677305E+03  0.28473294643E+04  0.28421805779E+04 0.  0.
        3    1    3    3  502    0  0.77012248551E+03 -0.75640230195E+03 -0.84036031778E+03  0.13680053213E+04  0.10100000352E+00 0. -1.
       -3    1    3    3    0  502 -0.77012248551E+03  0.75640230195E+03  0.10115170908E+04  0.14793241431E+04  0.10100000352E+00 0.  1.
</event>
<event>
 5   0  0.2287500E-07  0.3723360E+04  0.7818609E-02  0.8062804E-01
        3   -1    0    0  501    0  0.00000000000E+00  0.00000000000E+00  0.14745830004E+04  0.14745830039E+04  0.10100000352E+00 0.  1.
       -3   -1    0    0    0  501  0.00000000000E+00  0.00000000000E+00 -0.23503955569E+04  0.23503955590E+04  0.10100000352E+00 0. -1.
    10030    2    1    2    0    0  0.00000000000E+00  0.00000000000E+00 -0.87581255647E+03  0.38249785629E+04  0.37233604946E+04 0.  0.
        4    1    3    3  502    0 -0.17635606551E+04 -0.54873838381E+03 -0.19788079324E+03  0.18575301934E+04  0.12699999809E+01 0. -1.
       -4    1    3    3    0  502  0.17635606551E+04  0.54873838381E+03 -0.67793176323E+03  0.19674483695E+04  0.12699999809E+01 0.  1.
</event>
<event>
 5   0  0.2287500E-07  0.3036979E+04  0.7818609E-02  0.8233250E-01
        1   -1    0    0  501    0  0.00000000000E+00  0.00000000000E+00  0.19396318992E+04  0.19396318992E+04  0.50400001928E-02 0.  1.
       -1   -1    0    0    0  501  0.00000000000E+00  0.00000000000E+00 -0.11887873050E+04  0.11887873050E+04  0.50400001928E-02 0. -1.
    10030    2    1    2    0    0  0.00000000000E+00  0.00000000000E+00  0.75084459419E+03  0.31284192042E+04  0.30369786158E+04 0.  0.
        4    1    3    3  502    0 -0.21594918573E+03  0.14195447552E+04 -0.13348369567E+03  0.14420682621E+04  0.12699999809E+01 0. -1.
       -4    1    3    3    0  502  0.21594918573E+03 -0.14195447552E+04  0.88432828986E+03  0.16863509421E+04  0.12699999809E+01 0.  1.
</event>
<event>
 5   0  0.2287500E-07  0.3406661E+04  0.7818609E-02  0.8136273E-01
        1   -1    0    0  501    0  0.00000000000E+00  0.00000000000E+00  0.23029559732E+04  0.23029559732E+04  0.50400001928E-02 0. -1.
       -1   -1    0    0    0  501  0.00000000000E+00  0.00000000000E+00 -0.12598311038E+04  0.12598311039E+04  0.50400001928E-02 0.  1.
    10030    2    1    2    0    0  0.00000000000E+00  0.00000000000E+00  0.10431248693E+04  0.35627870770E+04  0.34066614542E+04 0.  0.
        3    1    3    3  502    0  0.85026067366E+03  0.89441882181E+03 -0.70629989667E+03  0.14218958458E+04  0.10100000352E+00 0.  1.
       -3    1    3    3    0  502 -0.85026067366E+03 -0.89441882181E+03  0.17494247660E+04  0.21408912313E+04  0.10100000352E+00 0. -1.
</event>
<event>
 5   0  0.7300916E-07  0.3287076E+04  0.7818609E-02  0.8166192E-01
        2   -1    0    0  501    0  0.00000000000E+00  0.00000000000E+00  0.14954319917E+04  0.14954319917E+04  0.25500000920E-02 0.  1.
       -2   -1    0    0    0  501  0.00000000000E+00  0.00000000000E+00 -0.18063124397E+04  0.18063124397E+04  0.25500000920E-02 0. -1.
    10030    2    1    2    0    0  0.00000000000E+00  0.00000000000E+00 -0.31088044806E+03  0.33017444314E+04  0.32870761533E+04 0.  0.
        1    1    3    3  502    0 -0.82680261690E+03  0.78053524147E+02  0.12691702550E+04  0.15167359876E+04  0.50400001928E-02 0.  1.
       -1    1    3    3    0  502  0.82680261690E+03 -0.78053524147E+02 -0.15800507031E+04  0.17850084438E+04  0.50400001928E-02 0. -1.
</event>
<event>
 5   0  0.2411746E-07  0.3678502E+04  0.7818609E-02  0.8072743E-01
       -1   -1    0    0    0  501  0.00000000000E+00  0.00000000000E+00  0.13612162722E+04  0.13612162722E+04  0.50400001928E-02 0. -1.
        1   -1    0    0  501    0  0.00000000000E+00  0.00000000000E+00 -0.24851623503E+04  0.24851623503E+04  0.50400001928E-02 0.  1.
    10030    2    1    2    0    0  0.00000000000E+00  0.00000000000E+00 -0.11239460781E+04  0.38463786225E+04  0.36785015592E+04 0.  0.
        1    1    3    3  502    0 -0.77164725662E+03  0.15013545381E+04 -0.13256022841E+04  0.21463285753E+04  0.50400001928E-02 0.  1.
       -1    1    3    3    0  502  0.77164725662E+03 -0.15013545381E+04  0.20165620595E+03  0.17000500472E+04  0.50400001928E-02 0. -1.
</event>
<event>
 5   0  0.7074157E-07  0.3790099E+04  0.7818609E-02  0.8048283E-01
        2   -1    0    0  501    0  0.00000000000E+00  0.00000000000E+00  0.19064072539E+04  0.19064072539E+04  0.25500000920E-02 0. -1.
       -2   -1    0    0    0  501  0.00000000000E+00  0.00000000000E+00 -0.18837598204E+04  0.18837598204E+04  0.25500000920E-02 0.  1.
    10030    2    1    2    0    0  0.00000000000E+00  0.00000000000E+00  0.22647433486E+02  0.37901670743E+04  0.37900994109E+04 0.  0.
        3    1    3    3  502    0 -0.88877417883E+03  0.80847730758E+03 -0.14541915379E+04  0.18863266252E+04  0.10100000352E+00 0.  1.
       -3    1    3    3    0  502  0.88877417883E+03 -0.80847730758E+03  0.14768389714E+04  0.19038404491E+04  0.10100000352E+00 0. -1.
</event>
<event>
 5   0  0.7074157E-07  0.3641812E+04  0.7818609E-02  0.8080981E-01
        2   -1    0    0  501    0  0.00000000000E+00  0.00000000000E+00  0.14267165012E+04  0.14267165012E+04  0.25500000920E-02 0.  1.
       -2   -1    0    0    0  501  0.00000000000E+00  0.00000000000E+00 -0.23240066380E+04  0.23240066380E+04  0.25500000920E-02 0. -1.
    10030    2    1    2    0    0  0.00000000000E+00  0.00000000000E+00 -0.89729013675E+03  0.37507231392E+04  0.36418119772E+04 0.  0.
        3    1    3    3  502    0 -0.12138435216E+04  0.46023343832E+03  0.86643921416E+03  0.15607523297E+04  0.10100000352E+00 0.  1.
       -3    1    3    3    0  502  0.12138435216E+04 -0.46023343832E+03 -0.17637293509E+04  0.21899708094E+04  0.10100000352E+00 0. -1.
</event>
<event>
 5   0  0.6939921E-07  0.3725733E+04  0.7818609E-02  0.8062283E-01
       -2   -1    0    0    0  501  0.00000000000E+00  0.00000000000E+00  0.13454997955E+04  0.13454997955E+04  0.25500000920E-02 0. -1.
        2   -1    0    0  501    0  0.00000000000E+00  0.00000000000E+00 -0.25791685311E+04  0.25791685311E+04  0.25500000920E-02 0.  1.
    10030    2    1    2    0    0  0.00000000000E+00  0.00000000000E+00 -0.12336687355E+04  0.39246683266E+04  0.37257325354E+04 0.  0.
        4    1    3    3  502    0  0.47114553988E+03 -0.17748998664E+04 -0.94663529786E+03  0.20660028208E+04  0.12699999809E+01 0.  1.
       -4    1    3    3    0  502 -0.47114553988E+03  0.17748998664E+04 -0.28703343768E+03  0.18586655059E+04  0.12699999809E+01 0. -1.
</event>
<event>
 5   0  0.2287500E-07  0.3668265E+04  0.7818609E-02  0.8075031E-01
       -1   -1    0    0    0  501  0.00000000000E+00  0.00000000000E+00  0.15849121942E+04  0.15849121943E+04  0.50400001928E-02 0.  1.
        1   -1    0    0  501    0  0.00000000000E+00  0.00000000000E+00 -0.21225411900E+04  0.21225411900E+04  0.50400001928E-02 0. -1.
    10030    2    1    2    0    0  0.00000000000E+00  0.00000000000E+00 -0.53762899574E+03  0.37074533843E+04  0.36682646659E+04 0.  0.
        3    1    3    3  502    0 -0.76215239507E+03  0.16519007595E+04 -0.50452048935E+03  0.18879071288E+04  0.10100000352E+00 0. -1.
       -3    1    3    3    0  502  0.76215239507E+03 -0.16519007595E+04 -0.33108506390E+02  0.18195462555E+04  0.10100000352E+00 0.  1.
</event>
<event>
 5   0  0.6939921E-07  0.3736402E+04  0.7818609E-02  0.8059942E-01
        2   -1    0    0  501    0  0.00000000000E+00  0.00000000000E+00  0.20184167848E+04  0.20184167848E+04  0.25500000920E-02 0. -1.
       -2   -1    0    0    0  501  0.00000000000E+00  0.00000000000E+00 -0.17291648768E+04  0.17291648768E+04  0.25500000920E-02 0.  1.
    10030    2    1    2    0    0  0.00000000000E+00  0.00000000000E+00  0.28925190807E+03  0.37475816616E+04  0.37364022326E+04 0.  0.
        4    1    3    3  502    0 -0.10033212872E+04  0.15300760419E+04  0.52309765538E+03  0.19030026457E+04  0.12699999809E+01 0. -1.
       -4    1    3    3    0  502  0.10033212872E+04 -0.15300760419E+04 -0.23384574731E+03  0.18445790159E+04  0.12699999809E+01 0.  1.
</event>
<event>
 5   0  0.2345471E-07  0.3680557E+04  0.7818609E-02  0.8072284E-01
        1   -1    0    0  501    0  0.00000000000E+00  0.00000000000E+00  0.16704870626E+04  0.16704870626E+04  0.50400001928E-02 0. -1.
       -1   -1    0    0    0  501  0.00000000000E+00  0.00000000000E+00 -0.20273277454E+04  0.20273277455E+04  0.50400001928E-02 0.  1.
    10030    2    1    2    0    0  0.00000000000E+00  0.00000000000E+00 -0.35684068286E+03  0.36978148080E+04  0.36805568983E+04 0.  0.
        5    1    3    3  502    0 -0.15898686955E+04 -0.80099626557E+03  0.28994705890E+03  0.18037097531E+04  0.46999998093E+01 0. -1.
       -5    1    3    3    0  502  0.15898686955E+04  0.80099626557E+03 -0.64678774176E+03  0.18941050550E+04  0.46999998093E+01 0.  1.
</event>
<event>
 5   0  0.7300916E-07  0.3694832E+04  0.7818609E-02  0.8069108E-01
       -2   -1    0    0    0  501  0.00000000000E+00  0.00000000000E+00  0.26870354279E+04  0.26870354279E+04  0.25500000920E-02 0.  1.
        2   -1    0    0  501    0  0.00000000000E+00  0.00000000000E+00 -0.12701532210E+04  0.12701532210E+04  0.25500000920E-02 0. -1.
    10030    2    1    2    0    0  0.00000000000E+00  0.00000000000E+00  0.14168822069E+04  0.39571886489E+04  0.36948324474E+04 0.  0.
        1    1    3    3  502    0 -0.13790647872E+04  0.11711794149E+04  0.30847254010E+03  0.18353844876E+04  0.50400001928E-02 0.  1.
       -1    1    3    3    0  502  0.13790647872E+04 -0.11711794149E+04  0.11084096668E+04  0.21218041613E+04  0.50400001928E-02 0. -1.
</event>
<event>
 5   0  0.2287500E-07  0.2712758E+04  0.7818609E-02  0.8330877E-01
        1   -1    0    0  501    0  0.00000000000E+00  0.00000000000E+00  0.17653982189E+04  0.17653982189E+04  0.50400001928E-02 0. -1.
       -1   -1    0    0    0  501  0.00000000000E+00  0.00000000000E+00 -0.10421241779E+04  0.10421241779E+04  0.50400001928E-02 0.  1.
    10030    2    1    2    0    0  0.00000000000E+00  0.00000000000E+00  0.72327404107E+03  0.28075223968E+04  0.27127581297E+04 0.  0.
        2    1    3    3  502    0  0.13149332835E+04  0.27195158147E+03  0.16321860491E+03  0.13526446376E+04  0.25500000920E-02 0.  1.
       -2    1    3    3    0  502 -0.13149332835E+04 -0.27195158147E+03  0.56005543615E+03  0.14548777592E+04  0.25500000920E-02 0. -1.
</event>
<event>
 5   0  0.6949625E-07  0.3352229E+04  0.7818609E-02  0.8149731E-01
       -2   -1    0    0    0  501  0.00000000000E+00  0.00000000000E+00  0.17306692813E+04  0.17306692813E+04  0.25500000920E-02 0.  1.
        2   -1    0    0  501    0  0.00000000000E+00  0.00000000000E+00 -0.16232794496E+04  0.16232794496E+04  0.25500000920E-02 0. -1.
    10030    2    1    2    0    0  0.00000000000E+00  0.00000000000E+00  0.10738983169E+03  0.33539487309E+04  0.33522290365E+04 0.  0.
        5    1    3    3  502    0 -0.84020879109E+03 -0.74582601953E+03  0.12981700213E+04  0.17168211201E+04  0.46999998093E+01 0.  1.
       -5    1    3    3    0  502  0.84020879109E+03  0.74582601953E+03 -0.11907801896E+04  0.16371276108E+04  0.46999998093E+01 0. -1.
</event>
<event>
 5   0  0.2287500E-07  0.3741600E+04  0.7818609E-02  0.8058805E-01
        1   -1    0    0  501    0  0.00000000000E+00  0.00000000000E+00  0.17795623571E+04  0.17795623571E+04  0.50400001928E-02 0.  1.
       -1   -1    0    0    0  501  0.00000000000E+00  0.00000000000E+00 -0.19667153985E+04  0.19667153985E+04  0.50400001928E-02 0. -1.
    10030    2    1    2    0    0  0.00000000000E+00  0.00000000000E+00 -0.18715304137E+03  0.37462777557E+04  0.37416000269E+04 0.  0.
        3    1    3    3  502    0  0.61281411627E+03  0.59693244655E+03  0.15722411932E+04  0.17899195140E+04  0.10100000352E+00 0.  1.
       -3    1    3    3    0  502 -0.61281411627E+03 -0.59693244655E+03 -0.17593942346E+04  0.19563582416E+04  0.10100000352E+00 0. -1.
</event>
<event>
 5   0  0.2287500E-07  0.3709294E+04  0.7818609E-02  0.8065905E-01
       -1   -1    0    0    0  501  0.00000000000E+00  0.00000000000E+00  0.17612473284E+04  0.17612473284E+04  0.50400001928E-02 0. -1.
        1   -1    0    0  501    0  0.00000000000E+00  0.00000000000E+00 -0.19529997727E+04  0.19529997727E+04  0.50400001928E-02 0.  1.
    10030    2    1    2    0    0  0.00000000000E+00  0.00000000000E+00 -0.19175244437E+03  0.37142471011E+04  0.37092940741E+04 0.  0.
        3    1    3    3  502    0  0.31171492144E+03  0.18042698795E+04 -0.39149854157E+03  0.18723854060E+04  0.10100000352E+00 0.  1.
       -3    1    3    3    0  502 -0.31171492144E+03 -0.18042698795E+04  0.19974609719E+03  0.18418616951E+04  0.10100000352E+00 0. -1.
</event>
<event>
 5   0  0.2287500E-07  0.3695635E+04  0.7818609E-02  0.8068930E-01
        1   -1    0    0  501    0  0.00000000000E+00  0.00000000000E+00  0.18538414670E+04  0.18538414670E+04  0.50400001928E-02 0. -1.
       -1   -1    0    0    0  501  0.00000000000E+00  0.00000000000E+00 -0.18418126142E+04  0.18418126142E+04  0.50400001928E-02 0.  1.
    10030    2    1    2    0    0  0.00000000000E+00  0.00000000000E+00  0.12028852852E+02  0.36956540812E+04  0.36956345050E+04 0.  0.
        3    1    3    3  502    0 -0.10242809387E+04 -0.11057181639E+04  0.10749749472E+04  0.18513063621E+04  0.10100000352E+00 0. -1.
       -3    1    3    3    0  502  0.10242809387E+04  0.11057181639E+04 -0.10629460943E+04  0.18443477191E+04  0.10100000352E+00 0.  1.
</event>
<event>
 5   0  0.2287500E-07  0.3745140E+04  0.7818609E-02  0.8058031E-01
       -1   -1    0    0    0  501  0.00000000000E+00  0.00000000000E+00  0.25521974285E+04  0.25521974285E+04  0.50400001928E-02 0. -1.
        1   -1    0    0  501    0  0.00000000000E+00  0.00000000000E+00 -0.13739216196E+04  0.13739216196E+04  0.50400001928E-02 0.  1.
    10030    2    1    2    0    0  0.00000000000E+00  0.00000000000E+00  0.11782758089E+04  0.39261190480E+04  0.37451404376E+04 0.  0.
        2    1    3    3  502    0 -0.33169806998E+03  0.29649722713E+03  0.24959877905E+04  0.25353282363E+04  0.25500000920E-02 0. -1.
       -2    1    3    3    0  502  0.33169806998E+03 -0.29649722713E+03 -0.13177119817E+04  0.13907908117E+04  0.25500000920E-02 0.  1.
</event>
<event>
 5   0  0.2345471E-07  0.3455015E+04  0.7818609E-02  0.8124534E-01
        1   -1    0    0  501    0  0.00000000000E+00  0.00000000000E+00  0.18206431959E+04  0.18206431959E+04  0.50400001928E-02 0.  1.
       -1   -1    0    0    0  501  0.00000000000E+00  0.00000000000E+00 -0.16391357361E+04  0.16391357361E+04  0.50400001928E-02 0. -1.
    10030    2    1    2    0    0  0.00000000000E+00  0.00000000000E+00  0.18150745979E+03  0.34597789319E+04  0.34550145152E+04 0.  0.
        5    1    3    3  502    0 -0.61304488185E+03  0.92207611406E+02  0.17054080120E+04  0.18145977098E+04  0.46999998093E+01 0.  1.
       -5    1    3    3    0  502  0.61304488185E+03 -0.92207611406E+02 -0.15239005522E+04  0.16451812222E+04  0.46999998093E+01 0. -1.
</event>
<event>
 5   0  0.6949625E-07  0.3683616E+04  0.7818609E-02  0.8071602E-01
       -2   -1    0    0    0  501  0.00000000000E+00  0.00000000000E+00  0.20285624753E+04  0.20285624753E+04  0.25500000920E-02 0. -1.
        2   -1    0    0  501    0  0.00000000000E+00  0.00000000000E+00 -0.16722464688E+04  0.16722464688E+04  0.25500000920E-02 0.  1.
    10030    2    1    2    0    0  0.00000000000E+00  0.00000000000E+00  0.35631600652E+03  0.37008089441E+04  0.36836158519E+04 0.  0.
        5    1    3    3  502    0  0.13622002058E+04 -0.11630639440E+04  0.60902707458E+03  0.18918887932E+04  0.46999998093E+01 0. -1.
       -5    1    3    3    0  502 -0.13622002058E+04  0.11630639440E+04 -0.25271106806E+03  0.18089201509E+04  0.46999998093E+01 0.  1.
</event>
<event>
 5   0  0.2287500E-07  0.3723267E+04  0.7818609E-02  0.8062825E-01
        3   -1    0    0  501    0  0.00000000000E+00  0.00000000000E+00  0.13600391203E+04  0.13600391240E+04  0.10100000352E+00 0. -1.
       -3   -1    0    0    0  501  0.00000000000E+00  0.00000000000E+00 -0.25482206188E+04  0.25482206208E+04  0.10100000352E+00 0.  1.
    10030    2    1    2    0    0  0.00000000000E+00  0.00000000000E+00 -0.11881814985E+04  0.39082597448E+04  0.37232672425E+04 0.  0.
        2    1    3    3  502    0  0.10714315454E+04 -0.57447199289E+03 -0.20739969989E+04  0.24040480816E+04  0.25500000920E-02 0.  1.
       -2    1    3    3    0  502 -0.10714315454E+04  0.57447199289E+03  0.88581550042E+03  0.15042116632E+04  0.25500000920E-02 0. -1.
</event>
<event>
 5   0  0.7300916E-07  0.3647141E+04  0.7818609E-02  0.8079778E-01
       -2   -1    0    0    0  501  0.00000000000E+00  0.00000000000E+00  0.15058156621E+04  0.15058156621E+04  0.25500000920E-02 0.  1.
        2   -1    0    0  501    0  0.00000000000E+00  0.00000000000E+00 -0.22083774800E+04  0.22083774800E+04  0.25500000920E-02 0. -1.
    10030    2    1    2    0    0  0.00000000000E+00  0.00000000000E+00 -0.70256181791E+03  0.37141931422E+04  0.36471410158E+04 0.  0.
        1    1    3    3  502    0  0.12292778185E+04  0.11216782814E+04 -0.11107278973E+04  0.20007505051E+04  0.50400001928E-02 0. -1.
       -1    1    3    3    0  502 -0.12292778185E+04 -0.11216782814E+04  0.40816607935E+03  0.17134426370E+04  0.50400001928E-02 0.  1.
</event>
<event>
 5   0  0.2411746E-07  0.3721241E+04  0.7818609E-02  0.8063271E-01
        1   -1    0    0  501    0  0.00000000000E+00  0.00000000000E+00  0.24098026084E+04  0.24098026084E+04  0.50400001928E-02 0.  1.
       -1   -1    0    0    0  501  0.00000000000E+00  0.00000000000E+00 -0.14365945220E+04  0.14365945220E+04  0.50400001928E-02 0. -1.
    10030    2    1    2    0    0  0.00000000000E+00  0.00000000000E+00  0.97320808644E+03  0.38463971305E+04  0.37212413125E+04 0.  0.
        1    1    3    3  502    0  0.18110592876E+03 -0.32412355413E+03  0.23711221290E+04  0.24000157471E+04  0.50400001928E-02 0.  1.
       -1    1    3    3    0  502 -0.18110592876E+03  0.32412355413E+03 -0.13979140425E+04  0.14463813834E+04  0.50400001928E-02 0. -1.
</event>
<event>
 5   0  0.6939921E-07  0.3616681E+04  0.7818609E-02  0.8086681E-01
       -2   -1    0    0    0  501  0.00000000000E+00  0.00000000000E+00  0.13760517928E+04  0.13760517928E+04  0.25500000920E-02 0. -1.
        2   -1    0    0  501    0  0.00000000000E+00  0.00000000000E+00 -0.23764334580E+04  0.23764334580E+04  0.25500000920E-02 0.  1.
    10030    2    1    2    0    0  0.00000000000E+00  0.00000000000E+00 -0.10003816652E+04  0.37524852508E+04  0.36166810865E+04 0.  0.
        4    1    3    3  502    0  0.36293065075E+03 -0.15847250855E+04  0.32138952663E+03  0.16572160675E+04  0.12699999809E+01 0. -1.
       -4    1    3    3    0  502 -0.36293065075E+03  0.15847250855E+04 -0.13217711918E+04  0.20952691832E+04  0.12699999809E+01 0.  1.
</event>
<event>
 5   0  0.7074157E-07  0.3748997E+04  0.7818609E-02  0.8057189E-01
       -2   -1    0    0    0  501  0.00000000000E+00  0.00000000000E+00  0.10853362761E+04  0.10853362761E+04  0.25500000920E-02 0. -1.
        2   -1    0    0  501    0  0.00000000000E+00  0.00000000000E+00 -0.32374711844E+04  0.32374711844E+04  0.25500000920E-02 0.  1.
    10030    2    1    2    0    0  0.00000000000E+00  0.00000000000E+00 -0.21521349083E+04  0.43228074605E+04  0.37489971562E+04 0.  0.
        3    1    3    3  502    0 -0.62020902832E+03 -0.80677607061E+03  0.73910873550E+03  0.12577076767E+04  0.10100000352E+00 0. -1.
       -3    1    3    3    0  502  0.62020902832E+03  0.80677607061E+03 -0.28912436438E+04  0.30650997838E+04  0.10100000352E+00 0.  1.
</event>
<event>
 5   0  0.2287500E-07  0.3742270E+04  0.7818609E-02  0.8058658E-01
       -1   -1    0    0    0  501  0.00000000000E+00  0.00000000000E+00  0.14562571817E+04  0.14562571817E+04  0.50400001928E-02 0. -1.
        1   -1    0    0  501    0  0.00000000000E+00  0.00000000000E+00 -0.24042090560E+04  0.24042090560E+04  0.50400001928E-02 0.  1.
    10030    2    1    2    0    0  0.00000000000E+00  0.00000000000E+00 -0.94795187436E+03  0.38604662377E+04  0.37422702757E+04 0.  0.
        3    1    3    3  502    0  0.22478666026E+03 -0.67629696682E+03 -0.22587176880E+04  0.23684831083E+04  0.10100000352E+00 0.  1.
       -3    1    3    3    0  502 -0.22478666026E+03  0.67629696682E+03  0.13107658137E+04  0.14919831294E+04  0.10100000352E+00 0. -1.
</event>
<event>
 5   0  0.2345471E-07  0.2831950E+04  0.7818609E-02  0.8293417E-01
        1   -1    0    0  501    0  0.00000000000E+00  0.00000000000E+00  0.20193312338E+04  0.20193312338E+04  0.50400001928E-02 0. -1.
       -1   -1    0    0    0  501  0.00000000000E+00  0.00000000000E+00 -0.99289536948E+03  0.99289536949E+03  0.50400001928E-02 0.  1.
    10030    2    1    2    0    0  0.00000000000E+00  0.00000000000E+00  0.10264358644E+04  0.30122266033E+04  0.28319495981E+04 0.  0.
        5    1    3    3  502    0 -0.24869746948E+03 -0.11923464309E+04 -0.25484505464E+03  0.12443908287E+04  0.46999998093E+01 0.  1.
       -5    1    3    3    0  502  0.24869746948E+03  0.11923464309E+04  0.12812809190E+04  0.17678357746E+04  0.46999998093E+01 0. -1.
</event>
<event>
 5   0  0.2287500E-07  0.3624460E+04  0.7818609E-02  0.8084912E-01
        1   -1    0    0  501    0  0.00000000000E+00  0.00000000000E+00  0.21591417131E+04  0.21591417131E+04  0.50400001928E-02 0.  1.
       -1   -1    0    0    0  501  0.00000000000E+00  0.00000000000E+00 -0.15210568181E+04  0.15210568181E+04  0.50400001928E-02 0. -1.
    10030    2    1    2    0    0  0.00000000000E+00  0.00000000000E+00  0.63808489502E+03  0.36801985312E+04  0.36244598074E+04 0.  0.
        4    1    3    3  502    0 -0.10384693798E+04  0.51499719211E+03 -0.10954110794E+04  0.15948566727E+04  0.12699999809E+01 0. -1.
       -4    1    3    3    0  502  0.10384693798E+04 -0.51499719211E+03  0.17334959744E+04  0.20853418585E+04  0.12699999809E+01 0.  1.
</event>
<event>
 5   0  0.7074157E-07  0.3762897E+04  0.7818609E-02  0.8054164E-01
       -2   -1    0    0    0  501  0.00000000000E+00  0.00000000000E+00  0.17352693243E+04  0.17352693243E+04  0.25500000920E-02 0.  1.
        2   -1    0    0  501    0  0.00000000000E+00  0.00000000000E+00 -0.20399416041E+04  0.20399416041E+04  0.25500000920E-02 0. -1.
    10030    2    1    2    0    0  0.00000000000E+00  0.00000000000E+00 -0.30467227982E+03  0.37752109284E+04  0.37628968038E+04 0.  0.
        3    1    3    3  502    0  0.13935132044E+04  0.12640710885E+04 -0.14264474866E+03  0.18868233362E+04  0.10100000352E+00 0.  1.
       -3    1    3    3    0  502 -0.13935132044E+04 -0.12640710885E+04 -0.16202753116E+03  0.18883875922E+04  0.10100000352E+00 0. -1.
</event>
<event>
 5   0  0.7124627E-07  0.3681293E+04  0.7818609E-02  0.8072120E-01
       -2   -1    0    0    0  501  0.00000000000E+00  0.00000000000E+00  0.24236698318E+04  0.24236698318E+04  0.25500000920E-02 0.  1.
        2   -1    0    0  501    0  0.00000000000E+00  0.00000000000E+00 -0.13978720263E+04  0.13978720263E+04  0.25500000920E-02 0. -1.
    10030    2    1    2    0    0  0.00000000000E+00  0.00000000000E+00  0.10257978055E+04  0.38215418582E+04  0.36812933917E+04 0.  0.
        2    1    3    3  502    0  0.60933155505E+03  0.27835435542E+02 -0.12899035263E+04  0.14268534832E+04  0.25500000920E-02 0. -1.
       -2    1    3    3    0  502 -0.60933155505E+03 -0.27835435542E+02  0.23157013317E+04  0.23946883750E+04  0.25500000920E-02 0.  1.
</event>
<event>
 5   0  0.7074157E-07  0.3684272E+04  0.7818609E-02  0.8071456E-01
       -2   -1    0    0    0  501  0.00000000000E+00  0.00000000000E+00  0.17301012345E+04  0.17301012345E+04  0.25500000920E-02 0.  1.
        2   -1    0    0  501    0  0.00000000000E+00  0.00000000000E+00 -0.19614254356E+04  0.19614254356E+04  0.25500000920E-02 0. -1.
    10030    2    1    2    0    0  0.00000000000E+00  0.00000000000E+00 -0.23132420107E+03  0.36915266701E+04  0.36842717421E+04 0.  0.
        3    1    3    3  502    0 -0.40327807106E+03 -0.17943850033E+04 -0.22081548031E+03  0.18523526201E+04  0.10100000352E+00 0. -1.
       -3    1    3    3    0  502  0.40327807106E+03  0.17943850033E+04 -0.10508720759E+02  0.18391740500E+04  0.10100000352E+00 0.  1.
</event>
<event>
 5   0  0.7124627E-07  0.3694317E+04  0.7818609E-02  0.8069222E-01
        2   -1    0    0  501    0  0.00000000000E+00  0.00000000000E+00  0.24357294290E+04  0.24357294290E+04  0.25500000920E-02 0.  1.
       -2   -1    0    0    0  501  0.00000000000E+00  0.00000000000E+00 -0.14008103469E+04  0.14008103469E+04  0.25500000920E-02 0. -1.
    10030    2    1    2    0    0  0.00000000000E+00  0.00000000000E+00  0.10349190821E+04  0.38365397760E+04  0.36943172503E+04 0.  0.
        2    1    3    3  502    0 -0.15575196798E+04 -0.79487046306E+03  0.11356128948E+04  0.20850187656E+04  0.25500000920E-02 0.  1.
       -2    1    3    3    0  502  0.15575196798E+04  0.79487046306E+03 -0.10069381270E+03  0.17515210104E+04  0.25500000920E-02 0. -1.
</event>
<event>
 5   0  0.7074157E-07  0.3696233E+04  0.7818609E-02  0.8068797E-01
        2   -1    0    0  501    0  0.00000000000E+00  0.00000000000E+00  0.26258130737E+04  0.26258130737E+04  0.25500000920E-02 0. -1.
       -2   -1    0    0    0  501  0.00000000000E+00  0.00000000000E+00 -0.13007530920E+04  0.13007530920E+04  0.25500000920E-02 0.  1.
    10030    2    1    2    0    0  0.00000000000E+00  0.00000000000E+00  0.13250599817E+04  0.39265661657E+04  0.36962329335E+04 0.  0.
        3    1    3    3  502    0  0.46931969929E+03 -0.17795564533E+04  0.84171941895E+03  0.20237523912E+04  0.10100000352E+00 0.  1.
       -3    1    3    3    0  502 -0.46931969929E+03  0.17795564533E+04  0.48334056274E+03  0.19028137745E+04  0.10100000352E+00 0. -1.
</event>
<event>
 5   0  0.6949625E-07  0.3188194E+04  0.7818609E-02  0.8191942E-01
        2   -1    0    0  501    0  0.00000000000E+00  0.00000000000E+00  0.29829283573E+04  0.29829283573E+04  0.25500000920E-02 0.  1.
       -2   -1    0    0    0  501  0.00000000000E+00  0.00000000000E+00 -0.85189622130E+03  0.85189622130E+03  0.25500000920E-02 0. -1.
    10030    2    1    2    0    0  0.00000000000E+00  0.00000000000E+00  0.21310321360E+04  0.38348245786E+04  0.31881940944E+04 0.  0.
        5    1    3    3  502    0 -0.13127153036E+04 -0.72269205047E+03  0.41153343680E+03  0.15539907103E+04  0.46999998093E+01 0. -1.
       -5    1    3    3    0  502  0.13127153036E+04  0.72269205047E+03  0.17194986992E+04  0.22808338683E+04  0.46999998093E+01 0.  1.
</event>
<event>
 5   0  0.6939921E-07  0.3713577E+04  0.7818609E-02  0.8064960E-01
       -2   -1    0    0    0  501  0.00000000000E+00  0.00000000000E+00  0.24578376368E+04  0.24578376368E+04  0.25500000920E-02 0.  1.
        2   -1    0    0  501    0  0.00000000000E+00  0.00000000000E+00 -0.14027220801E+04  0.14027220801E+04  0.25500000920E-02 0. -1.
    10030    2    1    2    0    0  0.00000000000E+00  0.00000000000E+00  0.10551155567E+04  0.38605597169E+04  0.37135767785E+04 0.  0.
        4    1    3    3  502    0 -0.10342981271E+03 -0.10399498383E+04  0.21230565801E+04  0.23663398419E+04  0.12699999809E+01 0.  1.
       -4    1    3    3    0  502  0.10342981271E+03  0.10399498383E+04 -0.10679410234E+04  0.14942198750E+04  0.12699999809E+01 0. -1.
</event>
<event>
 5   0  0.6939921E-07  0.3722491E+04  0.7818609E-02  0.8062996E-01
       -2   -1    0    0    0  501  0.00000000000E+00  0.00000000000E+00  0.15160802264E+04  0.15160802264E+04  0.25500000920E-02 0. -1.
        2   -1    0    0  501    0  0.00000000000E+00  0.00000000000E+00 -0.22849943477E+04  0.22849943477E+04  0.25500000920E-02 0.  1.
    10030    2    1    2    0    0  0.00000000000E+00  0.00000000000E+00 -0.76891412137E+03  0.38010745741E+04  0.37224909660E+04 0.  0.
        4    1    3    3  502    0  0.86134741884E+03 -0.14470540511E+04  0.42496115009E+03  0.17368011961E+04  0.12699999809E+01 0.  1.
       -4    1    3    3    0  502 -0.86134741884E+03  0.14470540511E+04 -0.11938752715E+04  0.20642733781E+04  0.12699999809E+01 0. -1.
</event>
<event>
 5   0  0.2411746E-07  0.3643303E+04  0.7818609E-02  0.8080644E-01
        1   -1    0    0  501    0  0.00000000000E+00  0.00000000000E+00  0.14071276608E+04  0.14071276608E+04  0.50400001928E-02 0. -1.
       -1   -1    0    0    0  501  0.00000000000E+00  0.00000000000E+00 -0.23582888317E+04  0.23582888318E+04  0.50400001928E-02 0.  1.
    10030    2    1    2    0    0  0.00000000000E+00  0.00000000000E+00 -0.95116117098E+03  0.37654164925E+04  0.36433025937E+04 0.  0.
        1    1    3    3  502    0 -0.65262251094E+03 -0.89337422479E+03 -0.19712840436E+04  0.22605296786E+04  0.50400001928E-02 0.  1.
       -1    1    3    3    0  502  0.65262251094E+03  0.89337422479E+03  0.10201228727E+04  0.15048868139E+04  0.50400001928E-02 0. -1.
</event>
<event>
 5   0  0.7124627E-07  0.3722396E+04  0.7818609E-02  0.8063017E-01
        2   -1    0    0  501    0  0.00000000000E+00  0.00000000000E+00  0.13985365897E+04  0.13985365897E+04  0.25500000920E-02 0. -1.
       -2   -1    0    0    0  501  0.00000000000E+00  0.00000000000E+00 -0.24769157377E+04  0.24769157377E+04  0.25500000920E-02 0.  1.
    10030    2    1    2    0    0  0.00000000000E+00  0.00000000000E+00 -0.10783791479E+04  0.38754523274E+04  0.37223956205E+04 0.  0.
        2    1    3    3  502    0 -0.12355217184E+03 -0.77600811728E+03 -0.22957510904E+04  0.24265050600E+04  0.25500000920E-02 0.  1.
       -2    1    3    3    0  502  0.12355217184E+03  0.77600811728E+03  0.12173719425E+04  0.14489472674E+04  0.25500000920E-02 0. -1.
</event>
<event>
 5   0  0.2345471E-07  0.3600330E+04  0.7818609E-02  0.8090416E-01
       -1   -1    0    0    0  501  0.00000000000E+00  0.00000000000E+00  0.11751194919E+04  0.11751194919E+04  0.50400001928E-02 0.  1.
        1   -1    0    0  501    0  0.00000000000E+00  0.00000000000E+00 -0.27576721549E+04  0.27576721549E+04  0.50400001928E-02 0. -1.
    10030    2    1    2    0    0  0.00000000000E+00  0.00000000000E+00 -0.15825526630E+04  0.39327916468E+04  0.36003301524E+04 0.  0.
        5    1    3    3  502    0  0.14586731246E+03  0.15441395143E+04 -0.17893972319E+04  0.23680389896E+04  0.46999998093E+01 0. -1.
       -5    1    3    3    0  502 -0.14586731246E+03 -0.15441395143E+04  0.20684456897E+03  0.15647526572E+04  0.46999998093E+01 0.  1.
</event>
<event>
 5   0  0.2287500E-07  0.3721770E+04  0.7818609E-02  0.8063154E-01
       -1   -1    0    0    0  501  0.00000000000E+00  0.00000000000E+00  0.18948478515E+04  0.18948478515E+04  0.50400001928E-02 0. -1.
        1   -1    0    0  501    0  0.00000000000E+00  0.00000000000E+00 -0.18275307718E+04  0.18275307718E+04  0.50400001928E-02 0.  1.
    10030    2    1    2    0    0  0.00000000000E+00  0.00000000000E+00  0.67317079709E+02  0.37223786232E+04  0.37217698781E+04 0.  0.
        4    1    3    3  502    0 -0.78894769391E+03 -0.15347295902E+04  0.73023334055E+03  0.18737864669E+04  0.12699999809E+01 0. -1.
       -4    1    3    3    0  502  0.78894769391E+03  0.15347295902E+04 -0.66291626084E+03  0.18485921564E+04  0.12699999809E+01 0.  1.
</event>
<event>
 5   0  0.2345471E-07  0.3817507E+04  0.7818609E-02  0.8042408E-01
        1   -1    0    0  501    0  0.00000000000E+00  0.00000000000E+00  0.17745232539E+04  0.17745232539E+04  0.50400001928E-02 0.  1.
       -1   -1    0    0    0  501  0.00000000000E+00  0.00000000000E+00 -0.20531367931E+04  0.20531367931E+04  0.50400001928E-02 0. -1.
    10030    2    1    2    0    0  0.00000000000E+00  0.00000000000E+00 -0.27861353918E+03  0.38276600470E+04  0.38175065070E+04 0.  0.
        5    1    3    3  502    0 -0.34557318412E+03  0.16796303739E+04 -0.97983103028E+03  0.19750113813E+04  0.46999998093E+01 0. -1.
       -5    1    3    3    0  502  0.34557318412E+03 -0.16796303739E+04  0.70121749110E+03  0.18526486657E+04  0.46999998093E+01 0.  1.
</event>
<event>
 5   0  0.7300916E-07  0.3737238E+04  0.7818609E-02  0.8059759E-01
        2   -1    0    0  501    0  0.00000000000E+00  0.00000000000E+00  0.16367328229E+04  0.16367328229E+04  0.25500000920E-02 0.  1.
       -2   -1    0    0    0  501  0.00000000000E+00  0.00000000000E+00 -0.21333582669E+04  0.21333582669E+04  0.25500000920E-02 0. -1.
    10030    2    1    2    0    0  0.00000000000E+00  0.00000000000E+00 -0.49662544405E+03  0.37700910898E+04  0.37372382843E+04 0.  0.
        1    1    3    3  502    0 -0.53548406035E+03  0.14889530160E+04  0.75441364630E+03  0.17529587024E+04  0.50400001928E-02 0.  1.
       -1    1    3    3    0  502  0.53548406035E+03 -0.14889530160E+04 -0.12510390903E+04  0.20171323874E+04  0.50400001928E-02 0. -1.
</event>
<event>
 5   0  0.7074157E-07  0.3731988E+04  0.7818609E-02  0.8060910E-01
        2   -1    0    0  501    0  0.00000000000E+00  0.00000000000E+00  0.20927790367E+04  0.20927790367E+04  0.25500000920E-02 0.  1.
       -2   -1    0    0    0  501  0.00000000000E+00  0.00000000000E+00 -0.16637850682E+04  0.16637850682E+04  0.25500000920E-02 0. -1.
    10030    2    1    2    0    0  0.00000000000E+00  0.00000000000E+00  0.42899396849E+03  0.37565641049E+04  0.37319884846E+04 0.  0.
        3    1    3    3  502    0 -0.90301586050E+03  0.15081866132E+04 -0.41562047986E+03  0.18063235862E+04  0.10100000352E+00 0. -1.
       -3    1    3    3    0  502  0.90301586050E+03 -0.15081866132E+04  0.84461444835E+03  0.19502405187E+04  0.10100000352E+00 0.  1.
</event>
<event>
 5   0  0.6949625E-07  0.3817585E+04  0.7818609E-02  0.8042392E-01
       -2   -1    0    0    0  501  0.00000000000E+00  0.00000000000E+00  0.16237007029E+04  0.16237007029E+04  0.25500000920E-02 0. -1.
        2   -1    0    0  501    0  0.00000000000E+00  0.00000000000E+00 -0.22439415506E+04  0.22439415506E+04  0.25500000920E-02 0.  1.
    10030    2    1    2    0    0  0.00000000000E+00  0.00000000000E+00 -0.62024084766E+03  0.38676422535E+04  0.38175853483E+04 0.  0.
        5    1    3    3  502    0  0.57995383263E+03 -0.10480979432E+04 -0.18157468163E+04  0.21752733937E+04  0.46999998093E+01 0.  1.
       -5    1    3    3    0  502 -0.57995383263E+03  0.10480979432E+04  0.11955059686E+04  0.16923688598E+04  0.46999998093E+01 0. -1.
</event>
<event>
 5   0  0.2345471E-07  0.3699171E+04  0.7818609E-02  0.8068145E-01
        1   -1    0    0  501    0  0.00000000000E+00  0.00000000000E+00  0.25462357966E+04  0.25462357966E+04  0.50400001928E-02 0.  1.
       -1   -1    0    0    0  501  0.00000000000E+00  0.00000000000E+00 -0.13435390079E+04  0.13435390079E+04  0.50400001928E-02 0. -1.
    10030    2    1    2    0    0  0.00000000000E+00  0.00000000000E+00  0.12026967887E+04  0.38897748045E+04  0.36991713213E+04 0.  0.
        5    1    3    3  502    0 -0.34791167409E+03 -0.13689715928E+04 -0.65425434232E+03  0.15566620023E+04  0.46999998093E+01 0. -1.
       -5    1    3    3    0  502  0.34791167409E+03  0.13689715928E+04  0.18569511310E+04  0.23331128022E+04  0.46999998093E+01 0.  1.
</event>
<event>
 5   0  0.7074157E-07  0.3709708E+04  0.7818609E-02  0.8065814E-01
        2   -1    0    0  501    0  0.00000000000E+00  0.00000000000E+00  0.22356193838E+04  0.22356193839E+04  0.25500000920E-02 0.  1.
       -2   -1    0    0    0  501  0.00000000000E+00  0.00000000000E+00 -0.15389393616E+04  0.15389393616E+04  0.25500000920E-02 0. -1.
    10030    2    1    2    0    0  0.00000000000E+00  0.00000000000E+00  0.69668002221E+03  0.37745587455E+04  0.37097076259E+04 0.  0.
        3    1    3    3  502    0  0.12893286582E+04  0.12000460847E+03 -0.10029248524E+04  0.16378729392E+04  0.10100000352E+00 0. -1.
       -3    1    3    3    0  502 -0.12893286582E+04 -0.12000460847E+03  0.16996048746E+04  0.21366858063E+04  0.10100000352E+00 0.  1.
</event>
<event>
 5   0  0.6939921E-07  0.3624808E+04  0.7818609E-02  0.8084833E-01
        2   -1    0    0  501    0  0.00000000000E+00  0.00000000000E+00  0.15168840475E+04  0.15168840475E+04  0.25500000920E-02 0.  1.
       -2   -1    0    0    0  501  0.00000000000E+00  0.00000000000E+00 -0.21654976382E+04  0.21654976382E+04  0.25500000920E-02 0. -1.
    10030    2    1    2    0    0  0.00000000000E+00  0.00000000000E+00 -0.64861359067E+03  0.36823816857E+04  0.36248083106E+04 0.  0.
        4    1    3    3  502    0 -0.14016393406E+04  0.17636443455E+03 -0.14777301427E+04  0.20443544806E+04  0.12699999809E+01 0. -1.
       -4    1    3    3    0  502  0.14016393406E+04 -0.17636443455E+03  0.82911655200E+03  0.16380272051E+04  0.12699999809E+01 0.  1.
</event>
<event>
 5   0  0.6949625E-07  0.3703430E+04  0.7818609E-02  0.8067202E-01
        2   -1    0    0  501    0  0.00000000000E+00  0.00000000000E+00  0.16021971785E+04  0.16021971785E+04  0.25500000920E-02 0.  1.
       -2   -1    0    0    0  501  0.00000000000E+00  0.00000000000E+00 -0.21400909157E+04  0.21400909157E+04  0.25500000920E-02 0. -1.
    10030    2    1    2    0    0  0.00000000000E+00  0.00000000000E+00 -0.53789373716E+03  0.37422880942E+04  0.37034295602E+04 0.  0.
        5    1    3    3  502    0 -0.83680912596E+03  0.85963530558E+03 -0.16942799359E+04  0.20760127560E+04  0.46999998093E+01 0. -1.
       -5    1    3    3    0  502  0.83680912596E+03 -0.85963530558E+03  0.11563861987E+04  0.16662753382E+04  0.46999998093E+01 0.  1.
</event>
<event>
 5   0  0.2345471E-07  0.3578504E+04  0.7818609E-02  0.8095433E-01
       -1   -1    0    0    0  501  0.00000000000E+00  0.00000000000E+00  0.17724965011E+04  0.17724965011E+04  0.50400001928E-02 0.  1.
        1   -1    0    0  501    0  0.00000000000E+00  0.00000000000E+00 -0.18061661053E+04  0.18061661053E+04  0.50400001928E-02 0. -1.
    10030    2    1    2    0    0  0.00000000000E+00  0.00000000000E+00 -0.33669604248E+02  0.35786626064E+04  0.35785042138E+04 0.  0.
        5    1    3    3  502    0 -0.16985999505E+04 -0.55221277436E+03  0.89095671571E+02  0.17883346635E+04  0.46999998093E+01 0.  1.
       -5    1    3    3    0  502  0.16985999505E+04  0.55221277436E+03 -0.12276527582E+03  0.17903279429E+04  0.46999998093E+01 0. -1.
</event>
<event>
 5   0  0.7074157E-07  0.3696434E+04  0.7818609E-02  0.8068752E-01
       -2   -1    0    0    0  501  0.00000000000E+00  0.00000000000E+00  0.18246853312E+04  0.18246853312E+04  0.25500000920E-02 0. -1.
        2   -1    0    0  501    0  0.00000000000E+00  0.00000000000E+00 -0.18720526224E+04  0.18720526224E+04  0.25500000920E-02 0.  1.
    10030    2    1    2    0    0  0.00000000000E+00  0.00000000000E+00 -0.47367291221E+02  0.36967379535E+04  0.36964344762E+04 0.  0.
        3    1    3    3  502    0 -0.58664715417E+02  0.16275164372E+04 -0.89762932150E+03  0.18595670762E+04  0.10100000352E+00 0.  1.
       -3    1    3    3    0  502  0.58664715417E+02 -0.16275164372E+04  0.85026203027E+03  0.18371708773E+04  0.10100000352E+00 0. -1.
</event>
<event>
 5   0  0.7300916E-07  0.3688177E+04  0.7818609E-02  0.8070587E-01
        2   -1    0    0  501    0  0.00000000000E+00  0.00000000000E+00  0.19139044093E+04  0.19139044093E+04  0.25500000920E-02 0.  1.
       -2   -1    0    0    0  501  0.00000000000E+00  0.00000000000E+00 -0.17768195683E+04  0.17768195683E+04  0.25500000920E-02 0. -1.
    10030    2    1    2    0    0  0.00000000000E+00  0.00000000000E+00  0.13708484106E+03  0.36907239776E+04  0.36881772226E+04 0.  0.
        1    1    3    3  502    0  0.67405256759E+03 -0.40315220305E+02  0.17857374464E+04  0.19091438941E+04  0.50400001928E-02 0.  1.
       -1    1    3    3    0  502 -0.67405256759E+03  0.40315220305E+02 -0.16486526053E+04  0.17815800835E+04  0.50400001928E-02 0. -1.
</event>
<event>
 5   0  0.6939921E-07  0.3000190E+04  0.7818609E-02  0.8243677E-01
       -2   -1    0    0    0  501  0.00000000000E+00  0.00000000000E+00  0.13890334999E+04  0.13890334999E+04  0.25500000920E-02 0.  1.
        2   -1    0    0  501    0  0.00000000000E+00  0.00000000000E+00 -0.16200364683E+04  0.16200364683E+04  0.25500000920E-02 0. -1.
    10030    2    1    2    0    0  0.00000000000E+00  0.00000000000E+00 -0.23100296843E+03  0.30090699683E+04  0.30001899444E+04 0.  0.
        4    1    3    3  502    0 -0.52148540855E+03  0.10742417100E+04  0.79511811502E+03  0.14346277262E+04  0.12699999809E+01 0.  1.
       -4    1    3    3    0  502  0.52148540855E+03 -0.10742417100E+04 -0.10261210834E+04  0.15744422421E+04  0.12699999809E+01 0. -1.
</event>
<event>
 5   0  0.7300916E-07  0.3711240E+04  0.7818609E-02  0.8065475E-01
       -2   -1    0    0    0  501  0.00000000000E+00  0.00000000000E+00  0.14432617167E+04  0.14432617168E+04  0.25500000920E-02 0. -1.
        2   -1    0    0  501    0  0.00000000000E+00  0.00000000000E+00 -0.23857942024E+04  0.23857942024E+04  0.25500000920E-02 0.  1.
    10030    2    1    2    0    0  0.00000000000E+00  0.00000000000E+00 -0.94253248562E+03  0.38290559191E+04  0.37112399202E+04 0.  0.
        1    1    3    3  502    0  0.14810391709E+04 -0.39829630847E+03 -0.15490373581E+04  0.21798242388E+04  0.50400001928E-02 0.  1.
       -1    1    3    3    0  502 -0.14810391709E+04  0.39829630847E+03  0.60650487250E+03  0.16492316803E+04  0.50400001928E-02 0. -1.
</event>
<event>
 5   0  0.7074157E-07  0.2713711E+04  0.7818609E-02  0.8330570E-01
        2   -1    0    0  501    0  0.00000000000E+00  0.00000000000E+00  0.14216748531E+04  0.14216748531E+04  0.25500000920E-02 0.  1.
       -2   -1    0    0    0  501  0.00000000000E+00  0.00000000000E+00 -0.12949917241E+04  0.12949917241E+04  0.25500000920E-02 0. -1.
    10030    2    1    2    0    0  0.00000000000E+00  0.00000000000E+00  0.12668312897E+03  0.27166665772E+04  0.27137112367E+04 0.  0.
        3    1    3    3  502    0 -0.23366328303E+02 -0.45090519685E+02 -0.12940399411E+04  0.12950361075E+04  0.10100000352E+00 0. -1.
       -3    1    3    3    0  502  0.23366328303E+02  0.45090519685E+02  0.14207230701E+04  0.14216304697E+04  0.10100000352E+00 0.  1.
</event>
<event>
 5   0  0.7124627E-07  0.3689104E+04  0.7818609E-02  0.8070381E-01
        2   -1    0    0  501    0  0.00000000000E+00  0.00000000000E+00  0.10868430201E+04  0.10868430201E+04  0.25500000920E-02 0. -1.
       -2   -1    0    0    0  501  0.00000000000E+00  0.00000000000E+00 -0.31305095129E+04  0.31305095129E+04  0.25500000920E-02 0.  1.
    10030    2    1    2    0    0  0.00000000000E+00  0.00000000000E+00 -0.20436664928E+04  0.42173525331E+04  0.36891041805E+04 0.  0.
        2    1    3    3  502    0  0.10805265975E+04 -0.70159568211E+03  0.48726534733E+03  0.13773894685E+04  0.25500000920E-02 0. -1.
       -2    1    3    3    0  502 -0.10805265975E+04  0.70159568211E+03 -0.25309318401E+04  0.28399630646E+04  0.25500000920E-02 0.  1.
</event>
<event>
 5   0  0.7300916E-07  0.3657020E+04  0.7818609E-02  0.8077554E-01
        2   -1    0    0  501    0  0.00000000000E+00  0.00000000000E+00  0.31528121979E+04  0.31528121979E+04  0.25500000920E-02 0.  1.
       -2   -1    0    0    0  501  0.00000000000E+00  0.00000000000E+00 -0.10604654095E+04  0.10604654095E+04  0.25500000920E-02 0. -1.
    10030    2    1    2    0    0  0.00000000000E+00  0.00000000000E+00  0.20923467884E+04  0.42132776074E+04  0.36570197038E+04 0.  0.
        1    1    3    3  502    0 -0.41968184032E+01 -0.15850977471E+04  0.20963589870E+04  0.26281692266E+04  0.50400001928E-02 0.  1.
       -1    1    3    3    0  502  0.41968184032E+01  0.15850977471E+04 -0.40121986555E+01  0.15851083808E+04  0.50400001928E-02 0. -1.
</event>
<event>
 5   0  0.7124627E-07  0.3686772E+04  0.7818609E-02  0.8070900E-01
       -2   -1    0    0    0  501  0.00000000000E+00  0.00000000000E+00  0.12973120052E+04  0.12973120052E+04  0.25500000920E-02 0.  1.
        2   -1    0    0  501    0  0.00000000000E+00  0.00000000000E+00 -0.26193179022E+04  0.26193179022E+04  0.25500000920E-02 0. -1.
    10030    2    1    2    0    0  0.00000000000E+00  0.00000000000E+00 -0.13220058971E+04  0.39166299074E+04  0.36867723336E+04 0.  0.
        2    1    3    3  502    0  0.51926030747E+02 -0.24281135838E+03 -0.26014710229E+04  0.26132939274E+04  0.25500000920E-02 0. -1.
       -2    1    3    3    0  502 -0.51926030747E+02  0.24281135838E+03  0.12794651258E+04  0.13033359799E+04  0.25500000920E-02 0.  1.
</event>
<event>
 5   0  0.2411746E-07  0.3288889E+04  0.7818609E-02  0.8165728E-01
        1   -1    0    0  501    0  0.00000000000E+00  0.00000000000E+00  0.22101862792E+04  0.22101862792E+04  0.50400001928E-02 0.  1.
       -1   -1    0    0    0  501  0.00000000000E+00  0.00000000000E+00 -0.12235156351E+04  0.12235156351E+04  0.50400001928E-02 0. -1.
    10030    2    1    2    0    0  0.00000000000E+00  0.00000000000E+00  0.98667064409E+03  0.34337019144E+04  0.32888888514E+04 0.  0.
        1    1    3    3  502    0  0.79417100932E+03  0.31419973148E+03 -0.97380441204E+03  0.12952698932E+04  0.50400001928E-02 0. -1.
       -1    1    3    3    0  502 -0.79417100932E+03 -0.31419973148E+03  0.19604750561E+04  0.21384320211E+04  0.50400001928E-02 0.  1.
</event>
<event>
 5   0  0.2287500E-07  0.3733776E+04  0.7818609E-02  0.8060518E-01
       -1   -1    0    0    0  501  0.00000000000E+00  0.00000000000E+00  0.13013062966E+04  0.13013062966E+04  0.50400001928E-02 0. -1.
        1   -1    0    0  501    0  0.00000000000E+00  0.00000000000E+00 -0.26782857200E+04  0.26782857200E+04  0.50400001928E-02 0.  1.
    10030    2    1    2    0    0  0.00000000000E+00  0.00000000000E+00 -0.13769794235E+04  0.39795920166E+04  0.37337756073E+04 0.  0.
        2    1    3    3  502    0  0.38462447522E+02  0.17426252398E+03 -0.26691739393E+04  0.26751329510E+04  0.25500000920E-02 0.  1.
       -2    1    3    3    0  502 -0.38462447522E+02 -0.17426252398E+03  0.12921945158E+04  0.13044590656E+04  0.25500000920E-02 0. -1.
</event>
<event>
 5   0  0.2323975E-07  0.2665747E+04  0.7818609E-02  0.8346205E-01
        1   -1    0    0  501    0  0.00000000000E+00  0.00000000000E+00  0.19334770562E+04  0.19334770562E+04  0.50400001928E-02 0. -1.
       -1   -1    0    0    0  501  0.00000000000E+00  0.00000000000E+00 -0.91883795907E+03  0.91883795908E+03  0.50400001928E-02 0.  1.
    10030    2    1    2    0    0  0.00000000000E+00  0.00000000000E+00  0.10146390971E+04  0.28523150153E+04  0.26657472590E+04 0.  0.
        4    1    3    3  502    0 -0.62479602362E+03  0.71433332546E+03 -0.49408104552E+03  0.10699345136E+04  0.12699999809E+01 0. -1.
       -4    1    3    3    0  502  0.62479602362E+03 -0.71433332546E+03  0.15087201427E+04  0.17823805017E+04  0.12699999809E+01 0.  1.
</event>
<event>
 5   0  0.2345471E-07  0.2648139E+04  0.7818609E-02  0.8352031E-01
       -1   -1    0    0    0  501  0.00000000000E+00  0.00000000000E+00  0.12773289723E+04  0.12773289723E+04  0.50400001928E-02 0. -1.
        1   -1    0    0  501    0  0.00000000000E+00  0.00000000000E+00 -0.13725200576E+04  0.13725200576E+04  0.50400001928E-02 0.  1.
    10030    2    1    2    0    0  0.00000000000E+00  0.00000000000E+00 -0.95191085217E+02  0.26498490299E+04  0.26481386932E+04 0.  0.
        5    1    3    3  502    0 -0.12103489702E+04  0.24213698215E+03 -0.52703190438E+03  0.13421474084E+04  0.46999998093E+01 0.  1.
       -5    1    3    3    0  502  0.12103489702E+04 -0.24213698215E+03  0.43184081916E+03  0.13077016215E+04  0.46999998093E+01 0. -1.
</event>
<event>
 5   0  0.7074157E-07  0.3602692E+04  0.7818609E-02  0.8089875E-01
        2   -1    0    0  501    0  0.00000000000E+00  0.00000000000E+00  0.18992216591E+04  0.18992216591E+04  0.25500000920E-02 0. -1.
       -2   -1    0    0    0  501  0.00000000000E+00  0.00000000000E+00 -0.17085144897E+04  0.17085144897E+04  0.25500000920E-02 0.  1.
    10030    2    1    2    0    0  0.00000000000E+00  0.00000000000E+00  0.19070716947E+03  0.36077361488E+04  0.36026921732E+04 0.  0.
        3    1    3    3  502    0  0.77762094002E+03 -0.14382508066E+04 -0.66173930053E+03  0.17638476751E+04  0.10100000352E+00 0. -1.
       -3    1    3    3    0  502 -0.77762094002E+03  0.14382508066E+04  0.85244647000E+03  0.18438884737E+04  0.10100000352E+00 0.  1.
</event>
<event>
 5   0  0.7074157E-07  0.3740081E+04  0.7818609E-02  0.8059137E-01
       -2   -1    0    0    0  501  0.00000000000E+00  0.00000000000E+00  0.14870924943E+04  0.14870924943E+04  0.25500000920E-02 0. -1.
        2   -1    0    0  501    0  0.00000000000E+00  0.00000000000E+00 -0.23516037252E+04  0.23516037252E+04  0.25500000920E-02 0.  1.
    10030    2    1    2    0    0  0.00000000000E+00  0.00000000000E+00 -0.86451123090E+03  0.38386962195E+04  0.37400814158E+04 0.  0.
        3    1    3    3  502    0  0.50135660646E+03 -0.18007359691E+04 -0.37563064127E+03  0.19065956221E+04  0.10100000352E+00 0.  1.
       -3    1    3    3    0  502 -0.50135660646E+03  0.18007359691E+04 -0.48888058963E+03  0.19321005974E+04  0.10100000352E+00 0. -1.
</event>
<event>
 5   0  0.2287500E-07  0.3050113E+04  0.7818609E-02  0.8229564E-01
       -1   -1    0    0    0  501  0.00000000000E+00  0.00000000000E+00  0.20281371827E+04  0.20281371827E+04  0.50400001928E-02 0. -1.
        1   -1    0    0  501    0  0.00000000000E+00  0.00000000000E+00 -0.11467656025E+04  0.11467656025E+04  0.50400001928E-02 0.  1.
    10030    2    1    2    0    0  0.00000000000E+00  0.00000000000E+00  0.88137158023E+03  0.31749027852E+04  0.30501134132E+04 0.  0.
        3    1    3    3  502    0 -0.10215334304E+04 -0.86163445174E+03  0.12054937379E+04  0.17997665516E+04  0.10100000352E+00 0. -1.
       -3    1    3    3    0  502  0.10215334304E+04  0.86163445174E+03 -0.32412215767E+03  0.13751362337E+04  0.10100000352E+00 0.  1.
</event>
<event>
 5   0  0.2287500E-07  0.3682712E+04  0.7818609E-02  0.8071804E-01
       -1   -1    0    0    0  501  0.00000000000E+00  0.00000000000E+00  0.23231795154E+04  0.23231795154E+04  0.50400001928E-02 0. -1.
        1   -1    0    0  501    0  0.00000000000E+00  0.00000000000E+00 -0.14594622498E+04  0.14594622498E+04  0.50400001928E-02 0.  1.
    10030    2    1    2    0    0  0.00000000000E+00  0.00000000000E+00  0.86371726562E+03  0.37826417652E+04  0.36827124798E+04 0.  0.
        4    1    3    3  502    0 -0.10168556620E+04  0.39322477496E+03 -0.10923102875E+04  0.15432966461E+04  0.12699999809E+01 0.  1.
       -4    1    3    3    0  502  0.10168556620E+04 -0.39322477496E+03  0.19560275531E+04  0.22393451191E+04  0.12699999809E+01 0. -1.
</event>
<event>
 5   0  0.2345471E-07  0.3702814E+04  0.7818609E-02  0.8067339E-01
        1   -1    0    0  501    0  0.00000000000E+00  0.00000000000E+00  0.27596149566E+04  0.27596149566E+04  0.50400001928E-02 0. -1.
       -1   -1    0    0    0  501  0.00000000000E+00  0.00000000000E+00 -0.12420962773E+04  0.12420962773E+04  0.50400001928E-02 0.  1.
    10030    2    1    2    0    0  0.00000000000E+00  0.00000000000E+00  0.15175186793E+04  0.40017112339E+04  0.37028137757E+04 0.  0.
        5    1    3    3  502    0 -0.16678474914E+04  0.79352414025E+03  0.89669245190E+03  0.20531622583E+04  0.46999998093E+01 0.  1.
       -5    1    3    3    0  502  0.16678474914E+04 -0.79352414025E+03  0.62082622743E+03  0.19485489756E+04  0.46999998093E+01 0. -1.
</event>
<event>
 5   0  0.6939921E-07  0.3714026E+04  0.7818609E-02  0.8064861E-01
        2   -1    0    0  501    0  0.00000000000E+00  0.00000000000E+00  0.18863748548E+04  0.18863748548E+04  0.25500000920E-02 0.  1.
       -2   -1    0    0    0  501  0.00000000000E+00  0.00000000000E+00 -0.18281080317E+04  0.18281080317E+04  0.25500000920E-02 0. -1.
    10030    2    1    2    0    0  0.00000000000E+00  0.00000000000E+00  0.58266823065E+02  0.37144828865E+04  0.37140258603E+04 0.  0.
        4    1    3    3  502    0 -0.53370298510E+03  0.14201038710E+04 -0.10419612730E+04  0.18404398355E+04  0.12699999809E+01 0. -1.
       -4    1    3    3    0  502  0.53370298510E+03 -0.14201038710E+04  0.11002280960E+04  0.18740430510E+04  0.12699999809E+01 0.  1.
</event>
<event>
 5   0  0.6939921E-07  0.3679424E+04  0.7818609E-02  0.8072537E-01
       -2   -1    0    0    0  501  0.00000000000E+00  0.00000000000E+00  0.19966026621E+04  0.19966026621E+04  0.25500000920E-02 0. -1.
        2   -1    0    0  501    0  0.00000000000E+00  0.00000000000E+00 -0.16951493159E+04  0.16951493159E+04  0.25500000920E-02 0.  1.
    10030    2    1    2    0    0  0.00000000000E+00  0.00000000000E+00  0.30145334623E+03  0.36917519780E+04  0.36794236705E+04 0.  0.
        4    1    3    3  502    0  0.17385801097E+03  0.17662137984E+04 -0.33545880344E+03  0.18061760742E+04  0.12699999809E+01 0.  1.
       -4    1    3    3    0  502 -0.17385801097E+03 -0.17662137984E+04  0.63691214967E+03  0.18855759037E+04  0.12699999809E+01 0. -1.
</event>
<event>
 5   0  0.7074157E-07  0.3647099E+04  0.7818609E-02  0.8079787E-01
       -2   -1    0    0    0  501  0.00000000000E+00  0.00000000000E+00  0.24125830408E+04  0.24125830408E+04  0.25500000920E-02 0. -1.
        2   -1    0    0  501    0  0.00000000000E+00  0.00000000000E+00 -0.13783290688E+04  0.13783290688E+04  0.25500000920E-02 0.  1.
    10030    2    1    2    0    0  0.00000000000E+00  0.00000000000E+00  0.10342539721E+04  0.37909121096E+04  0.36470993055E+04 0.  0.
        3    1    3    3  502    0  0.10928456567E+04  0.10715683372E+04  0.15475618031E+04  0.21765839923E+04  0.10100000352E+00 0. -1.
       -3    1    3    3    0  502 -0.10928456567E+04 -0.10715683372E+04 -0.51330783102E+03  0.16143281173E+04  0.10100000352E+00 0.  1.
</event>
<event>
 5   0  0.2411746E-07  0.3686902E+04  0.7818609E-02  0.8070871E-01
       -1   -1    0    0    0  501  0.00000000000E+00  0.00000000000E+00  0.15429989714E+04  0.15429989714E+04  0.50400001928E-02 0. -1.
        1   -1    0    0  501    0  0.00000000000E+00  0.00000000000E+00 -0.22024074727E+04  0.22024074727E+04  0.50400001928E-02 0.  1.
    10030    2    1    2    0    0  0.00000000000E+00  0.00000000000E+00 -0.65940850126E+03  0.37454064441E+04  0.36869024749E+04 0.  0.
        1    1    3    3  502    0  0.37873073149E+03  0.43023378997E+03  0.14501749678E+04  0.15593413732E+04  0.50400001928E-02 0. -1.
       -1    1    3    3    0  502 -0.37873073149E+03 -0.43023378997E+03 -0.21095834691E+04  0.21860650708E+04  0.50400001928E-02 0.  1.
</event>
<event>
 5   0  0.6939921E-07  0.3696684E+04  0.7818609E-02  0.8068697E-01
       -2   -1    0    0    0  501  0.00000000000E+00  0.00000000000E+00  0.20129799380E+04  0.20129799380E+04  0.25500000920E-02 0.  1.
        2   -1    0    0  501    0  0.00000000000E+00  0.00000000000E+00 -0.16971698591E+04  0.16971698591E+04  0.25500000920E-02 0. -1.
    10030    2    1    2    0    0  0.00000000000E+00  0.00000000000E+00  0.31581007887E+03  0.37101497971E+04  0.36966843943E+04 0.  0.
        4    1    3    3  502    0  0.53467665800E+03  0.14555864366E+04 -0.85161982719E+03  0.17691435629E+04  0.12699999809E+01 0. -1.
       -4    1    3    3    0  502 -0.53467665800E+03 -0.14555864366E+04  0.11674299061E+04  0.19410062343E+04  0.12699999809E+01 0.  1.
</event>
<event>
 5   0  0.2287500E-07  0.3678449E+04  0.7818609E-02  0.8072755E-01
       -1   -1    0    0    0  501  0.00000000000E+00  0.00000000000E+00  0.35068989619E+04  0.35068989619E+04  0.50400001928E-02 0.  1.
        1   -1    0    0  501    0  0.00000000000E+00  0.00000000000E+00 -0.96459779100E+03  0.96459779101E+03  0.50400001928E-02 0. -1.
    10030    2    1    2    0    0  0.00000000000E+00  0.00000000000E+00  0.25423011709E+04  0.44714967529E+04  0.36784491253E+04 0.  0.
        4    1    3    3  502    0 -0.11738241678E+04 -0.14046110103E+04  0.10538682818E+04  0.21122109827E+04  0.12699999809E+01 0. -1.
       -4    1    3    3    0  502  0.11738241678E+04  0.14046110103E+04  0.14884328891E+04  0.23592857702E+04  0.12699999809E+01 0.  1.
</event>
<event>
 5   0  0.7300916E-07  0.2841923E+04  0.7818609E-02  0.8290370E-01
       -2   -1    0    0    0  501  0.00000000000E+00  0.00000000000E+00  0.73169891697E+03  0.73169891697E+03  0.25500000920E-02 0. -1.
        2   -1    0    0  501    0  0.00000000000E+00  0.00000000000E+00 -0.27595116098E+04  0.27595116098E+04  0.25500000920E-02 0.  1.
    10030    2    1    2    0    0  0.00000000000E+00  0.00000000000E+00 -0.20278126928E+04  0.34912105267E+04  0.28419230505E+04 0.  0.
        1    1    3    3  502    0 -0.32067782562E+03 -0.12603895543E+04 -0.31065227546E+03  0.13371316063E+04  0.50400001928E-02 0. -1.
       -1    1    3    3    0  502  0.32067782562E+03  0.12603895543E+04 -0.17171604173E+04  0.21540789204E+04  0.50400001928E-02 0.  1.
</event>
<event>
 5   0  0.6949625E-07  0.3786528E+04  0.7818609E-02  0.8049052E-01
        2   -1    0    0  501    0  0.00000000000E+00  0.00000000000E+00  0.19542996214E+04  0.19542996214E+04  0.25500000920E-02 0. -1.
       -2   -1    0    0    0  501  0.00000000000E+00  0.00000000000E+00 -0.18341343606E+04  0.18341343606E+04  0.25500000920E-02 0.  1.
    10030    2    1    2    0    0  0.00000000000E+00  0.00000000000E+00  0.12016526075E+03  0.37884339820E+04  0.37865277427E+04 0.  0.
        5    1    3    3  502    0 -0.95202667883E+03 -0.16351961358E+04 -0.47944194320E+01  0.18921591572E+04  0.46999998093E+01 0.  1.
       -5    1    3    3    0  502  0.95202667883E+03  0.16351961358E+04  0.12495968019E+03  0.18962748248E+04  0.46999998093E+01 0. -1.
</event>
<event>
 5   0  0.2411746E-07  0.3694203E+04  0.7818609E-02  0.8069248E-01
       -1   -1    0    0    0  501  0.00000000000E+00  0.00000000000E+00  0.11226079580E+04  0.11226079580E+04  0.50400001928E-02 0.  1.
        1   -1    0    0  501    0  0.00000000000E+00  0.00000000000E+00 -0.30391594299E+04  0.30391594299E+04  0.50400001928E-02 0. -1.
    10030    2    1    2    0    0  0.00000000000E+00  0.00000000000E+00 -0.19165514719E+04  0.41617673879E+04  0.36942033305E+04 0.  0.
        1    1    3    3  502    0 -0.16700056243E+04  0.68562320708E+03 -0.51792408143E+03  0.18780956636E+04  0.50400001928E-02 0.  1.
       -1    1    3    3    0  502  0.16700056243E+04 -0.68562320708E+03 -0.13986273905E+04  0.22836717244E+04  0.50400001928E-02 0. -1.
</event>
<event>
 5   0  0.2411746E-07  0.3711820E+04  0.7818609E-02  0.8065347E-01
        1   -1    0    0  501    0  0.00000000000E+00  0.00000000000E+00  0.12023820182E+04  0.12023820182E+04  0.50400001928E-02 0. -1.
       -1   -1    0    0    0  501  0.00000000000E+00  0.00000000000E+00 -0.28646481061E+04  0.28646481061E+04  0.50400001928E-02 0.  1.
    10030    2    1    2    0    0  0.00000000000E+00  0.00000000000E+00 -0.16622660879E+04  0.40670301243E+04  0.37118197000E+04 0.  0.
        1    1    3    3  502    0 -0.12212787577E+04  0.41885384492E+02 -0.23616321627E+04  0.26590567240E+04  0.50400001928E-02 0.  1.
       -1    1    3    3    0  502  0.12212787577E+04 -0.41885384492E+02  0.69936607474E+03  0.14079734003E+04  0.50400001928E-02 0. -1.
</event>
<event>
 5   0  0.2287500E-07  0.3752018E+04  0.7818609E-02  0.8056531E-01
       -1   -1    0    0    0  501  0.00000000000E+00  0.00000000000E+00  0.12501509170E+04  0.12501509170E+04  0.50400001928E-02 0.  1.
        1   -1    0    0  501    0  0.00000000000E+00  0.00000000000E+00 -0.28151881130E+04  0.28151881130E+04  0.50400001928E-02 0. -1.
    10030    2    1    2    0    0  0.00000000000E+00  0.00000000000E+00 -0.15650371959E+04  0.40653390300E+04  0.37520181242E+04 0.  0.
        4    1    3    3  502    0 -0.32374670553E+02 -0.85367234734E+03 -0.25922040884E+04  0.27293457539E+04  0.12699999809E+01 0. -1.
       -4    1    3    3    0  502  0.32374670553E+02  0.85367234734E+03  0.10271668924E+04  0.13359932761E+04  0.12699999809E+01 0.  1.
</event>
<event>
 5   0  0.6939921E-07  0.3776532E+04  0.7818609E-02  0.8051210E-01
       -2   -1    0    0    0  501  0.00000000000E+00  0.00000000000E+00  0.15893066193E+04  0.15893066193E+04  0.25500000920E-02 0.  1.
        2   -1    0    0  501    0  0.00000000000E+00  0.00000000000E+00 -0.22434619145E+04  0.22434619145E+04  0.25500000920E-02 0. -1.
    10030    2    1    2    0    0  0.00000000000E+00  0.00000000000E+00 -0.65415529525E+03  0.38327685338E+04  0.37765322034E+04 0.  0.
        4    1    3    3  502    0 -0.11540588099E+04  0.35628859335E+03 -0.18001575672E+04  0.21678012312E+04  0.12699999809E+01 0. -1.
       -4    1    3    3    0  502  0.11540588099E+04 -0.35628859335E+03  0.11460022719E+04  0.16649673026E+04  0.12699999809E+01 0.  1.
</event>
<event>
 5   0  0.2411746E-07  0.3650421E+04  0.7818609E-02  0.8079039E-01
        1   -1    0    0  501    0  0.00000000000E+00  0.00000000000E+00  0.12997297903E+04  0.12997297903E+04  0.50400001928E-02 0. -1.
       -1   -1    0    0    0  501  0.00000000000E+00  0.00000000000E+00 -0.25631431461E+04  0.25631431461E+04  0.50400001928E-02 0.  1.
    10030    2    1    2    0    0  0.00000000000E+00  0.00000000000E+00 -0.12634133558E+04  0.38628729364E+04  0.36504210737E+04 0.  0.
        1    1    3    3  502    0 -0.36789636846E+03 -0.14345967949E+04  0.49713843006E+03  0.15622299192E+04  0.50400001928E-02 0. -1.
       -1    1    3    3    0  502  0.36789636846E+03  0.14345967949E+04 -0.17605517859E+04  0.23006430172E+04  0.50400001928E-02 0.  1.
</event>
<event>
 5   0  0.6939921E-07  0.3677206E+04  0.7818609E-02  0.8073032E-01
        2   -1    0    0  501    0  0.00000000000E+00  0.00000000000E+00  0.18526639149E+04  0.18526639149E+04  0.25500000920E-02 0. -1.
       -2   -1    0    0    0  501  0.00000000000E+00  0.00000000000E+00 -0.18246483714E+04  0.18246483714E+04  0.25500000920E-02 0.  1.
    10030    2    1    2    0    0  0.00000000000E+00  0.00000000000E+00  0.28015543522E+02  0.36773122863E+04  0.36772055668E+04 0.  0.
        4    1    3    3  502    0 -0.28051484403E+03 -0.44252531996E+03 -0.17484114828E+04  0.18252291809E+04  0.12699999809E+01 0.  1.
       -4    1    3    3    0  502  0.28051484403E+03  0.44252531996E+03  0.17764270264E+04  0.18520831054E+04  0.12699999809E+01 0. -1.
</event>
<event>
 5   0  0.2345471E-07  0.3696364E+04  0.7818609E-02  0.8068768E-01
        1   -1    0    0  501    0  0.00000000000E+00  0.00000000000E+00  0.29105257413E+04  0.29105257413E+04  0.50400001928E-02 0.  1.
       -1   -1    0    0    0  501  0.00000000000E+00  0.00000000000E+00 -0.11735945833E+04  0.11735945834E+04  0.50400001928E-02 0. -1.
    10030    2    1    2    0    0  0.00000000000E+00  0.00000000000E+00  0.17369311579E+04  0.40841203246E+04  0.36963642919E+04 0.  0.
        5    1    3    3  502    0 -0.97186457449E+03 -0.13997763542E+04  0.77969724075E+02  0.17058710270E+04  0.46999998093E+01 0. -1.
       -5    1    3    3    0  502  0.97186457449E+03  0.13997763542E+04  0.16589614338E+04  0.23782492977E+04  0.46999998093E+01 0.  1.
</event>
<event>
 5   0  0.7074157E-07  0.3810119E+04  0.7818609E-02  0.8043987E-01
       -2   -1    0    0    0  501  0.00000000000E+00  0.00000000000E+00  0.17835598133E+04  0.17835598133E+04  0.25500000920E-02 0.  1.
        2   -1    0    0  501    0  0.00000000000E+00  0.00000000000E+00 -0.20348360251E+04  0.20348360251E+04  0.25500000920E-02 0. -1.
    10030    2    1    2    0    0  0.00000000000E+00  0.00000000000E+00 -0.25127621175E+03  0.38183958384E+04  0.38101190328E+04 0.  0.
        3    1    3    3  502    0  0.14104080551E+04 -0.11656399568E+04 -0.65715270402E+03  0.19441751663E+04  0.10100000352E+00 0. -1.
       -3    1    3    3    0  502 -0.14104080551E+04  0.11656399568E+04  0.40587649227E+03  0.18742206721E+04  0.10100000352E+00 0.  1.
</event>
<event>
 5   0  0.2411746E-07  0.4068176E+04  0.7818609E-02  0.7990933E-01
       -1   -1    0    0    0  501  0.00000000000E+00  0.00000000000E+00  0.18356171354E+04  0.18356171354E+04  0.50400001928E-02 0.  1.
        1   -1    0    0  501    0  0.00000000000E+00  0.00000000000E+00 -0.22540184986E+04  0.22540184987E+04  0.50400001928E-02 0. -1.
    10030    2    1    2    0    0  0.00000000000E+00  0.00000000000E+00 -0.41840136327E+03  0.40896356340E+04  0.40681764857E+04 0.  0.
        1    1    3    3  502    0 -0.11851422709E+04  0.90021765501E+03  0.11846777230E+04  0.19022132730E+04  0.50400001928E-02 0.  1.
       -1    1    3    3    0  502  0.11851422709E+04 -0.90021765501E+03 -0.16030790862E+04  0.21874223610E+04  0.50400001928E-02 0. -1.
</event>
<event>
 5   0  0.2287500E-07  0.3707107E+04  0.7818609E-02  0.8066389E-01
        3   -1    0    0  501    0  0.00000000000E+00  0.00000000000E+00  0.17736515096E+04  0.17736515125E+04  0.10100000352E+00 0. -1.
       -3   -1    0    0    0  501  0.00000000000E+00  0.00000000000E+00 -0.19370553495E+04  0.19370553521E+04  0.10100000352E+00 0.  1.
    10030    2    1    2    0    0  0.00000000000E+00  0.00000000000E+00 -0.16340383990E+03  0.37107068646E+04  0.37071073116E+04 0.  0.
        2    1    3    3  502    0 -0.17799574672E+04 -0.14850189196E+03 -0.57752091086E+03  0.18771872041E+04  0.25500000920E-02 0.  1.
       -2    1    3    3    0  502  0.17799574672E+04  0.14850189196E+03  0.41411707096E+03  0.18335196605E+04  0.25500000920E-02 0. -1.
</event>
<event>
 5   0  0.6949625E-07  0.3704163E+04  0.7818609E-02  0.8067040E-01
       -2   -1    0    0    0  501  0.00000000000E+00  0.00000000000E+00  0.17278375194E+04  0.17278375194E+04  0.25500000920E-02 0. -1.
        2   -1    0    0  501    0  0.00000000000E+00  0.00000000000E+00 -0.19852591243E+04  0.19852591243E+04  0.25500000920E-02 0.  1.
    10030    2    1    2    0    0  0.00000000000E+00  0.00000000000E+00 -0.25742160482E+03  0.37130966437E+04  0.37041626318E+04 0.  0.
        5    1    3    3  502    0 -0.10170934502E+04 -0.10615939368E+04 -0.12578032438E+04  0.19348260550E+04  0.46999998093E+01 0.  1.
       -5    1    3    3    0  502  0.10170934502E+04  0.10615939368E+04  0.10003816390E+04  0.17782705887E+04  0.46999998093E+01 0. -1.
</event>
<event>
 5   0  0.2411746E-07  0.3527179E+04  0.7818609E-02  0.8107379E-01
        1   -1    0    0  501    0  0.00000000000E+00  0.00000000000E+00  0.17598170096E+04  0.17598170096E+04  0.50400001928E-02 0. -1.
       -1   -1    0    0    0  501  0.00000000000E+00  0.00000000000E+00 -0.17673696308E+04  0.17673696308E+04  0.50400001928E-02 0.  1.
    10030    2    1    2    0    0  0.00000000000E+00  0.00000000000E+00 -0.75526211771E+01  0.35271866403E+04  0.35271785543E+04 0.  0.
        1    1    3    3  502    0 -0.24555596416E+03 -0.17457928919E+04  0.42662845750E+02  0.17634938819E+04  0.50400001928E-02 0.  1.
       -1    1    3    3    0  502  0.24555596416E+03  0.17457928919E+04 -0.50215466927E+02  0.17636927584E+04  0.50400001928E-02 0. -1.
</event>
<event>
 5   0  0.2345471E-07  0.3563749E+04  0.7818609E-02  0.8098846E-01
       -1   -1    0    0    0  501  0.00000000000E+00  0.00000000000E+00  0.14752535204E+04  0.14752535204E+04  0.50400001928E-02 0. -1.
        1   -1    0    0  501    0  0.00000000000E+00  0.00000000000E+00 -0.21522248797E+04  0.21522248798E+04  0.50400001928E-02 0.  1.
    10030    2    1    2    0    0  0.00000000000E+00  0.00000000000E+00 -0.67697135937E+03  0.36274784001E+04  0.35637493349E+04 0.  0.
        5    1    3    3  502    0  0.17061636491E+04  0.45648172861E+03 -0.57868283984E+03  0.18585655450E+04  0.46999998093E+01 0. -1.
       -5    1    3    3    0  502 -0.17061636491E+04 -0.45648172861E+03 -0.98288519532E+02  0.17689128551E+04  0.46999998093E+01 0.  1.
</event>
<event>
 5   0  0.2287500E-07  0.3717958E+04  0.7818609E-02  0.8063994E-01
       -1   -1    0    0    0  501  0.00000000000E+00  0.00000000000E+00  0.17875252430E+04  0.17875252430E+04  0.50400001928E-02 0. -1.
        1   -1    0    0  501    0  0.00000000000E+00  0.00000000000E+00 -0.19332887424E+04  0.19332887424E+04  0.50400001928E-02 0.  1.
    10030    2    1    2    0    0  0.00000000000E+00  0.00000000000E+00 -0.14576349940E+03  0.37208139855E+04  0.37179577346E+04 0.  0.
        3    1    3    3  502    0  0.50519079134E+03 -0.55598535241E+03 -0.17746188929E+04  0.19270728250E+04  0.10100000352E+00 0.  1.
       -3    1    3    3    0  502 -0.50519079134E+03  0.55598535241E+03  0.16288553935E+04  0.17937411605E+04  0.10100000352E+00 0. -1.
</event>
<event>
 5   0  0.6939921E-07  0.3653018E+04  0.7818609E-02  0.8078454E-01
        2   -1    0    0  501    0  0.00000000000E+00  0.00000000000E+00  0.22436500294E+04  0.22436500294E+04  0.25500000920E-02 0. -1.
       -2   -1    0    0    0  501  0.00000000000E+00  0.00000000000E+00 -0.14869234972E+04  0.14869234972E+04  0.25500000920E-02 0.  1.
    10030    2    1    2    0    0  0.00000000000E+00  0.00000000000E+00  0.75672653222E+03  0.37305735266E+04  0.36530184495E+04 0.  0.
        4    1    3    3  502    0  0.17332468589E+04 -0.41013979755E+03  0.79164627689E+03  0.19491189723E+04  0.12699999809E+01 0.  1.
       -4    1    3    3    0  502 -0.17332468589E+04  0.41013979755E+03 -0.34919744666E+02  0.17814545543E+04  0.12699999809E+01 0. -1.
</event>
<event>
 5   0  0.2287500E-07  0.3877151E+04  0.7818609E-02  0.8029798E-01
        1   -1    0    0  501    0  0.00000000000E+00  0.00000000000E+00  0.20643375687E+04  0.20643375687E+04  0.50400001928E-02 0.  1.
       -1   -1    0    0    0  501  0.00000000000E+00  0.00000000000E+00 -0.18204747157E+04  0.18204747157E+04  0.50400001928E-02 0. -1.
    10030    2    1    2    0    0  0.00000000000E+00  0.00000000000E+00  0.24386285298E+03  0.38848122844E+04  0.38771506798E+04 0.  0.
        2    1    3    3  502    0  0.63553149234E+02 -0.53478615551E+03  0.19878786341E+04  0.20595379819E+04  0.25500000920E-02 0.  1.
       -2    1    3    3    0  502 -0.63553149234E+02  0.53478615551E+03 -0.17440157811E+04  0.18252743026E+04  0.25500000920E-02 0. -1.
</event>
<event>
 5   0  0.2287500E-07  0.3652512E+04  0.7818609E-02  0.8078568E-01
       -3   -1    0    0    0  501  0.00000000000E+00  0.00000000000E+00  0.16638083910E+04  0.16638083941E+04  0.10100000352E+00 0. -1.
        3   -1    0    0  501    0  0.00000000000E+00  0.00000000000E+00 -0.20045639086E+04  0.20045639111E+04  0.10100000352E+00 0.  1.
    10030    2    1    2    0    0  0.00000000000E+00  0.00000000000E+00 -0.34075551756E+03  0.36683723052E+04  0.36525116081E+04 0.  0.
        5    1    3    3  502    0 -0.32098029574E+02  0.15810868639E+04  0.74700105345E+03  0.17489707312E+04  0.46999998093E+01 0. -1.
       -5    1    3    3    0  502  0.32098029574E+02 -0.15810868639E+04 -0.10877565710E+04  0.19194015740E+04  0.46999998093E+01 0.  1.
</event>
<event>
 5   0  0.7300916E-07  0.3691227E+04  0.7818609E-02  0.8069909E-01
       -2   -1    0    0    0  501  0.00000000000E+00  0.00000000000E+00  0.24802509725E+04  0.24802509725E+04  0.25500000920E-02 0. -1.
        2   -1    0    0  501    0  0.00000000000E+00  0.00000000000E+00 -0.13733643819E+04  0.13733643819E+04  0.25500000920E-02 0.  1.
    10030    2    1    2    0    0  0.00000000000E+00  0.00000000000E+00  0.11068865906E+04  0.38536153545E+04  0.36912265408E+04 0.  0.
        1    1    3    3  502    0 -0.22421404921E+02 -0.16253322651E+04  0.14660155599E+04  0.21889288050E+04  0.50400001928E-02 0. -1.
       -1    1    3    3    0  502  0.22421404921E+02  0.16253322651E+04 -0.35912896930E+03  0.16646865495E+04  0.50400001928E-02 0.  1.
</event>
<event>
 5   0  0.6939921E-07  0.2672776E+04  0.7818609E-02  0.8343893E-01
        2   -1    0    0  501    0  0.00000000000E+00  0.00000000000E+00  0.24178988035E+04  0.24178988035E+04  0.25500000920E-02 0. -1.
       -2   -1    0    0    0  501  0.00000000000E+00  0.00000000000E+00 -0.73863005827E+03  0.73863005827E+03  0.25500000920E-02 0.  1.
    10030    2    1    2    0    0  0.00000000000E+00  0.00000000000E+00  0.16792687452E+04  0.31565288617E+04  0.26727758859E+04 0.  0.
        4    1    3    3  502    0 -0.10540407072E+04  0.44373413336E+03  0.23099962799E+02  0.11438693172E+04  0.12699999809E+01 0. -1.
       -4    1    3    3    0  502  0.10540407072E+04 -0.44373413336E+03  0.16561687824E+04  0.20126595445E+04  0.12699999809E+01 0.  1.
</event>
<event>
 5   0  0.6939921E-07  0.3709314E+04  0.7818609E-02  0.8065901E-01
       -2   -1    0    0    0  501  0.00000000000E+00  0.00000000000E+00  0.17581546283E+04  0.17581546283E+04  0.25500000920E-02 0.  1.
        2   -1    0    0  501    0  0.00000000000E+00  0.00000000000E+00 -0.19564560220E+04  0.19564560220E+04  0.25500000920E-02 0. -1.
    10030    2    1    2    0    0  0.00000000000E+00  0.00000000000E+00 -0.19830139370E+03  0.37146106502E+04  0.37093137964E+04 0.  0.
        4    1    3    3  502    0 -0.48830746495E+03  0.29771367723E+03  0.16676455695E+04  0.17629863789E+04  0.12699999809E+01 0.  1.
       -4    1    3    3    0  502  0.48830746495E+03 -0.29771367723E+03 -0.18659469632E+04  0.19516242713E+04  0.12699999809E+01 0. -1.
</event>
<event>
 5   0  0.7124627E-07  0.3656034E+04  0.7818609E-02  0.8077776E-01
       -2   -1    0    0    0  501  0.00000000000E+00  0.00000000000E+00  0.15867233769E+04  0.15867233769E+04  0.25500000920E-02 0. -1.
        2   -1    0    0  501    0  0.00000000000E+00  0.00000000000E+00 -0.21060040751E+04  0.21060040751E+04  0.25500000920E-02 0.  1.
    10030    2    1    2    0    0  0.00000000000E+00  0.00000000000E+00 -0.51928069815E+03  0.36927274520E+04  0.36560338608E+04 0.  0.
        2    1    3    3  502    0  0.12936720469E+04 -0.86507949010E+03  0.70899250758E+03  0.17101521175E+04  0.25500000920E-02 0. -1.
       -2    1    3    3    0  502 -0.12936720469E+04  0.86507949010E+03 -0.12282732057E+04  0.19825753345E+04  0.25500000920E-02 0.  1.
</event>
<event>
 5   0  0.7074157E-07  0.3703572E+04  0.7818609E-02  0.8067171E-01
        2   -1    0    0  501    0  0.00000000000E+00  0.00000000000E+00  0.12308627505E+04  0.12308627505E+04  0.25500000920E-02 0. -1.
       -2   -1    0    0    0  501  0.00000000000E+00  0.00000000000E+00 -0.27859406944E+04  0.27859406944E+04  0.25500000920E-02 0.  1.
    10030    2    1    2    0    0  0.00000000000E+00  0.00000000000E+00 -0.15550779439E+04  0.40168034449E+04  0.37035715874E+04 0.  0.
        3    1    3    3  502    0  0.27902626475E+03 -0.14528292753E+04  0.43045726985E+03  0.15407342506E+04  0.10100000352E+00 0. -1.
       -3    1    3    3    0  502 -0.27902626475E+03  0.14528292753E+04 -0.19855352138E+04  0.24760691943E+04  0.10100000352E+00 0.  1.
</event>
<event>
 5   0  0.2287500E-07  0.3668322E+04  0.7818609E-02  0.8075019E-01
       -1   -1    0    0    0  501  0.00000000000E+00  0.00000000000E+00  0.18832866552E+04  0.18832866552E+04  0.50400001928E-02 0. -1.
        1   -1    0    0  501    0  0.00000000000E+00  0.00000000000E+00 -0.17863163393E+04  0.17863163393E+04  0.50400001928E-02 0.  1.
    10030    2    1    2    0    0  0.00000000000E+00  0.00000000000E+00  0.96970315896E+02  0.36696029944E+04  0.36683215364E+04 0.  0.
        3    1    3    3  502    0 -0.11591341470E+04 -0.94895887645E+03  0.11071699330E+04  0.18627775473E+04  0.10100000352E+00 0. -1.
       -3    1    3    3    0  502  0.11591341470E+04  0.94895887645E+03 -0.10101996171E+04  0.18068254472E+04  0.10100000352E+00 0.  1.
</event>
<event>
 5   0  0.2287500E-07  0.3731023E+04  0.7818609E-02  0.8061121E-01
        1   -1    0    0  501    0  0.00000000000E+00  0.00000000000E+00  0.13667039606E+04  0.13667039607E+04  0.50400001928E-02 0.  1.
       -1   -1    0    0    0  501  0.00000000000E+00  0.00000000000E+00 -0.25463692109E+04  0.25463692109E+04  0.50400001928E-02 0. -1.
    10030    2    1    2    0    0  0.00000000000E+00  0.00000000000E+00 -0.11796652502E+04  0.39130731715E+04  0.37310228548E+04 0.  0.
        4    1    3    3  502    0 -0.42820069638E+03  0.93285923760E+03 -0.22235788590E+04  0.24490583392E+04  0.12699999809E+01 0. -1.
       -4    1    3    3    0  502  0.42820069638E+03 -0.93285923760E+03  0.10439136088E+04  0.14640148323E+04  0.12699999809E+01 0.  1.
</event>
<event>
 5   0  0.7074157E-07  0.3688315E+04  0.7818609E-02  0.8070556E-01
       -2   -1    0    0    0  501  0.00000000000E+00  0.00000000000E+00  0.15108902627E+04  0.15108902627E+04  0.25500000920E-02 0.  1.
        2   -1    0    0  501    0  0.00000000000E+00  0.00000000000E+00 -0.22509359701E+04  0.22509359701E+04  0.25500000920E-02 0. -1.
    10030    2    1    2    0    0  0.00000000000E+00  0.00000000000E+00 -0.74004570742E+03  0.37618262328E+04  0.36883151922E+04 0.  0.
        3    1    3    3  502    0 -0.13705672474E+04 -0.31839091078E+02 -0.16280771684E+04  0.21284039992E+04  0.10100000352E+00 0. -1.
       -3    1    3    3    0  502  0.13705672474E+04  0.31839091078E+02  0.88803146094E+03  0.16334222336E+04  0.10100000352E+00 0.  1.
</event>
<event>
 5   0  0.7124627E-07  0.3046143E+04  0.7818609E-02  0.8230676E-01
       -2   -1    0    0    0  501  0.00000000000E+00  0.00000000000E+00  0.15041849306E+04  0.15041849306E+04  0.25500000920E-02 0.  1.
        2   -1    0    0  501    0  0.00000000000E+00  0.00000000000E+00 -0.15421955184E+04  0.15421955184E+04  0.25500000920E-02 0. -1.
    10030    2    1    2    0    0  0.00000000000E+00  0.00000000000E+00 -0.38010587809E+02  0.30463804489E+04  0.30461433051E+04 0.  0.
        2    1    3    3  502    0  0.72061829010E+03 -0.10650889449E+04  0.79717225151E+03  0.15130065364E+04  0.25500000920E-02 0.  1.
       -2    1    3    3    0  502 -0.72061829010E+03  0.10650889449E+04 -0.83518283932E+03  0.15333739126E+04  0.25500000920E-02 0. -1.
</event>
<event>
 5   0  0.2411746E-07  0.3691226E+04  0.7818609E-02  0.8069909E-01
       -1   -1    0    0    0  501  0.00000000000E+00  0.00000000000E+00  0.16622820384E+04  0.16622820384E+04  0.50400001928E-02 0.  1.
        1   -1    0    0  501    0  0.00000000000E+00  0.00000000000E+00 -0.20491627608E+04  0.20491627608E+04  0.50400001928E-02 0. -1.
    10030    2    1    2    0    0  0.00000000000E+00  0.00000000000E+00 -0.38688072244E+03  0.37114447992E+04  0.36912255152E+04 0.  0.
        1    1    3    3  502    0  0.84711347470E+03  0.10503830604E+04 -0.14594563819E+04  0.19876918129E+04  0.50400001928E-02 0. -1.
       -1    1    3    3    0  502 -0.84711347470E+03 -0.10503830604E+04  0.10725756594E+04  0.17237529863E+04  0.50400001928E-02 0.  1.
</event>
<event>
 5   0  0.7300916E-07  0.3712898E+04  0.7818609E-02  0.8065109E-01
       -2   -1    0    0    0  501  0.00000000000E+00  0.00000000000E+00  0.13656915767E+04  0.13656915767E+04  0.25500000920E-02 0. -1.
        2   -1    0    0  501    0  0.00000000000E+00  0.00000000000E+00 -0.25235593888E+04  0.25235593889E+04  0.25500000920E-02 0.  1.
    10030    2    1    2    0    0  0.00000000000E+00  0.00000000000E+00 -0.11578678121E+04  0.38892509656E+04  0.37128984908E+04 0.  0.
        1    1    3    3  502    0  0.46220021114E+03  0.10789530660E+04 -0.20855230419E+04  0.23931517111E+04  0.50400001928E-02 0.  1.
       -1    1    3    3    0  502 -0.46220021114E+03 -0.10789530660E+04  0.92765522980E+03  0.14960992545E+04  0.50400001928E-02 0. -1.
</event>
<event>
 5   0  0.2287500E-07  0.3743856E+04  0.7818609E-02  0.8058312E-01
        1   -1    0    0  501    0  0.00000000000E+00  0.00000000000E+00  0.18714497115E+04  0.18714497115E+04  0.50400001928E-02 0. -1.
       -1   -1    0    0    0  501  0.00000000000E+00  0.00000000000E+00 -0.18724062195E+04  0.18724062195E+04  0.50400001928E-02 0.  1.
    10030    2    1    2    0    0  0.00000000000E+00  0.00000000000E+00 -0.95650793977E+00  0.37438559310E+04  0.37438558088E+04 0.  0.
        2    1    3    3  502    0  0.15900414191E+03 -0.18516862025E+04 -0.22428614652E+03  0.18719851456E+04  0.25500000920E-02 0.  1.
       -2    1    3    3    0  502 -0.15900414191E+03  0.18516862025E+04  0.22332963858E+03  0.18718707854E+04  0.25500000920E-02 0. -1.
</event>
<event>
 5   0  0.6949625E-07  0.3679070E+04  0.7818609E-02  0.8072616E-01
        2   -1    0    0  501    0  0.00000000000E+00  0.00000000000E+00  0.25239421688E+04  0.25239421688E+04  0.25500000920E-02 0. -1.
       -2   -1    0    0    0  501  0.00000000000E+00  0.00000000000E+00 -0.13407159478E+04  0.13407159478E+04  0.25500000920E-02 0.  1.
    10030    2    1    2    0    0  0.00000000000E+00  0.00000000000E+00  0.11832262211E+04  0.38646581166E+04  0.36790702723E+04 0.  0.
        5    1    3    3  502    0 -0.49963595407E+03  0.17596562811E+04  0.79595384343E+03  0.19948912064E+04  0.46999998093E+01 0. -1.
       -5    1    3    3    0  502  0.49963595407E+03 -0.17596562811E+04  0.38727237763E+03  0.18697669103E+04  0.46999998093E+01 0.  1.
</event>
<event>
 5   0  0.2287500E-07  0.3680585E+04  0.7818609E-02  0.8072278E-01
       -1   -1    0    0    0  501  0.00000000000E+00  0.00000000000E+00  0.16390657917E+04  0.16390657917E+04  0.50400001928E-02 0. -1.
        1   -1    0    0  501    0  0.00000000000E+00  0.00000000000E+00 -0.20662235940E+04  0.20662235940E+04  0.50400001928E-02 0.  1.
    10030    2    1    2    0    0  0.00000000000E+00  0.00000000000E+00 -0.42715780223E+03  0.37052893857E+04  0.36805849595E+04 0.  0.
        2    1    3    3  502    0 -0.75684830874E+03 -0.69160372577E+03 -0.17520844405E+04  0.20300086114E+04  0.25500000920E-02 0.  1.
       -2    1    3    3    0  502  0.75684830874E+03  0.69160372577E+03  0.13249266382E+04  0.16752807743E+04  0.25500000920E-02 0. -1.
</event>
<event>
 5   0  0.2287500E-07  0.3547266E+04  0.7818609E-02  0.8102679E-01
        1   -1    0    0  501    0  0.00000000000E+00  0.00000000000E+00  0.14733857810E+04  0.14733857811E+04  0.50400001928E-02 0. -1.
       -1   -1    0    0    0  501  0.00000000000E+00  0.00000000000E+00 -0.21350646534E+04  0.21350646534E+04  0.50400001928E-02 0.  1.
    10030    2    1    2    0    0  0.00000000000E+00  0.00000000000E+00 -0.66167887240E+03  0.36084504345E+04  0.35472659342E+04 0.  0.
        3    1    3    3  502    0  0.41841124163E+02 -0.58518983245E+03 -0.20335005039E+04  0.21164409109E+04  0.10100000352E+00 0.  1.
       -3    1    3    3    0  502 -0.41841124163E+02  0.58518983245E+03  0.13718216315E+04  0.14920095236E+04  0.10100000352E+00 0. -1.
</event>
<event>
 5   0  0.2345471E-07  0.3678704E+04  0.7818609E-02  0.8072698E-01
        1   -1    0    0  501    0  0.00000000000E+00  0.00000000000E+00  0.26466042605E+04  0.26466042605E+04  0.50400001928E-02 0.  1.
       -1   -1    0    0    0  501  0.00000000000E+00  0.00000000000E+00 -0.12783234997E+04  0.12783234997E+04  0.50400001928E-02 0. -1.
    10030    2    1    2    0    0  0.00000000000E+00  0.00000000000E+00  0.13682807609E+04  0.39249277602E+04  0.36787043483E+04 0.  0.
        5    1    3    3  502    0 -0.18137097362E+04 -0.25953276276E+03  0.85714817799E+03  0.20227766439E+04  0.46999998093E+01 0.  1.
       -5    1    3    3    0  502  0.18137097362E+04  0.25953276276E+03  0.51113258287E+03  0.19021511163E+04  0.46999998093E+01 0. -1.
</event>
<event>
 5   0  0.7300916E-07  0.3721950E+04  0.7818609E-02  0.8063115E-01
        2   -1    0    0  501    0  0.00000000000E+00  0.00000000000E+00  0.16295944095E+04  0.16295944096E+04  0.25500000920E-02 0. -1.
       -2   -1    0    0    0  501  0.00000000000E+00  0.00000000000E+00 -0.21252084964E+04  0.21252084965E+04  0.25500000920E-02 0.  1.
    10030    2    1    2    0    0  0.00000000000E+00  0.00000000000E+00 -0.49561408690E+03  0.37548029060E+04  0.37219499647E+04 0.  0.
        1    1    3    3  502    0 -0.13085946589E+04 -0.12554199545E+04 -0.66950225047E+03  0.19330629858E+04  0.50400001928E-02 0.  1.
       -1    1    3    3    0  502  0.13085946589E+04  0.12554199545E+04  0.17388816357E+03  0.18217399202E+04  0.50400001928E-02 0. -1.
</event>
<event>
 5   0  0.2287500E-07  0.3665400E+04  0.7818609E-02  0.8075673E-01
        1   -1    0    0  501    0  0.00000000000E+00  0.00000000000E+00  0.16848511088E+04  0.16848511088E+04  0.50400001928E-02 0.  1.
       -1   -1    0    0    0  501  0.00000000000E+00  0.00000000000E+00 -0.19935232147E+04  0.19935232147E+04  0.50400001928E-02 0. -1.
    10030    2    1    2    0    0  0.00000000000E+00  0.00000000000E+00 -0.30867210594E+03  0.36783743235E+04  0.36654002776E+04 0.  0.
        3    1    3    3  502    0 -0.10247712272E+04  0.15201936677E+02  0.13703846364E+04  0.17112396761E+04  0.10100000352E+00 0.  1.
       -3    1    3    3    0  502  0.10247712272E+04 -0.15201936677E+02 -0.16790567423E+04  0.19671346475E+04  0.10100000352E+00 0. -1.
</event>
<event>
 5   0  0.7124627E-07  0.3534302E+04  0.7818609E-02  0.8105709E-01
       -2   -1    0    0    0  501  0.00000000000E+00  0.00000000000E+00  0.18080465821E+04  0.18080465821E+04  0.25500000920E-02 0. -1.
        2   -1    0    0  501    0  0.00000000000E+00  0.00000000000E+00 -0.17271805979E+04  0.17271805979E+04  0.25500000920E-02 0.  1.
    10030    2    1    2    0    0  0.00000000000E+00  0.00000000000E+00  0.80865984220E+02  0.35352271800E+04  0.35343021810E+04 0.  0.
        2    1    3    3  502    0  0.13414479902E+04 -0.42384000952E+03 -0.10292859663E+04  0.17431444761E+04  0.25500000920E-02 0.  1.
       -2    1    3    3    0  502 -0.13414479902E+04  0.42384000952E+03  0.11101519505E+04  0.17920827039E+04  0.25500000920E-02 0. -1.
</event>
<event>
 5   0  0.2287500E-07  0.3735563E+04  0.7818609E-02  0.8060126E-01
        1   -1    0    0  501    0  0.00000000000E+00  0.00000000000E+00  0.17996682019E+04  0.17996682019E+04  0.50400001928E-02 0.  1.
       -1   -1    0    0    0  501  0.00000000000E+00  0.00000000000E+00 -0.19384726118E+04  0.19384726118E+04  0.50400001928E-02 0. -1.
    10030    2    1    2    0    0  0.00000000000E+00  0.00000000000E+00 -0.13880440992E+03  0.37381408137E+04  0.37355628865E+04 0.  0.
        4    1    3    3  502    0 -0.15125390689E+04 -0.64945932062E+03  0.81383596389E+03  0.18362740626E+04  0.12699999809E+01 0. -1.
       -4    1    3    3    0  502  0.15125390689E+04  0.64945932062E+03 -0.95264037382E+03  0.19018667511E+04  0.12699999809E+01 0.  1.
</event>
<event>
 5   0  0.2345471E-07  0.3621312E+04  0.7818609E-02  0.8085627E-01
        1   -1    0    0  501    0  0.00000000000E+00  0.00000000000E+00  0.19473479252E+04  0.19473479252E+04  0.50400001928E-02 0.  1.
       -1   -1    0    0    0  501  0.00000000000E+00  0.00000000000E+00 -0.16835590814E+04  0.16835590814E+04  0.50400001928E-02 0. -1.
    10030    2    1    2    0    0  0.00000000000E+00  0.00000000000E+00  0.26378884379E+03  0.36309070067E+04  0.36213120739E+04 0.  0.
        5    1    3    3  502    0  0.15197546563E+04 -0.98389183957E+03  0.15945957189E+03  0.18174561377E+04  0.46999998093E+01 0.  1.
       -5    1    3    3    0  502 -0.15197546563E+04  0.98389183957E+03  0.10432927190E+03  0.18134508690E+04  0.46999998093E+01 0. -1.
</event>
<event>
 5   0  0.6949625E-07  0.3549373E+04  0.7818609E-02  0.8102188E-01
        2   -1    0    0  501    0  0.00000000000E+00  0.00000000000E+00  0.30204152778E+04  0.30204152778E+04  0.25500000920E-02 0. -1.
       -2   -1    0    0    0  501  0.00000000000E+00  0.00000000000E+00 -0.10427413610E+04  0.10427413610E+04  0.25500000920E-02 0.  1.
    10030    2    1    2    0    0  0.00000000000E+00  0.00000000000E+00  0.19776739168E+04  0.40631566389E+04  0.35493728672E+04 0.  0.
        5    1    3    3  502    0  0.13507730452E+04  0.83103418599E+03  0.19005410210E+04  0.24753351087E+04  0.46999998093E+01 0. -1.
       -5    1    3    3    0  502 -0.13507730452E+04 -0.83103418599E+03  0.77132895763E+02  0.15878215301E+04  0.46999998093E+01 0.  1.
</event>
<event>
 5   0  0.2345471E-07  0.3695401E+04  0.7818609E-02  0.8068982E-01
       -1   -1    0    0    0  501  0.00000000000E+00  0.00000000000E+00  0.11361895107E+04  0.11361895107E+04  0.50400001928E-02 0.  1.
        1   -1    0    0  501    0  0.00000000000E+00  0.00000000000E+00 -0.30047776016E+04  0.30047776016E+04  0.50400001928E-02 0. -1.
    10030    2    1    2    0    0  0.00000000000E+00  0.00000000000E+00 -0.18685880910E+04  0.41409671123E+04  0.36954008134E+04 0.  0.
        5    1    3    3  502    0  0.54098360538E+03  0.51464977864E+03  0.95958971456E+03  0.12158791742E+04  0.46999998093E+01 0.  1.
       -5    1    3    3    0  502 -0.54098360538E+03 -0.51464977864E+03 -0.28281778055E+04  0.29250879381E+04  0.46999998093E+01 0. -1.
</event>
<event>
 5   0  0.2287500E-07  0.3722918E+04  0.7818609E-02  0.8062902E-01
       -1   -1    0    0    0  501  0.00000000000E+00  0.00000000000E+00  0.13689402427E+04  0.13689402427E+04  0.50400001928E-02 0. -1.
        1   -1    0    0  501    0  0.00000000000E+00  0.00000000000E+00 -0.25311761748E+04  0.25311761748E+04  0.50400001928E-02 0.  1.
    10030    2    1    2    0    0  0.00000000000E+00  0.00000000000E+00 -0.11622359321E+04  0.39001164175E+04  0.37229176338E+04 0.  0.
        2    1    3    3  502    0 -0.51061779300E+03  0.93272420225E+02  0.12915908608E+04  0.13919903831E+04  0.25500000920E-02 0. -1.
       -2    1    3    3    0  502  0.51061779300E+03 -0.93272420225E+02 -0.24538267929E+04  0.25081260344E+04  0.25500000920E-02 0.  1.
</event>
<event>
 5   0  0.7300916E-07  0.3695428E+04  0.7818609E-02  0.8068976E-01
       -2   -1    0    0    0  501  0.00000000000E+00  0.00000000000E+00  0.17753513881E+04  0.17753513881E+04  0.25500000920E-02 0.  1.
        2   -1    0    0  501    0  0.00000000000E+00  0.00000000000E+00 -0.19230257751E+04  0.19230257751E+04  0.25500000920E-02 0. -1.
    10030    2    1    2    0    0  0.00000000000E+00  0.00000000000E+00 -0.14767438703E+03  0.36983771632E+04  0.36954277042E+04 0.  0.
        1    1    3    3  502    0  0.98400279342E+03 -0.66904725783E+03 -0.14885285503E+04  0.19056765139E+04  0.50400001928E-02 0. -1.
       -1    1    3    3    0  502 -0.98400279342E+03  0.66904725783E+03  0.13408541633E+04  0.17927006493E+04  0.50400001928E-02 0.  1.
</event>
<event>
 5   0  0.2287500E-07  0.3707730E+04  0.7818609E-02  0.8066251E-01
        1   -1    0    0  501    0  0.00000000000E+00  0.00000000000E+00  0.24125512571E+04  0.24125512571E+04  0.50400001928E-02 0. -1.
       -1   -1    0    0    0  501  0.00000000000E+00  0.00000000000E+00 -0.14245565954E+04  0.14245565954E+04  0.50400001928E-02 0.  1.
    10030    2    1    2    0    0  0.00000000000E+00  0.00000000000E+00  0.98799466165E+03  0.38371078525E+04  0.37077301979E+04 0.  0.
        4    1    3    3  502    0 -0.38574714468E+03  0.15645358231E+04 -0.45463476546E+03  0.16742961459E+04  0.12699999809E+01 0.  1.
       -4    1    3    3    0  502  0.38574714468E+03 -0.15645358231E+04  0.14426294271E+04  0.21628117066E+04  0.12699999809E+01 0. -1.
</event>
<event>
 5   0  0.7300916E-07  0.3242987E+04  0.7818609E-02  0.8177556E-01
        2   -1    0    0  501    0  0.00000000000E+00  0.00000000000E+00  0.23704188854E+04  0.23704188854E+04  0.25500000920E-02 0. -1.
       -2   -1    0    0    0  501  0.00000000000E+00  0.00000000000E+00 -0.11091883315E+04  0.11091883315E+04  0.25500000920E-02 0.  1.
    10030    2    1    2    0    0  0.00000000000E+00  0.00000000000E+00  0.12612305539E+04  0.34796072169E+04  0.32429868754E+04 0.  0.
        1    1    3    3  502    0 -0.95255072205E+03 -0.13112345821E+04  0.57641243520E+03  0.17201570576E+04  0.50400001928E-02 0.  1.
       -1    1    3    3    0  502  0.95255072205E+03  0.13112345821E+04  0.68481811866E+03  0.17594501593E+04  0.50400001928E-02 0. -1.
</event>
<event>
 5   0  0.7300916E-07  0.3698113E+04  0.7818609E-02  0.8068380E-01
       -2   -1    0    0    0  501  0.00000000000E+00  0.00000000000E+00  0.11762869402E+04  0.11762869402E+04  0.25500000920E-02 0. -1.
        2   -1    0    0  501    0  0.00000000000E+00  0.00000000000E+00 -0.29066119938E+04  0.29066119938E+04  0.25500000920E-02 0.  1.
    10030    2    1    2    0    0  0.00000000000E+00  0.00000000000E+00 -0.17303250536E+04  0.40828989341E+04  0.36981128856E+04 0.  0.
        1    1    3    3  502    0  0.38922566751E+03  0.89391458888E+03  0.86943553836E+03  0.13063299996E+04  0.50400001928E-02 0. -1.
       -1    1    3    3    0  502 -0.38922566751E+03 -0.89391458888E+03 -0.25997605919E+04  0.27765689345E+04  0.50400001928E-02 0.  1.
</event>
<event>
 5   0  0.2287500E-07  0.3478791E+04  0.7818609E-02  0.8118835E-01
        1   -1    0    0  501    0  0.00000000000E+00  0.00000000000E+00  0.14065072909E+04  0.14065072909E+04  0.50400001928E-02 0.  1.
       -1   -1    0    0    0  501  0.00000000000E+00  0.00000000000E+00 -0.21510705664E+04  0.21510705664E+04  0.50400001928E-02 0. -1.
    10030    2    1    2    0    0  0.00000000000E+00  0.00000000000E+00 -0.74456327549E+03  0.35575778573E+04  0.34787908445E+04 0.  0.
        4    1    3    3  502    0  0.18340042315E+03  0.17238787646E+04 -0.22729227796E+03  0.17484441950E+04  0.12699999809E+01 0.  1.
       -4    1    3    3    0  502 -0.18340042315E+03 -0.17238787646E+04 -0.51727099753E+03  0.18091336623E+04  0.12699999809E+01 0. -1.
</event>
<event>
 5   0  0.2287500E-07  0.3719580E+04  0.7818609E-02  0.8063637E-01
       -1   -1    0    0    0  501  0.00000000000E+00  0.00000000000E+00  0.22012373323E+04  0.22012373323E+04  0.50400001928E-02 0.  1.
        1   -1    0    0  501    0  0.00000000000E+00  0.00000000000E+00 -0.15713062762E+04  0.15713062762E+04  0.50400001928E-02 0. -1.
    10030    2    1    2    0    0  0.00000000000E+00  0.00000000000E+00  0.62993105613E+03  0.37725436085E+04  0.37195795653E+04 0.  0.
        3    1    3    3  502    0  0.14711945649E+04 -0.17656511652E+03 -0.82497322259E+03  0.16959273323E+04  0.10100000352E+00 0. -1.
       -3    1    3    3    0  502 -0.14711945649E+04  0.17656511652E+03  0.14549042787E+04  0.20766162762E+04  0.10100000352E+00 0.  1.
</event>
<event>
 5   0  0.6939921E-07  0.3447413E+04  0.7818609E-02  0.8126367E-01
        2   -1    0    0  501    0  0.00000000000E+00  0.00000000000E+00  0.22855207534E+04  0.22855207534E+04  0.25500000920E-02 0.  1.
       -2   -1    0    0    0  501  0.00000000000E+00  0.00000000000E+00 -0.12999946253E+04  0.12999946253E+04  0.25500000920E-02 0. -1.
    10030    2    1    2    0    0  0.00000000000E+00  0.00000000000E+00  0.98552612804E+03  0.35855153787E+04  0.34474133465E+04 0.  0.
        4    1    3    3  502    0  0.15159002623E+04 -0.16658378123E+03  0.13283519779E+04  0.20224303082E+04  0.12699999809E+01 0.  1.
       -4    1    3    3    0  502 -0.15159002623E+04  0.16658378123E+03 -0.34282584991E+03  0.15630850705E+04  0.12699999809E+01 0. -1.
</event>
<event>
 5   0  0.2287500E-07  0.3684965E+04  0.7818609E-02  0.8071302E-01
       -1   -1    0    0    0  501  0.00000000000E+00  0.00000000000E+00  0.16928493751E+04  0.16928493751E+04  0.50400001928E-02 0. -1.
        1   -1    0    0  501    0  0.00000000000E+00  0.00000000000E+00 -0.20053418272E+04  0.20053418272E+04  0.50400001928E-02 0.  1.
    10030    2    1    2    0    0  0.00000000000E+00  0.00000000000E+00 -0.31249245207E+03  0.36981912023E+04  0.36849649436E+04 0.  0.
        4    1    3    3  502    0 -0.20062973478E+02 -0.15272002215E+04  0.87798500176E+03  0.17617043780E+04  0.12699999809E+01 0. -1.
       -4    1    3    3    0  502  0.20062973478E+02  0.15272002215E+04 -0.11904774538E+04  0.19364868242E+04  0.12699999809E+01 0.  1.
</event>
<event>
 5   0  0.2411746E-07  0.3684845E+04  0.7818609E-02  0.8071329E-01
        1   -1    0    0  501    0  0.00000000000E+00  0.00000000000E+00  0.19632341842E+04  0.19632341842E+04  0.50400001928E-02 0.  1.
       -1   -1    0    0    0  501  0.00000000000E+00  0.00000000000E+00 -0.17290450339E+04  0.17290450339E+04  0.50400001928E-02 0. -1.
    10030    2    1    2    0    0  0.00000000000E+00  0.00000000000E+00  0.23418915022E+03  0.36922792181E+04  0.36848448090E+04 0.  0.
        1    1    3    3  502    0  0.17682813676E+04  0.21883178017E+03 -0.35269457506E+03  0.18163424254E+04  0.50400001928E-02 0. -1.
       -1    1    3    3    0  502 -0.17682813676E+04 -0.21883178017E+03  0.58688372529E+03  0.18759367927E+04  0.50400001928E-02 0.  1.
</event>
<event>
 5   0  0.2345471E-07  0.3494198E+04  0.7818609E-02  0.8115166E-01
       -1   -1    0    0    0  501  0.00000000000E+00  0.00000000000E+00  0.13875872564E+04  0.13875872564E+04  0.50400001928E-02 0.  1.
        1   -1    0    0  501    0  0.00000000000E+00  0.00000000000E+00 -0.21997576855E+04  0.21997576855E+04  0.50400001928E-02 0. -1.
    10030    2    1    2    0    0  0.00000000000E+00  0.00000000000E+00 -0.81217042912E+03  0.35873449420E+04  0.34941984670E+04 0.  0.
        5    1    3    3  502    0  0.89735734024E+03 -0.14659713051E+04 -0.72749882332E+03  0.18664401119E+04  0.46999998093E+01 0. -1.
       -5    1    3    3    0  502 -0.89735734024E+03  0.14659713051E+04 -0.84671605796E+02  0.17209048301E+04  0.46999998093E+01 0.  1.
</event>
<event>
 5   0  0.6939921E-07  0.3312212E+04  0.7818609E-02  0.8159795E-01
        2   -1    0    0  501    0  0.00000000000E+00  0.00000000000E+00  0.21253212481E+04  0.21253212481E+04  0.25500000920E-02 0.  1.
       -2   -1    0    0    0  501  0.00000000000E+00  0.00000000000E+00 -0.12904810761E+04  0.12904810761E+04  0.25500000920E-02 0. -1.
    10030    2    1    2    0    0  0.00000000000E+00  0.00000000000E+00  0.83484017199E+03  0.34158023241E+04  0.33122118599E+04 0.  0.
        4    1    3    3  502    0 -0.79407044971E+03  0.13696182837E+04 -0.83872136475E+02  0.15853826890E+04  0.12699999809E+01 0.  1.
       -4    1    3    3    0  502  0.79407044971E+03 -0.13696182837E+04  0.91871230846E+03  0.18304196352E+04  0.12699999809E+01 0. -1.
</event>
<event>
 5   0  0.7124627E-07  0.3674751E+04  0.7818609E-02  0.8073580E-01
        2   -1    0    0  501    0  0.00000000000E+00  0.00000000000E+00  0.23607771084E+04  0.23607771084E+04  0.25500000920E-02 0. -1.
       -2   -1    0    0    0  501  0.00000000000E+00  0.00000000000E+00 -0.14300158413E+04  0.14300158413E+04  0.25500000920E-02 0.  1.
    10030    2    1    2    0    0  0.00000000000E+00  0.00000000000E+00  0.93076126701E+03  0.37907929497E+04  0.36747509645E+04 0.  0.
        2    1    3    3  502    0  0.10323540969E+04 -0.13899902102E+03  0.20267392135E+04  0.22787600902E+04  0.25500000920E-02 0. -1.
       -2    1    3    3    0  502 -0.10323540969E+04  0.13899902102E+03 -0.10959779464E+04  0.15120328595E+04  0.25500000920E-02 0.  1.
</event>
<event>
 5   0  0.2345471E-07  0.3664004E+04  0.7818609E-02  0.8075986E-01
        1   -1    0    0  501    0  0.00000000000E+00  0.00000000000E+00  0.25689440856E+04  0.25689440856E+04  0.50400001928E-02 0.  1.
       -1   -1    0    0    0  501  0.00000000000E+00  0.00000000000E+00 -0.13064634942E+04  0.13064634942E+04  0.50400001928E-02 0. -1.
    10030    2    1    2    0    0  0.00000000000E+00  0.00000000000E+00  0.12624805914E+04  0.38754075798E+04  0.36640041848E+04 0.  0.
        5    1    3    3  502    0  0.96314750081E+03 -0.53094905872E+03  0.21809201945E+04  0.24425386375E+04  0.46999998093E+01 0.  1.
       -5    1    3    3    0  502 -0.96314750081E+03  0.53094905872E+03 -0.91843960306E+03  0.14328689423E+04  0.46999998093E+01 0. -1.
</event>
<event>
 5   0  0.2411746E-07  0.3695838E+04  0.7818609E-02  0.8068885E-01
        1   -1    0    0  501    0  0.00000000000E+00  0.00000000000E+00  0.21120498883E+04  0.21120498883E+04  0.50400001928E-02 0. -1.
       -1   -1    0    0    0  501  0.00000000000E+00  0.00000000000E+00 -0.16168201928E+04  0.16168201928E+04  0.50400001928E-02 0.  1.
    10030    2    1    2    0    0  0.00000000000E+00  0.00000000000E+00  0.49522969552E+03  0.37288700812E+04  0.36958381500E+04 0.  0.
        1    1    3    3  502    0  0.25444961252E+03 -0.42374460420E+03  0.20441190712E+04  0.21030280246E+04  0.50400001928E-02 0. -1.
       -1    1    3    3    0  502 -0.25444961252E+03  0.42374460420E+03 -0.15488893757E+04  0.16258420566E+04  0.50400001928E-02 0.  1.
</event>
<event>
 5   0  0.7074157E-07  0.3702496E+04  0.7818609E-02  0.8067409E-01
       -2   -1    0    0    0  501  0.00000000000E+00  0.00000000000E+00  0.16950735255E+04  0.16950735255E+04  0.25500000920E-02 0. -1.
        2   -1    0    0  501    0  0.00000000000E+00  0.00000000000E+00 -0.20218112041E+04  0.20218112041E+04  0.25500000920E-02 0.  1.
    10030    2    1    2    0    0  0.00000000000E+00  0.00000000000E+00 -0.32673767857E+03  0.37168847296E+04  0.37024957235E+04 0.  0.
        3    1    3    3  502    0 -0.18416748825E+04  0.11888759375E+03 -0.30959893910E+03  0.18712969155E+04  0.10100000352E+00 0.  1.
       -3    1    3    3    0  502  0.18416748825E+04 -0.11888759375E+03 -0.17138739469E+02  0.18455878141E+04  0.10100000352E+00 0. -1.
</event>
<event>
 5   0  0.6939921E-07  0.3682836E+04  0.7818609E-02  0.8071776E-01
       -2   -1    0    0    0  501  0.00000000000E+00  0.00000000000E+00  0.13920718990E+04  0.13920718990E+04  0.25500000920E-02 0.  1.
        2   -1    0    0  501    0  0.00000000000E+00  0.00000000000E+00 -0.24358088241E+04  0.24358088241E+04  0.25500000920E-02 0. -1.
    10030    2    1    2    0    0  0.00000000000E+00  0.00000000000E+00 -0.10437369251E+04  0.38278807232E+04  0.36828364153E+04 0.  0.
        4    1    3    3  502    0 -0.36728868597E+03 -0.15421730315E+04 -0.14955779756E+04  0.21794388571E+04  0.12699999809E+01 0. -1.
       -4    1    3    3    0  502  0.36728868597E+03  0.15421730315E+04  0.45184105045E+03  0.16484418661E+04  0.12699999809E+01 0.  1.
</event>
<event>
 5   0  0.6939921E-07  0.3690471E+04  0.7818609E-02  0.8070077E-01
        2   -1    0    0  501    0  0.00000000000E+00  0.00000000000E+00  0.21777816973E+04  0.21777816973E+04  0.25500000920E-02 0. -1.
       -2   -1    0    0    0  501  0.00000000000E+00  0.00000000000E+00 -0.15634685556E+04  0.15634685556E+04  0.25500000920E-02 0.  1.
    10030    2    1    2    0    0  0.00000000000E+00  0.00000000000E+00  0.61431314167E+03  0.37412502528E+04  0.36904705416E+04 0.  0.
        4    1    3    3  502    0 -0.10721755166E+04 -0.33863860386E+03  0.17903861273E+04  0.21141713602E+04  0.12699999809E+01 0. -1.
       -4    1    3    3    0  502  0.10721755166E+04  0.33863860386E+03 -0.11760729857E+04  0.16270788926E+04  0.12699999809E+01 0.  1.
</event>
<event>
 5   0  0.2287500E-07  0.3619052E+04  0.7818609E-02  0.8086142E-01
       -1   -1    0    0    0  501  0.00000000000E+00  0.00000000000E+00  0.32938207748E+04  0.32938207748E+04  0.50400001928E-02 0.  1.
        1   -1    0    0  501    0  0.00000000000E+00  0.00000000000E+00 -0.99409893675E+03  0.99409893676E+03  0.50400001928E-02 0. -1.
    10030    2    1    2    0    0  0.00000000000E+00  0.00000000000E+00  0.22997218380E+04  0.42879197115E+04  0.36190516604E+04 0.  0.
        3    1    3    3  502    0  0.40607183552E+03 -0.49591754399E+03 -0.85509412924E+03  0.10686507971E+04  0.10100000352E+00 0. -1.
       -3    1    3    3    0  502 -0.40607183552E+03  0.49591754399E+03  0.31548159673E+04  0.32192689145E+04  0.10100000352E+00 0.  1.
</event>
<event>
 5   0  0.2287500E-07  0.3726114E+04  0.7818609E-02  0.8062199E-01
        1   -1    0    0  501    0  0.00000000000E+00  0.00000000000E+00  0.11399840097E+04  0.11399840097E+04  0.50400001928E-02 0.  1.
       -1   -1    0    0    0  501  0.00000000000E+00  0.00000000000E+00 -0.30447637251E+04  0.30447637251E+04  0.50400001928E-02 0. -1.
    10030    2    1    2    0    0  0.00000000000E+00  0.00000000000E+00 -0.19047797154E+04  0.41847477348E+04  0.37261143085E+04 0.  0.
        3    1    3    3  502    0  0.69623402114E+03 -0.15708673488E+04 -0.14359938456E+03  0.17242351444E+04  0.10100000352E+00 0.  1.
       -3    1    3    3    0  502 -0.69623402114E+03  0.15708673488E+04 -0.17611803308E+04  0.24605125904E+04  0.10100000352E+00 0. -1.
</event>
<event>
 5   0  0.2411746E-07  0.3951754E+04  0.7818609E-02  0.8014351E-01
        1   -1    0    0  501    0  0.00000000000E+00  0.00000000000E+00  0.21162914636E+04  0.21162914636E+04  0.50400001928E-02 0.  1.
       -1   -1    0    0    0  501  0.00000000000E+00  0.00000000000E+00 -0.18447793819E+04  0.18447793819E+04  0.50400001928E-02 0. -1.
    10030    2    1    2    0    0  0.00000000000E+00  0.00000000000E+00  0.27151208174E+03  0.39610708455E+04  0.39517544753E+04 0.  0.
        1    1    3    3  502    0  0.22250806802E+02 -0.13658744398E+04 -0.12951888577E+04  0.18824511311E+04  0.50400001928E-02 0.  1.
       -1    1    3    3    0  502 -0.22250806802E+02  0.13658744398E+04  0.15667009394E+04  0.20786197145E+04  0.50400001928E-02 0. -1.
</event>
<event>
 5   0  0.2287500E-07  0.3655858E+04  0.7818609E-02  0.8077815E-01
       -1   -1    0    0    0  501  0.00000000000E+00  0.00000000000E+00  0.19943847010E+04  0.19943847010E+04  0.50400001928E-02 0. -1.
        1   -1    0    0  501    0  0.00000000000E+00  0.00000000000E+00 -0.16753657021E+04  0.16753657021E+04  0.50400001928E-02 0.  1.
    10030    2    1    2    0    0  0.00000000000E+00  0.00000000000E+00  0.31901899889E+03  0.36697504031E+04  0.36558576147E+04 0.  0.
        2    1    3    3  502    0 -0.45332077520E+01  0.11644471118E+04 -0.12548752173E+04  0.17119198104E+04  0.25500000920E-02 0.  1.
       -2    1    3    3    0  502  0.45332077520E+01 -0.11644471118E+04  0.15738942162E+04  0.19578305927E+04  0.25500000920E-02 0. -1.
</event>
<event>
 5   0  0.7074157E-07  0.3660864E+04  0.7818609E-02  0.8076691E-01
       -2   -1    0    0    0  501  0.00000000000E+00  0.00000000000E+00  0.14286287935E+04  0.14286287935E+04  0.25500000920E-02 0.  1.
        2   -1    0    0  501    0  0.00000000000E+00  0.00000000000E+00 -0.23452423921E+04  0.23452423921E+04  0.25500000920E-02 0. -1.
    10030    2    1    2    0    0  0.00000000000E+00  0.00000000000E+00 -0.91661359860E+03  0.37738711856E+04  0.36608637282E+04 0.  0.
        3    1    3    3  502    0 -0.17625952663E+04  0.47181046677E+03 -0.60816839425E+03  0.19233346030E+04  0.10100000352E+00 0. -1.
       -3    1    3    3    0  502  0.17625952663E+04 -0.47181046677E+03 -0.30844520435E+03  0.18505365826E+04  0.10100000352E+00 0.  1.
</event>
<event>
 5   0  0.7074157E-07  0.3683589E+04  0.7818609E-02  0.8071608E-01
        2   -1    0    0  501    0  0.00000000000E+00  0.00000000000E+00  0.23145897536E+04  0.23145897536E+04  0.25500000920E-02 0.  1.
       -2   -1    0    0    0  501  0.00000000000E+00  0.00000000000E+00 -0.14655758145E+04  0.14655758145E+04  0.25500000920E-02 0. -1.
    10030    2    1    2    0    0  0.00000000000E+00  0.00000000000E+00  0.84901393907E+03  0.37801655681E+04  0.36835888822E+04 0.  0.
        3    1    3    3  502    0 -0.76873214292E+03  0.64224606900E+03  0.20105958863E+04  0.22463136355E+04  0.10100000352E+00 0.  1.
       -3    1    3    3    0  502  0.76873214292E+03 -0.64224606900E+03 -0.11615819473E+04  0.15338519326E+04  0.10100000352E+00 0. -1.
</event>
<event>
 5   0  0.2287500E-07  0.3732975E+04  0.7818609E-02  0.8060693E-01
        1   -1    0    0  501    0  0.00000000000E+00  0.00000000000E+00  0.17539920101E+04  0.17539920101E+04  0.50400001928E-02 0.  1.
       -1   -1    0    0    0  501  0.00000000000E+00  0.00000000000E+00 -0.19861976920E+04  0.19861976920E+04  0.50400001928E-02 0. -1.
    10030    2    1    2    0    0  0.00000000000E+00  0.00000000000E+00 -0.23220568188E+03  0.37401897021E+04  0.37329746221E+04 0.  0.
        3    1    3    3  502    0 -0.29826943635E+03  0.18318507822E+04 -0.31430562907E+03  0.18824000594E+04  0.10100000352E+00 0.  1.
       -3    1    3    3    0  502  0.29826943635E+03 -0.18318507822E+04  0.82099947189E+02  0.18577896427E+04  0.10100000352E+00 0. -1.
</event>
<event>
 5   0  0.7124627E-07  0.3709758E+04  0.7818609E-02  0.8065803E-01
       -2   -1    0    0    0  501  0.00000000000E+00  0.00000000000E+00  0.10999541431E+04  0.10999541431E+04  0.25500000920E-02 0. -1.
        2   -1    0    0  501    0  0.00000000000E+00  0.00000000000E+00 -0.31279264165E+04  0.31279264165E+04  0.25500000920E-02 0.  1.
    10030    2    1    2    0    0  0.00000000000E+00  0.00000000000E+00 -0.20279722735E+04  0.42278805596E+04  0.37097577393E+04 0.  0.
        2    1    3    3  502    0  0.25621062915E+03 -0.31483615994E+03  0.10487159479E+04  0.11245313840E+04  0.25500000920E-02 0. -1.
       -2    1    3    3    0  502 -0.25621062915E+03  0.31483615994E+03 -0.30766882214E+04  0.31033491756E+04  0.25500000920E-02 0.  1.
</event>
<event>
 5   0  0.7300916E-07  0.3576947E+04  0.7818609E-02  0.8095793E-01
        2   -1    0    0  501    0  0.00000000000E+00  0.00000000000E+00  0.18453306778E+04  0.18453306778E+04  0.25500000920E-02 0. -1.
       -2   -1    0    0    0  501  0.00000000000E+00  0.00000000000E+00 -0.17333684913E+04  0.17333684913E+04  0.25500000920E-02 0.  1.
    10030    2    1    2    0    0  0.00000000000E+00  0.00000000000E+00  0.11196218649E+03  0.35786991692E+04  0.35769473315E+04 0.  0.
        1    1    3    3  502    0  0.17289098879E+04  0.45451940760E+03  0.11005162473E+03  0.17910412202E+04  0.50400001928E-02 0.  1.
       -1    1    3    3    0  502 -0.17289098879E+04 -0.45451940760E+03  0.19105617607E+01  0.17876579490E+04  0.50400001928E-02 0. -1.
</event>
<event>
 5   0  0.6939921E-07  0.3721330E+04  0.7818609E-02  0.8063251E-01
       -2   -1    0    0    0  501  0.00000000000E+00  0.00000000000E+00  0.17456416767E+04  0.17456416767E+04  0.25500000920E-02 0. -1.
        2   -1    0    0  501    0  0.00000000000E+00  0.00000000000E+00 -0.19832669893E+04  0.19832669893E+04  0.25500000920E-02 0.  1.
    10030    2    1    2    0    0  0.00000000000E+00  0.00000000000E+00 -0.23762531259E+03  0.37289086660E+04  0.37213296078E+04 0.  0.
        4    1    3    3  502    0  0.14077253438E+04 -0.30645160848E+03  0.10610695118E+04  0.17892661495E+04  0.12699999809E+01 0. -1.
       -4    1    3    3    0  502 -0.14077253438E+04  0.30645160848E+03 -0.12986948244E+04  0.19396425165E+04  0.12699999809E+01 0.  1.
</event>
<event>
 5   0  0.2345471E-07  0.3833240E+04  0.7818609E-02  0.8039059E-01
       -1   -1    0    0    0  501  0.00000000000E+00  0.00000000000E+00  0.19401721348E+04  0.19401721348E+04  0.50400001928E-02 0.  1.
        1   -1    0    0  501    0  0.00000000000E+00  0.00000000000E+00 -0.18933539410E+04  0.18933539410E+04  0.50400001928E-02 0. -1.
    10030    2    1    2    0    0  0.00000000000E+00  0.00000000000E+00  0.46818193817E+02  0.38335260758E+04  0.38332401739E+04 0.  0.
        5    1    3    3  502    0  0.10793079877E+04 -0.12010891510E+04 -0.10090871943E+04  0.19041533385E+04  0.46999998093E+01 0. -1.
       -5    1    3    3    0  502 -0.10793079877E+04  0.12010891510E+04  0.10559053881E+04  0.19293727373E+04  0.46999998093E+01 0.  1.
</event>
<event>
 5   0  0.7300916E-07  0.3351060E+04  0.7818609E-02  0.8150023E-01
        2   -1    0    0  501    0  0.00000000000E+00  0.00000000000E+00  0.12514386258E+04  0.12514386258E+04  0.25500000920E-02 0. -1.
       -2   -1    0    0    0  501  0.00000000000E+00  0.00000000000E+00 -0.22433390266E+04  0.22433390266E+04  0.25500000920E-02 0.  1.
    10030    2    1    2    0    0  0.00000000000E+00  0.00000000000E+00 -0.99190040079E+03  0.34947776525E+04  0.33510601957E+04 0.  0.
        1    1    3    3  502    0 -0.64447883352E+03  0.21478306504E+03 -0.20932762866E+04  0.22007476784E+04  0.50400001928E-02 0.  1.
       -1    1    3    3    0  502  0.64447883352E+03 -0.21478306504E+03  0.11013758858E+04  0.12940299741E+04  0.50400001928E-02 0. -1.
</event>
<event>
 5   0  0.7074157E-07  0.3919119E+04  0.7818609E-02  0.8021064E-01
        2   -1    0    0  501    0  0.00000000000E+00  0.00000000000E+00  0.30914880962E+04  0.30914880962E+04  0.25500000920E-02 0. -1.
       -2   -1    0    0    0  501  0.00000000000E+00  0.00000000000E+00 -0.12420795297E+04  0.12420795297E+04  0.25500000920E-02 0.  1.
    10030    2    1    2    0    0  0.00000000000E+00  0.00000000000E+00  0.18494085665E+04  0.43335676259E+04  0.39191193300E+04 0.  0.
        3    1    3    3  502    0  0.42742260059E+03 -0.96350587185E+03  0.27513156721E+04  0.29463149157E+04  0.10100000352E+00 0. -1.
       -3    1    3    3    0  502 -0.42742260059E+03  0.96350587185E+03 -0.90190710567E+03  0.13872527102E+04  0.10100000352E+00 0.  1.
</event>
<event>
 5   0  0.2287500E-07  0.3682436E+04  0.7818609E-02  0.8071865E-01
       -1   -1    0    0    0  501  0.00000000000E+00  0.00000000000E+00  0.16423264623E+04  0.16423264623E+04  0.50400001928E-02 0. -1.
        1   -1    0    0  501    0  0.00000000000E+00  0.00000000000E+00 -0.20641960577E+04  0.20641960577E+04  0.50400001928E-02 0.  1.
    10030    2    1    2    0    0  0.00000000000E+00  0.00000000000E+00 -0.42186959548E+03  0.37065225200E+04  0.36824360464E+04 0.  0.
        4    1    3    3  502    0  0.84616697470E+03  0.10163057158E+04 -0.15004100838E+04  0.20000269722E+04  0.12699999809E+01 0.  1.
       -4    1    3    3    0  502 -0.84616697470E+03 -0.10163057158E+04  0.10785404883E+04  0.17064955478E+04  0.12699999809E+01 0. -1.
</event>
<event>
 5   0  0.6949625E-07  0.3684325E+04  0.7818609E-02  0.8071444E-01
        2   -1    0    0  501    0  0.00000000000E+00  0.00000000000E+00  0.25123181093E+04  0.25123181093E+04  0.25500000920E-02 0. -1.
       -2   -1    0    0    0  501  0.00000000000E+00  0.00000000000E+00 -0.13507696397E+04  0.13507696397E+04  0.25500000920E-02 0.  1.
    10030    2    1    2    0    0  0.00000000000E+00  0.00000000000E+00  0.11615484696E+04  0.38630877489E+04  0.36843251904E+04 0.  0.
        5    1    3    3  502    0  0.94479795852E+03 -0.12810891898E+04 -0.39141803372E+03  0.16392262998E+04  0.46999998093E+01 0.  1.
       -5    1    3    3    0  502 -0.94479795852E+03  0.12810891898E+04  0.15529665033E+04  0.22238614492E+04  0.46999998093E+01 0. -1.
</event>
<event>
 5   0  0.7124627E-07  0.3695977E+04  0.7818609E-02  0.8068854E-01
        2   -1    0    0  501    0  0.00000000000E+00  0.00000000000E+00  0.26050605626E+04  0.26050605626E+04  0.25500000920E-02 0. -1.
       -2   -1    0    0    0  501  0.00000000000E+00  0.00000000000E+00 -0.13109335264E+04  0.13109335264E+04  0.25500000920E-02 0.  1.
    10030    2    1    2    0    0  0.00000000000E+00  0.00000000000E+00  0.12941270362E+04  0.39159940890E+04  0.36959768559E+04 0.  0.
        2    1    3    3  502    0 -0.13599547835E+04 -0.40845784834E+03 -0.60602651557E+03  0.15438856709E+04  0.25500000920E-02 0.  1.
       -2    1    3    3    0  502  0.13599547835E+04  0.40845784834E+03  0.19001535518E+04  0.23721084182E+04  0.25500000920E-02 0. -1.
</event>
<event>
 5   0  0.7124627E-07  0.3707693E+04  0.7818609E-02  0.8066259E-01
       -2   -1    0    0    0  501  0.00000000000E+00  0.00000000000E+00  0.17889961148E+04  0.17889961148E+04  0.25500000920E-02 0.  1.
        2   -1    0    0  501    0  0.00000000000E+00  0.00000000000E+00 -0.19210474750E+04  0.19210474750E+04  0.25500000920E-02 0. -1.
    10030    2    1    2    0    0  0.00000000000E+00  0.00000000000E+00 -0.13205136022E+03  0.37100435899E+04  0.37076927970E+04 0.  0.
        2    1    3    3  502    0  0.89164776044E+03  0.32610092362E+03 -0.16593194237E+04  0.19117318041E+04  0.25500000920E-02 0. -1.
       -2    1    3    3    0  502 -0.89164776044E+03 -0.32610092362E+03  0.15272680635E+04  0.17983117857E+04  0.25500000920E-02 0.  1.
</event>
<event>
 5   0  0.2287500E-07  0.3701227E+04  0.7818609E-02  0.8067690E-01
        1   -1    0    0  501    0  0.00000000000E+00  0.00000000000E+00  0.22873135707E+04  0.22873135707E+04  0.50400001928E-02 0.  1.
       -1   -1    0    0    0  501  0.00000000000E+00  0.00000000000E+00 -0.14972891938E+04  0.14972891938E+04  0.50400001928E-02 0. -1.
    10030    2    1    2    0    0  0.00000000000E+00  0.00000000000E+00  0.79002437697E+03  0.37846027645E+04  0.37012267654E+04 0.  0.
        3    1    3    3  502    0 -0.17978561935E+04  0.29450396249E+03  0.62493829325E+02  0.18228891808E+04  0.10100000352E+00 0.  1.
       -3    1    3    3    0  502  0.17978561935E+04 -0.29450396249E+03  0.72753054765E+03  0.19617135837E+04  0.10100000352E+00 0. -1.
</event>
<event>
 5   0  0.2287500E-07  0.3779307E+04  0.7818609E-02  0.8050610E-01
       -1   -1    0    0    0  501  0.00000000000E+00  0.00000000000E+00  0.26355601874E+04  0.26355601874E+04  0.50400001928E-02 0. -1.
        1   -1    0    0  501    0  0.00000000000E+00  0.00000000000E+00 -0.13548509369E+04  0.13548509369E+04  0.50400001928E-02 0.  1.
    10030    2    1    2    0    0  0.00000000000E+00  0.00000000000E+00  0.12807092504E+04  0.39904111243E+04  0.37793074441E+04 0.  0.
        2    1    3    3  502    0  0.99098642031E+03  0.16011481863E+04  0.47320333835E+03  0.19415589095E+04  0.25500000920E-02 0.  1.
       -2    1    3    3    0  502 -0.99098642031E+03 -0.16011481863E+04  0.80750591208E+03  0.20488522147E+04  0.25500000920E-02 0. -1.
</event>
<event>
 5   0  0.7300916E-07  0.3671081E+04  0.7818609E-02  0.8074401E-01
       -2   -1    0    0    0  501  0.00000000000E+00  0.00000000000E+00  0.16128955195E+04  0.16128955195E+04  0.25500000920E-02 0. -1.
        2   -1    0    0  501    0  0.00000000000E+00  0.00000000000E+00 -0.20889200777E+04  0.20889200777E+04  0.25500000920E-02 0.  1.
    10030    2    1    2    0    0  0.00000000000E+00  0.00000000000E+00 -0.47602455820E+03  0.37018155973E+04  0.36710814941E+04 0.  0.
        1    1    3    3  502    0 -0.12849806182E+04  0.13051952459E+04 -0.35943640256E+03  0.18665219921E+04  0.50400001928E-02 0. -1.
       -1    1    3    3    0  502  0.12849806182E+04 -0.13051952459E+04 -0.11658815565E+03  0.18352936052E+04  0.50400001928E-02 0.  1.
</event>
<event>
 5   0  0.2287500E-07  0.3485626E+04  0.7818609E-02  0.8117205E-01
       -1   -1    0    0    0  501  0.00000000000E+00  0.00000000000E+00  0.18389466196E+04  0.18389466196E+04  0.50400001928E-02 0.  1.
        1   -1    0    0  501    0  0.00000000000E+00  0.00000000000E+00 -0.16517048257E+04  0.16517048257E+04  0.50400001928E-02 0. -1.
    10030    2    1    2    0    0  0.00000000000E+00  0.00000000000E+00  0.18724179389E+03  0.34906514453E+04  0.34856259156E+04 0.  0.
        2    1    3    3  502    0 -0.62182938244E+03  0.13507029749E+04  0.10039566538E+04  0.17941569803E+04  0.25500000920E-02 0.  1.
       -2    1    3    3    0  502  0.62182938244E+03 -0.13507029749E+04 -0.81671485990E+03  0.16964944650E+04  0.25500000920E-02 0. -1.
</event>
<event>
 5   0  0.2345471E-07  0.3685026E+04  0.7818609E-02  0.8071288E-01
        1   -1    0    0  501    0  0.00000000000E+00  0.00000000000E+00  0.19641734986E+04  0.19641734986E+04  0.50400001928E-02 0.  1.
       -1   -1    0    0    0  501  0.00000000000E+00  0.00000000000E+00 -0.17283883945E+04  0.17283883945E+04  0.50400001928E-02 0. -1.
    10030    2    1    2    0    0  0.00000000000E+00  0.00000000000E+00  0.23578510411E+03  0.36925618931E+04  0.36850262847E+04 0.  0.
        5    1    3    3  502    0 -0.12118656996E+03 -0.56439244505E+03 -0.16354305504E+04  0.17343241311E+04  0.46999998093E+01 0. -1.
       -5    1    3    3    0  502  0.12118656996E+03  0.56439244505E+03  0.18712156545E+04  0.19582377619E+04  0.46999998093E+01 0.  1.
</event>
<event>
 5   0  0.6949625E-07  0.3591725E+04  0.7818609E-02  0.8092390E-01
       -2   -1    0    0    0  501  0.00000000000E+00  0.00000000000E+00  0.13834780150E+04  0.13834780150E+04  0.25500000920E-02 0. -1.
        2   -1    0    0  501    0  0.00000000000E+00  0.00000000000E+00 -0.23311692174E+04  0.23311692174E+04  0.25500000920E-02 0.  1.
    10030    2    1    2    0    0  0.00000000000E+00  0.00000000000E+00 -0.94769120237E+03  0.37146472323E+04  0.35917245782E+04 0.  0.
        5    1    3    3  502    0 -0.18405878892E+03 -0.17325077611E+04 -0.92422425230E+03  0.19722254786E+04  0.46999998093E+01 0.  1.
       -5    1    3    3    0  502  0.18405878892E+03  0.17325077611E+04 -0.23466950078E+02  0.17424217537E+04  0.46999998093E+01 0. -1.
</event>
<event>
 5   0  0.2287500E-07  0.3690001E+04  0.7818609E-02  0.8070181E-01
       -1   -1    0    0    0  501  0.00000000000E+00  0.00000000000E+00  0.14367007246E+04  0.14367007246E+04  0.50400001928E-02 0.  1.
        1   -1    0    0  501    0  0.00000000000E+00  0.00000000000E+00 -0.23693366518E+04  0.23693366518E+04  0.50400001928E-02 0. -1.
    10030    2    1    2    0    0  0.00000000000E+00  0.00000000000E+00 -0.93263592726E+03  0.38060373764E+04  0.36900014550E+04 0.  0.
        2    1    3    3  502    0  0.50588750315E+03  0.64561867663E+03  0.12383106972E+04  0.14853144530E+04  0.25500000920E-02 0.  1.
       -2    1    3    3    0  502 -0.50588750315E+03 -0.64561867663E+03 -0.21709466244E+04  0.23207229235E+04  0.25500000920E-02 0. -1.
</event>
<event>
 5   0  0.2287500E-07  0.3536675E+04  0.7818609E-02  0.8105153E-01
        1   -1    0    0  501    0  0.00000000000E+00  0.00000000000E+00  0.15979052407E+04  0.15979052407E+04  0.50400001928E-02 0.  1.
       -1   -1    0    0    0  501  0.00000000000E+00  0.00000000000E+00 -0.19569480911E+04  0.19569480912E+04  0.50400001928E-02 0. -1.
    10030    2    1    2    0    0  0.00000000000E+00  0.00000000000E+00 -0.35904285049E+03  0.35548533318E+04  0.35366750547E+04 0.  0.
        3    1    3    3  502    0  0.64813005606E+03 -0.10051081122E+04 -0.14887919929E+04  0.19096639744E+04  0.10100000352E+00 0. -1.
       -3    1    3    3    0  502 -0.64813005606E+03  0.10051081122E+04  0.11297491424E+04  0.16451893574E+04  0.10100000352E+00 0.  1.
</event>
<event>
 5   0  0.2345471E-07  0.3914550E+04  0.7818609E-02  0.8022010E-01
        1   -1    0    0  501    0  0.00000000000E+00  0.00000000000E+00  0.25362586610E+04  0.25362586610E+04  0.50400001928E-02 0. -1.
       -1   -1    0    0    0  501  0.00000000000E+00  0.00000000000E+00 -0.15104629559E+04  0.15104629559E+04  0.50400001928E-02 0.  1.
    10030    2    1    2    0    0  0.00000000000E+00  0.00000000000E+00  0.10257957051E+04  0.40467216170E+04  0.39145496569E+04 0.  0.
        5    1    3    3  502    0  0.13109592534E+04  0.13087909684E+03  0.20092369822E+04  0.24026649460E+04  0.46999998093E+01 0. -1.
       -5    1    3    3    0  502 -0.13109592534E+04 -0.13087909684E+03 -0.98344127710E+03  0.16440566710E+04  0.46999998093E+01 0.  1.
</event>
<event>
 5   0  0.7124627E-07  0.3698301E+04  0.7818609E-02  0.8068338E-01
       -2   -1    0    0    0  501  0.00000000000E+00  0.00000000000E+00  0.21428550726E+04  0.21428550726E+04  0.25500000920E-02 0.  1.
        2   -1    0    0  501    0  0.00000000000E+00  0.00000000000E+00 -0.15957016474E+04  0.15957016474E+04  0.25500000920E-02 0. -1.
    10030    2    1    2    0    0  0.00000000000E+00  0.00000000000E+00  0.54715342525E+03  0.37385567200E+04  0.36983008906E+04 0.  0.
        2    1    3    3  502    0 -0.55223821925E+03  0.10237351496E+04 -0.11795529707E+04  0.16566067481E+04  0.25500000920E-02 0. -1.
       -2    1    3    3    0  502  0.55223821925E+03 -0.10237351496E+04  0.17267063960E+04  0.20819499718E+04  0.25500000920E-02 0.  1.
</event>
<event>
 5   0  0.7300916E-07  0.3828934E+04  0.7818609E-02  0.8039974E-01
        2   -1    0    0  501    0  0.00000000000E+00  0.00000000000E+00  0.23807642078E+04  0.23807642078E+04  0.25500000920E-02 0.  1.
       -2   -1    0    0    0  501  0.00000000000E+00  0.00000000000E+00 -0.15394988145E+04  0.15394988145E+04  0.25500000920E-02 0. -1.
    10030    2    1    2    0    0  0.00000000000E+00  0.00000000000E+00  0.84126539334E+03  0.39202630223E+04  0.38289338859E+04 0.  0.
        1    1    3    3  502    0  0.56418141084E+03  0.52547773605E+03 -0.13735224884E+04  0.15751163581E+04  0.50400001928E-02 0. -1.
       -1    1    3    3    0  502 -0.56418141084E+03 -0.52547773605E+03  0.22147878818E+04  0.23451466642E+04  0.50400001928E-02 0.  1.
</event>
<event>
 5   0  0.2287500E-07  0.3698627E+04  0.7818609E-02  0.8068266E-01
       -1   -1    0    0    0  501  0.00000000000E+00  0.00000000000E+00  0.24775197181E+04  0.24775197181E+04  0.50400001928E-02 0.  1.
        1   -1    0    0  501    0  0.00000000000E+00  0.00000000000E+00 -0.13803971410E+04  0.13803971410E+04  0.50400001928E-02 0. -1.
    10030    2    1    2    0    0  0.00000000000E+00  0.00000000000E+00  0.10971225771E+04  0.38579168591E+04  0.36986273863E+04 0.  0.
        3    1    3    3  502    0 -0.13386675084E+04  0.79281872870E+03 -0.49417670072E+03  0.16324223891E+04  0.10100000352E+00 0. -1.
       -3    1    3    3    0  502  0.13386675084E+04 -0.79281872870E+03  0.15912992778E+04  0.22254944701E+04  0.10100000352E+00 0.  1.
</event>
<event>
 5   0  0.7300916E-07  0.3863119E+04  0.7818609E-02  0.8032744E-01
        2   -1    0    0  501    0  0.00000000000E+00  0.00000000000E+00  0.24264941539E+04  0.24264941539E+04  0.25500000920E-02 0. -1.
       -2   -1    0    0    0  501  0.00000000000E+00  0.00000000000E+00 -0.15375771493E+04  0.15375771493E+04  0.25500000920E-02 0.  1.
    10030    2    1    2    0    0  0.00000000000E+00  0.00000000000E+00  0.88891700462E+03  0.39640713032E+04  0.38631189285E+04 0.  0.
        1    1    3    3  502    0 -0.18219825212E+03 -0.66729387961E+03 -0.14061235071E+04  0.15670547668E+04  0.50400001928E-02 0.  1.
       -1    1    3    3    0  502  0.18219825212E+03  0.66729387961E+03  0.22950405118E+04  0.23970165363E+04  0.50400001928E-02 0. -1.
</event>
<event>
 5   0  0.7300916E-07  0.3713999E+04  0.7818609E-02  0.8064866E-01
       -2   -1    0    0    0  501  0.00000000000E+00  0.00000000000E+00  0.13686039065E+04  0.13686039065E+04  0.25500000920E-02 0.  1.
        2   -1    0    0  501    0  0.00000000000E+00  0.00000000000E+00 -0.25196828339E+04  0.25196828339E+04  0.25500000920E-02 0. -1.
    10030    2    1    2    0    0  0.00000000000E+00  0.00000000000E+00 -0.11510789275E+04  0.38882867404E+04  0.37139993374E+04 0.  0.
        1    1    3    3  502    0 -0.11420771895E+04  0.14380916667E+04 -0.86415702119E+03  0.20295850083E+04  0.50400001928E-02 0.  1.
       -1    1    3    3    0  502  0.11420771895E+04 -0.14380916667E+04 -0.28692190629E+03  0.18587017321E+04  0.50400001928E-02 0. -1.
</event>
<event>
 5   0  0.6949625E-07  0.3791838E+04  0.7818609E-02  0.8047909E-01
       -2   -1    0    0    0  501  0.00000000000E+00  0.00000000000E+00  0.25231732825E+04  0.25231732825E+04  0.25500000920E-02 0. -1.
        2   -1    0    0  501    0  0.00000000000E+00  0.00000000000E+00 -0.14245988434E+04  0.14245988434E+04  0.25500000920E-02 0.  1.
    10030    2    1    2    0    0  0.00000000000E+00  0.00000000000E+00  0.10985744391E+04  0.39477721260E+04  0.37918384671E+04 0.  0.
        5    1    3    3  502    0  0.14697804144E+04 -0.66801683825E+03  0.15841381503E+04  0.22618613423E+04  0.46999998093E+01 0. -1.
       -5    1    3    3    0  502 -0.14697804144E+04  0.66801683825E+03 -0.48556371126E+03  0.16859107836E+04  0.46999998093E+01 0.  1.
</event>
<event>
 5   0  0.7300916E-07  0.3709115E+04  0.7818609E-02  0.8065945E-01
       -2   -1    0    0    0  501  0.00000000000E+00  0.00000000000E+00  0.22762526692E+04  0.22762526692E+04  0.25500000920E-02 0.  1.
        2   -1    0    0  501    0  0.00000000000E+00  0.00000000000E+00 -0.15109850040E+04  0.15109850040E+04  0.25500000920E-02 0. -1.
    10030    2    1    2    0    0  0.00000000000E+00  0.00000000000E+00  0.76526766522E+03  0.37872376733E+04  0.37091150689E+04 0.  0.
        1    1    3    3  502    0 -0.12754263821E+04 -0.10996087259E+04  0.11758697088E+04  0.20539039361E+04  0.50400001928E-02 0.  1.
       -1    1    3    3    0  502  0.12754263821E+04  0.10996087259E+04 -0.41060204363E+03  0.17333337372E+04  0.50400001928E-02 0. -1.
</event>
<event>
 5   0  0.2411746E-07  0.3701749E+04  0.7818609E-02  0.8067574E-01
        1   -1    0    0  501    0  0.00000000000E+00  0.00000000000E+00  0.26305405950E+04  0.26305405950E+04  0.50400001928E-02 0. -1.
       -1   -1    0    0    0  501  0.00000000000E+00  0.00000000000E+00 -0.13022938734E+04  0.13022938734E+04  0.50400001928E-02 0.  1.
    10030    2    1    2    0    0  0.00000000000E+00  0.00000000000E+00  0.13282467216E+04  0.39328344684E+04  0.37017492625E+04 0.  0.
        1    1    3    3  502    0 -0.96626470620E+02  0.16191111155E+04 -0.28309322901E+03  0.16465112376E+04  0.50400001928E-02 0.  1.
       -1    1    3    3    0  502  0.96626470620E+02 -0.16191111155E+04  0.16113399507E+04  0.22863232308E+04  0.50400001928E-02 0. -1.
</event>
<event>
 5   0  0.2411746E-07  0.3695856E+04  0.7818609E-02  0.8068881E-01
        1   -1    0    0  501    0  0.00000000000E+00  0.00000000000E+00  0.28433979288E+04  0.28433979288E+04  0.50400001928E-02 0.  1.
       -1   -1    0    0    0  501  0.00000000000E+00  0.00000000000E+00 -0.12009710730E+04  0.12009710730E+04  0.50400001928E-02 0. -1.
    10030    2    1    2    0    0  0.00000000000E+00  0.00000000000E+00  0.16424268558E+04  0.40443690018E+04  0.36958564158E+04 0.  0.
        1    1    3    3  502    0  0.13982966257E+04  0.11924987876E+04  0.60915704521E+03  0.19360679528E+04  0.50400001928E-02 0. -1.
       -1    1    3    3    0  502 -0.13982966257E+04 -0.11924987876E+04  0.10332698106E+04  0.21083010491E+04  0.50400001928E-02 0.  1.
</event>
<event>
 5   0  0.2411746E-07  0.3799253E+04  0.7818609E-02  0.8046315E-01
       -1   -1    0    0    0  501  0.00000000000E+00  0.00000000000E+00  0.12916372000E+04  0.12916372000E+04  0.50400001928E-02 0.  1.
        1   -1    0    0  501    0  0.00000000000E+00  0.00000000000E+00 -0.27938038206E+04  0.27938038206E+04  0.50400001928E-02 0. -1.
    10030    2    1    2    0    0  0.00000000000E+00  0.00000000000E+00 -0.15021666207E+04  0.40854410206E+04  0.37992530551E+04 0.  0.
        1    1    3    3  502    0  0.46279924729E+03 -0.11269517147E+04 -0.23183993712E+04  0.26190034278E+04  0.50400001928E-02 0. -1.
       -1    1    3    3    0  502 -0.46279924729E+03  0.11269517147E+04  0.81623275055E+03  0.14664375928E+04  0.50400001928E-02 0.  1.
</event>
<event>
 5   0  0.6949625E-07  0.3849892E+04  0.7818609E-02  0.8035532E-01
       -2   -1    0    0    0  501  0.00000000000E+00  0.00000000000E+00  0.22131109865E+04  0.22131109865E+04  0.25500000920E-02 0.  1.
        2   -1    0    0  501    0  0.00000000000E+00  0.00000000000E+00 -0.16743024466E+04  0.16743024466E+04  0.25500000920E-02 0. -1.
    10030    2    1    2    0    0  0.00000000000E+00  0.00000000000E+00  0.53880853992E+03  0.38874134330E+04  0.38498920188E+04 0.  0.
        5    1    3    3  502    0  0.16627264871E+04 -0.94061529957E+03  0.50830801239E+03  0.19768195765E+04  0.46999998093E+01 0. -1.
       -5    1    3    3    0  502 -0.16627264871E+04  0.94061529957E+03  0.30500527530E+02  0.19105938566E+04  0.46999998093E+01 0.  1.
</event>
<event>
 5   0  0.7300916E-07  0.3677023E+04  0.7818609E-02  0.8073073E-01
        2   -1    0    0  501    0  0.00000000000E+00  0.00000000000E+00  0.16089863598E+04  0.16089863598E+04  0.25500000920E-02 0.  1.
       -2   -1    0    0    0  501  0.00000000000E+00  0.00000000000E+00 -0.21007784606E+04  0.21007784606E+04  0.25500000920E-02 0. -1.
    10030    2    1    2    0    0  0.00000000000E+00  0.00000000000E+00 -0.49179210080E+03  0.37097648203E+04  0.36770226477E+04 0.  0.
        1    1    3    3  502    0 -0.11807284115E+04 -0.11513143776E+04 -0.10658316602E+04  0.19635787496E+04  0.50400001928E-02 0. -1.
       -1    1    3    3    0  502  0.11807284115E+04  0.11513143776E+04  0.57403955939E+03  0.17461860708E+04  0.50400001928E-02 0.  1.
</event>
<event>
 5   0  0.2345471E-07  0.3815716E+04  0.7818609E-02  0.8042791E-01
        1   -1    0    0  501    0  0.00000000000E+00  0.00000000000E+00  0.17941735043E+04  0.17941735043E+04  0.50400001928E-02 0. -1.
       -1   -1    0    0    0  501  0.00000000000E+00  0.00000000000E+00 -0.20287455208E+04  0.20287455208E+04  0.50400001928E-02 0.  1.
    10030    2    1    2    0    0  0.00000000000E+00  0.00000000000E+00 -0.23457201649E+03  0.38229190251E+04  0.38157156395E+04 0.  0.
        5    1    3    3  502    0 -0.37704014208E+03  0.48105293133E+02  0.17558493078E+04  0.17965250540E+04  0.46999998093E+01 0. -1.
       -5    1    3    3    0  502  0.37704014208E+03 -0.48105293133E+02 -0.19904213243E+04  0.20263939711E+04  0.46999998093E+01 0.  1.
</event>
<event>
 5   0  0.2345471E-07  0.3668406E+04  0.7818609E-02  0.8075000E-01
       -1   -1    0    0    0  501  0.00000000000E+00  0.00000000000E+00  0.18105225959E+04  0.18105225959E+04  0.50400001928E-02 0. -1.
        1   -1    0    0  501    0  0.00000000000E+00  0.00000000000E+00 -0.18581935293E+04  0.18581935293E+04  0.50400001928E-02 0.  1.
    10030    2    1    2    0    0  0.00000000000E+00  0.00000000000E+00 -0.47670933383E+02  0.36687161253E+04  0.36684063965E+04 0.  0.
        5    1    3    3  502    0  0.12930138787E+03  0.94644369083E+03  0.15421207300E+04  0.18140101832E+04  0.46999998093E+01 0. -1.
       -5    1    3    3    0  502 -0.12930138787E+03 -0.94644369083E+03 -0.15897916633E+04  0.18547059421E+04  0.46999998093E+01 0.  1.
</event>
<event>
 5   0  0.7300916E-07  0.3702561E+04  0.7818609E-02  0.8067394E-01
        2   -1    0    0  501    0  0.00000000000E+00  0.00000000000E+00  0.18038910703E+04  0.18038910703E+04  0.25500000920E-02 0. -1.
       -2   -1    0    0    0  501  0.00000000000E+00  0.00000000000E+00 -0.18999150568E+04  0.18999150568E+04  0.25500000920E-02 0.  1.
    10030    2    1    2    0    0  0.00000000000E+00  0.00000000000E+00 -0.96023986571E+02  0.37038061271E+04  0.37025611705E+04 0.  0.
        1    1    3    3  502    0  0.12158077915E+04 -0.15811781272E+03  0.13395556941E+04  0.18159293175E+04  0.50400001928E-02 0. -1.
       -1    1    3    3    0  502 -0.12158077915E+04  0.15811781272E+03 -0.14355796807E+04  0.18878768096E+04  0.50400001928E-02 0.  1.
</event>
<event>
 5   0  0.2287500E-07  0.3704154E+04  0.7818609E-02  0.8067042E-01
       -1   -1    0    0    0  501  0.00000000000E+00  0.00000000000E+00  0.12271350077E+04  0.12271350077E+04  0.50400001928E-02 0.  1.
        1   -1    0    0  501    0  0.00000000000E+00  0.00000000000E+00 -0.27952833736E+04  0.27952833736E+04  0.50400001928E-02 0. -1.
    10030    2    1    2    0    0  0.00000000000E+00  0.00000000000E+00 -0.15681483659E+04  0.40224183813E+04  0.37041544699E+04 0.  0.
        3    1    3    3  502    0  0.76004282351E+03  0.87994999976E+03 -0.23495385175E+04  0.26215087929E+04  0.10100000352E+00 0. -1.
       -3    1    3    3    0  502 -0.76004282351E+03 -0.87994999976E+03  0.78139015165E+03  0.14009095884E+04  0.10100000352E+00 0.  1.
</event>
<event>
 5   0  0.2287500E-07  0.3684746E+04  0.7818609E-02  0.8071351E-01
       -1   -1    0    0    0  501  0.00000000000E+00  0.00000000000E+00  0.18225837451E+04  0.18225837451E+04  0.50400001928E-02 0. -1.
        1   -1    0    0  501    0  0.00000000000E+00  0.00000000000E+00 -0.18623767812E+04  0.18623767812E+04  0.50400001928E-02 0.  1.
    10030    2    1    2    0    0  0.00000000000E+00  0.00000000000E+00 -0.39793036114E+02  0.36849605263E+04  0.36847456621E+04 0.  0.
        2    1    3    3  502    0  0.17482246674E+04  0.38768291563E+03  0.41343016549E+03  0.18378008686E+04  0.25500000920E-02 0. -1.
       -2    1    3    3    0  502 -0.17482246674E+04 -0.38768291563E+03 -0.45322320160E+03  0.18471596577E+04  0.25500000920E-02 0.  1.
</event>
<event>
 5   0  0.2287500E-07  0.3591890E+04  0.7818609E-02  0.8092352E-01
        1   -1    0    0  501    0  0.00000000000E+00  0.00000000000E+00  0.22548331489E+04  0.22548331489E+04  0.50400001928E-02 0. -1.
       -1   -1    0    0    0  501  0.00000000000E+00  0.00000000000E+00 -0.14304469556E+04  0.14304469556E+04  0.50400001928E-02 0.  1.
    10030    2    1    2    0    0  0.00000000000E+00  0.00000000000E+00  0.82438619324E+03  0.36852801045E+04  0.35918904289E+04 0.  0.
        4    1    3    3  502    0 -0.17925558988E+04 -0.96985171782E+02  0.46604419186E+03  0.18546863820E+04  0.12699999809E+01 0. -1.
       -4    1    3    3    0  502  0.17925558988E+04  0.96985171782E+02  0.35834200137E+03  0.18305937225E+04  0.12699999809E+01 0.  1.
</event>
<event>
 5   0  0.2287500E-07  0.3715811E+04  0.7818609E-02  0.8064467E-01
       -1   -1    0    0    0  501  0.00000000000E+00  0.00000000000E+00  0.18420011541E+04  0.18420011541E+04  0.50400001928E-02 0.  1.
        1   -1    0    0  501    0  0.00000000000E+00  0.00000000000E+00 -0.18739476532E+04  0.18739476532E+04  0.50400001928E-02 0. -1.
    10030    2    1    2    0    0  0.00000000000E+00  0.00000000000E+00 -0.31946499035E+02  0.37159488073E+04  0.37158114806E+04 0.  0.
        4    1    3    3  502    0 -0.17474541291E+04  0.61582905954E+03 -0.15371273276E+03  0.18591585680E+04  0.12699999809E+01 0. -1.
       -4    1    3    3    0  502  0.17474541291E+04 -0.61582905954E+03  0.12176623373E+03  0.18567902393E+04  0.12699999809E+01 0.  1.
</event>
<event>
 5   0  0.2411746E-07  0.3676885E+04  0.7818609E-02  0.8073104E-01
       -1   -1    0    0    0  501  0.00000000000E+00  0.00000000000E+00  0.22663499159E+04  0.22663499159E+04  0.50400001928E-02 0. -1.
        1   -1    0    0  501    0  0.00000000000E+00  0.00000000000E+00 -0.14913278684E+04  0.14913278684E+04  0.50400001928E-02 0.  1.
    10030    2    1    2    0    0  0.00000000000E+00  0.00000000000E+00  0.77502204758E+03  0.37576777843E+04  0.36768849800E+04 0.  0.
        1    1    3    3  502    0 -0.13843690854E+04  0.10328816733E+04  0.10310689355E+04  0.20115728835E+04  0.50400001928E-02 0. -1.
       -1    1    3    3    0  502  0.13843690854E+04 -0.10328816733E+04 -0.25604688795E+03  0.17461049008E+04  0.50400001928E-02 0.  1.
</event>
<event>
 5   0  0.2287500E-07  0.3681820E+04  0.7818609E-02  0.8072003E-01
       -1   -1    0    0    0  501  0.00000000000E+00  0.00000000000E+00  0.13925694239E+04  0.13925694239E+04  0.50400001928E-02 0.  1.
        1   -1    0    0  501    0  0.00000000000E+00  0.00000000000E+00 -0.24335947175E+04  0.24335947175E+04  0.50400001928E-02 0. -1.
    10030    2    1    2    0    0  0.00000000000E+00  0.00000000000E+00 -0.10410252936E+04  0.38261641415E+04  0.36818199814E+04 0.  0.
        3    1    3    3  502    0  0.95122117900E+03  0.64477822399E+03 -0.20150856922E+04  0.23197265026E+04  0.10100000352E+00 0. -1.
       -3    1    3    3    0  502 -0.95122117900E+03 -0.64477822399E+03  0.97406039861E+03  0.15064376389E+04  0.10100000352E+00 0.  1.
</event>
<event>
 5   0  0.2287500E-07  0.3555917E+04  0.7818609E-02  0.8100665E-01
        1   -1    0    0  501    0  0.00000000000E+00  0.00000000000E+00  0.19068586558E+04  0.19068586558E+04  0.50400001928E-02 0.  1.
       -1   -1    0    0    0  501  0.00000000000E+00  0.00000000000E+00 -0.16577714095E+04  0.16577714095E+04  0.50400001928E-02 0. -1.
    10030    2    1    2    0    0  0.00000000000E+00  0.00000000000E+00  0.24908724626E+03  0.35646300653E+04  0.35559166253E+04 0.  0.
        4    1    3    3  502    0  0.11413316431E+03 -0.65783377132E+03  0.17764171912E+04  0.18977437393E+04  0.12699999809E+01 0.  1.
       -4    1    3    3    0  502 -0.11413316431E+03  0.65783377132E+03 -0.15273299450E+04  0.16668863259E+04  0.12699999809E+01 0. -1.
</event>
<event>
 5   0  0.7074157E-07  0.3699134E+04  0.7818609E-02  0.8068154E-01
       -2   -1    0    0    0  501  0.00000000000E+00  0.00000000000E+00  0.15417498833E+04  0.15417498833E+04  0.25500000920E-02 0.  1.
        2   -1    0    0  501    0  0.00000000000E+00  0.00000000000E+00 -0.22188408023E+04  0.22188408023E+04  0.25500000920E-02 0. -1.
    10030    2    1    2    0    0  0.00000000000E+00  0.00000000000E+00 -0.67709091902E+03  0.37605906857E+04  0.36991337084E+04 0.  0.
        3    1    3    3  502    0 -0.10759229615E+04  0.31061195140E+03  0.11579183042E+04  0.16108584087E+04  0.10100000352E+00 0.  1.
       -3    1    3    3    0  502  0.10759229615E+04 -0.31061195140E+03 -0.18350092232E+04  0.21497322770E+04  0.10100000352E+00 0. -1.
</event>
<event>
 5   0  0.2287500E-07  0.3119953E+04  0.7818609E-02  0.8210283E-01
        1   -1    0    0  501    0  0.00000000000E+00  0.00000000000E+00  0.26783296899E+04  0.26783296899E+04  0.50400001928E-02 0. -1.
       -1   -1    0    0    0  501  0.00000000000E+00  0.00000000000E+00 -0.90859876371E+03  0.90859876372E+03  0.50400001928E-02 0.  1.
    10030    2    1    2    0    0  0.00000000000E+00  0.00000000000E+00  0.17697309262E+04  0.35869284537E+04  0.31199532337E+04 0.  0.
        2    1    3    3  502    0 -0.16797108995E+03 -0.96647970432E+03  0.22793537716E+04  0.24814815981E+04  0.25500000920E-02 0. -1.
       -2    1    3    3    0  502  0.16797108995E+03  0.96647970432E+03 -0.50962284533E+03  0.11054468555E+04  0.25500000920E-02 0.  1.
</event>
<event>
 5   0  0.2287500E-07  0.3727482E+04  0.7818609E-02  0.8061899E-01
        1   -1    0    0  501    0  0.00000000000E+00  0.00000000000E+00  0.25786849630E+04  0.25786849631E+04  0.50400001928E-02 0.  1.
       -1   -1    0    0    0  501  0.00000000000E+00  0.00000000000E+00 -0.13470165657E+04  0.13470165657E+04  0.50400001928E-02 0. -1.
    10030    2    1    2    0    0  0.00000000000E+00  0.00000000000E+00  0.12316683973E+04  0.39257015288E+04  0.37274824550E+04 0.  0.
        3    1    3    3  502    0  0.87352620752E+03  0.15153565735E+04 -0.61955655060E+02  0.17501977298E+04  0.10100000352E+00 0. -1.
       -3    1    3    3    0  502 -0.87352620752E+03 -0.15153565735E+04  0.12936240524E+04  0.21755037989E+04  0.10100000352E+00 0.  1.
</event>
<event>
 5   0  0.2287500E-07  0.3731052E+04  0.7818609E-02  0.8061115E-01
       -1   -1    0    0    0  501  0.00000000000E+00  0.00000000000E+00  0.15556641419E+04  0.15556641419E+04  0.50400001928E-02 0.  1.
        1   -1    0    0  501    0  0.00000000000E+00  0.00000000000E+00 -0.22371068883E+04  0.22371068883E+04  0.50400001928E-02 0. -1.
    10030    2    1    2    0    0  0.00000000000E+00  0.00000000000E+00 -0.68144274641E+03  0.37927710302E+04  0.37310518451E+04 0.  0.
        2    1    3    3  502    0  0.69579535357E+03 -0.10267372872E+04  0.10758387361E+04  0.16418738128E+04  0.25500000920E-02 0.  1.
       -2    1    3    3    0  502 -0.69579535357E+03  0.10267372872E+04 -0.17572814825E+04  0.21508972174E+04  0.25500000920E-02 0. -1.
</event>
<event>
 5   0  0.7300916E-07  0.3570017E+04  0.7818609E-02  0.8097394E-01
       -2   -1    0    0    0  501  0.00000000000E+00  0.00000000000E+00  0.19194121189E+04  0.19194121189E+04  0.25500000920E-02 0.  1.
        2   -1    0    0  501    0  0.00000000000E+00  0.00000000000E+00 -0.16600164786E+04  0.16600164786E+04  0.25500000920E-02 0. -1.
    10030    2    1    2    0    0  0.00000000000E+00  0.00000000000E+00  0.25939564027E+03  0.35794285975E+04  0.35700172250E+04 0.  0.
        1    1    3    3  502    0  0.64387622517E+03 -0.77643349779E+03  0.16062750456E+04  0.18967195607E+04  0.50400001928E-02 0.  1.
       -1    1    3    3    0  502 -0.64387622517E+03  0.77643349779E+03 -0.13468794054E+04  0.16827090368E+04  0.50400001928E-02 0. -1.
</event>
<event>
 5   0  0.2411746E-07  0.3654174E+04  0.7818609E-02  0.8078194E-01
       -1   -1    0    0    0  501  0.00000000000E+00  0.00000000000E+00  0.16853293842E+04  0.16853293843E+04  0.50400001928E-02 0.  1.
        1   -1    0    0  501    0  0.00000000000E+00  0.00000000000E+00 -0.19807686573E+04  0.19807686573E+04  0.50400001928E-02 0. -1.
    10030    2    1    2    0    0  0.00000000000E+00  0.00000000000E+00 -0.29543927310E+03  0.36660980416E+04  0.36541743919E+04 0.  0.
        1    1    3    3  502    0 -0.74647539596E+03  0.14071619488E+04  0.75014043236E+03  0.17606933110E+04  0.50400001928E-02 0.  1.
       -1    1    3    3    0  502  0.74647539596E+03 -0.14071619488E+04 -0.10455797055E+04  0.19054047306E+04  0.50400001928E-02 0. -1.
</event>
<event>
 5   0  0.7124627E-07  0.3663386E+04  0.7818609E-02  0.8076125E-01
        2   -1    0    0  501    0  0.00000000000E+00  0.00000000000E+00  0.19322545948E+04  0.19322545948E+04  0.25500000920E-02 0.  1.
       -2   -1    0    0    0  501  0.00000000000E+00  0.00000000000E+00 -0.17363654694E+04  0.17363654694E+04  0.25500000920E-02 0. -1.
    10030    2    1    2    0    0  0.00000000000E+00  0.00000000000E+00  0.19588912538E+03  0.36686200641E+04  0.36633864969E+04 0.  0.
        2    1    3    3  502    0 -0.17004143167E+04 -0.65672017880E+03 -0.82340165645E+02  0.18246835739E+04  0.25500000920E-02 0. -1.
       -2    1    3    3    0  502  0.17004143167E+04  0.65672017880E+03  0.27822929102E+03  0.18439364903E+04  0.25500000920E-02 0.  1.
</event>
<event>
 5   0  0.2287500E-07  0.3717023E+04  0.7818609E-02  0.8064200E-01
        3   -1    0    0  501    0  0.00000000000E+00  0.00000000000E+00  0.18801328967E+04  0.18801328994E+04  0.10100000352E+00 0. -1.
       -3   -1    0    0    0  501  0.00000000000E+00  0.00000000000E+00 -0.18371383159E+04  0.18371383186E+04  0.10100000352E+00 0.  1.
    10030    2    1    2    0    0  0.00000000000E+00  0.00000000000E+00  0.42994580846E+02  0.37172712180E+04  0.37170225685E+04 0.  0.
        4    1    3    3  502    0  0.50421863783E+03 -0.12215190303E+04  0.13283813278E+04  0.18737512485E+04  0.12699999809E+01 0. -1.
       -4    1    3    3    0  502 -0.50421863783E+03  0.12215190303E+04 -0.12853867470E+04  0.18435199696E+04  0.12699999809E+01 0.  1.
</event>
<event>
 5   0  0.2411746E-07  0.3807768E+04  0.7818609E-02  0.8044490E-01
        1   -1    0    0  501    0  0.00000000000E+00  0.00000000000E+00  0.22514681804E+04  0.22514681804E+04  0.50400001928E-02 0.  1.
       -1   -1    0    0    0  501  0.00000000000E+00  0.00000000000E+00 -0.16099601517E+04  0.16099601517E+04  0.50400001928E-02 0. -1.
    10030    2    1    2    0    0  0.00000000000E+00  0.00000000000E+00  0.64150802870E+03  0.38614283322E+04  0.38077678781E+04 0.  0.
        1    1    3    3  502    0 -0.56941519470E+03  0.17613123935E+04 -0.13085200372E+03  0.18556878127E+04  0.50400001928E-02 0. -1.
       -1    1    3    3    0  502  0.56941519470E+03 -0.17613123935E+04  0.77236003243E+03  0.20057405194E+04  0.50400001928E-02 0.  1.
</event>
<event>
 5   0  0.2287500E-07  0.3792506E+04  0.7818609E-02  0.8047765E-01
        1   -1    0    0  501    0  0.00000000000E+00  0.00000000000E+00  0.19561537950E+04  0.19561537950E+04  0.50400001928E-02 0. -1.
       -1   -1    0    0    0  501  0.00000000000E+00  0.00000000000E+00 -0.18381864376E+04  0.18381864376E+04  0.50400001928E-02 0.  1.
    10030    2    1    2    0    0  0.00000000000E+00  0.00000000000E+00  0.11796735742E+03  0.37943402326E+04  0.37925059661E+04 0.  0.
        3    1    3    3  502    0  0.10877987155E+04 -0.51384916200E+03 -0.14074770469E+04  0.18515773423E+04  0.10100000352E+00 0.  1.
       -3    1    3    3    0  502 -0.10877987155E+04  0.51384916200E+03  0.15254444043E+04  0.19427628903E+04  0.10100000352E+00 0. -1.
</event>
<event>
 5   0  0.7074157E-07  0.3705113E+04  0.7818609E-02  0.8066830E-01
        2   -1    0    0  501    0  0.00000000000E+00  0.00000000000E+00  0.32324489415E+04  0.32324489415E+04  0.25500000920E-02 0. -1.
       -2   -1    0    0    0  501  0.00000000000E+00  0.00000000000E+00 -0.10617228953E+04  0.10617228953E+04  0.25500000920E-02 0.  1.
    10030    2    1    2    0    0  0.00000000000E+00  0.00000000000E+00  0.21707260462E+04  0.42941718368E+04  0.37051127104E+04 0.  0.
        3    1    3    3  502    0  0.45679446867E+03 -0.11237465458E+03  0.31620747822E+04  0.31968744404E+04  0.10100000352E+00 0. -1.
       -3    1    3    3    0  502 -0.45679446867E+03  0.11237465458E+03 -0.99134873597E+03  0.10972973964E+04  0.10100000352E+00 0.  1.
</event>
<event>
 5   0  0.6939921E-07  0.3704216E+04  0.7818609E-02  0.8067028E-01
        2   -1    0    0  501    0  0.00000000000E+00  0.00000000000E+00  0.30242237004E+04  0.30242237004E+04  0.25500000920E-02 0. -1.
       -2   -1    0    0    0  501  0.00000000000E+00  0.00000000000E+00 -0.11342761203E+04  0.11342761203E+04  0.25500000920E-02 0.  1.
    10030    2    1    2    0    0  0.00000000000E+00  0.00000000000E+00  0.18899475801E+04  0.41584998206E+04  0.37042163683E+04 0.  0.
        4    1    3    3  502    0  0.16117529845E+03 -0.16003984045E+04  0.19757565757E+04  0.25477182319E+04  0.12699999809E+01 0. -1.
       -4    1    3    3    0  502 -0.16117529845E+03  0.16003984045E+04 -0.85808995607E+02  0.16107815887E+04  0.12699999809E+01 0.  1.
</event>
<event>
 5   0  0.2411746E-07  0.3695088E+04  0.7818609E-02  0.8069051E-01
        1   -1    0    0  501    0  0.00000000000E+00  0.00000000000E+00  0.20804301434E+04  0.20804301434E+04  0.50400001928E-02 0.  1.
       -1   -1    0    0    0  501  0.00000000000E+00  0.00000000000E+00 -0.16407271719E+04  0.16407271719E+04  0.50400001928E-02 0. -1.
    10030    2    1    2    0    0  0.00000000000E+00  0.00000000000E+00  0.43970297150E+03  0.37211573153E+04  0.36950876934E+04 0.  0.
        1    1    3    3  502    0 -0.18364555705E+04  0.18811444659E+03  0.29427932421E+03  0.18693732715E+04  0.50400001928E-02 0. -1.
       -1    1    3    3    0  502  0.18364555705E+04 -0.18811444659E+03  0.14542364729E+03  0.18517840438E+04  0.50400001928E-02 0.  1.
</event>
<event>
 5   0  0.2345471E-07  0.3623990E+04  0.7818609E-02  0.8085018E-01
        1   -1    0    0  501    0  0.00000000000E+00  0.00000000000E+00  0.19736619333E+04  0.19736619333E+04  0.50400001928E-02 0. -1.
       -1   -1    0    0    0  501  0.00000000000E+00  0.00000000000E+00 -0.16635706291E+04  0.16635706291E+04  0.50400001928E-02 0.  1.
    10030    2    1    2    0    0  0.00000000000E+00  0.00000000000E+00  0.31009130418E+03  0.36372325624E+04  0.36239900794E+04 0.  0.
        5    1    3    3  502    0  0.12662888866E+04  0.86736767437E+03  0.11216274660E+04  0.19010219592E+04  0.46999998093E+01 0. -1.
       -5    1    3    3    0  502 -0.12662888866E+04 -0.86736767437E+03 -0.81153616178E+03  0.17362106032E+04  0.46999998093E+01 0.  1.
</event>
<event>
 5   0  0.7074157E-07  0.3764219E+04  0.7818609E-02  0.8053877E-01
        2   -1    0    0  501    0  0.00000000000E+00  0.00000000000E+00  0.27367232961E+04  0.27367232961E+04  0.25500000920E-02 0. -1.
       -2   -1    0    0    0  501  0.00000000000E+00  0.00000000000E+00 -0.12943714915E+04  0.12943714915E+04  0.25500000920E-02 0.  1.
    10030    2    1    2    0    0  0.00000000000E+00  0.00000000000E+00  0.14423518046E+04  0.40310947877E+04  0.37642192363E+04 0.  0.
        3    1    3    3  502    0  0.51095279678E+03  0.13347548836E+04 -0.59026679222E+03  0.15463047100E+04  0.10100000352E+00 0.  1.
       -3    1    3    3    0  502 -0.51095279678E+03 -0.13347548836E+04  0.20326185968E+04  0.24847900777E+04  0.10100000352E+00 0. -1.
</event>
<event>
 5   0  0.2287500E-07  0.2769149E+04  0.7818609E-02  0.8312911E-01
        1   -1    0    0  501    0  0.00000000000E+00  0.00000000000E+00  0.24009793207E+04  0.24009793207E+04  0.50400001928E-02 0.  1.
       -1   -1    0    0    0  501  0.00000000000E+00  0.00000000000E+00 -0.79844369879E+03  0.79844369881E+03  0.50400001928E-02 0. -1.
    10030    2    1    2    0    0  0.00000000000E+00  0.00000000000E+00  0.16025356219E+04  0.31994230195E+04  0.27691491903E+04 0.  0.
        4    1    3    3  502    0  0.48078316884E+03 -0.19784935973E+03  0.22839188019E+04  0.23423457327E+04  0.12699999809E+01 0.  1.
       -4    1    3    3    0  502 -0.48078316884E+03  0.19784935973E+03 -0.68138318007E+03  0.85707728681E+03  0.12699999809E+01 0. -1.
</event>
<event>
 5   0  0.7074157E-07  0.3703455E+04  0.7818609E-02  0.8067197E-01
       -2   -1    0    0    0  501  0.00000000000E+00  0.00000000000E+00  0.19678641123E+04  0.19678641123E+04  0.25500000920E-02 0. -1.
        2   -1    0    0  501    0  0.00000000000E+00  0.00000000000E+00 -0.17424448654E+04  0.17424448654E+04  0.25500000920E-02 0.  1.
    10030    2    1    2    0    0  0.00000000000E+00  0.00000000000E+00  0.22541924690E+03  0.37103089776E+04  0.37034549913E+04 0.  0.
        3    1    3    3  502    0  0.11953813272E+04 -0.13702299265E+04  0.46325450503E+03  0.18764517888E+04  0.10100000352E+00 0. -1.
       -3    1    3    3    0  502 -0.11953813272E+04  0.13702299265E+04 -0.23783525813E+03  0.18338571889E+04  0.10100000352E+00 0.  1.
</event>
<event>
 5   0  0.2287500E-07  0.3686093E+04  0.7818609E-02  0.8071051E-01
       -3   -1    0    0    0  501  0.00000000000E+00  0.00000000000E+00  0.16878141489E+04  0.16878141519E+04  0.10100000352E+00 0. -1.
        3   -1    0    0  501    0  0.00000000000E+00  0.00000000000E+00 -0.20125555665E+04  0.20125555690E+04  0.10100000352E+00 0.  1.
    10030    2    1    2    0    0  0.00000000000E+00  0.00000000000E+00 -0.32474141763E+03  0.37003697209E+04  0.36860926579E+04 0.  0.
        2    1    3    3  502    0 -0.17377100019E+04  0.49195335188E+03 -0.53144346697E+03  0.18825743836E+04  0.25500000920E-02 0. -1.
       -2    1    3    3    0  502  0.17377100019E+04 -0.49195335188E+03  0.20670204934E+03  0.18177953373E+04  0.25500000920E-02 0.  1.
</event>
<event>
 5   0  0.2287500E-07  0.3695597E+04  0.7818609E-02  0.8068938E-01
       -1   -1    0    0    0  501  0.00000000000E+00  0.00000000000E+00  0.29480352789E+04  0.29480352789E+04  0.50400001928E-02 0.  1.
        1   -1    0    0  501    0  0.00000000000E+00  0.00000000000E+00 -0.11581810137E+04  0.11581810137E+04  0.50400001928E-02 0. -1.
    10030    2    1    2    0    0  0.00000000000E+00  0.00000000000E+00  0.17898542652E+04  0.41062162927E+04  0.36955965623E+04 0.  0.
        2    1    3    3  502    0  0.72545122023E+03 -0.10291507433E+04 -0.60771493685E+03  0.13981230882E+04  0.25500000920E-02 0. -1.
       -2    1    3    3    0  502 -0.72545122023E+03  0.10291507433E+04  0.23975692020E+04  0.27080932044E+04  0.25500000920E-02 0.  1.
</event>
<event>
 5   0  0.6949625E-07  0.3699701E+04  0.7818609E-02  0.8068028E-01
       -2   -1    0    0    0  501  0.00000000000E+00  0.00000000000E+00  0.15316213445E+04  0.15316213445E+04  0.25500000920E-02 0. -1.
        2   -1    0    0  501    0  0.00000000000E+00  0.00000000000E+00 -0.22341984863E+04  0.22341984863E+04  0.25500000920E-02 0.  1.
    10030    2    1    2    0    0  0.00000000000E+00  0.00000000000E+00 -0.70257714178E+03  0.37658198308E+04  0.36997005767E+04 0.  0.
        5    1    3    3  502    0  0.23159793546E+03  0.13323340218E+04 -0.16360555169E+04  0.21226048369E+04  0.46999998093E+01 0.  1.
       -5    1    3    3    0  502 -0.23159793546E+03 -0.13323340218E+04  0.93347837511E+03  0.16432149939E+04  0.46999998093E+01 0. -1.
</event>
<event>
 5   0  0.2411746E-07  0.3661414E+04  0.7818609E-02  0.8076567E-01
       -1   -1    0    0    0  501  0.00000000000E+00  0.00000000000E+00  0.16230861266E+04  0.16230861266E+04  0.50400001928E-02 0. -1.
        1   -1    0    0  501    0  0.00000000000E+00  0.00000000000E+00 -0.20648857412E+04  0.20648857412E+04  0.50400001928E-02 0.  1.
    10030    2    1    2    0    0  0.00000000000E+00  0.00000000000E+00 -0.44179961458E+03  0.36879718679E+04  0.36614136066E+04 0.  0.
        1    1    3    3  502    0  0.16770080641E+04  0.72282118324E+03 -0.90886471522E+02  0.18284110208E+04  0.50400001928E-02 0.  1.
       -1    1    3    3    0  502 -0.16770080641E+04 -0.72282118324E+03 -0.35091314306E+03  0.18595608471E+04  0.50400001928E-02 0. -1.
</event>
<event>
 5   0  0.2411746E-07  0.3726019E+04  0.7818609E-02  0.8062220E-01
       -1   -1    0    0    0  501  0.00000000000E+00  0.00000000000E+00  0.23057973296E+04  0.23057973296E+04  0.50400001928E-02 0. -1.
        1   -1    0    0  501    0  0.00000000000E+00  0.00000000000E+00 -0.15052512654E+04  0.15052512654E+04  0.50400001928E-02 0.  1.
    10030    2    1    2    0    0  0.00000000000E+00  0.00000000000E+00  0.80054606424E+03  0.38110485950E+04  0.37260189737E+04 0.  0.
        1    1    3    3  502    0  0.10515586903E+03 -0.63290440344E+02  0.23016578055E+04  0.23049277842E+04  0.50400001928E-02 0. -1.
       -1    1    3    3    0  502 -0.10515586903E+03  0.63290440344E+02 -0.15011117413E+04  0.15061208107E+04  0.50400001928E-02 0.  1.
</event>
<event>
 5   0  0.7074157E-07  0.3733302E+04  0.7818609E-02  0.8060621E-01
       -2   -1    0    0    0  501  0.00000000000E+00  0.00000000000E+00  0.17855023071E+04  0.17855023071E+04  0.25500000920E-02 0.  1.
        2   -1    0    0  501    0  0.00000000000E+00  0.00000000000E+00 -0.19514883033E+04  0.19514883033E+04  0.25500000920E-02 0. -1.
    10030    2    1    2    0    0  0.00000000000E+00  0.00000000000E+00 -0.16598599615E+03  0.37369906104E+04  0.37333024886E+04 0.  0.
        3    1    3    3  502    0  0.26050579677E+03  0.17676970502E+04  0.45769867962E+03  0.18444793908E+04  0.10100000352E+00 0.  1.
       -3    1    3    3    0  502 -0.26050579677E+03 -0.17676970502E+04 -0.62368467577E+03  0.18925112196E+04  0.10100000352E+00 0. -1.
</event>
<event>
 5   0  0.2287500E-07  0.3702924E+04  0.7818609E-02  0.8067314E-01
        1   -1    0    0  501    0  0.00000000000E+00  0.00000000000E+00  0.23652179202E+04  0.23652179202E+04  0.50400001928E-02 0.  1.
       -1   -1    0    0    0  501  0.00000000000E+00  0.00000000000E+00 -0.14493004906E+04  0.14493004906E+04  0.50400001928E-02 0. -1.
    10030    2    1    2    0    0  0.00000000000E+00  0.00000000000E+00  0.91591742958E+03  0.38145184109E+04  0.37029239756E+04 0.  0.
        4    1    3    3  502    0 -0.16856438246E+04  0.33146176602E+03 -0.25324456326E+03  0.17364896854E+04  0.12699999809E+01 0. -1.
       -4    1    3    3    0  502  0.16856438246E+04 -0.33146176602E+03  0.11691619928E+04  0.20780287255E+04  0.12699999809E+01 0.  1.
</event>
<event>
 5   0  0.2411746E-07  0.3667104E+04  0.7818609E-02  0.8075291E-01
        1   -1    0    0  501    0  0.00000000000E+00  0.00000000000E+00  0.16864986822E+04  0.16864986822E+04  0.50400001928E-02 0.  1.
       -1   -1    0    0    0  501  0.00000000000E+00  0.00000000000E+00 -0.19934278522E+04  0.19934278522E+04  0.50400001928E-02 0. -1.
    10030    2    1    2    0    0  0.00000000000E+00  0.00000000000E+00 -0.30692917006E+03  0.36799265344E+04  0.36671042777E+04 0.  0.
        1    1    3    3  502    0  0.30563977135E+03 -0.17059988813E+04  0.44701353085E+03  0.17898795908E+04  0.50400001928E-02 0.  1.
       -1    1    3    3    0  502 -0.30563977135E+03  0.17059988813E+04 -0.75394270091E+03  0.18900469436E+04  0.50400001928E-02 0. -1.
</event>
<event>
 5   0  0.6949625E-07  0.3758983E+04  0.7818609E-02  0.8055015E-01
       -2   -1    0    0    0  501  0.00000000000E+00  0.00000000000E+00  0.12173032711E+04  0.12173032711E+04  0.25500000920E-02 0. -1.
        2   -1    0    0  501    0  0.00000000000E+00  0.00000000000E+00 -0.29018970921E+04  0.29018970921E+04  0.25500000920E-02 0.  1.
    10030    2    1    2    0    0  0.00000000000E+00  0.00000000000E+00 -0.16845938210E+04  0.41192003632E+04  0.37589832788E+04 0.  0.
        5    1    3    3  502    0  0.15677646732E+04  0.40246115413E+03 -0.18891460668E+04  0.24877210460E+04  0.46999998093E+01 0. -1.
       -5    1    3    3    0  502 -0.15677646732E+04 -0.40246115413E+03  0.20455224582E+03  0.16314793172E+04  0.46999998093E+01 0.  1.
</event>
<event>
 5   0  0.2345471E-07  0.3651802E+04  0.7818609E-02  0.8078728E-01
       -1   -1    0    0    0  501  0.00000000000E+00  0.00000000000E+00  0.22005145533E+04  0.22005145533E+04  0.50400001928E-02 0. -1.
        1   -1    0    0  501    0  0.00000000000E+00  0.00000000000E+00 -0.15150610236E+04  0.15150610236E+04  0.50400001928E-02 0.  1.
    10030    2    1    2    0    0  0.00000000000E+00  0.00000000000E+00  0.68545352970E+03  0.37155755769E+04  0.36518016549E+04 0.  0.
        5    1    3    3  502    0 -0.10890608216E+03  0.66212232933E+03  0.20705063038E+04  0.21765304863E+04  0.46999998093E+01 0. -1.
       -5    1    3    3    0  502  0.10890608216E+03 -0.66212232933E+03 -0.13850527741E+04  0.15390450906E+04  0.46999998093E+01 0.  1.
</event>
<event>
 5   0  0.7074157E-07  0.3662444E+04  0.7818609E-02  0.8076336E-01
       -2   -1    0    0    0  501  0.00000000000E+00  0.00000000000E+00  0.30707746315E+04  0.30707746315E+04  0.25500000920E-02 0. -1.
        2   -1    0    0  501    0  0.00000000000E+00  0.00000000000E+00 -0.10920288239E+04  0.10920288239E+04  0.25500000920E-02 0.  1.
    10030    2    1    2    0    0  0.00000000000E+00  0.00000000000E+00  0.19787458076E+04  0.41628034554E+04  0.36624442163E+04 0.  0.
        3    1    3    3  502    0  0.16373808586E+04 -0.29666987045E+03  0.18582326349E+04  0.24944052646E+04  0.10100000352E+00 0. -1.
       -3    1    3    3    0  502 -0.16373808586E+04  0.29666987045E+03  0.12051317268E+03  0.16683981908E+04  0.10100000352E+00 0.  1.
</event>
<event>
 5   0  0.2287500E-07  0.3266062E+04  0.7818609E-02  0.8171585E-01
        1   -1    0    0  501    0  0.00000000000E+00  0.00000000000E+00  0.16905785918E+04  0.16905785918E+04  0.50400001928E-02 0. -1.
       -1   -1    0    0    0  501  0.00000000000E+00  0.00000000000E+00 -0.15774424353E+04  0.15774424353E+04  0.50400001928E-02 0.  1.
    10030    2    1    2    0    0  0.00000000000E+00  0.00000000000E+00  0.11313615654E+03  0.32680210271E+04  0.32660621004E+04 0.  0.
        2    1    3    3  502    0  0.53201021181E+03 -0.14986243222E+04  0.42811367828E+03  0.16468731117E+04  0.25500000920E-02 0. -1.
       -2    1    3    3    0  502 -0.53201021181E+03  0.14986243222E+04 -0.31497752173E+03  0.16211479154E+04  0.25500000920E-02 0.  1.
</event>
<event>
 5   0  0.2287500E-07  0.3685608E+04  0.7818609E-02  0.8071159E-01
       -1   -1    0    0    0  501  0.00000000000E+00  0.00000000000E+00  0.20957955175E+04  0.20957955175E+04  0.50400001928E-02 0.  1.
        1   -1    0    0  501    0  0.00000000000E+00  0.00000000000E+00 -0.16203517843E+04  0.16203517843E+04  0.50400001928E-02 0. -1.
    10030    2    1    2    0    0  0.00000000000E+00  0.00000000000E+00  0.47544373325E+03  0.37161473018E+04  0.36856076874E+04 0.  0.
        4    1    3    3  502    0 -0.31394225834E+02  0.41118064515E+03 -0.15732312086E+04  0.16263803888E+04  0.12699999809E+01 0. -1.
       -4    1    3    3    0  502  0.31394225834E+02 -0.41118064515E+03  0.20486749419E+04  0.20897669130E+04  0.12699999809E+01 0.  1.
</event>
<event>
 5   0  0.2411746E-07  0.3746947E+04  0.7818609E-02  0.8057637E-01
        1   -1    0    0  501    0  0.00000000000E+00  0.00000000000E+00  0.19469824578E+04  0.19469824578E+04  0.50400001928E-02 0.  1.
       -1   -1    0    0    0  501  0.00000000000E+00  0.00000000000E+00 -0.18027401640E+04  0.18027401640E+04  0.50400001928E-02 0. -1.
    10030    2    1    2    0    0  0.00000000000E+00  0.00000000000E+00  0.14424229386E+03  0.37497226218E+04  0.37469472776E+04 0.  0.
        1    1    3    3  502    0  0.43230039513E+03 -0.17782767938E+04 -0.32911408568E+03  0.18594268118E+04  0.50400001928E-02 0. -1.
       -1    1    3    3    0  502 -0.43230039513E+03  0.17782767938E+04  0.47335637953E+03  0.18902958100E+04  0.50400001928E-02 0.  1.
</event>
<event>
 5   0  0.2287500E-07  0.3590012E+04  0.7818609E-02  0.8092783E-01
       -1   -1    0    0    0  501  0.00000000000E+00  0.00000000000E+00  0.12337749959E+04  0.12337749959E+04  0.50400001928E-02 0. -1.
        1   -1    0    0  501    0  0.00000000000E+00  0.00000000000E+00 -0.26115349640E+04  0.26115349640E+04  0.50400001928E-02 0.  1.
    10030    2    1    2    0    0  0.00000000000E+00  0.00000000000E+00 -0.13777599681E+04  0.38453099599E+04  0.35900119997E+04 0.  0.
        4    1    3    3  502    0 -0.82158797598E+03 -0.33443643940E+03 -0.23603627898E+04  0.25215409270E+04  0.12699999809E+01 0.  1.
       -4    1    3    3    0  502  0.82158797598E+03  0.33443643940E+03  0.98260282174E+03  0.13237690329E+04  0.12699999809E+01 0. -1.
</event>
<event>
 5   0  0.7124627E-07  0.3630855E+04  0.7818609E-02  0.8083460E-01
       -2   -1    0    0    0  501  0.00000000000E+00  0.00000000000E+00  0.11467143095E+04  0.11467143095E+04  0.25500000920E-02 0. -1.
        2   -1    0    0  501    0  0.00000000000E+00  0.00000000000E+00 -0.28741050288E+04  0.28741050288E+04  0.25500000920E-02 0.  1.
    10030    2    1    2    0    0  0.00000000000E+00  0.00000000000E+00 -0.17273907193E+04  0.40208193384E+04  0.36308551960E+04 0.  0.
        2    1    3    3  502    0  0.11090080576E+04 -0.47393271685E+03  0.63897572667E+03  0.13648447059E+04  0.25500000920E-02 0. -1.
       -2    1    3    3    0  502 -0.11090080576E+04  0.47393271685E+03 -0.23663664460E+04  0.26559746325E+04  0.25500000920E-02 0.  1.
</event>
<event>
 5   0  0.7300916E-07  0.3507996E+04  0.7818609E-02  0.8111898E-01
        2   -1    0    0  501    0  0.00000000000E+00  0.00000000000E+00  0.17032892887E+04  0.17032892887E+04  0.25500000920E-02 0.  1.
       -2   -1    0    0    0  501  0.00000000000E+00  0.00000000000E+00 -0.18062166214E+04  0.18062166214E+04  0.25500000920E-02 0. -1.
    10030    2    1    2    0    0  0.00000000000E+00  0.00000000000E+00 -0.10292733269E+03  0.35095059101E+04  0.35079962510E+04 0.  0.
        1    1    3    3  502    0 -0.14148294786E+04 -0.98908710372E+03 -0.36219944523E+03  0.17638662621E+04  0.50400001928E-02 0. -1.
       -1    1    3    3    0  502  0.14148294786E+04  0.98908710372E+03  0.25927211253E+03  0.17456396480E+04  0.50400001928E-02 0.  1.
</event>
<event>
 5   0  0.7074157E-07  0.3656951E+04  0.7818609E-02  0.8077570E-01
        2   -1    0    0  501    0  0.00000000000E+00  0.00000000000E+00  0.18154684651E+04  0.18154684651E+04  0.25500000920E-02 0.  1.
       -2   -1    0    0    0  501  0.00000000000E+00  0.00000000000E+00 -0.18415754874E+04  0.18415754874E+04  0.25500000920E-02 0. -1.
    10030    2    1    2    0    0  0.00000000000E+00  0.00000000000E+00 -0.26107022243E+02  0.36570439525E+04  0.36569507645E+04 0.  0.
        3    1    3    3  502    0 -0.13239636662E+04 -0.25282969129E+03 -0.12486090020E+04  0.18373423993E+04  0.10100000352E+00 0. -1.
       -3    1    3    3    0  502  0.13239636662E+04  0.25282969129E+03  0.12225019797E+04  0.18197015532E+04  0.10100000352E+00 0.  1.
</event>
<event>
 5   0  0.7300916E-07  0.3753878E+04  0.7818609E-02  0.8056126E-01
       -2   -1    0    0    0  501  0.00000000000E+00  0.00000000000E+00  0.13335914802E+04  0.13335914802E+04  0.25500000920E-02 0. -1.
        2   -1    0    0  501    0  0.00000000000E+00  0.00000000000E+00 -0.26416629221E+04  0.26416629221E+04  0.25500000920E-02 0.  1.
    10030    2    1    2    0    0  0.00000000000E+00  0.00000000000E+00 -0.13080714419E+04  0.39752544023E+04  0.37538775508E+04 0.  0.
        1    1    3    3  502    0 -0.73564892673E+03 -0.21709049241E+03  0.11600535542E+04  0.13906947451E+04  0.50400001928E-02 0. -1.
       -1    1    3    3    0  502  0.73564892673E+03  0.21709049241E+03 -0.24681249961E+04  0.25845596572E+04  0.50400001928E-02 0.  1.
</event>
<event>
 5   0  0.6939921E-07  0.3489583E+04  0.7818609E-02  0.8116263E-01
       -2   -1    0    0    0  501  0.00000000000E+00  0.00000000000E+00  0.13645326165E+04  0.13645326165E+04  0.25500000920E-02 0. -1.
        2   -1    0    0  501    0  0.00000000000E+00  0.00000000000E+00 -0.22310178201E+04  0.22310178201E+04  0.25500000920E-02 0.  1.
    10030    2    1    2    0    0  0.00000000000E+00  0.00000000000E+00 -0.86648520364E+03  0.35955504367E+04  0.34895825444E+04 0.  0.
        4    1    3    3  502    0  0.14717342984E+04  0.13754913657E+03  0.52193219117E+03  0.15675893707E+04  0.12699999809E+01 0. -1.
       -4    1    3    3    0  502 -0.14717342984E+04 -0.13754913657E+03 -0.13884173948E+04  0.20279610660E+04  0.12699999809E+01 0.  1.
</event>
<event>
 5   0  0.2287500E-07  0.3726537E+04  0.7818609E-02  0.8062106E-01
       -1   -1    0    0    0  501  0.00000000000E+00  0.00000000000E+00  0.13412261903E+04  0.13412261903E+04  0.50400001928E-02 0. -1.
        1   -1    0    0  501    0  0.00000000000E+00  0.00000000000E+00 -0.25885042136E+04  0.25885042136E+04  0.50400001928E-02 0.  1.
    10030    2    1    2    0    0  0.00000000000E+00  0.00000000000E+00 -0.12472780233E+04  0.39297304039E+04  0.37265370761E+04 0.  0.
        3    1    3    3  502    0 -0.92439633100E+03  0.15393263521E+04 -0.11485085638E+04  0.21314563393E+04  0.10100000352E+00 0. -1.
       -3    1    3    3    0  502  0.92439633100E+03 -0.15393263521E+04 -0.98769459511E+02  0.17982740646E+04  0.10100000352E+00 0.  1.
</event>
<event>
 5   0  0.2411746E-07  0.3488475E+04  0.7818609E-02  0.8116527E-01
       -1   -1    0    0    0  501  0.00000000000E+00  0.00000000000E+00  0.11388927338E+04  0.11388927338E+04  0.50400001928E-02 0.  1.
        1   -1    0    0  501    0  0.00000000000E+00  0.00000000000E+00 -0.26713347254E+04  0.26713347254E+04  0.50400001928E-02 0. -1.
    10030    2    1    2    0    0  0.00000000000E+00  0.00000000000E+00 -0.15324419916E+04  0.38102274593E+04  0.34884745712E+04 0.  0.
        1    1    3    3  502    0  0.14929980520E+04 -0.46993055875E+03  0.74504682358E+02  0.15669808107E+04  0.50400001928E-02 0.  1.
       -1    1    3    3    0  502 -0.14929980520E+04  0.46993055875E+03 -0.16069466740E+04  0.22432466486E+04  0.50400001928E-02 0. -1.
</event>
<event>
 5   0  0.2287500E-07  0.3674554E+04  0.7818609E-02  0.8073625E-01
       -3   -1    0    0    0  501  0.00000000000E+00  0.00000000000E+00  0.22895335828E+04  0.22895335851E+04  0.10100000352E+00 0. -1.
        3   -1    0    0  501    0  0.00000000000E+00  0.00000000000E+00 -0.14743554362E+04  0.14743554397E+04  0.10100000352E+00 0.  1.
    10030    2    1    2    0    0  0.00000000000E+00  0.00000000000E+00  0.81517814660E+03  0.37638890248E+04  0.36745537389E+04 0.  0.
        4    1    3    3  502    0 -0.95841919893E+03  0.11645061909E+03 -0.11935701431E+04  0.15351675501E+04  0.12699999809E+01 0.  1.
       -4    1    3    3    0  502  0.95841919893E+03 -0.11645061909E+03  0.20087482897E+04  0.22287214747E+04  0.12699999809E+01 0. -1.
</event>
<event>
 5   0  0.2411746E-07  0.2693085E+04  0.7818609E-02  0.8337252E-01
       -1   -1    0    0    0  501  0.00000000000E+00  0.00000000000E+00  0.86169946894E+03  0.86169946896E+03  0.50400001928E-02 0. -1.
        1   -1    0    0  501    0  0.00000000000E+00  0.00000000000E+00 -0.21041871922E+04  0.21041871922E+04  0.50400001928E-02 0.  1.
    10030    2    1    2    0    0  0.00000000000E+00  0.00000000000E+00 -0.12424877232E+04  0.29658866611E+04  0.26930852093E+04 0.  0.
        1    1    3    3  502    0  0.86739666383E+03  0.15073838045E+03 -0.17433125414E+04  0.19530073345E+04  0.50400001928E-02 0.  1.
       -1    1    3    3    0  502 -0.86739666383E+03 -0.15073838045E+03  0.50082481815E+03  0.10128793266E+04  0.50400001928E-02 0. -1.
</event>
<event>
 5   0  0.2287500E-07  0.3689872E+04  0.7818609E-02  0.8070210E-01
       -1   -1    0    0    0  501  0.00000000000E+00  0.00000000000E+00  0.16994797029E+04  0.16994797029E+04  0.50400001928E-02 0.  1.
        1   -1    0    0  501    0  0.00000000000E+00  0.00000000000E+00 -0.20028417114E+04  0.20028417114E+04  0.50400001928E-02 0. -1.
    10030    2    1    2    0    0  0.00000000000E+00  0.00000000000E+00 -0.30336200850E+03  0.37023214143E+04  0.36898719959E+04 0.  0.
        4    1    3    3  502    0  0.73070139836E+03 -0.16079427501E+04 -0.68675578662E+03  0.18950038376E+04  0.12699999809E+01 0.  1.
       -4    1    3    3    0  502 -0.73070139836E+03  0.16079427501E+04  0.38339377812E+03  0.18073175767E+04  0.12699999809E+01 0. -1.
</event>
<event>
 5   0  0.2287500E-07  0.3799735E+04  0.7818609E-02  0.8046212E-01
       -1   -1    0    0    0  501  0.00000000000E+00  0.00000000000E+00  0.23541745677E+04  0.23541745677E+04  0.50400001928E-02 0.  1.
        1   -1    0    0  501    0  0.00000000000E+00  0.00000000000E+00 -0.15332322809E+04  0.15332322809E+04  0.50400001928E-02 0. -1.
    10030    2    1    2    0    0  0.00000000000E+00  0.00000000000E+00  0.82094228678E+03  0.38874068486E+04  0.37997349603E+04 0.  0.
        3    1    3    3  502    0  0.33661746475E+03  0.13382885174E+04 -0.92547945777E+03  0.16615774765E+04  0.10100000352E+00 0. -1.
       -3    1    3    3    0  502 -0.33661746475E+03 -0.13382885174E+04  0.17464217446E+04  0.22258293721E+04  0.10100000352E+00 0.  1.
</event>
<event>
 5   0  0.6939921E-07  0.3714856E+04  0.7818609E-02  0.8064678E-01
       -2   -1    0    0    0  501  0.00000000000E+00  0.00000000000E+00  0.25147092538E+04  0.25147092538E+04  0.25500000920E-02 0.  1.
        2   -1    0    0  501    0  0.00000000000E+00  0.00000000000E+00 -0.13719430547E+04  0.13719430547E+04  0.25500000920E-02 0. -1.
    10030    2    1    2    0    0  0.00000000000E+00  0.00000000000E+00  0.11427661991E+04  0.38866523085E+04  0.37148555263E+04 0.  0.
        4    1    3    3  502    0 -0.13912071568E+04  0.92395173577E+03  0.14219315342E+04  0.21934071815E+04  0.12699999809E+01 0.  1.
       -4    1    3    3    0  502  0.13912071568E+04 -0.92395173577E+03 -0.27916533509E+03  0.16932451270E+04  0.12699999809E+01 0. -1.
</event>
<event>
 5   0  0.2287500E-07  0.3394437E+04  0.7818609E-02  0.8139273E-01
       -1   -1    0    0    0  501  0.00000000000E+00  0.00000000000E+00  0.17949967110E+04  0.17949967110E+04  0.50400001928E-02 0.  1.
        1   -1    0    0  501    0  0.00000000000E+00  0.00000000000E+00 -0.16047664633E+04  0.16047664633E+04  0.50400001928E-02 0. -1.
    10030    2    1    2    0    0  0.00000000000E+00  0.00000000000E+00  0.19023024773E+03  0.33997631742E+04  0.33944369332E+04 0.  0.
        2    1    3    3  502    0 -0.91972821344E+03 -0.28210773487E+03 -0.13053155236E+04  0.16215219322E+04  0.25500000920E-02 0. -1.
       -2    1    3    3    0  502  0.91972821344E+03  0.28210773487E+03  0.14955457713E+04  0.17782412420E+04  0.25500000920E-02 0.  1.
</event>
<event>
 5   0  0.2287500E-07  0.3689524E+04  0.7818609E-02  0.8070287E-01
        1   -1    0    0  501    0  0.00000000000E+00  0.00000000000E+00  0.16527047531E+04  0.16527047531E+04  0.50400001928E-02 0.  1.
       -1   -1    0    0    0  501  0.00000000000E+00  0.00000000000E+00 -0.20591376215E+04  0.20591376215E+04  0.50400001928E-02 0. -1.
    10030    2    1    2    0    0  0.00000000000E+00  0.00000000000E+00 -0.40643286840E+03  0.37118423747E+04  0.36895238362E+04 0.  0.
        3    1    3    3  502    0  0.14999744509E+04 -0.10434806238E+04 -0.45846631245E+03  0.18838700951E+04  0.10100000352E+00 0.  1.
       -3    1    3    3    0  502 -0.14999744509E+04  0.10434806238E+04  0.52033444049E+02  0.18279722796E+04  0.10100000352E+00 0. -1.
</event>
<event>
 5   0  0.6949625E-07  0.3749410E+04  0.7818609E-02  0.8057099E-01
        2   -1    0    0  501    0  0.00000000000E+00  0.00000000000E+00  0.18668700642E+04  0.18668700642E+04  0.25500000920E-02 0.  1.
       -2   -1    0    0    0  501  0.00000000000E+00  0.00000000000E+00 -0.18825724301E+04  0.18825724301E+04  0.25500000920E-02 0. -1.
    10030    2    1    2    0    0  0.00000000000E+00  0.00000000000E+00 -0.15702365885E+02  0.37494424943E+04  0.37494096140E+04 0.  0.
        5    1    3    3  502    0 -0.14068100184E+04 -0.78442816721E+03 -0.96705407233E+03  0.18787383123E+04  0.46999998093E+01 0. -1.
       -5    1    3    3    0  502  0.14068100184E+04  0.78442816721E+03  0.95135170645E+03  0.18707041820E+04  0.46999998093E+01 0.  1.
</event>
<event>
 5   0  0.2287500E-07  0.3434378E+04  0.7818609E-02  0.8129520E-01
       -1   -1    0    0    0  501  0.00000000000E+00  0.00000000000E+00  0.15492804606E+04  0.15492804606E+04  0.50400001928E-02 0. -1.
        1   -1    0    0  501    0  0.00000000000E+00  0.00000000000E+00 -0.19032954802E+04  0.19032954802E+04  0.50400001928E-02 0.  1.
    10030    2    1    2    0    0  0.00000000000E+00  0.00000000000E+00 -0.35401501958E+03  0.34525759408E+04  0.34343782542E+04 0.  0.
        2    1    3    3  502    0  0.79518745987E+03  0.13271573234E+04 -0.92598460843E+03  0.18030854534E+04  0.25500000920E-02 0. -1.
       -2    1    3    3    0  502 -0.79518745987E+03 -0.13271573234E+04  0.57196958885E+03  0.16494904874E+04  0.25500000920E-02 0.  1.
</event>
<event>
 5   0  0.2345471E-07  0.2804051E+04  0.7818609E-02  0.8302012E-01
        1   -1    0    0  501    0  0.00000000000E+00  0.00000000000E+00  0.15077683582E+04  0.15077683582E+04  0.50400001928E-02 0.  1.
       -1   -1    0    0    0  501  0.00000000000E+00  0.00000000000E+00 -0.13036985030E+04  0.13036985030E+04  0.50400001928E-02 0. -1.
    10030    2    1    2    0    0  0.00000000000E+00  0.00000000000E+00  0.20406985520E+03  0.28114668612E+04  0.28040508922E+04 0.  0.
        5    1    3    3  502    0 -0.43482462274E+02  0.10450518615E+04  0.10381148895E+04  0.14736786392E+04  0.46999998093E+01 0.  1.
       -5    1    3    3    0  502  0.43482462274E+02 -0.10450518615E+04 -0.83404503435E+03  0.13377882220E+04  0.46999998093E+01 0. -1.
</event>
<event>
 5   0  0.2345471E-07  0.3718880E+04  0.7818609E-02  0.8063791E-01
        1   -1    0    0  501    0  0.00000000000E+00  0.00000000000E+00  0.27153616765E+04  0.27153616765E+04  0.50400001928E-02 0.  1.
       -1   -1    0    0    0  501  0.00000000000E+00  0.00000000000E+00 -0.12733173328E+04  0.12733173329E+04  0.50400001928E-02 0. -1.
    10030    2    1    2    0    0  0.00000000000E+00  0.00000000000E+00  0.14420443436E+04  0.39886790093E+04  0.37188799860E+04 0.  0.
        5    1    3    3  502    0 -0.16196544312E+04  0.51561354752E+03  0.15296107530E+04  0.22866720255E+04  0.46999998093E+01 0.  1.
       -5    1    3    3    0  502  0.16196544312E+04 -0.51561354752E+03 -0.87566409373E+02  0.17020069838E+04  0.46999998093E+01 0. -1.
</event>
<event>
 5   0  0.7124627E-07  0.3665802E+04  0.7818609E-02  0.8075583E-01
       -2   -1    0    0    0  501  0.00000000000E+00  0.00000000000E+00  0.18700871850E+04  0.18700871850E+04  0.25500000920E-02 0. -1.
        2   -1    0    0  501    0  0.00000000000E+00  0.00000000000E+00 -0.17964543152E+04  0.17964543152E+04  0.25500000920E-02 0.  1.
    10030    2    1    2    0    0  0.00000000000E+00  0.00000000000E+00  0.73632869774E+02  0.36665415002E+04  0.36658020641E+04 0.  0.
        2    1    3    3  502    0  0.62610400340E+02  0.18033630761E+04 -0.28494356921E+03  0.18268090443E+04  0.25500000920E-02 0. -1.
       -2    1    3    3    0  502 -0.62610400340E+02 -0.18033630761E+04  0.35857643899E+03  0.18397324559E+04  0.25500000920E-02 0.  1.
</event>
<event>
 5   0  0.7124627E-07  0.3669936E+04  0.7818609E-02  0.8074657E-01
        2   -1    0    0  501    0  0.00000000000E+00  0.00000000000E+00  0.21666444763E+04  0.21666444763E+04  0.25500000920E-02 0.  1.
       -2   -1    0    0    0  501  0.00000000000E+00  0.00000000000E+00 -0.15540659039E+04  0.15540659039E+04  0.25500000920E-02 0. -1.
    10030    2    1    2    0    0  0.00000000000E+00  0.00000000000E+00  0.61257857243E+03  0.37207103802E+04  0.36699364063E+04 0.  0.
        2    1    3    3  502    0  0.12169140923E+04  0.12713503788E+04 -0.22041401978E+03  0.17736386424E+04  0.25500000920E-02 0. -1.
       -2    1    3    3    0  502 -0.12169140923E+04 -0.12713503788E+04  0.83299259221E+03  0.19470717378E+04  0.25500000920E-02 0.  1.
</event>
<event>
 5   0  0.7074157E-07  0.3749156E+04  0.7818609E-02  0.8057155E-01
        2   -1    0    0  501    0  0.00000000000E+00  0.00000000000E+00  0.20494290404E+04  0.20494290404E+04  0.25500000920E-02 0.  1.
       -2   -1    0    0    0  501  0.00000000000E+00  0.00000000000E+00 -0.17146446304E+04  0.17146446304E+04  0.25500000920E-02 0. -1.
    10030    2    1    2    0    0  0.00000000000E+00  0.00000000000E+00  0.33478441006E+03  0.37640736708E+04  0.37491559047E+04 0.  0.
        3    1    3    3  502    0  0.17145409264E+04  0.75225304104E+03  0.25999403153E+03  0.18902730312E+04  0.10100000352E+00 0.  1.
       -3    1    3    3    0  502 -0.17145409264E+04 -0.75225304104E+03  0.74790378529E+02  0.18738006396E+04  0.10100000352E+00 0. -1.
</event>
<event>
 5   0  0.6939921E-07  0.3620091E+04  0.7818609E-02  0.8085905E-01
        2   -1    0    0  501    0  0.00000000000E+00  0.00000000000E+00  0.25030578326E+04  0.25030578326E+04  0.25500000920E-02 0. -1.
       -2   -1    0    0    0  501  0.00000000000E+00  0.00000000000E+00 -0.13089052117E+04  0.13089052117E+04  0.25500000920E-02 0.  1.
    10030    2    1    2    0    0  0.00000000000E+00  0.00000000000E+00  0.11941526209E+04  0.38119630442E+04  0.36200914033E+04 0.  0.
        4    1    3    3  502    0 -0.77157931180E+03  0.98749492602E+03  0.19723560090E+04  0.23368078018E+04  0.12699999809E+01 0. -1.
       -4    1    3    3    0  502  0.77157931180E+03 -0.98749492602E+03 -0.77820338805E+03  0.14751552425E+04  0.12699999809E+01 0.  1.
</event>
<event>
 5   0  0.2411746E-07  0.3621070E+04  0.7818609E-02  0.8085682E-01
        1   -1    0    0  501    0  0.00000000000E+00  0.00000000000E+00  0.19575896582E+04  0.19575896582E+04  0.50400001928E-02 0.  1.
       -1   -1    0    0    0  501  0.00000000000E+00  0.00000000000E+00 -0.16745268325E+04  0.16745268325E+04  0.50400001928E-02 0. -1.
    10030    2    1    2    0    0  0.00000000000E+00  0.00000000000E+00  0.28306282570E+03  0.36321164906E+04  0.36210696815E+04 0.  0.
        1    1    3    3  502    0  0.17211084609E+04  0.23804183754E+03  0.65216024096E+03  0.18558532352E+04  0.50400001928E-02 0. -1.
       -1    1    3    3    0  502 -0.17211084609E+04 -0.23804183754E+03 -0.36909741526E+03  0.17762632554E+04  0.50400001928E-02 0.  1.
</event>
<event>
 5   0  0.6939921E-07  0.3098583E+04  0.7818609E-02  0.8216127E-01
       -2   -1    0    0    0  501  0.00000000000E+00  0.00000000000E+00  0.18780823316E+04  0.18780823316E+04  0.25500000920E-02 0.  1.
        2   -1    0    0  501    0  0.00000000000E+00  0.00000000000E+00 -0.12780613172E+04  0.12780613172E+04  0.25500000920E-02 0. -1.
    10030    2    1    2    0    0  0.00000000000E+00  0.00000000000E+00  0.60002101439E+03  0.31561436488E+04  0.30985831462E+04 0.  0.
        4    1    3    3  502    0 -0.11215339686E+04 -0.73364247157E+03  0.10917746765E+04  0.17285957526E+04  0.12699999809E+01 0.  1.
       -4    1    3    3    0  502  0.11215339686E+04  0.73364247157E+03 -0.49175366207E+03  0.14275478962E+04  0.12699999809E+01 0. -1.
</event>
<event>
 5   0  0.2287500E-07  0.3720641E+04  0.7818609E-02  0.8063403E-01
        1   -1    0    0  501    0  0.00000000000E+00  0.00000000000E+00  0.22554088907E+04  0.22554088907E+04  0.50400001928E-02 0. -1.
       -1   -1    0    0    0  501  0.00000000000E+00  0.00000000000E+00 -0.15344409556E+04  0.15344409556E+04  0.50400001928E-02 0.  1.
    10030    2    1    2    0    0  0.00000000000E+00  0.00000000000E+00  0.72096793504E+03  0.37898498463E+04  0.37206406833E+04 0.  0.
        4    1    3    3  502    0 -0.29030420834E+03  0.18109614301E+04  0.43353045492E+02  0.18345950327E+04  0.12699999809E+01 0.  1.
       -4    1    3    3    0  502  0.29030420834E+03 -0.18109614301E+04  0.67761488955E+03  0.19552548136E+04  0.12699999809E+01 0. -1.
</event>
<event>
 5   0  0.7300916E-07  0.3872481E+04  0.7818609E-02  0.8030777E-01
       -2   -1    0    0    0  501  0.00000000000E+00  0.00000000000E+00  0.17765827885E+04  0.17765827885E+04  0.25500000920E-02 0.  1.
        2   -1    0    0  501    0  0.00000000000E+00  0.00000000000E+00 -0.21102459145E+04  0.21102459145E+04  0.25500000920E-02 0. -1.
    10030    2    1    2    0    0  0.00000000000E+00  0.00000000000E+00 -0.33366312597E+03  0.38868287030E+04  0.38724806371E+04 0.  0.
        1    1    3    3  502    0 -0.79583872048E+03 -0.13143596053E+04  0.10157214284E+04  0.18418986023E+04  0.50400001928E-02 0. -1.
       -1    1    3    3    0  502  0.79583872048E+03  0.13143596053E+04 -0.13493845544E+04  0.20449301007E+04  0.50400001928E-02 0.  1.
</event>
<event>
 5   0  0.2287500E-07  0.3772417E+04  0.7818609E-02  0.8052100E-01
       -1   -1    0    0    0  501  0.00000000000E+00  0.00000000000E+00  0.18498309127E+04  0.18498309127E+04  0.50400001928E-02 0. -1.
        1   -1    0    0  501    0  0.00000000000E+00  0.00000000000E+00 -0.19233010574E+04  0.19233010575E+04  0.50400001928E-02 0.  1.
    10030    2    1    2    0    0  0.00000000000E+00  0.00000000000E+00 -0.73470144790E+02  0.37731319701E+04  0.37724165997E+04 0.  0.
        3    1    3    3  502    0 -0.73075619494E+03  0.10469031122E+02  0.17024642834E+04  0.18527004247E+04  0.10100000352E+00 0. -1.
       -3    1    3    3    0  502  0.73075619494E+03 -0.10469031122E+02 -0.17759344282E+04  0.19204315454E+04  0.10100000352E+00 0.  1.
</event>
<event>
 5   0  0.7074157E-07  0.3682892E+04  0.7818609E-02  0.8071764E-01
        2   -1    0    0  501    0  0.00000000000E+00  0.00000000000E+00  0.19945979489E+04  0.19945979489E+04  0.25500000920E-02 0.  1.
       -2   -1    0    0    0  501  0.00000000000E+00  0.00000000000E+00 -0.17000535923E+04  0.17000535923E+04  0.25500000920E-02 0. -1.
    10030    2    1    2    0    0  0.00000000000E+00  0.00000000000E+00  0.29454435654E+03  0.36946515412E+04  0.36828920203E+04 0.  0.
        3    1    3    3  502    0  0.12775334169E+04  0.23761145936E+03  0.14561882611E+04  0.19516749470E+04  0.10100000352E+00 0.  1.
       -3    1    3    3    0  502 -0.12775334169E+04 -0.23761145936E+03 -0.11616439046E+04  0.17429765942E+04  0.10100000352E+00 0. -1.
</event>
<event>
 5   0  0.2345471E-07  0.2740258E+04  0.7818609E-02  0.8322060E-01
       -1   -1    0    0    0  501  0.00000000000E+00  0.00000000000E+00  0.10285313728E+04  0.10285313728E+04  0.50400001928E-02 0. -1.
        1   -1    0    0  501    0  0.00000000000E+00  0.00000000000E+00 -0.18251788591E+04  0.18251788592E+04  0.50400001928E-02 0.  1.
    10030    2    1    2    0    0  0.00000000000E+00  0.00000000000E+00 -0.79664748634E+03  0.28537102320E+04  0.27402581759E+04 0.  0.
        5    1    3    3  502    0  0.18769018309E+03  0.43524524997E+03  0.94042089264E+03  0.10531284716E+04  0.46999998093E+01 0. -1.
       -5    1    3    3    0  502 -0.18769018309E+03 -0.43524524997E+03 -0.17370683790E+04  0.18005817603E+04  0.46999998093E+01 0.  1.
</event>
<event>
 5   0  0.7300916E-07  0.3719840E+04  0.7818609E-02  0.8063579E-01
        2   -1    0    0  501    0  0.00000000000E+00  0.00000000000E+00  0.24121588374E+04  0.24121588374E+04  0.25500000920E-02 0.  1.
       -2   -1    0    0    0  501  0.00000000000E+00  0.00000000000E+00 -0.14341102915E+04  0.14341102915E+04  0.25500000920E-02 0. -1.
    10030    2    1    2    0    0  0.00000000000E+00  0.00000000000E+00  0.97804854593E+03  0.38462691289E+04  0.37198396812E+04 0.  0.
        1    1    3    3  502    0 -0.65946357841E+03 -0.12651980545E+04 -0.74471153485E+03  0.16094140544E+04  0.50400001928E-02 0. -1.
       -1    1    3    3    0  502  0.65946357841E+03  0.12651980545E+04  0.17227600808E+04  0.22368550745E+04  0.50400001928E-02 0.  1.
</event>
<event>
 5   0  0.7074157E-07  0.3638824E+04  0.7818609E-02  0.8081656E-01
       -2   -1    0    0    0  501  0.00000000000E+00  0.00000000000E+00  0.13887089916E+04  0.13887089916E+04  0.25500000920E-02 0.  1.
        2   -1    0    0  501    0  0.00000000000E+00  0.00000000000E+00 -0.23836961805E+04  0.23836961805E+04  0.25500000920E-02 0. -1.
    10030    2    1    2    0    0  0.00000000000E+00  0.00000000000E+00 -0.99498718890E+03  0.37724051721E+04  0.36388241613E+04 0.  0.
        3    1    3    3  502    0  0.18181709309E+04  0.18025869886E+02 -0.56459878918E+03  0.19039018538E+04  0.10100000352E+00 0. -1.
       -3    1    3    3    0  502 -0.18181709309E+04 -0.18025869886E+02 -0.43038839971E+03  0.18685033183E+04  0.10100000352E+00 0.  1.
</event>
<event>
 5   0  0.2287500E-07  0.3807918E+04  0.7818609E-02  0.8044458E-01
        3   -1    0    0  501    0  0.00000000000E+00  0.00000000000E+00  0.22616436001E+04  0.22616436024E+04  0.10100000352E+00 0. -1.
       -3   -1    0    0    0  501  0.00000000000E+00  0.00000000000E+00 -0.16028429044E+04  0.16028429076E+04  0.10100000352E+00 0.  1.
    10030    2    1    2    0    0  0.00000000000E+00  0.00000000000E+00  0.65880069576E+03  0.38644865100E+04  0.38079177550E+04 0.  0.
        4    1    3    3  502    0  0.52249929394E+03  0.15096323442E+04 -0.72187562411E+03  0.17530263422E+04  0.12699999809E+01 0.  1.
       -4    1    3    3    0  502 -0.52249929394E+03 -0.15096323442E+04  0.13806763199E+04  0.21114601678E+04  0.12699999809E+01 0. -1.
</event>
<event>
 5   0  0.2287500E-07  0.3622690E+04  0.7818609E-02  0.8085314E-01
        1   -1    0    0  501    0  0.00000000000E+00  0.00000000000E+00  0.14437661131E+04  0.14437661131E+04  0.50400001928E-02 0. -1.
       -1   -1    0    0    0  501  0.00000000000E+00  0.00000000000E+00 -0.22725082795E+04  0.22725082795E+04  0.50400001928E-02 0.  1.
    10030    2    1    2    0    0  0.00000000000E+00  0.00000000000E+00 -0.82874216642E+03  0.37162743927E+04  0.36226898547E+04 0.  0.
        4    1    3    3  502    0  0.53766077148E+03 -0.67589244827E+02 -0.21874072501E+04  0.22535304528E+04  0.12699999809E+01 0.  1.
       -4    1    3    3    0  502 -0.53766077148E+03  0.67589244827E+02  0.13586650836E+04  0.14627439399E+04  0.12699999809E+01 0. -1.
</event>
<event>
 5   0  0.2287500E-07  0.3677397E+04  0.7818609E-02  0.8072990E-01
       -1   -1    0    0    0  501  0.00000000000E+00  0.00000000000E+00  0.25104207455E+04  0.25104207455E+04  0.50400001928E-02 0.  1.
        1   -1    0    0  501    0  0.00000000000E+00  0.00000000000E+00 -0.13467111399E+04  0.13467111399E+04  0.50400001928E-02 0. -1.
    10030    2    1    2    0    0  0.00000000000E+00  0.00000000000E+00  0.11637096056E+04  0.38571318854E+04  0.36773966791E+04 0.  0.
        2    1    3    3  502    0 -0.10364012280E+04  0.13818643703E+04  0.12428420166E+04  0.21279879985E+04  0.25500000920E-02 0.  1.
       -2    1    3    3    0  502  0.10364012280E+04 -0.13818643703E+04 -0.79132411081E+02  0.17291438870E+04  0.25500000920E-02 0. -1.
</event>
<event>
 5   0  0.6939921E-07  0.2785165E+04  0.7818609E-02  0.8307889E-01
        2   -1    0    0  501    0  0.00000000000E+00  0.00000000000E+00  0.21113276267E+04  0.21113276267E+04  0.25500000920E-02 0. -1.
       -2   -1    0    0    0  501  0.00000000000E+00  0.00000000000E+00 -0.91851495438E+03  0.91851495439E+03  0.25500000920E-02 0.  1.
    10030    2    1    2    0    0  0.00000000000E+00  0.00000000000E+00  0.11928126723E+04  0.30298425811E+04  0.27851649852E+04 0.  0.
        4    1    3    3  502    0  0.16383032360E+03  0.23159758299E+03 -0.88674763067E+03  0.93102136859E+03  0.12699999809E+01 0.  1.
       -4    1    3    3    0  502 -0.16383032360E+03 -0.23159758299E+03  0.20795603030E+04  0.20988212125E+04  0.12699999809E+01 0. -1.
</event>
<event>
 5   0  0.7300916E-07  0.3677497E+04  0.7818609E-02  0.8072967E-01
       -2   -1    0    0    0  501  0.00000000000E+00  0.00000000000E+00  0.17762371532E+04  0.17762371532E+04  0.25500000920E-02 0. -1.
        2   -1    0    0  501    0  0.00000000000E+00  0.00000000000E+00 -0.19034596693E+04  0.19034596693E+04  0.25500000920E-02 0.  1.
    10030    2    1    2    0    0  0.00000000000E+00  0.00000000000E+00 -0.12722251610E+03  0.36796968226E+04  0.36774968576E+04 0.  0.
        1    1    3    3  502    0  0.18026745882E+04 -0.31351153055E+03  0.11835086073E+03  0.18335572195E+04  0.50400001928E-02 0. -1.
       -1    1    3    3    0  502 -0.18026745882E+04  0.31351153055E+03 -0.24557337683E+03  0.18461396031E+04  0.50400001928E-02 0.  1.
</event>
<event>
 5   0  0.2411746E-07  0.3723705E+04  0.7818609E-02  0.8062729E-01
       -1   -1    0    0    0  501  0.00000000000E+00  0.00000000000E+00  0.14152312867E+04  0.14152312868E+04  0.50400001928E-02 0. -1.
        1   -1    0    0  501    0  0.00000000000E+00  0.00000000000E+00 -0.24494196302E+04  0.24494196302E+04  0.50400001928E-02 0.  1.
    10030    2    1    2    0    0  0.00000000000E+00  0.00000000000E+00 -0.10341883434E+04  0.38646509169E+04  0.37237053025E+04 0.  0.
        1    1    3    3  502    0 -0.13108624164E+04 -0.98175802024E+03  0.40202591557E+03  0.16863670780E+04  0.50400001928E-02 0. -1.
       -1    1    3    3    0  502  0.13108624164E+04  0.98175802024E+03 -0.14362142590E+04  0.21782838389E+04  0.50400001928E-02 0.  1.
</event>
<event>
 5   0  0.6949625E-07  0.3669790E+04  0.7818609E-02  0.8074690E-01
        2   -1    0    0  501    0  0.00000000000E+00  0.00000000000E+00  0.28738666597E+04  0.28738666597E+04  0.25500000920E-02 0. -1.
       -2   -1    0    0    0  501  0.00000000000E+00  0.00000000000E+00 -0.11715366118E+04  0.11715366118E+04  0.25500000920E-02 0.  1.
    10030    2    1    2    0    0  0.00000000000E+00  0.00000000000E+00  0.17023300478E+04  0.40454032715E+04  0.36697901898E+04 0.  0.
        5    1    3    3  502    0  0.29364561149E+03  0.17798684260E+04  0.48116420542E+03  0.18670030641E+04  0.46999998093E+01 0. -1.
       -5    1    3    3    0  502 -0.29364561149E+03 -0.17798684260E+04  0.12211658424E+04  0.21784002074E+04  0.46999998093E+01 0.  1.
</event>
<event>
 5   0  0.2287500E-07  0.3789103E+04  0.7818609E-02  0.8048497E-01
        1   -1    0    0  501    0  0.00000000000E+00  0.00000000000E+00  0.19023356935E+04  0.19023356935E+04  0.50400001928E-02 0.  1.
       -1   -1    0    0    0  501  0.00000000000E+00  0.00000000000E+00 -0.18867996335E+04  0.18867996335E+04  0.50400001928E-02 0. -1.
    10030    2    1    2    0    0  0.00000000000E+00  0.00000000000E+00  0.15536060051E+02  0.37891353270E+04  0.37891034768E+04 0.  0.
        4    1    3    3  502    0 -0.18730130220E+04  0.98383603915E+02 -0.25956839429E+03  0.18934715415E+04  0.12699999809E+01 0. -1.
       -4    1    3    3    0  502  0.18730130220E+04 -0.98383603915E+02  0.27510445435E+03  0.18956637856E+04  0.12699999809E+01 0.  1.
</event>
<event>
 5   0  0.2287500E-07  0.3652897E+04  0.7818609E-02  0.8078481E-01
        1   -1    0    0  501    0  0.00000000000E+00  0.00000000000E+00  0.21614454180E+04  0.21614454180E+04  0.50400001928E-02 0. -1.
       -1   -1    0    0    0  501  0.00000000000E+00  0.00000000000E+00 -0.15433716147E+04  0.15433716147E+04  0.50400001928E-02 0.  1.
    10030    2    1    2    0    0  0.00000000000E+00  0.00000000000E+00  0.61807380327E+03  0.37048170327E+04  0.36528966614E+04 0.  0.
        3    1    3    3  502    0  0.12345724149E+04 -0.74006836448E+03  0.14493138566E+04  0.20426406676E+04  0.10100000352E+00 0. -1.
       -3    1    3    3    0  502 -0.12345724149E+04  0.74006836448E+03 -0.83124005337E+03  0.16621763650E+04  0.10100000352E+00 0.  1.
</event>
<event>
 5   0  0.2287500E-07  0.3683951E+04  0.7818609E-02  0.8071528E-01
        1   -1    0    0  501    0  0.00000000000E+00  0.00000000000E+00  0.28201879119E+04  0.28201879119E+04  0.50400001928E-02 0.  1.
       -1   -1    0    0    0  501  0.00000000000E+00  0.00000000000E+00 -0.12030666596E+04  0.12030666596E+04  0.50400001928E-02 0. -1.
    10030    2    1    2    0    0  0.00000000000E+00  0.00000000000E+00  0.16171212524E+04  0.40232545715E+04  0.36839511672E+04 0.  0.
        2    1    3    3  502    0  0.12682532278E+04 -0.54349993568E+03  0.21412019482E+04  0.25472738786E+04  0.25500000920E-02 0.  1.
       -2    1    3    3    0  502 -0.12682532278E+04  0.54349993568E+03 -0.52408069581E+03  0.14759806928E+04  0.25500000920E-02 0. -1.
</event>
<event>
 5   0  0.6939921E-07  0.3704796E+04  0.7818609E-02  0.8066900E-01
        2   -1    0    0  501    0  0.00000000000E+00  0.00000000000E+00  0.17483282466E+04  0.17483282466E+04  0.25500000920E-02 0. -1.
       -2   -1    0    0    0  501  0.00000000000E+00  0.00000000000E+00 -0.19626622318E+04  0.19626622318E+04  0.25500000920E-02 0.  1.
    10030    2    1    2    0    0  0.00000000000E+00  0.00000000000E+00 -0.21433398519E+03  0.37109904784E+04  0.37047957128E+04 0.  0.
        4    1    3    3  502    0 -0.23651322279E+03  0.58755415880E+03  0.16364957901E+04  0.17547873028E+04  0.12699999809E+01 0. -1.
       -4    1    3    3    0  502  0.23651322279E+03 -0.58755415880E+03 -0.18508297753E+04  0.19562031756E+04  0.12699999809E+01 0.  1.
</event>
<event>
 5   0  0.2411746E-07  0.3561953E+04  0.7818609E-02  0.8099263E-01
       -1   -1    0    0    0  501  0.00000000000E+00  0.00000000000E+00  0.14861626767E+04  0.14861626767E+04  0.50400001928E-02 0. -1.
        1   -1    0    0  501    0  0.00000000000E+00  0.00000000000E+00 -0.21342731431E+04  0.21342731431E+04  0.50400001928E-02 0.  1.
    10030    2    1    2    0    0  0.00000000000E+00  0.00000000000E+00 -0.64811046634E+03  0.36204358198E+04  0.35619528841E+04 0.  0.
        1    1    3    3  502    0 -0.16392963534E+04  0.36907178372E+03  0.27586486670E+03  0.17028235201E+04  0.50400001928E-02 0. -1.
       -1    1    3    3    0  502  0.16392963534E+04 -0.36907178372E+03 -0.92397533304E+03  0.19176122997E+04  0.50400001928E-02 0.  1.
</event>
<event>
 5   0  0.2287500E-07  0.3694478E+04  0.7818609E-02  0.8069187E-01
        1   -1    0    0  501    0  0.00000000000E+00  0.00000000000E+00  0.18935732355E+04  0.18935732355E+04  0.50400001928E-02 0.  1.
       -1   -1    0    0    0  501  0.00000000000E+00  0.00000000000E+00 -0.18020382791E+04  0.18020382792E+04  0.50400001928E-02 0. -1.
    10030    2    1    2    0    0  0.00000000000E+00  0.00000000000E+00  0.91534956353E+02  0.36956115147E+04  0.36944777465E+04 0.  0.
        3    1    3    3  502    0 -0.20086203784E+03  0.18280668041E+04  0.21936509925E+03  0.18521055195E+04  0.10100000352E+00 0.  1.
       -3    1    3    3    0  502  0.20086203784E+03 -0.18280668041E+04 -0.12783014289E+03  0.18435059951E+04  0.10100000352E+00 0. -1.
</event>
<event>
 5   0  0.7124627E-07  0.3648145E+04  0.7818609E-02  0.8079552E-01
       -2   -1    0    0    0  501  0.00000000000E+00  0.00000000000E+00  0.21090755073E+04  0.21090755073E+04  0.25500000920E-02 0. -1.
        2   -1    0    0  501    0  0.00000000000E+00  0.00000000000E+00 -0.15775823514E+04  0.15775823514E+04  0.25500000920E-02 0.  1.
    10030    2    1    2    0    0  0.00000000000E+00  0.00000000000E+00  0.53149315592E+03  0.36866578587E+04  0.36481448974E+04 0.  0.
        2    1    3    3  502    0 -0.43079542656E+03  0.14995129629E+04  0.12207717203E+04  0.19810117159E+04  0.25500000920E-02 0. -1.
       -2    1    3    3    0  502  0.43079542656E+03 -0.14995129629E+04 -0.68927856436E+03  0.17056461429E+04  0.25500000920E-02 0.  1.
</event>
<event>
 5   0  0.6939921E-07  0.3700401E+04  0.7818609E-02  0.8067873E-01
       -2   -1    0    0    0  501  0.00000000000E+00  0.00000000000E+00  0.16472576540E+04  0.16472576540E+04  0.25500000920E-02 0.  1.
        2   -1    0    0  501    0  0.00000000000E+00  0.00000000000E+00 -0.20781461364E+04  0.20781461364E+04  0.25500000920E-02 0. -1.
    10030    2    1    2    0    0  0.00000000000E+00  0.00000000000E+00 -0.43088848235E+03  0.37254037904E+04  0.37004011293E+04 0.  0.
        4    1    3    3  502    0 -0.70159048992E+03 -0.55386317812E+03  0.14154541042E+04  0.16740685678E+04  0.12699999809E+01 0.  1.
       -4    1    3    3    0  502  0.70159048992E+03  0.55386317812E+03 -0.18463425866E+04  0.20513352226E+04  0.12699999809E+01 0. -1.
</event>
<event>
 5   0  0.2345471E-07  0.3571321E+04  0.7818609E-02  0.8097093E-01
       -1   -1    0    0    0  501  0.00000000000E+00  0.00000000000E+00  0.25401371953E+04  0.25401371953E+04  0.50400001928E-02 0.  1.
        1   -1    0    0  501    0  0.00000000000E+00  0.00000000000E+00 -0.12552802304E+04  0.12552802304E+04  0.50400001928E-02 0. -1.
    10030    2    1    2    0    0  0.00000000000E+00  0.00000000000E+00  0.12848569649E+04  0.37954174256E+04  0.35713213262E+04 0.  0.
        5    1    3    3  502    0 -0.13809563116E+04 -0.10382945965E+04  0.11218046597E+04  0.20599912106E+04  0.46999998093E+01 0.  1.
       -5    1    3    3    0  502  0.13809563116E+04  0.10382945965E+04  0.16305230523E+03  0.17354262150E+04  0.46999998093E+01 0. -1.
</event>
<event>
 5   0  0.6939921E-07  0.3635413E+04  0.7818609E-02  0.8082428E-01
        2   -1    0    0  501    0  0.00000000000E+00  0.00000000000E+00  0.21166104102E+04  0.21166104102E+04  0.25500000920E-02 0. -1.
       -2   -1    0    0    0  501  0.00000000000E+00  0.00000000000E+00 -0.15610132720E+04  0.15610132720E+04  0.25500000920E-02 0.  1.
    10030    2    1    2    0    0  0.00000000000E+00  0.00000000000E+00  0.55559713820E+03  0.36776236822E+04  0.36354130120E+04 0.  0.
        4    1    3    3  502    0  0.13162265034E+04 -0.91084090509E+03 -0.59358081034E+03  0.17071681681E+04  0.12699999809E+01 0.  1.
       -4    1    3    3    0  502 -0.13162265034E+04  0.91084090509E+03  0.11491779485E+04  0.19704555141E+04  0.12699999809E+01 0. -1.
</event>
<event>
 5   0  0.2287500E-07  0.3730960E+04  0.7818609E-02  0.8061135E-01
        1   -1    0    0  501    0  0.00000000000E+00  0.00000000000E+00  0.12054263111E+04  0.12054263111E+04  0.50400001928E-02 0.  1.
       -1   -1    0    0    0  501  0.00000000000E+00  0.00000000000E+00 -0.28869580956E+04  0.28869580956E+04  0.50400001928E-02 0. -1.
    10030    2    1    2    0    0  0.00000000000E+00  0.00000000000E+00 -0.16815317846E+04  0.40923844067E+04  0.37309597947E+04 0.  0.
        2    1    3    3  502    0 -0.16489918309E+04 -0.41769775913E+03 -0.83870553799E+00  0.17010720678E+04  0.25500000920E-02 0.  1.
       -2    1    3    3    0  502  0.16489918309E+04  0.41769775913E+03 -0.16806930790E+04  0.23913123389E+04  0.25500000920E-02 0. -1.
</event>
<event>
 5   0  0.6949625E-07  0.3730330E+04  0.7818609E-02  0.8061273E-01
        2   -1    0    0  501    0  0.00000000000E+00  0.00000000000E+00  0.22967594518E+04  0.22967594518E+04  0.25500000920E-02 0.  1.
       -2   -1    0    0    0  501  0.00000000000E+00  0.00000000000E+00 -0.15146733071E+04  0.15146733071E+04  0.25500000920E-02 0. -1.
    10030    2    1    2    0    0  0.00000000000E+00  0.00000000000E+00  0.78208614469E+03  0.38114327589E+04  0.37303298699E+04 0.  0.
        5    1    3    3  502    0 -0.14043353228E+04 -0.12241945009E+04  0.48247762995E+03  0.19244782743E+04  0.46999998093E+01 0. -1.
       -5    1    3    3    0  502  0.14043353228E+04  0.12241945009E+04  0.29960851474E+03  0.18869544846E+04  0.46999998093E+01 0.  1.
</event>
<event>
 5   0  0.2287500E-07  0.3126270E+04  0.7818609E-02  0.8208565E-01
       -1   -1    0    0    0  501  0.00000000000E+00  0.00000000000E+00  0.21522841378E+04  0.21522841378E+04  0.50400001928E-02 0. -1.
        1   -1    0    0  501    0  0.00000000000E+00  0.00000000000E+00 -0.11352548218E+04  0.11352548218E+04  0.50400001928E-02 0.  1.
    10030    2    1    2    0    0  0.00000000000E+00  0.00000000000E+00  0.10170293160E+04  0.32875389596E+04  0.31262699469E+04 0.  0.
        4    1    3    3  502    0  0.11537927446E+03  0.14727522970E+04 -0.28800708301E+02  0.14775462088E+04  0.12699999809E+01 0.  1.
       -4    1    3    3    0  502 -0.11537927446E+03 -0.14727522970E+04  0.10458300243E+04  0.18099927508E+04  0.12699999809E+01 0. -1.
</event>
<event>
 5   0  0.7074157E-07  0.3718359E+04  0.7818609E-02  0.8063905E-01
        2   -1    0    0  501    0  0.00000000000E+00  0.00000000000E+00  0.23090385772E+04  0.23090385772E+04  0.25500000920E-02 0. -1.
       -2   -1    0    0    0  501  0.00000000000E+00  0.00000000000E+00 -0.14969643608E+04  0.14969643608E+04  0.25500000920E-02 0.  1.
    10030    2    1    2    0    0  0.00000000000E+00  0.00000000000E+00  0.81207421642E+03  0.38060029379E+04  0.37183590239E+04 0.  0.
        3    1    3    3  502    0 -0.60464975246E+03  0.88436672924E+02 -0.13912333717E+04  0.15195238310E+04  0.10100000352E+00 0.  1.
       -3    1    3    3    0  502  0.60464975246E+03 -0.88436672924E+02  0.22033075881E+04  0.22864791069E+04  0.10100000352E+00 0. -1.
</event>
<event>
 5   0  0.6949625E-07  0.3738346E+04  0.7818609E-02  0.8059517E-01
        2   -1    0    0  501    0  0.00000000000E+00  0.00000000000E+00  0.15945948805E+04  0.15945948805E+04  0.25500000920E-02 0. -1.
       -2   -1    0    0    0  501  0.00000000000E+00  0.00000000000E+00 -0.21910320426E+04  0.21910320426E+04  0.25500000920E-02 0.  1.
    10030    2    1    2    0    0  0.00000000000E+00  0.00000000000E+00 -0.59643716209E+03  0.37856269231E+04  0.37383464142E+04 0.  0.
        5    1    3    3  502    0 -0.10572056211E+04  0.43877889312E+03  0.11981631579E+04  0.16570539174E+04  0.46999998093E+01 0. -1.
       -5    1    3    3    0  502  0.10572056211E+04 -0.43877889312E+03 -0.17946003200E+04  0.21285730057E+04  0.46999998093E+01 0.  1.
</event>
<event>
 5   0  0.7124627E-07  0.3674271E+04  0.7818609E-02  0.8073688E-01
        2   -1    0    0  501    0  0.00000000000E+00  0.00000000000E+00  0.15700150146E+04  0.15700150146E+04  0.25500000920E-02 0. -1.
       -2   -1    0    0    0  501  0.00000000000E+00  0.00000000000E+00 -0.21497034536E+04  0.21497034536E+04  0.25500000920E-02 0.  1.
    10030    2    1    2    0    0  0.00000000000E+00  0.00000000000E+00 -0.57968843902E+03  0.37197184682E+04  0.36742709204E+04 0.  0.
        2    1    3    3  502    0 -0.11391365733E+04 -0.22133928114E+03 -0.17316951163E+04  0.20845601900E+04  0.25500000920E-02 0.  1.
       -2    1    3    3    0  502  0.11391365733E+04  0.22133928114E+03  0.11520066773E+04  0.16351582782E+04  0.25500000920E-02 0. -1.
</event>
<event>
 5   0  0.2287500E-07  0.3782647E+04  0.7818609E-02  0.8049889E-01
       -3   -1    0    0    0  501  0.00000000000E+00  0.00000000000E+00  0.18696004299E+04  0.18696004326E+04  0.10100000352E+00 0. -1.
        3   -1    0    0  501    0  0.00000000000E+00  0.00000000000E+00 -0.19132990956E+04  0.19132990983E+04  0.10100000352E+00 0.  1.
    10030    2    1    2    0    0  0.00000000000E+00  0.00000000000E+00 -0.43698665712E+02  0.37828995309E+04  0.37826471270E+04 0.  0.
        5    1    3    3  502    0 -0.17964373538E+04 -0.56709392701E+03  0.14638806034E+03  0.18895063489E+04  0.46999998093E+01 0.  1.
       -5    1    3    3    0  502  0.17964373538E+04  0.56709392701E+03 -0.19008672605E+03  0.18933931820E+04  0.46999998093E+01 0. -1.
</event>
<event>
 5   0  0.6939921E-07  0.3630780E+04  0.7818609E-02  0.8083477E-01
        2   -1    0    0  501    0  0.00000000000E+00  0.00000000000E+00  0.21675823890E+04  0.21675823890E+04  0.25500000920E-02 0.  1.
       -2   -1    0    0    0  501  0.00000000000E+00  0.00000000000E+00 -0.15204226945E+04  0.15204226945E+04  0.25500000920E-02 0. -1.
    10030    2    1    2    0    0  0.00000000000E+00  0.00000000000E+00  0.64715969454E+03  0.36880050835E+04  0.36307803328E+04 0.  0.
        4    1    3    3  502    0  0.86647783455E+03 -0.43847355447E+03 -0.12344124325E+04  0.15706108882E+04  0.12699999809E+01 0. -1.
       -4    1    3    3    0  502 -0.86647783455E+03  0.43847355447E+03  0.18815721271E+04  0.21173941952E+04  0.12699999809E+01 0.  1.
</event>
<event>
 5   0  0.6949625E-07  0.3622055E+04  0.7818609E-02  0.8085458E-01
       -2   -1    0    0    0  501  0.00000000000E+00  0.00000000000E+00  0.18158794169E+04  0.18158794169E+04  0.25500000920E-02 0. -1.
        2   -1    0    0  501    0  0.00000000000E+00  0.00000000000E+00 -0.18061884178E+04  0.18061884178E+04  0.25500000920E-02 0.  1.
    10030    2    1    2    0    0  0.00000000000E+00  0.00000000000E+00  0.96909990735E+01  0.36220678346E+04  0.36220548703E+04 0.  0.
        5    1    3    3  502    0  0.11611506999E+04  0.13424319554E+04 -0.35488315407E+03  0.18100714478E+04  0.46999998093E+01 0.  1.
       -5    1    3    3    0  502 -0.11611506999E+04 -0.13424319554E+04  0.36457415315E+03  0.18119963869E+04  0.46999998093E+01 0. -1.
</event>
<event>
 5   0  0.2287500E-07  0.3681263E+04  0.7818609E-02  0.8072127E-01
       -1   -1    0    0    0  501  0.00000000000E+00  0.00000000000E+00  0.13584162421E+04  0.13584162421E+04  0.50400001928E-02 0. -1.
        1   -1    0    0  501    0  0.00000000000E+00  0.00000000000E+00 -0.24940252024E+04  0.24940252024E+04  0.50400001928E-02 0.  1.
    10030    2    1    2    0    0  0.00000000000E+00  0.00000000000E+00 -0.11356089603E+04  0.38524414445E+04  0.36812630132E+04 0.  0.
        4    1    3    3  502    0  0.39856734960E+03 -0.95502659902E+03  0.10251426865E+04  0.14566574331E+04  0.12699999809E+01 0. -1.
       -4    1    3    3    0  502 -0.39856734960E+03  0.95502659902E+03 -0.21607516468E+04  0.23957840113E+04  0.12699999809E+01 0.  1.
</event>
<event>
 5   0  0.2287500E-07  0.3492309E+04  0.7818609E-02  0.8115615E-01
       -1   -1    0    0    0  501  0.00000000000E+00  0.00000000000E+00  0.21419237897E+04  0.21419237897E+04  0.50400001928E-02 0.  1.
        1   -1    0    0  501    0  0.00000000000E+00  0.00000000000E+00 -0.14235129464E+04  0.14235129465E+04  0.50400001928E-02 0. -1.
    10030    2    1    2    0    0  0.00000000000E+00  0.00000000000E+00  0.71841084324E+03  0.35654367361E+04  0.34923094049E+04 0.  0.
        2    1    3    3  502    0  0.11818799003E+04  0.12659494517E+04  0.13185859611E+03  0.17369095551E+04  0.25500000920E-02 0. -1.
       -2    1    3    3    0  502 -0.11818799003E+04 -0.12659494517E+04  0.58655224713E+03  0.18285271810E+04  0.25500000920E-02 0.  1.
</event>
<event>
 5   0  0.6949625E-07  0.3716951E+04  0.7818609E-02  0.8064216E-01
       -2   -1    0    0    0  501  0.00000000000E+00  0.00000000000E+00  0.14181696387E+04  0.14181696387E+04  0.25500000920E-02 0.  1.
        2   -1    0    0  501    0  0.00000000000E+00  0.00000000000E+00 -0.24354853931E+04  0.24354853931E+04  0.25500000920E-02 0. -1.
    10030    2    1    2    0    0  0.00000000000E+00  0.00000000000E+00 -0.10173157544E+04  0.38536550318E+04  0.37169511377E+04 0.  0.
        5    1    3    3  502    0 -0.10536514101E+04 -0.13682028809E+04  0.20344287808E+03  0.17388420032E+04  0.46999998093E+01 0.  1.
       -5    1    3    3    0  502  0.10536514101E+04  0.13682028809E+04 -0.12207586324E+04  0.21148130286E+04  0.46999998093E+01 0. -1.
</event>
<event>
 5   0  0.2287500E-07  0.3716864E+04  0.7818609E-02  0.8064235E-01
       -1   -1    0    0    0  501  0.00000000000E+00  0.00000000000E+00  0.19906059555E+04  0.19906059555E+04  0.50400001928E-02 0.  1.
        1   -1    0    0  501    0  0.00000000000E+00  0.00000000000E+00 -0.17350346703E+04  0.17350346703E+04  0.50400001928E-02 0. -1.
    10030    2    1    2    0    0  0.00000000000E+00  0.00000000000E+00  0.25557128517E+03  0.37256406259E+04  0.37168644569E+04 0.  0.
        3    1    3    3  502    0 -0.48676394124E+03  0.69218953927E+03  0.17862935595E+04  0.19765905453E+04  0.10100000352E+00 0.  1.
       -3    1    3    3    0  502  0.48676394124E+03 -0.69218953927E+03 -0.15307222744E+04  0.17490500805E+04  0.10100000352E+00 0. -1.
</event>
<event>
 5   0  0.7300916E-07  0.3717651E+04  0.7818609E-02  0.8064061E-01
       -2   -1    0    0    0  501  0.00000000000E+00  0.00000000000E+00  0.13615222017E+04  0.13615222017E+04  0.25500000920E-02 0.  1.
        2   -1    0    0  501    0  0.00000000000E+00  0.00000000000E+00 -0.25377709568E+04  0.25377709568E+04  0.25500000920E-02 0. -1.
    10030    2    1    2    0    0  0.00000000000E+00  0.00000000000E+00 -0.11762487551E+04  0.38992931585E+04  0.37176506025E+04 0.  0.
        1    1    3    3  502    0  0.19839893527E+03  0.17153425772E+04 -0.13098351470E+04  0.21673556254E+04  0.50400001928E-02 0. -1.
       -1    1    3    3    0  502 -0.19839893527E+03 -0.17153425772E+04  0.13358639191E+03  0.17319375331E+04  0.50400001928E-02 0.  1.
</event>
<event>
 5   0  0.2411746E-07  0.3705623E+04  0.7818609E-02  0.8066717E-01
       -1   -1    0    0    0  501  0.00000000000E+00  0.00000000000E+00  0.14262526019E+04  0.14262526019E+04  0.50400001928E-02 0.  1.
        1   -1    0    0  501    0  0.00000000000E+00  0.00000000000E+00 -0.24069443669E+04  0.24069443669E+04  0.50400001928E-02 0. -1.
    10030    2    1    2    0    0  0.00000000000E+00  0.00000000000E+00 -0.98069176508E+03  0.38331969688E+04  0.37056231141E+04 0.  0.
        1    1    3    3  502    0  0.51779562861E+03 -0.26926855518E+03  0.13286855090E+04  0.14512143362E+04  0.50400001928E-02 0.  1.
       -1    1    3    3    0  502 -0.51779562861E+03  0.26926855518E+03 -0.23093772741E+04  0.23819826326E+04  0.50400001928E-02 0. -1.
</event>
<event>
 5   0  0.7300916E-07  0.3710678E+04  0.7818609E-02  0.8065600E-01
       -2   -1    0    0    0  501  0.00000000000E+00  0.00000000000E+00  0.21499700501E+04  0.21499700501E+04  0.25500000920E-02 0.  1.
        2   -1    0    0  501    0  0.00000000000E+00  0.00000000000E+00 -0.16010840890E+04  0.16010840890E+04  0.25500000920E-02 0. -1.
    10030    2    1    2    0    0  0.00000000000E+00  0.00000000000E+00  0.54888596107E+03  0.37510541391E+04  0.37106780184E+04 0.  0.
        1    1    3    3  502    0  0.14961657812E+04 -0.10567532692E+04 -0.23798324265E+02  0.18318858799E+04  0.50400001928E-02 0. -1.
       -1    1    3    3    0  502 -0.14961657812E+04  0.10567532692E+04  0.57268428534E+03  0.19191682593E+04  0.50400001928E-02 0.  1.
</event>
<event>
 5   0  0.7300916E-07  0.2838088E+04  0.7818609E-02  0.8291540E-01
       -2   -1    0    0    0  501  0.00000000000E+00  0.00000000000E+00  0.16451485036E+04  0.16451485036E+04  0.25500000920E-02 0.  1.
        2   -1    0    0  501    0  0.00000000000E+00  0.00000000000E+00 -0.12240147857E+04  0.12240147857E+04  0.25500000920E-02 0. -1.
    10030    2    1    2    0    0  0.00000000000E+00  0.00000000000E+00  0.42113371786E+03  0.28691632893E+04  0.28380881544E+04 0.  0.
        1    1    3    3  502    0  0.67762163547E+03 -0.94607299312E+03  0.10315304767E+04  0.15550820922E+04  0.50400001928E-02 0.  1.
       -1    1    3    3    0  502 -0.67762163547E+03  0.94607299312E+03 -0.61039675884E+03  0.13140811970E+04  0.50400001928E-02 0. -1.
</event>
<event>
 5   0  0.6949625E-07  0.3719763E+04  0.7818609E-02  0.8063596E-01
       -2   -1    0    0    0  501  0.00000000000E+00  0.00000000000E+00  0.21133391963E+04  0.21133391963E+04  0.25500000920E-02 0.  1.
        2   -1    0    0  501    0  0.00000000000E+00  0.00000000000E+00 -0.16368216620E+04  0.16368216620E+04  0.25500000920E-02 0. -1.
    10030    2    1    2    0    0  0.00000000000E+00  0.00000000000E+00  0.47651753428E+03  0.37501608584E+04  0.37197630977E+04 0.  0.
        5    1    3    3  502    0 -0.10750348650E+04  0.18109885286E+02 -0.12917428677E+04  0.16806694068E+04  0.46999998093E+01 0. -1.
       -5    1    3    3    0  502  0.10750348650E+04 -0.18109885286E+02  0.17682604020E+04  0.20694914515E+04  0.46999998093E+01 0.  1.
</event>
<event>
 5   0  0.7074157E-07  0.3774371E+04  0.7818609E-02  0.8051677E-01
       -2   -1    0    0    0  501  0.00000000000E+00  0.00000000000E+00  0.15805446489E+04  0.15805446489E+04  0.25500000920E-02 0.  1.
        2   -1    0    0  501    0  0.00000000000E+00  0.00000000000E+00 -0.22533180437E+04  0.22533180437E+04  0.25500000920E-02 0. -1.
    10030    2    1    2    0    0  0.00000000000E+00  0.00000000000E+00 -0.67277339482E+03  0.38338626926E+04  0.37743713522E+04 0.  0.
        3    1    3    3  502    0 -0.16660811200E+04  0.48276998622E+03  0.41868497198E+03  0.17844299577E+04  0.10100000352E+00 0.  1.
       -3    1    3    3    0  502  0.16660811200E+04 -0.48276998622E+03 -0.10914583668E+04  0.20494327348E+04  0.10100000352E+00 0. -1.
</event>
<event>
 5   0  0.2287500E-07  0.3700700E+04  0.7818609E-02  0.8067807E-01
       -1   -1    0    0    0  501  0.00000000000E+00  0.00000000000E+00  0.12443874778E+04  0.12443874778E+04  0.50400001928E-02 0.  1.
        1   -1    0    0  501    0  0.00000000000E+00  0.00000000000E+00 -0.27513904499E+04  0.27513904499E+04  0.50400001928E-02 0. -1.
    10030    2    1    2    0    0  0.00000000000E+00  0.00000000000E+00 -0.15070029721E+04  0.39957779278E+04  0.37007003783E+04 0.  0.
        2    1    3    3  502    0 -0.12801974969E+04 -0.56881339402E+02 -0.21947178631E+04  0.25414420349E+04  0.25500000920E-02 0. -1.
       -2    1    3    3    0  502  0.12801974969E+04  0.56881339402E+02  0.68771489105E+03  0.14543358929E+04  0.25500000920E-02 0.  1.
</event>
<event>
 5   0  0.2287500E-07  0.3706678E+04  0.7818609E-02  0.8066484E-01
       -1   -1    0    0    0  501  0.00000000000E+00  0.00000000000E+00  0.18763374671E+04  0.18763374671E+04  0.50400001928E-02 0. -1.
        1   -1    0    0  501    0  0.00000000000E+00  0.00000000000E+00 -0.18306219763E+04  0.18306219763E+04  0.50400001928E-02 0.  1.
    10030    2    1    2    0    0  0.00000000000E+00  0.00000000000E+00  0.45715490811E+02  0.37069594434E+04  0.37066775431E+04 0.  0.
        3    1    3    3  502    0  0.93865785938E+03  0.10428972908E+04  0.12337971625E+04  0.18684134404E+04  0.10100000352E+00 0. -1.
       -3    1    3    3    0  502 -0.93865785938E+03 -0.10428972908E+04 -0.11880816717E+04  0.18385460029E+04  0.10100000352E+00 0.  1.
</event>
<event>
 5   0  0.2287500E-07  0.3779460E+04  0.7818609E-02  0.8050577E-01
        1   -1    0    0  501    0  0.00000000000E+00  0.00000000000E+00  0.21806352666E+04  0.21806352666E+04  0.50400001928E-02 0. -1.
       -1   -1    0    0    0  501  0.00000000000E+00  0.00000000000E+00 -0.16376327593E+04  0.16376327593E+04  0.50400001928E-02 0.  1.
    10030    2    1    2    0    0  0.00000000000E+00  0.00000000000E+00  0.54300250724E+03  0.38182680259E+04  0.37794601459E+04 0.  0.
        2    1    3    3  502    0  0.12494216724E+04  0.30811388809E+03  0.16695791052E+04  0.21079570850E+04  0.25500000920E-02 0. -1.
       -2    1    3    3    0  502 -0.12494216724E+04 -0.30811388809E+03 -0.11265765980E+04  0.17103109409E+04  0.25500000920E-02 0.  1.
</event>
<event>
 5   0  0.2411746E-07  0.3784862E+04  0.7818609E-02  0.8049411E-01
        1   -1    0    0  501    0  0.00000000000E+00  0.00000000000E+00  0.22697606485E+04  0.22697606485E+04  0.50400001928E-02 0.  1.
       -1   -1    0    0    0  501  0.00000000000E+00  0.00000000000E+00 -0.15778291124E+04  0.15778291124E+04  0.50400001928E-02 0. -1.
    10030    2    1    2    0    0  0.00000000000E+00  0.00000000000E+00  0.69193153613E+03  0.38475897609E+04  0.37848616511E+04 0.  0.
        1    1    3    3  502    0 -0.17621264393E+04  0.56276110103E+03  0.75196537051E+03  0.19968078434E+04  0.50400001928E-02 0.  1.
       -1    1    3    3    0  502  0.17621264393E+04 -0.56276110103E+03 -0.60033834388E+02  0.18507819175E+04  0.50400001928E-02 0. -1.
</event>
<event>
 5   0  0.6939921E-07  0.3719794E+04  0.7818609E-02  0.8063589E-01
       -2   -1    0    0    0  501  0.00000000000E+00  0.00000000000E+00  0.30510993295E+04  0.30510993295E+04  0.25500000920E-02 0. -1.
        2   -1    0    0  501    0  0.00000000000E+00  0.00000000000E+00 -0.11337605468E+04  0.11337605468E+04  0.25500000920E-02 0.  1.
    10030    2    1    2    0    0  0.00000000000E+00  0.00000000000E+00  0.19173387826E+04  0.41848598763E+04  0.37197935664E+04 0.  0.
        4    1    3    3  502    0 -0.40623310358E+03 -0.14152674060E+04 -0.31971088841E+03  0.15067261961E+04  0.12699999809E+01 0.  1.
       -4    1    3    3    0  502  0.40623310358E+03  0.14152674060E+04  0.22370496711E+04  0.26781336801E+04  0.12699999809E+01 0. -1.
</event>
<event>
 5   0  0.2287500E-07  0.3636109E+04  0.7818609E-02  0.8082270E-01
        1   -1    0    0  501    0  0.00000000000E+00  0.00000000000E+00  0.27452193441E+04  0.27452193441E+04  0.50400001928E-02 0.  1.
       -1   -1    0    0    0  501  0.00000000000E+00  0.00000000000E+00 -0.12040287208E+04  0.12040287208E+04  0.50400001928E-02 0. -1.
    10030    2    1    2    0    0  0.00000000000E+00  0.00000000000E+00  0.15411906233E+04  0.39492480650E+04  0.36361094237E+04 0.  0.
        3    1    3    3  502    0 -0.96222197037E+03  0.14543789456E+04  0.21229025355E+03  0.17567459690E+04  0.10100000352E+00 0. -1.
       -3    1    3    3    0  502  0.96222197037E+03 -0.14543789456E+04  0.13289003698E+04  0.21925020959E+04  0.10100000352E+00 0.  1.
</event>
<event>
 5   0  0.7124627E-07  0.3698516E+04  0.7818609E-02  0.8068291E-01
       -2   -1    0    0    0  501  0.00000000000E+00  0.00000000000E+00  0.12460614790E+04  0.12460614790E+04  0.25500000920E-02 0.  1.
        2   -1    0    0  501    0  0.00000000000E+00  0.00000000000E+00 -0.27444508905E+04  0.27444508905E+04  0.25500000920E-02 0. -1.
    10030    2    1    2    0    0  0.00000000000E+00  0.00000000000E+00 -0.14983894116E+04  0.39905123695E+04  0.36985156675E+04 0.  0.
        2    1    3    3  502    0  0.94903269607E+02 -0.60744297298E+02 -0.27407435590E+04  0.27430588321E+04  0.25500000920E-02 0. -1.
       -2    1    3    3    0  502 -0.94903269607E+02  0.60744297298E+02  0.12423541475E+04  0.12474535374E+04  0.25500000920E-02 0.  1.
</event>
<event>
 5   0  0.2345471E-07  0.3653876E+04  0.7818609E-02  0.8078261E-01
        1   -1    0    0  501    0  0.00000000000E+00  0.00000000000E+00  0.24476282311E+04  0.24476282311E+04  0.50400001928E-02 0.  1.
       -1   -1    0    0    0  501  0.00000000000E+00  0.00000000000E+00 -0.13636477041E+04  0.13636477041E+04  0.50400001928E-02 0. -1.
    10030    2    1    2    0    0  0.00000000000E+00  0.00000000000E+00  0.10839805271E+04  0.38112759352E+04  0.36538760887E+04 0.  0.
        5    1    3    3  502    0  0.46947728423E+03 -0.13891609984E+04  0.16786592092E+04  0.22289226166E+04  0.46999998093E+01 0.  1.
       -5    1    3    3    0  502 -0.46947728423E+03  0.13891609984E+04 -0.59467868217E+03  0.15823533187E+04  0.46999998093E+01 0. -1.
</event>
<event>
 5   0  0.6939921E-07  0.3683009E+04  0.7818609E-02  0.8071738E-01
        2   -1    0    0  501    0  0.00000000000E+00  0.00000000000E+00  0.22051863690E+04  0.22051863690E+04  0.25500000920E-02 0. -1.
       -2   -1    0    0    0  501  0.00000000000E+00  0.00000000000E+00 -0.15378010816E+04  0.15378010816E+04  0.25500000920E-02 0.  1.
    10030    2    1    2    0    0  0.00000000000E+00  0.00000000000E+00  0.66738528738E+03  0.37429874505E+04  0.36830085437E+04 0.  0.
        4    1    3    3  502    0 -0.95742018275E+03 -0.13572914161E+04 -0.47439348377E+03  0.17274096749E+04  0.12699999809E+01 0. -1.
       -4    1    3    3    0  502  0.95742018275E+03  0.13572914161E+04  0.11417787711E+04  0.20155777756E+04  0.12699999809E+01 0.  1.
</event>
<event>
 5   0  0.7300916E-07  0.3580677E+04  0.7818609E-02  0.8094932E-01
       -2   -1    0    0    0  501  0.00000000000E+00  0.00000000000E+00  0.24420247683E+04  0.24420247683E+04  0.25500000920E-02 0.  1.
        2   -1    0    0  501    0  0.00000000000E+00  0.00000000000E+00 -0.13125630145E+04  0.13125630145E+04  0.25500000920E-02 0. -1.
    10030    2    1    2    0    0  0.00000000000E+00  0.00000000000E+00  0.11294617537E+04  0.37545877828E+04  0.35806766910E+04 0.  0.
        1    1    3    3  502    0 -0.46739404802E+03 -0.10792452205E+03 -0.12439240262E+04  0.13332111167E+04  0.50400001928E-02 0. -1.
       -1    1    3    3    0  502  0.46739404802E+03  0.10792452205E+03  0.23733857800E+04  0.24213766661E+04  0.50400001928E-02 0.  1.
</event>
<event>
 5   0  0.7300916E-07  0.3703378E+04  0.7818609E-02  0.8067214E-01
       -2   -1    0    0    0  501  0.00000000000E+00  0.00000000000E+00  0.13669197151E+04  0.13669197151E+04  0.25500000920E-02 0. -1.
        2   -1    0    0  501    0  0.00000000000E+00  0.00000000000E+00 -0.25083786087E+04  0.25083786087E+04  0.25500000920E-02 0.  1.
    10030    2    1    2    0    0  0.00000000000E+00  0.00000000000E+00 -0.11414588936E+04  0.38752983238E+04  0.37033780111E+04 0.  0.
        1    1    3    3  502    0  0.12615659503E+04 -0.24064245865E+03 -0.19665546749E+04  0.23487857990E+04  0.50400001928E-02 0.  1.
       -1    1    3    3    0  502 -0.12615659503E+04  0.24064245865E+03  0.82509578139E+03  0.15265125248E+04  0.50400001928E-02 0. -1.
</event>
<event>
 5   0  0.2287500E-07  0.3206147E+04  0.7818609E-02  0.8187196E-01
       -1   -1    0    0    0  501  0.00000000000E+00  0.00000000000E+00  0.12055903542E+04  0.12055903542E+04  0.50400001928E-02 0.  1.
        1   -1    0    0  501    0  0.00000000000E+00  0.00000000000E+00 -0.21316071504E+04  0.21316071504E+04  0.50400001928E-02 0. -1.
    10030    2    1    2    0    0  0.00000000000E+00  0.00000000000E+00 -0.92601679625E+03  0.33371975046E+04  0.32061472327E+04 0.  0.
        4    1    3    3  502    0  0.89165612323E+03 -0.62818375915E+03 -0.16858381230E+04  0.20079136603E+04  0.12699999809E+01 0. -1.
       -4    1    3    3    0  502 -0.89165612323E+03  0.62818375915E+03  0.75982132674E+03  0.13292838443E+04  0.12699999809E+01 0.  1.
</event>
<event>
 5   0  0.6939921E-07  0.3448825E+04  0.7818609E-02  0.8126026E-01
        2   -1    0    0  501    0  0.00000000000E+00  0.00000000000E+00  0.86909903090E+03  0.86909903090E+03  0.25500000920E-02 0.  1.
       -2   -1    0    0    0  501  0.00000000000E+00  0.00000000000E+00 -0.34214719171E+04  0.34214719171E+04  0.25500000920E-02 0. -1.
    10030    2    1    2    0    0  0.00000000000E+00  0.00000000000E+00 -0.25523728862E+04  0.42905709480E+04  0.34488246852E+04 0.  0.
        4    1    3    3  502    0  0.99510133401E+02  0.17187113458E+04 -0.11534999488E+04  0.20723017883E+04  0.12699999809E+01 0.  1.
       -4    1    3    3    0  502 -0.99510133401E+02 -0.17187113458E+04 -0.13988729373E+04  0.22182691597E+04  0.12699999809E+01 0. -1.
</event>
<event>
 5   0  0.6939921E-07  0.3681631E+04  0.7818609E-02  0.8072045E-01
       -2   -1    0    0    0  501  0.00000000000E+00  0.00000000000E+00  0.18888267259E+04  0.18888267259E+04  0.25500000920E-02 0. -1.
        2   -1    0    0  501    0  0.00000000000E+00  0.00000000000E+00 -0.17940248110E+04  0.17940248110E+04  0.25500000920E-02 0.  1.
    10030    2    1    2    0    0  0.00000000000E+00  0.00000000000E+00  0.94801914902E+02  0.36828515368E+04  0.36816311656E+04 0.  0.
        4    1    3    3  502    0 -0.10300717804E+04 -0.43669300803E+03  0.15096829427E+04  0.18790670176E+04  0.12699999809E+01 0. -1.
       -4    1    3    3    0  502  0.10300717804E+04  0.43669300803E+03 -0.14148810278E+04  0.18037845192E+04  0.12699999809E+01 0.  1.
</event>
<event>
 5   0  0.2287500E-07  0.3627895E+04  0.7818609E-02  0.8084132E-01
       -1   -1    0    0    0  501  0.00000000000E+00  0.00000000000E+00  0.12414005594E+04  0.12414005594E+04  0.50400001928E-02 0.  1.
        1   -1    0    0  501    0  0.00000000000E+00  0.00000000000E+00 -0.26505587240E+04  0.26505587240E+04  0.50400001928E-02 0. -1.
    10030    2    1    2    0    0  0.00000000000E+00  0.00000000000E+00 -0.14091581646E+04  0.38919592834E+04  0.36278947519E+04 0.  0.
        2    1    3    3  502    0  0.63428999202E+03 -0.13786368200E+04 -0.17706089289E+04  0.23319561005E+04  0.25500000920E-02 0. -1.
       -2    1    3    3    0  502 -0.63428999202E+03  0.13786368200E+04  0.36145076435E+03  0.15600031829E+04  0.25500000920E-02 0.  1.
</event>
<event>
 5   0  0.6939921E-07  0.3710241E+04  0.7818609E-02  0.8065696E-01
       -2   -1    0    0    0  501  0.00000000000E+00  0.00000000000E+00  0.20579018109E+04  0.20579018109E+04  0.25500000920E-02 0. -1.
        2   -1    0    0  501    0  0.00000000000E+00  0.00000000000E+00 -0.16723211800E+04  0.16723211800E+04  0.25500000920E-02 0.  1.
    10030    2    1    2    0    0  0.00000000000E+00  0.00000000000E+00  0.38558063085E+03  0.37302229909E+04  0.37102413855E+04 0.  0.
        4    1    3    3  502    0 -0.14237912577E+03  0.10881641848E+04  0.16965385830E+04  0.20205489069E+04  0.12699999809E+01 0. -1.
       -4    1    3    3    0  502  0.14237912577E+03 -0.10881641848E+04 -0.13109579521E+04  0.17096740841E+04  0.12699999809E+01 0.  1.
</event>
<event>
 5   0  0.2345471E-07  0.3698312E+04  0.7818609E-02  0.8068336E-01
        1   -1    0    0  501    0  0.00000000000E+00  0.00000000000E+00  0.11059556439E+04  0.11059556439E+04  0.50400001928E-02 0.  1.
       -1   -1    0    0    0  501  0.00000000000E+00  0.00000000000E+00 -0.30917853661E+04  0.30917853661E+04  0.50400001928E-02 0. -1.
    10030    2    1    2    0    0  0.00000000000E+00  0.00000000000E+00 -0.19858297222E+04  0.41977410099E+04  0.36983117636E+04 0.  0.
        5    1    3    3  502    0 -0.37250775830E+03  0.56120316955E+03 -0.29475767966E+04  0.30235644676E+04  0.46999998093E+01 0. -1.
       -5    1    3    3    0  502  0.37250775830E+03 -0.56120316955E+03  0.96174707442E+03  0.11741765424E+04  0.46999998093E+01 0.  1.
</event>
<event>
 5   0  0.2345471E-07  0.3655607E+04  0.7818609E-02  0.8077872E-01
       -1   -1    0    0    0  501  0.00000000000E+00  0.00000000000E+00  0.14252527812E+04  0.14252527812E+04  0.50400001928E-02 0.  1.
        1   -1    0    0  501    0  0.00000000000E+00  0.00000000000E+00 -0.23440518400E+04  0.23440518400E+04  0.50400001928E-02 0. -1.
    10030    2    1    2    0    0  0.00000000000E+00  0.00000000000E+00 -0.91879905880E+03  0.37693046211E+04  0.36556074210E+04 0.  0.
        5    1    3    3  502    0  0.11837508095E+04  0.41195633702E+03 -0.18311414433E+04  0.22190257046E+04  0.46999998093E+01 0. -1.
       -5    1    3    3    0  502 -0.11837508095E+04 -0.41195633702E+03  0.91234238447E+03  0.15502789165E+04  0.46999998093E+01 0.  1.
</event>
<event>
 5   0  0.2345471E-07  0.3658091E+04  0.7818609E-02  0.8077313E-01
       -1   -1    0    0    0  501  0.00000000000E+00  0.00000000000E+00  0.25265033405E+04  0.25265033405E+04  0.50400001928E-02 0. -1.
        1   -1    0    0  501    0  0.00000000000E+00  0.00000000000E+00 -0.13241255310E+04  0.13241255310E+04  0.50400001928E-02 0.  1.
    10030    2    1    2    0    0  0.00000000000E+00  0.00000000000E+00  0.12023778096E+04  0.38506288715E+04  0.36580910745E+04 0.  0.
        5    1    3    3  502    0 -0.12701409184E+04  0.12471118030E+04  0.15853223115E+03  0.17870927116E+04  0.46999998093E+01 0.  1.
       -5    1    3    3    0  502  0.12701409184E+04 -0.12471118030E+04  0.10438455784E+04  0.20635361599E+04  0.46999998093E+01 0. -1.
</event>
<event>
 5   0  0.2287500E-07  0.3705569E+04  0.7818609E-02  0.8066729E-01
       -1   -1    0    0    0  501  0.00000000000E+00  0.00000000000E+00  0.12446532375E+04  0.12446532376E+04  0.50400001928E-02 0.  1.
        1   -1    0    0  501    0  0.00000000000E+00  0.00000000000E+00 -0.27580457057E+04  0.27580457057E+04  0.50400001928E-02 0. -1.
    10030    2    1    2    0    0  0.00000000000E+00  0.00000000000E+00 -0.15133924681E+04  0.40026989432E+04  0.37055690612E+04 0.  0.
        2    1    3    3  502    0  0.36961790363E+03  0.17047086348E+03  0.11957604567E+04  0.12631392559E+04  0.25500000920E-02 0.  1.
       -2    1    3    3    0  502 -0.36961790363E+03 -0.17047086348E+03 -0.27091529249E+04  0.27395596873E+04  0.25500000920E-02 0. -1.
</event>
<event>
 5   0  0.7074157E-07  0.3618843E+04  0.7818609E-02  0.8086189E-01
       -2   -1    0    0    0  501  0.00000000000E+00  0.00000000000E+00  0.22808274583E+04  0.22808274583E+04  0.25500000920E-02 0.  1.
        2   -1    0    0  501    0  0.00000000000E+00  0.00000000000E+00 -0.14354467560E+04  0.14354467560E+04  0.25500000920E-02 0. -1.
    10030    2    1    2    0    0  0.00000000000E+00  0.00000000000E+00  0.84538070234E+03  0.37162742143E+04  0.36188431168E+04 0.  0.
        3    1    3    3  502    0 -0.63186769320E+03 -0.49467015555E+03 -0.12427154867E+04  0.14792894023E+04  0.10100000352E+00 0. -1.
       -3    1    3    3    0  502  0.63186769320E+03  0.49467015555E+03  0.20880961891E+04  0.22369848121E+04  0.10100000352E+00 0.  1.
</event>
<event>
 5   0  0.6949625E-07  0.3705514E+04  0.7818609E-02  0.8066741E-01
        2   -1    0    0  501    0  0.00000000000E+00  0.00000000000E+00  0.24454289849E+04  0.24454289849E+04  0.25500000920E-02 0.  1.
       -2   -1    0    0    0  501  0.00000000000E+00  0.00000000000E+00 -0.14037243291E+04  0.14037243291E+04  0.25500000920E-02 0. -1.
    10030    2    1    2    0    0  0.00000000000E+00  0.00000000000E+00  0.10417046558E+04  0.38491533140E+04  0.37055138166E+04 0.  0.
        5    1    3    3  502    0 -0.92108273795E+03 -0.65657986765E+02 -0.11476433446E+04  0.14730280778E+04  0.46999998093E+01 0. -1.
       -5    1    3    3    0  502  0.92108273795E+03  0.65657986765E+02  0.21893480005E+04  0.23761252363E+04  0.46999998093E+01 0.  1.
</event>
<event>
 5   0  0.7124627E-07  0.3447148E+04  0.7818609E-02  0.8126431E-01
       -2   -1    0    0    0  501  0.00000000000E+00  0.00000000000E+00  0.12110656394E+04  0.12110656394E+04  0.25500000920E-02 0.  1.
        2   -1    0    0  501    0  0.00000000000E+00  0.00000000000E+00 -0.24529702422E+04  0.24529702422E+04  0.25500000920E-02 0. -1.
    10030    2    1    2    0    0  0.00000000000E+00  0.00000000000E+00 -0.12419046028E+04  0.36640358816E+04  0.34471483721E+04 0.  0.
        2    1    3    3  502    0  0.15485864610E+04 -0.40832122922E+03 -0.12981083900E+04  0.20615362344E+04  0.25500000920E-02 0. -1.
       -2    1    3    3    0  502 -0.15485864610E+04  0.40832122922E+03  0.56203787253E+02  0.16024996472E+04  0.25500000920E-02 0.  1.
</event>
<event>
 5   0  0.2287500E-07  0.3563513E+04  0.7818609E-02  0.8098901E-01
       -1   -1    0    0    0  501  0.00000000000E+00  0.00000000000E+00  0.14797443207E+04  0.14797443207E+04  0.50400001928E-02 0.  1.
        1   -1    0    0  501    0  0.00000000000E+00  0.00000000000E+00 -0.21454084797E+04  0.21454084797E+04  0.50400001928E-02 0. -1.
    10030    2    1    2    0    0  0.00000000000E+00  0.00000000000E+00 -0.66566415900E+03  0.36251528004E+04  0.35635128811E+04 0.  0.
        2    1    3    3  502    0 -0.10444714149E+04 -0.29707799672E+03  0.11042172912E+04  0.15487000029E+04  0.25500000920E-02 0.  1.
       -2    1    3    3    0  502  0.10444714149E+04  0.29707799672E+03 -0.17698814502E+04  0.20764527976E+04  0.25500000920E-02 0. -1.
</event>
<event>
 5   0  0.7300916E-07  0.3713785E+04  0.7818609E-02  0.8064914E-01
       -2   -1    0    0    0  501  0.00000000000E+00  0.00000000000E+00  0.13127362695E+04  0.13127362695E+04  0.25500000920E-02 0.  1.
        2   -1    0    0  501    0  0.00000000000E+00  0.00000000000E+00 -0.26266129202E+04  0.26266129202E+04  0.25500000920E-02 0. -1.
    10030    2    1    2    0    0  0.00000000000E+00  0.00000000000E+00 -0.13138766507E+04  0.39393491896E+04  0.37137851560E+04 0.  0.
        1    1    3    3  502    0 -0.22046985805E+03  0.32116072302E+03 -0.25827818351E+04  0.26119940995E+04  0.50400001928E-02 0. -1.
       -1    1    3    3    0  502  0.22046985805E+03 -0.32116072302E+03  0.12689051844E+04  0.13273550901E+04  0.50400001928E-02 0.  1.
</event>
<event>
 5   0  0.2287500E-07  0.3722470E+04  0.7818609E-02  0.8063000E-01
       -4   -1    0    0    0  501  0.00000000000E+00  0.00000000000E+00  0.20486138027E+04  0.20486141964E+04  0.12699999809E+01 0.  1.
        4   -1    0    0  501    0  0.00000000000E+00  0.00000000000E+00 -0.16909939064E+04  0.16909943833E+04  0.12699999809E+01 0. -1.
    10030    2    1    2    0    0  0.00000000000E+00  0.00000000000E+00  0.35761989627E+03  0.37396085797E+04  0.37224696559E+04 0.  0.
        1    1    3    3  502    0  0.30921328224E+02  0.54028060220E+03  0.19678336658E+04  0.20408891675E+04  0.50400001928E-02 0.  1.
       -1    1    3    3    0  502 -0.30921328224E+02 -0.54028060220E+03 -0.16102137696E+04  0.16987194122E+04  0.50400001928E-02 0. -1.
</event>
<event>
 5   0  0.2411746E-07  0.2864946E+04  0.7818609E-02  0.8283384E-01
       -1   -1    0    0    0  501  0.00000000000E+00  0.00000000000E+00  0.16269192034E+04  0.16269192034E+04  0.50400001928E-02 0. -1.
        1   -1    0    0  501    0  0.00000000000E+00  0.00000000000E+00 -0.12612665955E+04  0.12612665955E+04  0.50400001928E-02 0.  1.
    10030    2    1    2    0    0  0.00000000000E+00  0.00000000000E+00  0.36565260797E+03  0.28881857989E+04  0.28649459645E+04 0.  0.
        1    1    3    3  502    0 -0.73539994624E+02 -0.41027934407E+03  0.15644329627E+04  0.16190082661E+04  0.50400001928E-02 0. -1.
       -1    1    3    3    0  502  0.73539994624E+02  0.41027934407E+03 -0.11987803547E+04  0.12691775328E+04  0.50400001928E-02 0.  1.
</event>
<event>
 5   0  0.2287500E-07  0.3535891E+04  0.7818609E-02  0.8105337E-01
        1   -1    0    0  501    0  0.00000000000E+00  0.00000000000E+00  0.13494964742E+04  0.13494964743E+04  0.50400001928E-02 0.  1.
       -1   -1    0    0    0  501  0.00000000000E+00  0.00000000000E+00 -0.23161462628E+04  0.23161462628E+04  0.50400001928E-02 0. -1.
    10030    2    1    2    0    0  0.00000000000E+00  0.00000000000E+00 -0.96664978857E+03  0.36656427371E+04  0.35358909573E+04 0.  0.
        3    1    3    3  502    0  0.16557178261E+04 -0.55033484808E+03 -0.18761895140E+03  0.17548421142E+04  0.10100000352E+00 0.  1.
       -3    1    3    3    0  502 -0.16557178261E+04  0.55033484808E+03 -0.77903083717E+03  0.19108006228E+04  0.10100000352E+00 0. -1.
</event>
<event>
 5   0  0.2287500E-07  0.3712908E+04  0.7818609E-02  0.8065107E-01
       -1   -1    0    0    0  501  0.00000000000E+00  0.00000000000E+00  0.12670845748E+04  0.12670845748E+04  0.50400001928E-02 0. -1.
        1   -1    0    0  501    0  0.00000000000E+00  0.00000000000E+00 -0.27199613339E+04  0.27199613339E+04  0.50400001928E-02 0.  1.
    10030    2    1    2    0    0  0.00000000000E+00  0.00000000000E+00 -0.14528767591E+04  0.39870459088E+04  0.37129077825E+04 0.  0.
        2    1    3    3  502    0 -0.97860034310E+03 -0.30182844192E+03 -0.23892040700E+04  0.25994336168E+04  0.25500000920E-02 0.  1.
       -2    1    3    3    0  502  0.97860034310E+03  0.30182844192E+03  0.93632731089E+03  0.13876122920E+04  0.25500000920E-02 0. -1.
</event>
<event>
 5   0  0.2287500E-07  0.3937082E+04  0.7818609E-02  0.8017361E-01
       -1   -1    0    0    0  501  0.00000000000E+00  0.00000000000E+00  0.25508726707E+04  0.25508726707E+04  0.50400001928E-02 0.  1.
        1   -1    0    0  501    0  0.00000000000E+00  0.00000000000E+00 -0.15191483804E+04  0.15191483804E+04  0.50400001928E-02 0. -1.
    10030    2    1    2    0    0  0.00000000000E+00  0.00000000000E+00  0.10317242903E+04  0.40700210511E+04  0.39370822122E+04 0.  0.
        3    1    3    3  502    0 -0.14559721210E+04 -0.17321609155E+03 -0.84199446166E+03  0.16908025654E+04  0.10100000352E+00 0.  1.
       -3    1    3    3    0  502  0.14559721210E+04  0.17321609155E+03  0.18737187519E+04  0.23792184857E+04  0.10100000352E+00 0. -1.
</event>
<event>
 5   0  0.2287500E-07  0.2905734E+04  0.7818609E-02  0.8271173E-01
       -1   -1    0    0    0  501  0.00000000000E+00  0.00000000000E+00  0.12755223310E+04  0.12755223310E+04  0.50400001928E-02 0.  1.
        1   -1    0    0  501    0  0.00000000000E+00  0.00000000000E+00 -0.16548691330E+04  0.16548691330E+04  0.50400001928E-02 0. -1.
    10030    2    1    2    0    0  0.00000000000E+00  0.00000000000E+00 -0.37934680199E+03  0.29303914640E+04  0.29057340099E+04 0.  0.
        4    1    3    3  502    0 -0.69997664151E+03  0.11237067454E+04 -0.79319697971E+03  0.15433234301E+04  0.12699999809E+01 0. -1.
       -4    1    3    3    0  502  0.69997664151E+03 -0.11237067454E+04  0.41385017773E+03  0.13870680339E+04  0.12699999809E+01 0.  1.
</event>
<event>
 5   0  0.2287500E-07  0.3718035E+04  0.7818609E-02  0.8063977E-01
       -1   -1    0    0    0  501  0.00000000000E+00  0.00000000000E+00  0.15331253702E+04  0.15331253702E+04  0.50400001928E-02 0.  1.
        1   -1    0    0  501    0  0.00000000000E+00  0.00000000000E+00 -0.22541837402E+04  0.22541837402E+04  0.50400001928E-02 0. -1.
    10030    2    1    2    0    0  0.00000000000E+00  0.00000000000E+00 -0.72105837000E+03  0.37873091105E+04  0.37180351162E+04 0.  0.
        2    1    3    3  502    0 -0.11525986305E+04  0.48971157296E+02 -0.18454500985E+04  0.21763657421E+04  0.25500000920E-02 0. -1.
       -2    1    3    3    0  502  0.11525986305E+04 -0.48971157296E+02  0.11243917285E+04  0.16109433684E+04  0.25500000920E-02 0.  1.
</event>
<event>
 5   0  0.7124627E-07  0.3790689E+04  0.7818609E-02  0.8048156E-01
       -2   -1    0    0    0  501  0.00000000000E+00  0.00000000000E+00  0.26726112803E+04  0.26726112803E+04  0.25500000920E-02 0.  1.
        2   -1    0    0  501    0  0.00000000000E+00  0.00000000000E+00 -0.13441280238E+04  0.13441280238E+04  0.25500000920E-02 0. -1.
    10030    2    1    2    0    0  0.00000000000E+00  0.00000000000E+00  0.13284832565E+04  0.40167393041E+04  0.37906894986E+04 0.  0.
        2    1    3    3  502    0 -0.17010833069E+04 -0.82837485603E+03  0.54604434174E+03  0.19692774670E+04  0.25500000920E-02 0. -1.
       -2    1    3    3    0  502  0.17010833069E+04  0.82837485603E+03  0.78243891473E+03  0.20474618371E+04  0.25500000920E-02 0.  1.
</event>
<event>
 5   0  0.2287500E-07  0.3655457E+04  0.7818609E-02  0.8077905E-01
       -1   -1    0    0    0  501  0.00000000000E+00  0.00000000000E+00  0.13760170293E+04  0.13760170293E+04  0.50400001928E-02 0. -1.
        1   -1    0    0  501    0  0.00000000000E+00  0.00000000000E+00 -0.24277254039E+04  0.24277254039E+04  0.50400001928E-02 0.  1.
    10030    2    1    2    0    0  0.00000000000E+00  0.00000000000E+00 -0.10517083746E+04  0.38037424332E+04  0.36554570156E+04 0.  0.
        2    1    3    3  502    0 -0.11506681651E+04 -0.14200360755E+04 -0.53334454713E+03  0.19039422491E+04  0.25500000920E-02 0.  1.
       -2    1    3    3    0  502  0.11506681651E+04  0.14200360755E+04 -0.51836382744E+03  0.18998001841E+04  0.25500000920E-02 0. -1.
</event>
<event>
 5   0  0.2345471E-07  0.3699674E+04  0.7818609E-02  0.8068034E-01
       -1   -1    0    0    0  501  0.00000000000E+00  0.00000000000E+00  0.23215332919E+04  0.23215332919E+04  0.50400001928E-02 0.  1.
        1   -1    0    0  501    0  0.00000000000E+00  0.00000000000E+00 -0.14739814318E+04  0.14739814318E+04  0.50400001928E-02 0. -1.
    10030    2    1    2    0    0  0.00000000000E+00  0.00000000000E+00  0.84755186013E+03  0.37955147237E+04  0.36996740211E+04 0.  0.
        5    1    3    3  502    0 -0.38921719092E+03 -0.12493717808E+04 -0.91755536648E+03  0.15982333399E+04  0.46999998093E+01 0. -1.
       -5    1    3    3    0  502  0.38921719092E+03  0.12493717808E+04  0.17651072266E+04  0.21972813838E+04  0.46999998093E+01 0.  1.
</event>
<event>
 5   0  0.7074157E-07  0.3508594E+04  0.7818609E-02  0.8111756E-01
        2   -1    0    0  501    0  0.00000000000E+00  0.00000000000E+00  0.28696744942E+04  0.28696744942E+04  0.25500000920E-02 0.  1.
       -2   -1    0    0    0  501  0.00000000000E+00  0.00000000000E+00 -0.10724412984E+04  0.10724412985E+04  0.25500000920E-02 0. -1.
    10030    2    1    2    0    0  0.00000000000E+00  0.00000000000E+00  0.17972331957E+04  0.39421157926E+04  0.35085937016E+04 0.  0.
        3    1    3    3  502    0  0.11685873672E+04 -0.62704502842E+03  0.21888899772E+04  0.25593009289E+04  0.10100000352E+00 0.  1.
       -3    1    3    3    0  502 -0.11685873672E+04  0.62704502842E+03 -0.39165678146E+03  0.13828148637E+04  0.10100000352E+00 0. -1.
</event>
<event>
 5   0  0.7074157E-07  0.3685301E+04  0.7818609E-02  0.8071227E-01
       -2   -1    0    0    0  501  0.00000000000E+00  0.00000000000E+00  0.17109796822E+04  0.17109796822E+04  0.25500000920E-02 0. -1.
        2   -1    0    0  501    0  0.00000000000E+00  0.00000000000E+00 -0.19844539577E+04  0.19844539577E+04  0.25500000920E-02 0.  1.
    10030    2    1    2    0    0  0.00000000000E+00  0.00000000000E+00 -0.27347427548E+03  0.36954336400E+04  0.36853007486E+04 0.  0.
        3    1    3    3  502    0  0.12668531371E+04 -0.96055337641E+03 -0.10708459603E+04  0.19168439532E+04  0.10100000352E+00 0.  1.
       -3    1    3    3    0  502 -0.12668531371E+04  0.96055337641E+03  0.79737168481E+03  0.17785896868E+04  0.10100000352E+00 0. -1.
</event>
<event>
 5   0  0.6939921E-07  0.3675830E+04  0.7818609E-02  0.8073339E-01
        2   -1    0    0  501    0  0.00000000000E+00  0.00000000000E+00  0.12152942361E+04  0.12152942361E+04  0.25500000920E-02 0. -1.
       -2   -1    0    0    0  501  0.00000000000E+00  0.00000000000E+00 -0.27795174892E+04  0.27795174892E+04  0.25500000920E-02 0.  1.
    10030    2    1    2    0    0  0.00000000000E+00  0.00000000000E+00 -0.15642232532E+04  0.39948117253E+04  0.36758300198E+04 0.  0.
        4    1    3    3  502    0 -0.12376796678E+03  0.71831799471E+03 -0.26157194849E+04  0.27153801369E+04  0.12699999809E+01 0.  1.
       -4    1    3    3    0  502  0.12376796678E+03 -0.71831799471E+03  0.10514962317E+04  0.12794315884E+04  0.12699999809E+01 0. -1.
</event>
<event>
 5   0  0.7074157E-07  0.3705403E+04  0.7818609E-02  0.8066766E-01
       -2   -1    0    0    0  501  0.00000000000E+00  0.00000000000E+00  0.18307839071E+04  0.18307839071E+04  0.25500000920E-02 0.  1.
        2   -1    0    0  501    0  0.00000000000E+00  0.00000000000E+00 -0.18748810785E+04  0.18748810785E+04  0.25500000920E-02 0. -1.
    10030    2    1    2    0    0  0.00000000000E+00  0.00000000000E+00 -0.44097171408E+02  0.37056649857E+04  0.37054025997E+04 0.  0.
        3    1    3    3  502    0  0.10913328562E+04  0.12034442722E+04 -0.91273872194E+03  0.18634316473E+04  0.10100000352E+00 0. -1.
       -3    1    3    3    0  502 -0.10913328562E+04 -0.12034442722E+04  0.86864155053E+03  0.18422333384E+04  0.10100000352E+00 0.  1.
</event>
<event>
 5   0  0.7300916E-07  0.3694016E+04  0.7818609E-02  0.8069289E-01
       -2   -1    0    0    0  501  0.00000000000E+00  0.00000000000E+00  0.17109848049E+04  0.17109848049E+04  0.25500000920E-02 0.  1.
        2   -1    0    0  501    0  0.00000000000E+00  0.00000000000E+00 -0.19938452287E+04  0.19938452288E+04  0.25500000920E-02 0. -1.
    10030    2    1    2    0    0  0.00000000000E+00  0.00000000000E+00 -0.28286042384E+03  0.37048300337E+04  0.36940161828E+04 0.  0.
        1    1    3    3  502    0  0.34927667229E+03 -0.10898687403E+03 -0.19571350668E+04  0.19910424411E+04  0.50400001928E-02 0. -1.
       -1    1    3    3    0  502 -0.34927667229E+03  0.10898687403E+03  0.16742746429E+04  0.17137875926E+04  0.50400001928E-02 0.  1.
</event>
<event>
 5   0  0.7074157E-07  0.3680371E+04  0.7818609E-02  0.8072326E-01
       -2   -1    0    0    0  501  0.00000000000E+00  0.00000000000E+00  0.10972102856E+04  0.10972102856E+04  0.25500000920E-02 0.  1.
        2   -1    0    0  501    0  0.00000000000E+00  0.00000000000E+00 -0.30862662001E+04  0.30862662001E+04  0.25500000920E-02 0. -1.
    10030    2    1    2    0    0  0.00000000000E+00  0.00000000000E+00 -0.19890559145E+04  0.41834764857E+04  0.36803711872E+04 0.  0.
        3    1    3    3  502    0 -0.13452463134E+04 -0.10892799647E+04 -0.17044553545E+04  0.24292769605E+04  0.10100000352E+00 0. -1.
       -3    1    3    3    0  502  0.13452463134E+04  0.10892799647E+04 -0.28460055992E+03  0.17541995252E+04  0.10100000352E+00 0.  1.
</event>
<event>
 5   0  0.6949625E-07  0.3717691E+04  0.7818609E-02  0.8064053E-01
       -2   -1    0    0    0  501  0.00000000000E+00  0.00000000000E+00  0.22258455688E+04  0.22258455688E+04  0.25500000920E-02 0. -1.
        2   -1    0    0  501    0  0.00000000000E+00  0.00000000000E+00 -0.15523570366E+04  0.15523570366E+04  0.25500000920E-02 0.  1.
    10030    2    1    2    0    0  0.00000000000E+00  0.00000000000E+00  0.67348853225E+03  0.37782026054E+04  0.37176912358E+04 0.  0.
        5    1    3    3  502    0 -0.52673216776E+03 -0.15991815906E+04  0.11372557410E+04  0.20317975407E+04  0.46999998093E+01 0. -1.
       -5    1    3    3    0  502  0.52673216776E+03  0.15991815906E+04 -0.46376720872E+03  0.17464050647E+04  0.46999998093E+01 0.  1.
</event>
<event>
 5   0  0.2287500E-07  0.3310857E+04  0.7818609E-02  0.8160138E-01
        1   -1    0    0  501    0  0.00000000000E+00  0.00000000000E+00  0.12380204297E+04  0.12380204297E+04  0.50400001928E-02 0. -1.
       -1   -1    0    0    0  501  0.00000000000E+00  0.00000000000E+00 -0.22135688045E+04  0.22135688045E+04  0.50400001928E-02 0.  1.
    10030    2    1    2    0    0  0.00000000000E+00  0.00000000000E+00 -0.97554837484E+03  0.34515892343E+04  0.33108569299E+04 0.  0.
        3    1    3    3  502    0 -0.63150359253E+03 -0.10767327164E+04  0.64577742447E+03  0.14054104817E+04  0.10100000352E+00 0. -1.
       -3    1    3    3    0  502  0.63150359253E+03  0.10767327164E+04 -0.16213257993E+04  0.20461787526E+04  0.10100000352E+00 0.  1.
</event>
<event>
 5   0  0.2411746E-07  0.3735434E+04  0.7818609E-02  0.8060154E-01
       -1   -1    0    0    0  501  0.00000000000E+00  0.00000000000E+00  0.16038913837E+04  0.16038913837E+04  0.50400001928E-02 0.  1.
        1   -1    0    0  501    0  0.00000000000E+00  0.00000000000E+00 -0.21749398594E+04  0.21749398594E+04  0.50400001928E-02 0. -1.
    10030    2    1    2    0    0  0.00000000000E+00  0.00000000000E+00 -0.57104847566E+03  0.37788312431E+04  0.37354342722E+04 0.  0.
        1    1    3    3  502    0  0.12131372878E+04 -0.22321607103E+03  0.11332094888E+04  0.16750197727E+04  0.50400001928E-02 0.  1.
       -1    1    3    3    0  502 -0.12131372878E+04  0.22321607103E+03 -0.17042579645E+04  0.21038114704E+04  0.50400001928E-02 0. -1.
</event>
<event>
 5   0  0.2287500E-07  0.3479501E+04  0.7818609E-02  0.8118665E-01
        1   -1    0    0  501    0  0.00000000000E+00  0.00000000000E+00  0.17941538943E+04  0.17941538943E+04  0.50400001928E-02 0. -1.
       -1   -1    0    0    0  501  0.00000000000E+00  0.00000000000E+00 -0.16869969120E+04  0.16869969120E+04  0.50400001928E-02 0.  1.
    10030    2    1    2    0    0  0.00000000000E+00  0.00000000000E+00  0.10715698231E+03  0.34811508063E+04  0.34795011593E+04 0.  0.
        3    1    3    3  502    0  0.87604398289E+03 -0.15011700898E+04 -0.22400719987E+02  0.17382366068E+04  0.10100000352E+00 0.  1.
       -3    1    3    3    0  502 -0.87604398289E+03  0.15011700898E+04  0.12955770230E+03  0.17429141996E+04  0.10100000352E+00 0. -1.
</event>
<event>
 5   0  0.2411746E-07  0.3687958E+04  0.7818609E-02  0.8070636E-01
       -1   -1    0    0    0  501  0.00000000000E+00  0.00000000000E+00  0.24829708205E+04  0.24829708205E+04  0.50400001928E-02 0. -1.
        1   -1    0    0  501    0  0.00000000000E+00  0.00000000000E+00 -0.13694313014E+04  0.13694313014E+04  0.50400001928E-02 0.  1.
    10030    2    1    2    0    0  0.00000000000E+00  0.00000000000E+00  0.11135395191E+04  0.38524021219E+04  0.36879576799E+04 0.  0.
        1    1    3    3  502    0  0.17952805880E+04  0.36414540030E+03  0.33610729047E+03  0.18624184205E+04  0.50400001928E-02 0.  1.
       -1    1    3    3    0  502 -0.17952805880E+04 -0.36414540030E+03  0.77743222859E+03  0.19899837015E+04  0.50400001928E-02 0. -1.
</event>
<event>
 5   0  0.2287500E-07  0.3674034E+04  0.7818609E-02  0.8073741E-01
        1   -1    0    0  501    0  0.00000000000E+00  0.00000000000E+00  0.14802786790E+04  0.14802786790E+04  0.50400001928E-02 0. -1.
       -1   -1    0    0    0  501  0.00000000000E+00  0.00000000000E+00 -0.22797267822E+04  0.22797267822E+04  0.50400001928E-02 0.  1.
    10030    2    1    2    0    0  0.00000000000E+00  0.00000000000E+00 -0.79944810314E+03  0.37600054612E+04  0.36740337231E+04 0.  0.
        4    1    3    3  502    0  0.14873290902E+04  0.68662982370E+03 -0.12504525083E+04  0.20608836517E+04  0.12699999809E+01 0.  1.
       -4    1    3    3    0  502 -0.14873290902E+04 -0.68662982370E+03  0.45100440519E+03  0.16991218095E+04  0.12699999809E+01 0. -1.
</event>
<event>
 5   0  0.6939921E-07  0.3616626E+04  0.7818609E-02  0.8086694E-01
       -2   -1    0    0    0  501  0.00000000000E+00  0.00000000000E+00  0.10327709003E+04  0.10327709003E+04  0.25500000920E-02 0. -1.
        2   -1    0    0  501    0  0.00000000000E+00  0.00000000000E+00 -0.31662360659E+04  0.31662360659E+04  0.25500000920E-02 0.  1.
    10030    2    1    2    0    0  0.00000000000E+00  0.00000000000E+00 -0.21334651657E+04  0.41990069662E+04  0.36166263132E+04 0.  0.
        4    1    3    3  502    0  0.94051239596E+03  0.81800579040E+03  0.45430268048E+03  0.13266836769E+04  0.12699999809E+01 0. -1.
       -4    1    3    3    0  502 -0.94051239596E+03 -0.81800579040E+03 -0.25877678462E+04  0.28723232894E+04  0.12699999809E+01 0.  1.
</event>
<event>
 5   0  0.6949625E-07  0.3098841E+04  0.7818609E-02  0.8216056E-01
        2   -1    0    0  501    0  0.00000000000E+00  0.00000000000E+00  0.23686804603E+04  0.23686804603E+04  0.25500000920E-02 0.  1.
       -2   -1    0    0    0  501  0.00000000000E+00  0.00000000000E+00 -0.10135192018E+04  0.10135192018E+04  0.25500000920E-02 0. -1.
    10030    2    1    2    0    0  0.00000000000E+00  0.00000000000E+00  0.13551612585E+04  0.33821996621E+04  0.30988405118E+04 0.  0.
        5    1    3    3  502    0 -0.61238188591E+02 -0.65777998605E+03  0.22072554104E+04  0.23040015544E+04  0.46999998093E+01 0.  1.
       -5    1    3    3    0  502  0.61238188591E+02  0.65777998605E+03 -0.85209415192E+03  0.10781981077E+04  0.46999998093E+01 0. -1.
</event>
<event>
 5   0  0.2411746E-07  0.3665615E+04  0.7818609E-02  0.8075625E-01
        1   -1    0    0  501    0  0.00000000000E+00  0.00000000000E+00  0.19263462259E+04  0.19263462259E+04  0.50400001928E-02 0. -1.
       -1   -1    0    0    0  501  0.00000000000E+00  0.00000000000E+00 -0.17438104689E+04  0.17438104689E+04  0.50400001928E-02 0.  1.
    10030    2    1    2    0    0  0.00000000000E+00  0.00000000000E+00  0.18253575698E+03  0.36701566948E+04  0.36656146636E+04 0.  0.
        1    1    3    3  502    0  0.12300327638E+04  0.13579835837E+04  0.13696105404E+03  0.18373509039E+04  0.50400001928E-02 0.  1.
       -1    1    3    3    0  502 -0.12300327638E+04 -0.13579835837E+04  0.45574702937E+02  0.18328057909E+04  0.50400001928E-02 0. -1.
</event>
<event>
 5   0  0.7074157E-07  0.3610789E+04  0.7818609E-02  0.8088025E-01
        2   -1    0    0  501    0  0.00000000000E+00  0.00000000000E+00  0.20586785467E+04  0.20586785467E+04  0.25500000920E-02 0. -1.
       -2   -1    0    0    0  501  0.00000000000E+00  0.00000000000E+00 -0.15832721629E+04  0.15832721629E+04  0.25500000920E-02 0.  1.
    10030    2    1    2    0    0  0.00000000000E+00  0.00000000000E+00  0.47540638380E+03  0.36419507095E+04  0.36107885207E+04 0.  0.
        3    1    3    3  502    0 -0.16977214021E+04  0.54147404842E+03  0.53002562332E+03  0.18591340123E+04  0.10100000352E+00 0.  1.
       -3    1    3    3    0  502  0.16977214021E+04 -0.54147404842E+03 -0.54619239520E+02  0.17828166972E+04  0.10100000352E+00 0. -1.
</event>
<event>
 5   0  0.7300916E-07  0.3717256E+04  0.7818609E-02  0.8064148E-01
        2   -1    0    0  501    0  0.00000000000E+00  0.00000000000E+00  0.23929801176E+04  0.23929801176E+04  0.25500000920E-02 0.  1.
       -2   -1    0    0    0  501  0.00000000000E+00  0.00000000000E+00 -0.14435968108E+04  0.14435968108E+04  0.25500000920E-02 0. -1.
    10030    2    1    2    0    0  0.00000000000E+00  0.00000000000E+00  0.94938330680E+03  0.38365769284E+04  0.37172562279E+04 0.  0.
        1    1    3    3  502    0 -0.39470060841E+03 -0.38293830067E+03  0.23070871368E+04  0.23717253992E+04  0.50400001928E-02 0.  1.
       -1    1    3    3    0  502  0.39470060841E+03  0.38293830067E+03 -0.13577038300E+04  0.14648515292E+04  0.50400001928E-02 0. -1.
</event>
<event>
 5   0  0.7124627E-07  0.3700583E+04  0.7818609E-02  0.8067833E-01
        2   -1    0    0  501    0  0.00000000000E+00  0.00000000000E+00  0.24422463195E+04  0.24422463195E+04  0.25500000920E-02 0.  1.
       -2   -1    0    0    0  501  0.00000000000E+00  0.00000000000E+00 -0.14018157042E+04  0.14018157042E+04  0.25500000920E-02 0. -1.
    10030    2    1    2    0    0  0.00000000000E+00  0.00000000000E+00  0.10404306152E+04  0.38440620237E+04  0.37005833293E+04 0.  0.
        2    1    3    3  502    0  0.14696807512E+03 -0.18437123052E+04  0.57423708886E+03  0.19366525020E+04  0.25500000920E-02 0. -1.
       -2    1    3    3    0  502 -0.14696807512E+03  0.18437123052E+04  0.46619352636E+03  0.19074095217E+04  0.25500000920E-02 0.  1.
</event>
<event>
 5   0  0.2287500E-07  0.3649948E+04  0.7818609E-02  0.8079145E-01
        1   -1    0    0  501    0  0.00000000000E+00  0.00000000000E+00  0.29271119360E+04  0.29271119360E+04  0.50400001928E-02 0. -1.
       -1   -1    0    0    0  501  0.00000000000E+00  0.00000000000E+00 -0.11378211814E+04  0.11378211814E+04  0.50400001928E-02 0.  1.
    10030    2    1    2    0    0  0.00000000000E+00  0.00000000000E+00  0.17892907546E+04  0.40649331175E+04  0.36499479236E+04 0.  0.
        2    1    3    3  502    0 -0.49610803441E+03 -0.74746054106E+03  0.26645849390E+04  0.28115535455E+04  0.25500000920E-02 0. -1.
       -2    1    3    3    0  502  0.49610803441E+03  0.74746054106E+03 -0.87529418434E+03  0.12533795720E+04  0.25500000920E-02 0.  1.
</event>
<event>
 5   0  0.2287500E-07  0.3679460E+04  0.7818609E-02  0.8072529E-01
       -1   -1    0    0    0  501  0.00000000000E+00  0.00000000000E+00  0.11465430984E+04  0.11465430984E+04  0.50400001928E-02 0.  1.
        1   -1    0    0  501    0  0.00000000000E+00  0.00000000000E+00 -0.29520100561E+04  0.29520100561E+04  0.50400001928E-02 0. -1.
    10030    2    1    2    0    0  0.00000000000E+00  0.00000000000E+00 -0.18054669577E+04  0.40985531545E+04  0.36794601540E+04 0.  0.
        4    1    3    3  502    0  0.26225011666E+03 -0.12067440888E+04 -0.24217275803E+04  0.27184136009E+04  0.12699999809E+01 0. -1.
       -4    1    3    3    0  502 -0.26225011666E+03  0.12067440888E+04  0.61626062265E+03  0.13801395536E+04  0.12699999809E+01 0.  1.
</event>
<event>
 5   0  0.6949625E-07  0.3732589E+04  0.7818609E-02  0.8060778E-01
        2   -1    0    0  501    0  0.00000000000E+00  0.00000000000E+00  0.15800629692E+04  0.15800629692E+04  0.25500000920E-02 0. -1.
       -2   -1    0    0    0  501  0.00000000000E+00  0.00000000000E+00 -0.22043776731E+04  0.22043776731E+04  0.25500000920E-02 0.  1.
    10030    2    1    2    0    0  0.00000000000E+00  0.00000000000E+00 -0.62431470396E+03  0.37844406423E+04  0.37325891986E+04 0.  0.
        5    1    3    3  502    0  0.89460176240E+03  0.13130025718E+03  0.13431526097E+04  0.16191457914E+04  0.46999998093E+01 0. -1.
       -5    1    3    3    0  502 -0.89460176240E+03 -0.13130025718E+03 -0.19674673137E+04  0.21652948509E+04  0.46999998093E+01 0.  1.
</event>
<event>
 5   0  0.6949625E-07  0.3626696E+04  0.7818609E-02  0.8084404E-01
       -2   -1    0    0    0  501  0.00000000000E+00  0.00000000000E+00  0.16913081528E+04  0.16913081528E+04  0.25500000920E-02 0.  1.
        2   -1    0    0  501    0  0.00000000000E+00  0.00000000000E+00 -0.19441935334E+04  0.19441935334E+04  0.25500000920E-02 0. -1.
    10030    2    1    2    0    0  0.00000000000E+00  0.00000000000E+00 -0.25288538057E+03  0.36355016862E+04  0.36266956717E+04 0.  0.
        5    1    3    3  502    0  0.94061772248E+03  0.74594232739E+03 -0.14887925114E+04  0.19125158529E+04  0.46999998093E+01 0. -1.
       -5    1    3    3    0  502 -0.94061772248E+03 -0.74594232739E+03  0.12359071309E+04  0.17229858333E+04  0.46999998093E+01 0.  1.
</event>
<event>
 5   0  0.2345471E-07  0.3265872E+04  0.7818609E-02  0.8171634E-01
       -1   -1    0    0    0  501  0.00000000000E+00  0.00000000000E+00  0.18807176249E+04  0.18807176249E+04  0.50400001928E-02 0.  1.
        1   -1    0    0  501    0  0.00000000000E+00  0.00000000000E+00 -0.14177991988E+04  0.14177991988E+04  0.50400001928E-02 0. -1.
    10030    2    1    2    0    0  0.00000000000E+00  0.00000000000E+00  0.46291842610E+03  0.32985168237E+04  0.32658719765E+04 0.  0.
        5    1    3    3  502    0  0.11019892059E+04 -0.92053144367E+03  0.10168564211E+04  0.17594821454E+04  0.46999998093E+01 0.  1.
       -5    1    3    3    0  502 -0.11019892059E+04  0.92053144367E+03 -0.55393799502E+03  0.15390346783E+04  0.46999998093E+01 0. -1.
</event>
<event>
 5   0  0.2287500E-07  0.3739133E+04  0.7818609E-02  0.8059344E-01
        1   -1    0    0  501    0  0.00000000000E+00  0.00000000000E+00  0.20316851694E+04  0.20316851694E+04  0.50400001928E-02 0. -1.
       -1   -1    0    0    0  501  0.00000000000E+00  0.00000000000E+00 -0.17203841786E+04  0.17203841786E+04  0.50400001928E-02 0.  1.
    10030    2    1    2    0    0  0.00000000000E+00  0.00000000000E+00  0.31130099082E+03  0.37520693480E+04  0.37391330660E+04 0.  0.
        4    1    3    3  502    0 -0.12566784427E+04 -0.16688346090E+03 -0.12232165515E+04  0.17616330897E+04  0.12699999809E+01 0.  1.
       -4    1    3    3    0  502  0.12566784427E+04  0.16688346090E+03  0.15345175423E+04  0.19904362583E+04  0.12699999809E+01 0. -1.
</event>
<event>
 5   0  0.2287500E-07  0.3717659E+04  0.7818609E-02  0.8064060E-01
        1   -1    0    0  501    0  0.00000000000E+00  0.00000000000E+00  0.14171367366E+04  0.14171367367E+04  0.50400001928E-02 0. -1.
       -1   -1    0    0    0  501  0.00000000000E+00  0.00000000000E+00 -0.24381895347E+04  0.24381895347E+04  0.50400001928E-02 0.  1.
    10030    2    1    2    0    0  0.00000000000E+00  0.00000000000E+00 -0.10210527981E+04  0.38553262714E+04  0.37176594576E+04 0.  0.
        3    1    3    3  502    0 -0.16719742452E+04  0.71439585290E+03 -0.91134726105E+03  0.20338173841E+04  0.10100000352E+00 0.  1.
       -3    1    3    3    0  502  0.16719742452E+04 -0.71439585290E+03 -0.10970553701E+03  0.18215088873E+04  0.10100000352E+00 0. -1.
</event>
<event>
 5   0  0.2345471E-07  0.3666121E+04  0.7818609E-02  0.8075512E-01
        1   -1    0    0  501    0  0.00000000000E+00  0.00000000000E+00  0.32114831742E+04  0.32114831742E+04  0.50400001928E-02 0. -1.
       -1   -1    0    0    0  501  0.00000000000E+00  0.00000000000E+00 -0.10462798182E+04  0.10462798182E+04  0.50400001928E-02 0.  1.
    10030    2    1    2    0    0  0.00000000000E+00  0.00000000000E+00  0.21652033559E+04  0.42577629924E+04  0.36661205827E+04 0.  0.
        5    1    3    3  502    0 -0.15686518829E+04  0.27332734623E+03  0.27909489233E+02  0.15925380993E+04  0.46999998093E+01 0.  1.
       -5    1    3    3    0  502  0.15686518829E+04 -0.27332734623E+03  0.21372938667E+04  0.26652248931E+04  0.46999998093E+01 0. -1.
</event>
<event>
 5   0  0.2411746E-07  0.2660676E+04  0.7818609E-02  0.8347878E-01
        1   -1    0    0  501    0  0.00000000000E+00  0.00000000000E+00  0.15786584407E+04  0.15786584407E+04  0.50400001928E-02 0.  1.
       -1   -1    0    0    0  501  0.00000000000E+00  0.00000000000E+00 -0.11210779372E+04  0.11210779372E+04  0.50400001928E-02 0. -1.
    10030    2    1    2    0    0  0.00000000000E+00  0.00000000000E+00  0.45758050348E+03  0.26997363780E+04  0.26606759655E+04 0.  0.
        1    1    3    3  502    0  0.99692315395E+03 -0.41966334917E+03 -0.55706404540E+03  0.12166731082E+04  0.50400001928E-02 0. -1.
       -1    1    3    3    0  502 -0.99692315395E+03  0.41966334917E+03  0.10146445489E+04  0.14830632698E+04  0.50400001928E-02 0.  1.
</event>
<event>
 5   0  0.7300916E-07  0.2666706E+04  0.7818609E-02  0.8345889E-01
        2   -1    0    0  501    0  0.00000000000E+00  0.00000000000E+00  0.21573657487E+04  0.21573657487E+04  0.25500000920E-02 0.  1.
       -2   -1    0    0    0  501  0.00000000000E+00  0.00000000000E+00 -0.82407454799E+03  0.82407454800E+03  0.25500000920E-02 0. -1.
    10030    2    1    2    0    0  0.00000000000E+00  0.00000000000E+00  0.13332912007E+04  0.29814402967E+04  0.26667059862E+04 0.  0.
        1    1    3    3  502    0 -0.10784533596E+04 -0.33044523046E+03  0.14616024649E+04  0.18462224851E+04  0.50400001928E-02 0.  1.
       -1    1    3    3    0  502  0.10784533596E+04  0.33044523046E+03 -0.12831126416E+03  0.11352178116E+04  0.50400001928E-02 0. -1.
</event>
<event>
 5   0  0.2411746E-07  0.3712712E+04  0.7818609E-02  0.8065151E-01
       -1   -1    0    0    0  501  0.00000000000E+00  0.00000000000E+00  0.14859931329E+04  0.14859931329E+04  0.50400001928E-02 0. -1.
        1   -1    0    0  501    0  0.00000000000E+00  0.00000000000E+00 -0.23190262021E+04  0.23190262021E+04  0.50400001928E-02 0.  1.
    10030    2    1    2    0    0  0.00000000000E+00  0.00000000000E+00 -0.83303306926E+03  0.38050193350E+04  0.37127116836E+04 0.  0.
        1    1    3    3  502    0 -0.77406850094E+03  0.87492294441E+03  0.10620532723E+04  0.15788063073E+04  0.50400001928E-02 0. -1.
       -1    1    3    3    0  502  0.77406850094E+03 -0.87492294441E+03 -0.18950863415E+04  0.22262130277E+04  0.50400001928E-02 0.  1.
</event>
<event>
 5   0  0.6939921E-07  0.3734336E+04  0.7818609E-02  0.8060395E-01
       -2   -1    0    0    0  501  0.00000000000E+00  0.00000000000E+00  0.16178228384E+04  0.16178228384E+04  0.25500000920E-02 0.  1.
        2   -1    0    0  501    0  0.00000000000E+00  0.00000000000E+00 -0.21549431268E+04  0.21549431268E+04  0.25500000920E-02 0. -1.
    10030    2    1    2    0    0  0.00000000000E+00  0.00000000000E+00 -0.53712028838E+03  0.37727659652E+04  0.37343359281E+04 0.  0.
        4    1    3    3  502    0 -0.11341058966E+04  0.19651248637E+02 -0.17669726612E+04  0.20997086356E+04  0.12699999809E+01 0. -1.
       -4    1    3    3    0  502  0.11341058966E+04 -0.19651248637E+02  0.12298523728E+04  0.16730573296E+04  0.12699999809E+01 0.  1.
</event>
<event>
 5   0  0.6949625E-07  0.3684748E+04  0.7818609E-02  0.8071350E-01
        2   -1    0    0  501    0  0.00000000000E+00  0.00000000000E+00  0.26070101734E+04  0.26070101734E+04  0.25500000920E-02 0. -1.
       -2   -1    0    0    0  501  0.00000000000E+00  0.00000000000E+00 -0.13020056936E+04  0.13020056936E+04  0.25500000920E-02 0.  1.
    10030    2    1    2    0    0  0.00000000000E+00  0.00000000000E+00  0.13050044797E+04  0.39090158670E+04  0.36847480723E+04 0.  0.
        5    1    3    3  502    0 -0.31726230641E+03 -0.41957113159E+03  0.25256478951E+04  0.25798478028E+04  0.46999998093E+01 0. -1.
       -5    1    3    3    0  502  0.31726230641E+03  0.41957113159E+03 -0.12206434153E+04  0.13291680642E+04  0.46999998093E+01 0.  1.
</event>
<event>
 5   0  0.2287500E-07  0.3530717E+04  0.7818609E-02  0.8106549E-01
       -1   -1    0    0    0  501  0.00000000000E+00  0.00000000000E+00  0.30587902323E+04  0.30587902323E+04  0.50400001928E-02 0.  1.
        1   -1    0    0  501    0  0.00000000000E+00  0.00000000000E+00 -0.10188637139E+04  0.10188637139E+04  0.50400001928E-02 0. -1.
    10030    2    1    2    0    0  0.00000000000E+00  0.00000000000E+00  0.20399265184E+04  0.40776539463E+04  0.35307168543E+04 0.  0.
        2    1    3    3  502    0  0.15646701690E+04  0.76819404997E+03  0.13428743195E+04  0.22003695767E+04  0.25500000920E-02 0. -1.
       -2    1    3    3    0  502 -0.15646701690E+04 -0.76819404997E+03  0.69705219892E+03  0.18772843696E+04  0.25500000920E-02 0.  1.
</event>
<event>
 5   0  0.2411746E-07  0.3700162E+04  0.7818609E-02  0.8067926E-01
       -1   -1    0    0    0  501  0.00000000000E+00  0.00000000000E+00  0.11525086376E+04  0.11525086377E+04  0.50400001928E-02 0.  1.
        1   -1    0    0  501    0  0.00000000000E+00  0.00000000000E+00 -0.29698686926E+04  0.29698686926E+04  0.50400001928E-02 0. -1.
    10030    2    1    2    0    0  0.00000000000E+00  0.00000000000E+00 -0.18173600550E+04  0.41223773303E+04  0.37001617916E+04 0.  0.
        1    1    3    3  502    0  0.69431153324E+03 -0.42408145241E+03  0.94251102951E+03  0.12450865931E+04  0.50400001928E-02 0.  1.
       -1    1    3    3    0  502 -0.69431153324E+03  0.42408145241E+03 -0.27598710845E+04  0.28772907372E+04  0.50400001928E-02 0. -1.
</event>
<event>
 5   0  0.7124627E-07  0.3618632E+04  0.7818609E-02  0.8086237E-01
        2   -1    0    0  501    0  0.00000000000E+00  0.00000000000E+00  0.20331246159E+04  0.20331246159E+04  0.25500000920E-02 0.  1.
       -2   -1    0    0    0  501  0.00000000000E+00  0.00000000000E+00 -0.16101442824E+04  0.16101442824E+04  0.25500000920E-02 0. -1.
    10030    2    1    2    0    0  0.00000000000E+00  0.00000000000E+00  0.42298033348E+03  0.36432688983E+04  0.36186317722E+04 0.  0.
        2    1    3    3  502    0  0.56852883707E+03 -0.69301997487E+03  0.17938529441E+04  0.20053453840E+04  0.25500000920E-02 0.  1.
       -2    1    3    3    0  502 -0.56852883707E+03  0.69301997487E+03 -0.13708726106E+04  0.16379235143E+04  0.25500000920E-02 0. -1.
</event>
<event>
 5   0  0.2287500E-07  0.3672797E+04  0.7818609E-02  0.8074017E-01
       -1   -1    0    0    0  501  0.00000000000E+00  0.00000000000E+00  0.19361531014E+04  0.19361531014E+04  0.50400001928E-02 0. -1.
        1   -1    0    0  501    0  0.00000000000E+00  0.00000000000E+00 -0.17417830516E+04  0.17417830516E+04  0.50400001928E-02 0.  1.
    10030    2    1    2    0    0  0.00000000000E+00  0.00000000000E+00  0.19437004983E+03  0.36779361531E+04  0.36727965680E+04 0.  0.
        3    1    3    3  502    0 -0.11413423178E+03 -0.11516876016E+04 -0.13306249581E+04  0.17635117646E+04  0.10100000352E+00 0.  1.
       -3    1    3    3    0  502  0.11413423178E+03  0.11516876016E+04  0.15249950079E+04  0.19144243884E+04  0.10100000352E+00 0. -1.
</event>
<event>
 5   0  0.2287500E-07  0.3676524E+04  0.7818609E-02  0.8073184E-01
        1   -1    0    0  501    0  0.00000000000E+00  0.00000000000E+00  0.27004277485E+04  0.27004277485E+04  0.50400001928E-02 0. -1.
       -1   -1    0    0    0  501  0.00000000000E+00  0.00000000000E+00 -0.12513602820E+04  0.12513602820E+04  0.50400001928E-02 0.  1.
    10030    2    1    2    0    0  0.00000000000E+00  0.00000000000E+00  0.14490674664E+04  0.39517880305E+04  0.36765244615E+04 0.  0.
        3    1    3    3  502    0  0.13904806186E+04 -0.64502726192E+03 -0.36618799057E+03  0.15759410439E+04  0.10100000352E+00 0.  1.
       -3    1    3    3    0  502 -0.13904806186E+04  0.64502726192E+03  0.18152554570E+04  0.23758469866E+04  0.10100000352E+00 0. -1.
</event>
<event>
 5   0  0.7124627E-07  0.3679855E+04  0.7818609E-02  0.8072441E-01
       -2   -1    0    0    0  501  0.00000000000E+00  0.00000000000E+00  0.18864372488E+04  0.18864372488E+04  0.25500000920E-02 0. -1.
        2   -1    0    0  501    0  0.00000000000E+00  0.00000000000E+00 -0.17945645581E+04  0.17945645581E+04  0.25500000920E-02 0.  1.
    10030    2    1    2    0    0  0.00000000000E+00  0.00000000000E+00  0.91872690643E+02  0.36810018069E+04  0.36798551210E+04 0.  0.
        2    1    3    3  502    0 -0.73252935521E+03 -0.20858812911E+03  0.17213388995E+04  0.18823166234E+04  0.25500000920E-02 0. -1.
       -2    1    3    3    0  502  0.73252935521E+03  0.20858812911E+03 -0.16294662088E+04  0.17986851835E+04  0.25500000920E-02 0.  1.
</event>
<event>
 5   0  0.2345471E-07  0.3677896E+04  0.7818609E-02  0.8072878E-01
       -1   -1    0    0    0  501  0.00000000000E+00  0.00000000000E+00  0.18703313538E+04  0.18703313538E+04  0.50400001928E-02 0. -1.
        1   -1    0    0  501    0  0.00000000000E+00  0.00000000000E+00 -0.18080916982E+04  0.18080916982E+04  0.50400001928E-02 0.  1.
    10030    2    1    2    0    0  0.00000000000E+00  0.00000000000E+00  0.62239655617E+02  0.36784230521E+04  0.36778964607E+04 0.  0.
        5    1    3    3  502    0  0.94679578935E+03 -0.15488187448E+04  0.32518017719E+03  0.18441870861E+04  0.46999998093E+01 0. -1.
       -5    1    3    3    0  502 -0.94679578935E+03  0.15488187448E+04 -0.26294052158E+03  0.18342359660E+04  0.46999998093E+01 0.  1.
</event>
<event>
 5   0  0.7074157E-07  0.3443034E+04  0.7818609E-02  0.8127424E-01
       -2   -1    0    0    0  501  0.00000000000E+00  0.00000000000E+00  0.12584473461E+04  0.12584473461E+04  0.25500000920E-02 0.  1.
        2   -1    0    0  501    0  0.00000000000E+00  0.00000000000E+00 -0.23549816686E+04  0.23549816686E+04  0.25500000920E-02 0. -1.
    10030    2    1    2    0    0  0.00000000000E+00  0.00000000000E+00 -0.10965343224E+04  0.36134290147E+04  0.34430337966E+04 0.  0.
        3    1    3    3  502    0 -0.35964679546E+03  0.13490309667E+04  0.50874682284E+03  0.14859521213E+04  0.10100000352E+00 0.  1.
       -3    1    3    3    0  502  0.35964679546E+03 -0.13490309667E+04 -0.16052811453E+04  0.21274768935E+04  0.10100000352E+00 0. -1.
</event>
<event>
 5   0  0.7074157E-07  0.4124061E+04  0.7818609E-02  0.7979977E-01
       -2   -1    0    0    0  501  0.00000000000E+00  0.00000000000E+00  0.21319678452E+04  0.21319678452E+04  0.25500000920E-02 0.  1.
        2   -1    0    0  501    0  0.00000000000E+00  0.00000000000E+00 -0.19943869590E+04  0.19943869590E+04  0.25500000920E-02 0. -1.
    10030    2    1    2    0    0  0.00000000000E+00  0.00000000000E+00  0.13758088613E+03  0.41263548042E+04  0.41240605561E+04 0.  0.
        3    1    3    3  502    0 -0.87149929637E+03  0.51379935655E+03  0.18665838405E+04  0.21231194140E+04  0.10100000352E+00 0.  1.
       -3    1    3    3    0  502  0.87149929637E+03 -0.51379935655E+03 -0.17290029543E+04  0.20032353902E+04  0.10100000352E+00 0. -1.
</event>
<event>
 5   0  0.7124627E-07  0.3682487E+04  0.7818609E-02  0.8071854E-01
        2   -1    0    0  501    0  0.00000000000E+00  0.00000000000E+00  0.28235512430E+04  0.28235512430E+04  0.25500000920E-02 0. -1.
       -2   -1    0    0    0  501  0.00000000000E+00  0.00000000000E+00 -0.12006787457E+04  0.12006787457E+04  0.25500000920E-02 0.  1.
    10030    2    1    2    0    0  0.00000000000E+00  0.00000000000E+00  0.16228724973E+04  0.40242299887E+04  0.36824871839E+04 0.  0.
        2    1    3    3  502    0 -0.93780037730E+03 -0.14985309941E+04  0.13741108189E+04  0.22390277423E+04  0.25500000920E-02 0.  1.
       -2    1    3    3    0  502  0.93780037730E+03  0.14985309941E+04  0.24876167840E+03  0.17852022464E+04  0.25500000920E-02 0. -1.
</event>
<event>
 5   0  0.2287500E-07  0.3697385E+04  0.7818609E-02  0.8068542E-01
       -1   -1    0    0    0  501  0.00000000000E+00  0.00000000000E+00  0.20710958534E+04  0.20710958534E+04  0.50400001928E-02 0.  1.
        1   -1    0    0  501    0  0.00000000000E+00  0.00000000000E+00 -0.16501720615E+04  0.16501720615E+04  0.50400001928E-02 0. -1.
    10030    2    1    2    0    0  0.00000000000E+00  0.00000000000E+00  0.42092379193E+03  0.37212679149E+04  0.36973852999E+04 0.  0.
        4    1    3    3  502    0 -0.14081926473E+03  0.28272278392E+03 -0.16228143779E+04  0.16532665713E+04  0.12699999809E+01 0. -1.
       -4    1    3    3    0  502  0.14081926473E+03 -0.28272278392E+03  0.20437381698E+04  0.20680013437E+04  0.12699999809E+01 0.  1.
</event>
<event>
 5   0  0.7300916E-07  0.3663142E+04  0.7818609E-02  0.8076179E-01
       -2   -1    0    0    0  501  0.00000000000E+00  0.00000000000E+00  0.17012848460E+04  0.17012848460E+04  0.25500000920E-02 0. -1.
        2   -1    0    0  501    0  0.00000000000E+00  0.00000000000E+00 -0.19718348494E+04  0.19718348494E+04  0.25500000920E-02 0.  1.
    10030    2    1    2    0    0  0.00000000000E+00  0.00000000000E+00 -0.27055000338E+03  0.36731196955E+04  0.36631422294E+04 0.  0.
        1    1    3    3  502    0  0.44445135282E+03 -0.14278028629E+04 -0.11957447161E+04  0.19146705843E+04  0.50400001928E-02 0.  1.
       -1    1    3    3    0  502 -0.44445135282E+03  0.14278028629E+04  0.92519471269E+03  0.17584491112E+04  0.50400001928E-02 0. -1.
</event>
<event>
 5   0  0.7124627E-07  0.3692599E+04  0.7818609E-02  0.8069604E-01
        2   -1    0    0  501    0  0.00000000000E+00  0.00000000000E+00  0.15455809309E+04  0.15455809309E+04  0.25500000920E-02 0. -1.
       -2   -1    0    0    0  501  0.00000000000E+00  0.00000000000E+00 -0.22055275582E+04  0.22055275582E+04  0.25500000920E-02 0.  1.
    10030    2    1    2    0    0  0.00000000000E+00  0.00000000000E+00 -0.65994662731E+03  0.37511084892E+04  0.36925987254E+04 0.  0.
        2    1    3    3  502    0 -0.72368471839E+03  0.16153435840E+04 -0.86342925327E+03  0.19694071548E+04  0.25500000920E-02 0.  1.
       -2    1    3    3    0  502  0.72368471839E+03 -0.16153435840E+04  0.20348262596E+03  0.17817013344E+04  0.25500000920E-02 0. -1.
</event>
<event>
 5   0  0.6939921E-07  0.3626813E+04  0.7818609E-02  0.8084377E-01
       -2   -1    0    0    0  501  0.00000000000E+00  0.00000000000E+00  0.16442354688E+04  0.16442354688E+04  0.25500000920E-02 0.  1.
        2   -1    0    0  501    0  0.00000000000E+00  0.00000000000E+00 -0.19999829554E+04  0.19999829554E+04  0.25500000920E-02 0. -1.
    10030    2    1    2    0    0  0.00000000000E+00  0.00000000000E+00 -0.35574748651E+03  0.36442184242E+04  0.36268128776E+04 0.  0.
        4    1    3    3  502    0  0.76624354636E+03  0.13078272390E+04 -0.11780906089E+04  0.19197500762E+04  0.12699999809E+01 0. -1.
       -4    1    3    3    0  502 -0.76624354636E+03 -0.13078272390E+04  0.82234312244E+03  0.17244683480E+04  0.12699999809E+01 0.  1.
</event>
<event>
 5   0  0.7074157E-07  0.3657519E+04  0.7818609E-02  0.8077442E-01
        2   -1    0    0  501    0  0.00000000000E+00  0.00000000000E+00  0.11003804983E+04  0.11003804983E+04  0.25500000920E-02 0. -1.
       -2   -1    0    0    0  501  0.00000000000E+00  0.00000000000E+00 -0.30392769315E+04  0.30392769315E+04  0.25500000920E-02 0.  1.
    10030    2    1    2    0    0  0.00000000000E+00  0.00000000000E+00 -0.19388964333E+04  0.41396574298E+04  0.36575188663E+04 0.  0.
        3    1    3    3  502    0  0.10825652431E+04 -0.62745246964E+03 -0.24789417254E+04  0.27768320430E+04  0.10100000352E+00 0.  1.
       -3    1    3    3    0  502 -0.10825652431E+04  0.62745246964E+03  0.54004529209E+03  0.13628253868E+04  0.10100000352E+00 0. -1.
</event>
<event>
 5   0  0.2287500E-07  0.3655712E+04  0.7818609E-02  0.8077848E-01
       -1   -1    0    0    0  501  0.00000000000E+00  0.00000000000E+00  0.17451216207E+04  0.17451216207E+04  0.50400001928E-02 0.  1.
        1   -1    0    0  501    0  0.00000000000E+00  0.00000000000E+00 -0.19145124266E+04  0.19145124266E+04  0.50400001928E-02 0. -1.
    10030    2    1    2    0    0  0.00000000000E+00  0.00000000000E+00 -0.16939080589E+03  0.36596340474E+04  0.36557117112E+04 0.  0.
        2    1    3    3  502    0  0.14534612852E+04  0.10506259099E+04 -0.43819255405E+03  0.18461790879E+04  0.25500000920E-02 0.  1.
       -2    1    3    3    0  502 -0.14534612852E+04 -0.10506259099E+04  0.26880174815E+03  0.18134549595E+04  0.25500000920E-02 0. -1.
</event>
<event>
 5   0  0.7300916E-07  0.3748795E+04  0.7818609E-02  0.8057234E-01
        2   -1    0    0  501    0  0.00000000000E+00  0.00000000000E+00  0.20041142074E+04  0.20041142074E+04  0.25500000920E-02 0.  1.
       -2   -1    0    0    0  501  0.00000000000E+00  0.00000000000E+00 -0.17530765363E+04  0.17530765363E+04  0.25500000920E-02 0. -1.
    10030    2    1    2    0    0  0.00000000000E+00  0.00000000000E+00  0.25103767106E+03  0.37571907437E+04  0.37487947893E+04 0.  0.
        1    1    3    3  502    0  0.13575048333E+04 -0.70898377644E+02  0.14189593355E+04  0.19650169333E+04  0.50400001928E-02 0.  1.
       -1    1    3    3    0  502 -0.13575048333E+04  0.70898377644E+02 -0.11679216644E+04  0.17921738104E+04  0.50400001928E-02 0. -1.
</event>
<event>
 5   0  0.6939921E-07  0.3481218E+04  0.7818609E-02  0.8118255E-01
        2   -1    0    0  501    0  0.00000000000E+00  0.00000000000E+00  0.22007494171E+04  0.22007494171E+04  0.25500000920E-02 0.  1.
       -2   -1    0    0    0  501  0.00000000000E+00  0.00000000000E+00 -0.13766764878E+04  0.13766764878E+04  0.25500000920E-02 0. -1.
    10030    2    1    2    0    0  0.00000000000E+00  0.00000000000E+00  0.82407292926E+03  0.35774259049E+04  0.34812181650E+04 0.  0.
        4    1    3    3  502    0  0.16983949235E+04 -0.45440875758E+02  0.80078756329E+03  0.18782631668E+04  0.12699999809E+01 0.  1.
       -4    1    3    3    0  502 -0.16983949235E+04  0.45440875758E+02  0.23285365964E+02  0.16991627381E+04  0.12699999809E+01 0. -1.
</event>
<event>
 5   0  0.2411746E-07  0.3676593E+04  0.7818609E-02  0.8073169E-01
        1   -1    0    0  501    0  0.00000000000E+00  0.00000000000E+00  0.24476853347E+04  0.24476853347E+04  0.50400001928E-02 0.  1.
       -1   -1    0    0    0  501  0.00000000000E+00  0.00000000000E+00 -0.13806246706E+04  0.13806246706E+04  0.50400001928E-02 0. -1.
    10030    2    1    2    0    0  0.00000000000E+00  0.00000000000E+00  0.10670606642E+04  0.38283100053E+04  0.36765934009E+04 0.  0.
        1    1    3    3  502    0 -0.78530610554E+03  0.11165766437E+04  0.18155500947E+04  0.22714909701E+04  0.50400001928E-02 0.  1.
       -1    1    3    3    0  502  0.78530610554E+03 -0.11165766437E+04 -0.74848943056E+03  0.15568190352E+04  0.50400001928E-02 0. -1.
</event>
<event>
 5   0  0.2287500E-07  0.3681644E+04  0.7818609E-02  0.8072042E-01
        1   -1    0    0  501    0  0.00000000000E+00  0.00000000000E+00  0.25242047781E+04  0.25242047781E+04  0.50400001928E-02 0.  1.
       -1   -1    0    0    0  501  0.00000000000E+00  0.00000000000E+00 -0.13424525619E+04  0.13424525619E+04  0.50400001928E-02 0. -1.
    10030    2    1    2    0    0  0.00000000000E+00  0.00000000000E+00  0.11817522163E+04  0.38666573400E+04  0.36816437476E+04 0.  0.
        2    1    3    3  502    0  0.58082697832E+03 -0.19082582172E+03 -0.12327123296E+04  0.13759920642E+04  0.25500000920E-02 0. -1.
       -2    1    3    3    0  502 -0.58082697832E+03  0.19082582172E+03  0.24144645459E+04  0.24906652759E+04  0.25500000920E-02 0.  1.
</event>
<event>
 5   0  0.2345471E-07  0.3624714E+04  0.7818609E-02  0.8084854E-01
        1   -1    0    0  501    0  0.00000000000E+00  0.00000000000E+00  0.17658009208E+04  0.17658009208E+04  0.50400001928E-02 0. -1.
       -1   -1    0    0    0  501  0.00000000000E+00  0.00000000000E+00 -0.18601400967E+04  0.18601400967E+04  0.50400001928E-02 0.  1.
    10030    2    1    2    0    0  0.00000000000E+00  0.00000000000E+00 -0.94339175913E+02  0.36259410175E+04  0.36247135586E+04 0.  0.
        5    1    3    3  502    0 -0.10860821473E+04 -0.10642257651E+04  0.93930029508E+03  0.17873046870E+04  0.46999998093E+01 0. -1.
       -5    1    3    3    0  502  0.10860821473E+04  0.10642257651E+04 -0.10336394710E+04  0.18386363305E+04  0.46999998093E+01 0.  1.
</event>
<event>
 5   0  0.2287500E-07  0.3669966E+04  0.7818609E-02  0.8074651E-01
       -1   -1    0    0    0  501  0.00000000000E+00  0.00000000000E+00  0.13746905926E+04  0.13746905927E+04  0.50400001928E-02 0.  1.
        1   -1    0    0  501    0  0.00000000000E+00  0.00000000000E+00 -0.24493960900E+04  0.24493960900E+04  0.50400001928E-02 0. -1.
    10030    2    1    2    0    0  0.00000000000E+00  0.00000000000E+00 -0.10747054974E+04  0.38240866827E+04  0.36699655380E+04 0.  0.
        3    1    3    3  502    0 -0.32949707492E+03 -0.16832377660E+04 -0.12168934949E+04  0.21030186607E+04  0.10100000352E+00 0. -1.
       -3    1    3    3    0  502  0.32949707492E+03  0.16832377660E+04  0.14218799750E+03  0.17210680219E+04  0.10100000352E+00 0.  1.
</event>
<event>
 5   0  0.6939921E-07  0.3255096E+04  0.7818609E-02  0.8174416E-01
        2   -1    0    0  501    0  0.00000000000E+00  0.00000000000E+00  0.17858509958E+04  0.17858509958E+04  0.25500000920E-02 0. -1.
       -2   -1    0    0    0  501  0.00000000000E+00  0.00000000000E+00 -0.14832770698E+04  0.14832770698E+04  0.25500000920E-02 0.  1.
    10030    2    1    2    0    0  0.00000000000E+00  0.00000000000E+00  0.30257392596E+03  0.32691280657E+04  0.32550955944E+04 0.  0.
        4    1    3    3  502    0  0.10716167037E+04 -0.15302743522E+03  0.13718989040E+04  0.17475376881E+04  0.12699999809E+01 0. -1.
       -4    1    3    3    0  502 -0.10716167037E+04  0.15302743522E+03 -0.10693249780E+04  0.15215903776E+04  0.12699999809E+01 0.  1.
</event>
<event>
 5   0  0.2411746E-07  0.3683609E+04  0.7818609E-02  0.8071604E-01
        1   -1    0    0  501    0  0.00000000000E+00  0.00000000000E+00  0.27815717568E+04  0.27815717568E+04  0.50400001928E-02 0.  1.
       -1   -1    0    0    0  501  0.00000000000E+00  0.00000000000E+00 -0.12195421887E+04  0.12195421887E+04  0.50400001928E-02 0. -1.
    10030    2    1    2    0    0  0.00000000000E+00  0.00000000000E+00  0.15620295680E+04  0.40011139455E+04  0.36836091586E+04 0.  0.
        1    1    3    3  502    0 -0.52625414897E+03  0.12174553089E+04  0.21690938259E+04  0.25424611863E+04  0.50400001928E-02 0.  1.
       -1    1    3    3    0  502  0.52625414897E+03 -0.12174553089E+04 -0.60706425784E+03  0.14586527591E+04  0.50400001928E-02 0. -1.
</event>
<event>
 5   0  0.6949625E-07  0.3265185E+04  0.7818609E-02  0.8171811E-01
       -2   -1    0    0    0  501  0.00000000000E+00  0.00000000000E+00  0.25202368412E+04  0.25202368412E+04  0.25500000920E-02 0. -1.
        2   -1    0    0  501    0  0.00000000000E+00  0.00000000000E+00 -0.10575827546E+04  0.10575827547E+04  0.25500000920E-02 0.  1.
    10030    2    1    2    0    0  0.00000000000E+00  0.00000000000E+00  0.14626540865E+04  0.35778195958E+04  0.32651854593E+04 0.  0.
        5    1    3    3  502    0  0.10210190844E+04 -0.12293480976E+04  0.36534038320E+03  0.16392902127E+04  0.46999998093E+01 0.  1.
       -5    1    3    3    0  502 -0.10210190844E+04  0.12293480976E+04  0.10973137033E+04  0.19385293831E+04  0.46999998093E+01 0. -1.
</event>
<event>
 5   0  0.6949625E-07  0.3699351E+04  0.7818609E-02  0.8068106E-01
        2   -1    0    0  501    0  0.00000000000E+00  0.00000000000E+00  0.22879165469E+04  0.22879165469E+04  0.25500000920E-02 0. -1.
       -2   -1    0    0    0  501  0.00000000000E+00  0.00000000000E+00 -0.14953779658E+04  0.14953779658E+04  0.25500000920E-02 0.  1.
    10030    2    1    2    0    0  0.00000000000E+00  0.00000000000E+00  0.79253858112E+03  0.37832945126E+04  0.36993512900E+04 0.  0.
        5    1    3    3  502    0 -0.38798905862E+03 -0.18079958782E+04  0.35176991779E+03  0.18823253625E+04  0.46999998093E+01 0.  1.
       -5    1    3    3    0  502  0.38798905862E+03  0.18079958782E+04  0.44076866333E+03  0.19009691501E+04  0.46999998093E+01 0. -1.
</event>
<event>
 5   0  0.6949625E-07  0.3767405E+04  0.7818609E-02  0.8053186E-01
       -2   -1    0    0    0  501  0.00000000000E+00  0.00000000000E+00  0.16076513935E+04  0.16076513935E+04  0.25500000920E-02 0.  1.
        2   -1    0    0  501    0  0.00000000000E+00  0.00000000000E+00 -0.22071551390E+04  0.22071551390E+04  0.25500000920E-02 0. -1.
    10030    2    1    2    0    0  0.00000000000E+00  0.00000000000E+00 -0.59950374546E+03  0.38148065325E+04  0.37674054918E+04 0.  0.
        5    1    3    3  502    0  0.11521953050E+04  0.13486484645E+04 -0.94168984730E+03  0.20082849799E+04  0.46999998093E+01 0. -1.
       -5    1    3    3    0  502 -0.11521953050E+04 -0.13486484645E+04  0.34218610183E+03  0.18065215526E+04  0.46999998093E+01 0.  1.
</event>
<event>
 5   0  0.7124627E-07  0.3620130E+04  0.7818609E-02  0.8085896E-01
       -2   -1    0    0    0  501  0.00000000000E+00  0.00000000000E+00  0.21610104337E+04  0.21610104337E+04  0.25500000920E-02 0. -1.
        2   -1    0    0  501    0  0.00000000000E+00  0.00000000000E+00 -0.15161126775E+04  0.15161126775E+04  0.25500000920E-02 0.  1.
    10030    2    1    2    0    0  0.00000000000E+00  0.00000000000E+00  0.64489775618E+03  0.36771231112E+04  0.36201300058E+04 0.  0.
        2    1    3    3  502    0 -0.70086562973E+03  0.10850820197E+04 -0.96547195762E+03  0.16126846317E+04  0.25500000920E-02 0.  1.
       -2    1    3    3    0  502  0.70086562973E+03 -0.10850820197E+04  0.16103697138E+04  0.20644384795E+04  0.25500000920E-02 0. -1.
</event>
<event>
 5   0  0.2287500E-07  0.3626781E+04  0.7818609E-02  0.8084385E-01
        1   -1    0    0  501    0  0.00000000000E+00  0.00000000000E+00  0.21211852953E+04  0.21211852953E+04  0.50400001928E-02 0. -1.
       -1   -1    0    0    0  501  0.00000000000E+00  0.00000000000E+00 -0.15502583509E+04  0.15502583509E+04  0.50400001928E-02 0.  1.
    10030    2    1    2    0    0  0.00000000000E+00  0.00000000000E+00  0.57092694439E+03  0.36714436462E+04  0.36267810620E+04 0.  0.
        4    1    3    3  502    0  0.13548434258E+04 -0.33116231168E+03  0.14586634149E+04  0.20181599927E+04  0.12699999809E+01 0. -1.
       -4    1    3    3    0  502 -0.13548434258E+04  0.33116231168E+03 -0.88773647049E+03  0.16532836535E+04  0.12699999809E+01 0.  1.
</event>
<event>
 5   0  0.7300916E-07  0.4092998E+04  0.7818609E-02  0.7986044E-01
        2   -1    0    0  501    0  0.00000000000E+00  0.00000000000E+00  0.17977833681E+04  0.17977833681E+04  0.25500000920E-02 0. -1.
       -2   -1    0    0    0  501  0.00000000000E+00  0.00000000000E+00 -0.23296237786E+04  0.23296237786E+04  0.25500000920E-02 0.  1.
    10030    2    1    2    0    0  0.00000000000E+00  0.00000000000E+00 -0.53184041052E+03  0.41274071466E+04  0.40929983547E+04 0.  0.
        1    1    3    3  502    0 -0.47478631169E+02  0.16630547530E+04  0.93580008433E+03  0.19088549264E+04  0.50400001928E-02 0. -1.
       -1    1    3    3    0  502  0.47478631169E+02 -0.16630547530E+04 -0.14676404949E+04  0.22185522203E+04  0.50400001928E-02 0.  1.
</event>
<event>
 5   0  0.6949625E-07  0.3698909E+04  0.7818609E-02  0.8068204E-01
       -2   -1    0    0    0  501  0.00000000000E+00  0.00000000000E+00  0.14955158610E+04  0.14955158610E+04  0.25500000920E-02 0. -1.
        2   -1    0    0  501    0  0.00000000000E+00  0.00000000000E+00 -0.22871581151E+04  0.22871581151E+04  0.25500000920E-02 0.  1.
    10030    2    1    2    0    0  0.00000000000E+00  0.00000000000E+00 -0.79164225413E+03  0.37826739761E+04  0.36989086162E+04 0.  0.
        5    1    3    3  502    0  0.14896632279E+03 -0.16410170825E+04 -0.12546800495E+04  0.20710799471E+04  0.46999998093E+01 0. -1.
       -5    1    3    3    0  502 -0.14896632279E+03  0.16410170825E+04  0.46303779539E+03  0.17115940291E+04  0.46999998093E+01 0.  1.
</event>
<event>
 5   0  0.6939921E-07  0.3749081E+04  0.7818609E-02  0.8057171E-01
       -2   -1    0    0    0  501  0.00000000000E+00  0.00000000000E+00  0.16569345809E+04  0.16569345809E+04  0.25500000920E-02 0. -1.
        2   -1    0    0  501    0  0.00000000000E+00  0.00000000000E+00 -0.21207249880E+04  0.21207249880E+04  0.25500000920E-02 0.  1.
    10030    2    1    2    0    0  0.00000000000E+00  0.00000000000E+00 -0.46379040713E+03  0.37776595688E+04  0.37490812576E+04 0.  0.
        4    1    3    3  502    0  0.12552612431E+04  0.43535596809E+03  0.11005636299E+04  0.17252412944E+04  0.12699999809E+01 0. -1.
       -4    1    3    3    0  502 -0.12552612431E+04 -0.43535596809E+03 -0.15643540370E+04  0.20524182745E+04  0.12699999809E+01 0.  1.
</event>
<event>
 5   0  0.7074157E-07  0.3713076E+04  0.7818609E-02  0.8065070E-01
       -2   -1    0    0    0  501  0.00000000000E+00  0.00000000000E+00  0.17191531107E+04  0.17191531107E+04  0.25500000920E-02 0. -1.
        2   -1    0    0  501    0  0.00000000000E+00  0.00000000000E+00 -0.20049015054E+04  0.20049015054E+04  0.25500000920E-02 0.  1.
    10030    2    1    2    0    0  0.00000000000E+00  0.00000000000E+00 -0.28574839470E+03  0.37240546162E+04  0.37130756307E+04 0.  0.
        3    1    3    3  502    0 -0.97538374037E+03  0.85308783572E+02 -0.17249036256E+04  0.19834171415E+04  0.10100000352E+00 0.  1.
       -3    1    3    3    0  502  0.97538374037E+03 -0.85308783572E+02  0.14391552309E+04  0.17406374747E+04  0.10100000352E+00 0. -1.
</event>
<event>
 5   0  0.6949625E-07  0.3723169E+04  0.7818609E-02  0.8062847E-01
        2   -1    0    0  501    0  0.00000000000E+00  0.00000000000E+00  0.13493887493E+04  0.13493887493E+04  0.25500000920E-02 0. -1.
       -2   -1    0    0    0  501  0.00000000000E+00  0.00000000000E+00 -0.25681980487E+04  0.25681980487E+04  0.25500000920E-02 0.  1.
    10030    2    1    2    0    0  0.00000000000E+00  0.00000000000E+00 -0.12188092993E+04  0.39175867980E+04  0.37231693773E+04 0.  0.
        5    1    3    3  502    0  0.12764874639E+04 -0.10679735167E+04  0.26810234503E+03  0.16857902109E+04  0.46999998093E+01 0. -1.
       -5    1    3    3    0  502 -0.12764874639E+04  0.10679735167E+04 -0.14869116444E+04  0.22317965871E+04  0.46999998093E+01 0.  1.
</event>
<event>
 5   0  0.2287500E-07  0.3113450E+04  0.7818609E-02  0.8212056E-01
       -1   -1    0    0    0  501  0.00000000000E+00  0.00000000000E+00  0.19199665727E+04  0.19199665727E+04  0.50400001928E-02 0. -1.
        1   -1    0    0  501    0  0.00000000000E+00  0.00000000000E+00 -0.12622055746E+04  0.12622055746E+04  0.50400001928E-02 0.  1.
    10030    2    1    2    0    0  0.00000000000E+00  0.00000000000E+00  0.65776099808E+03  0.31821721473E+04  0.31134498622E+04 0.  0.
        4    1    3    3  502    0  0.45207037305E+02 -0.11219612710E+04 -0.77313483609E+03  0.13632974208E+04  0.12699999809E+01 0.  1.
       -4    1    3    3    0  502 -0.45207037305E+02  0.11219612710E+04  0.14308958342E+04  0.18188747266E+04  0.12699999809E+01 0. -1.
</event>
<event>
 5   0  0.2287500E-07  0.3714209E+04  0.7818609E-02  0.8064820E-01
        1   -1    0    0  501    0  0.00000000000E+00  0.00000000000E+00  0.26170519193E+04  0.26170519193E+04  0.50400001928E-02 0.  1.
       -1   -1    0    0    0  501  0.00000000000E+00  0.00000000000E+00 -0.13178329539E+04  0.13178329539E+04  0.50400001928E-02 0. -1.
    10030    2    1    2    0    0  0.00000000000E+00  0.00000000000E+00  0.12992189653E+04  0.39348848732E+04  0.37142090740E+04 0.  0.
        3    1    3    3  502    0  0.94341246702E+03  0.72321686591E+03 -0.86196577860E+03  0.14683510247E+04  0.10100000352E+00 0. -1.
       -3    1    3    3    0  502 -0.94341246702E+03 -0.72321686591E+03  0.21611847439E+04  0.24665338485E+04  0.10100000352E+00 0.  1.
</event>
<event>
 5   0  0.2345471E-07  0.3692519E+04  0.7818609E-02  0.8069622E-01
        1   -1    0    0  501    0  0.00000000000E+00  0.00000000000E+00  0.22124752620E+04  0.22124752620E+04  0.50400001928E-02 0.  1.
       -1   -1    0    0    0  501  0.00000000000E+00  0.00000000000E+00 -0.15406605001E+04  0.15406605001E+04  0.50400001928E-02 0. -1.
    10030    2    1    2    0    0  0.00000000000E+00  0.00000000000E+00  0.67181476191E+03  0.37531357621E+04  0.36925185138E+04 0.  0.
        5    1    3    3  502    0  0.51458636066E+03 -0.17450911872E+04  0.16893880921E+02  0.18194641704E+04  0.46999998093E+01 0. -1.
       -5    1    3    3    0  502 -0.51458636066E+03  0.17450911872E+04  0.65492088099E+03  0.19336715917E+04  0.46999998093E+01 0.  1.
</event>
<event>
 5   0  0.7300916E-07  0.3528880E+04  0.7818609E-02  0.8106980E-01
        2   -1    0    0  501    0  0.00000000000E+00  0.00000000000E+00  0.23602630688E+04  0.23602630688E+04  0.25500000920E-02 0.  1.
       -2   -1    0    0    0  501  0.00000000000E+00  0.00000000000E+00 -0.13190262671E+04  0.13190262671E+04  0.25500000920E-02 0. -1.
    10030    2    1    2    0    0  0.00000000000E+00  0.00000000000E+00  0.10412368017E+04  0.36792893359E+04  0.35288802671E+04 0.  0.
        1    1    3    3  502    0 -0.55310005768E+03 -0.30740873500E+03 -0.11966502530E+04  0.13536586099E+04  0.50400001928E-02 0. -1.
       -1    1    3    3    0  502  0.55310005768E+03  0.30740873500E+03  0.22378870547E+04  0.23256307260E+04  0.50400001928E-02 0.  1.
</event>
<event>
 5   0  0.6949625E-07  0.3681864E+04  0.7818609E-02  0.8071993E-01
       -2   -1    0    0    0  501  0.00000000000E+00  0.00000000000E+00  0.18320837587E+04  0.18320837587E+04  0.25500000920E-02 0. -1.
        2   -1    0    0  501    0  0.00000000000E+00  0.00000000000E+00 -0.18498228349E+04  0.18498228349E+04  0.25500000920E-02 0.  1.
    10030    2    1    2    0    0  0.00000000000E+00  0.00000000000E+00 -0.17739076234E+02  0.36819065936E+04  0.36818638607E+04 0.  0.
        5    1    3    3  502    0 -0.14159615956E+04  0.11445976587E+04 -0.28082350210E+03  0.18422635451E+04  0.46999998093E+01 0.  1.
       -5    1    3    3    0  502  0.14159615956E+04 -0.11445976587E+04  0.26308442586E+03  0.18396430484E+04  0.46999998093E+01 0. -1.
</event>
<event>
 5   0  0.2345471E-07  0.3628720E+04  0.7818609E-02  0.8083945E-01
       -1   -1    0    0    0  501  0.00000000000E+00  0.00000000000E+00  0.11969733840E+04  0.11969733840E+04  0.50400001928E-02 0. -1.
        1   -1    0    0  501    0  0.00000000000E+00  0.00000000000E+00 -0.27501880921E+04  0.27501880921E+04  0.50400001928E-02 0.  1.
    10030    2    1    2    0    0  0.00000000000E+00  0.00000000000E+00 -0.15532147081E+04  0.39471614761E+04  0.36287198554E+04 0.  0.
        5    1    3    3  502    0 -0.11504348213E+04  0.13039995510E+04 -0.21352711501E+03  0.17520077128E+04  0.46999998093E+01 0.  1.
       -5    1    3    3    0  502  0.11504348213E+04 -0.13039995510E+04 -0.13396875931E+04  0.21951537632E+04  0.46999998093E+01 0. -1.
</event>
<event>
 5   0  0.2411746E-07  0.3665506E+04  0.7818609E-02  0.8075649E-01
       -1   -1    0    0    0  501  0.00000000000E+00  0.00000000000E+00  0.12018475474E+04  0.12018475475E+04  0.50400001928E-02 0.  1.
        1   -1    0    0  501    0  0.00000000000E+00  0.00000000000E+00 -0.27948501743E+04  0.27948501743E+04  0.50400001928E-02 0. -1.
    10030    2    1    2    0    0  0.00000000000E+00  0.00000000000E+00 -0.15930026268E+04  0.39966977217E+04  0.36655061465E+04 0.  0.
        1    1    3    3  502    0  0.11924917596E+04 -0.10220493384E+04 -0.18265030990E+04  0.24088866759E+04  0.50400001928E-02 0. -1.
       -1    1    3    3    0  502 -0.11924917596E+04  0.10220493384E+04  0.23350047219E+03  0.15878110458E+04  0.50400001928E-02 0.  1.
</event>
<event>
 5   0  0.7124627E-07  0.3732680E+04  0.7818609E-02  0.8060758E-01
        2   -1    0    0  501    0  0.00000000000E+00  0.00000000000E+00  0.22901617408E+04  0.22901617408E+04  0.25500000920E-02 0. -1.
       -2   -1    0    0    0  501  0.00000000000E+00  0.00000000000E+00 -0.15209512827E+04  0.15209512827E+04  0.25500000920E-02 0.  1.
    10030    2    1    2    0    0  0.00000000000E+00  0.00000000000E+00  0.76921045815E+03  0.38111130235E+04  0.37326797009E+04 0.  0.
        2    1    3    3  502    0  0.63745109676E+03  0.42924724687E+03  0.21211154614E+04  0.22560425307E+04  0.25500000920E-02 0. -1.
       -2    1    3    3    0  502 -0.63745109676E+03 -0.42924724687E+03 -0.13519050033E+04  0.15550704928E+04  0.25500000920E-02 0.  1.
</event>
<event>
 5   0  0.2411746E-07  0.3761921E+04  0.7818609E-02  0.8054376E-01
       -1   -1    0    0    0  501  0.00000000000E+00  0.00000000000E+00  0.13441818038E+04  0.13441818038E+04  0.50400001928E-02 0.  1.
        1   -1    0    0  501    0  0.00000000000E+00  0.00000000000E+00 -0.26320935474E+04  0.26320935474E+04  0.50400001928E-02 0. -1.
    10030    2    1    2    0    0  0.00000000000E+00  0.00000000000E+00 -0.12879117436E+04  0.39762753512E+04  0.37619209201E+04 0.  0.
        1    1    3    3  502    0 -0.10462708658E+04  0.16451321562E+03 -0.22869615498E+04  0.25203056269E+04  0.50400001928E-02 0. -1.
       -1    1    3    3    0  502  0.10462708658E+04 -0.16451321562E+03  0.99904980620E+03  0.14559697243E+04  0.50400001928E-02 0.  1.
</event>
<event>
 5   0  0.6939921E-07  0.3670314E+04  0.7818609E-02  0.8074573E-01
        2   -1    0    0  501    0  0.00000000000E+00  0.00000000000E+00  0.30651913527E+04  0.30651913527E+04  0.25500000920E-02 0. -1.
       -2   -1    0    0    0  501  0.00000000000E+00  0.00000000000E+00 -0.10987247643E+04  0.10987247643E+04  0.25500000920E-02 0.  1.
    10030    2    1    2    0    0  0.00000000000E+00  0.00000000000E+00  0.19664665885E+04  0.41639161170E+04  0.36703142353E+04 0.  0.
        4    1    3    3  502    0  0.36958754914E+03  0.17528556149E+04  0.14351831931E+04  0.22953976069E+04  0.12699999809E+01 0. -1.
       -4    1    3    3    0  502 -0.36958754914E+03 -0.17528556149E+04  0.53128339537E+03  0.18685185100E+04  0.12699999809E+01 0.  1.
</event>
<event>
 5   0  0.7300916E-07  0.3555585E+04  0.7818609E-02  0.8100742E-01
       -2   -1    0    0    0  501  0.00000000000E+00  0.00000000000E+00  0.10986737880E+04  0.10986737880E+04  0.25500000920E-02 0. -1.
        2   -1    0    0  501    0  0.00000000000E+00  0.00000000000E+00 -0.28766925998E+04  0.28766925998E+04  0.25500000920E-02 0.  1.
    10030    2    1    2    0    0  0.00000000000E+00  0.00000000000E+00 -0.17780188118E+04  0.39753663878E+04  0.35555853276E+04 0.  0.
        1    1    3    3  502    0  0.16402210148E+04 -0.68570979292E+03 -0.89447055112E+03  0.19901257408E+04  0.50400001928E-02 0. -1.
       -1    1    3    3    0  502 -0.16402210148E+04  0.68570979292E+03 -0.88354826071E+03  0.19852406470E+04  0.50400001928E-02 0.  1.
</event>
<event>
 5   0  0.6949625E-07  0.3692716E+04  0.7818609E-02  0.8069578E-01
        2   -1    0    0  501    0  0.00000000000E+00  0.00000000000E+00  0.23316159515E+04  0.23316159515E+04  0.25500000920E-02 0.  1.
       -2   -1    0    0    0  501  0.00000000000E+00  0.00000000000E+00 -0.14620924788E+04  0.14620924788E+04  0.25500000920E-02 0. -1.
    10030    2    1    2    0    0  0.00000000000E+00  0.00000000000E+00  0.86952347270E+03  0.37937084303E+04  0.36927161527E+04 0.  0.
        5    1    3    3  502    0 -0.10167857923E+04 -0.11737350028E+04 -0.59130687605E+03  0.16616778015E+04  0.46999998093E+01 0. -1.
       -5    1    3    3    0  502  0.10167857923E+04  0.11737350028E+04  0.14608303487E+04  0.21320306288E+04  0.46999998093E+01 0.  1.
</event>
<event>
 5   0  0.2411746E-07  0.3555739E+04  0.7818609E-02  0.8100706E-01
        1   -1    0    0  501    0  0.00000000000E+00  0.00000000000E+00  0.13114757088E+04  0.13114757089E+04  0.50400001928E-02 0. -1.
       -1   -1    0    0    0  501  0.00000000000E+00  0.00000000000E+00 -0.24101248363E+04  0.24101248363E+04  0.50400001928E-02 0.  1.
    10030    2    1    2    0    0  0.00000000000E+00  0.00000000000E+00 -0.10986491274E+04  0.37216005451E+04  0.35557391232E+04 0.  0.
        1    1    3    3  502    0  0.15297335967E+04  0.67359722015E+03  0.84740950142E+02  0.16736185708E+04  0.50400001928E-02 0. -1.
       -1    1    3    3    0  502 -0.15297335967E+04 -0.67359722015E+03 -0.11833900776E+04  0.20479819744E+04  0.50400001928E-02 0.  1.
</event>
<event>
 5   0  0.2287500E-07  0.3616669E+04  0.7818609E-02  0.8086684E-01
       -3   -1    0    0    0  501  0.00000000000E+00  0.00000000000E+00  0.11079824641E+04  0.11079824687E+04  0.10100000352E+00 0.  1.
        3   -1    0    0  501    0  0.00000000000E+00  0.00000000000E+00 -0.29513759594E+04  0.29513759611E+04  0.10100000352E+00 0. -1.
    10030    2    1    2    0    0  0.00000000000E+00  0.00000000000E+00 -0.18433934953E+04  0.40593584299E+04  0.36166685338E+04 0.  0.
        3    1    3    3  502    0  0.17123375670E+04 -0.47891507469E+03 -0.12916016050E+04  0.21976565492E+04  0.10100000352E+00 0.  1.
       -3    1    3    3    0  502 -0.17123375670E+04  0.47891507469E+03 -0.55179189025E+03  0.18617018806E+04  0.10100000352E+00 0. -1.
</event>
<event>
 5   0  0.6939921E-07  0.3770922E+04  0.7818609E-02  0.8052424E-01
        2   -1    0    0  501    0  0.00000000000E+00  0.00000000000E+00  0.17265809897E+04  0.17265809897E+04  0.25500000920E-02 0. -1.
       -2   -1    0    0    0  501  0.00000000000E+00  0.00000000000E+00 -0.20589614136E+04  0.20589614136E+04  0.25500000920E-02 0.  1.
    10030    2    1    2    0    0  0.00000000000E+00  0.00000000000E+00 -0.33238042392E+03  0.37855424033E+04  0.37709222401E+04 0.  0.
        4    1    3    3  502    0  0.14179252962E+04  0.12282503605E+04 -0.35626772556E+03  0.19094604994E+04  0.12699999809E+01 0. -1.
       -4    1    3    3    0  502 -0.14179252962E+04 -0.12282503605E+04  0.23887301639E+02  0.18760819038E+04  0.12699999809E+01 0.  1.
</event>
<event>
 5   0  0.2287500E-07  0.3628937E+04  0.7818609E-02  0.8083895E-01
        1   -1    0    0  501    0  0.00000000000E+00  0.00000000000E+00  0.25283993739E+04  0.25283993739E+04  0.50400001928E-02 0. -1.
       -1   -1    0    0    0  501  0.00000000000E+00  0.00000000000E+00 -0.13021262688E+04  0.13021262688E+04  0.50400001928E-02 0.  1.
    10030    2    1    2    0    0  0.00000000000E+00  0.00000000000E+00  0.12262731051E+04  0.38305256427E+04  0.36289366171E+04 0.  0.
        4    1    3    3  502    0 -0.62261426923E+03  0.16792766515E+04  0.30598220333E+03  0.18169329437E+04  0.12699999809E+01 0.  1.
       -4    1    3    3    0  502  0.62261426923E+03 -0.16792766515E+04  0.92029090181E+03  0.20135926990E+04  0.12699999809E+01 0. -1.
</event>
<event>
 5   0  0.6939921E-07  0.3706084E+04  0.7818609E-02  0.8066615E-01
       -2   -1    0    0    0  501  0.00000000000E+00  0.00000000000E+00  0.23186324522E+04  0.23186324522E+04  0.25500000920E-02 0. -1.
        2   -1    0    0  501    0  0.00000000000E+00  0.00000000000E+00 -0.14809436764E+04  0.14809436764E+04  0.25500000920E-02 0.  1.
    10030    2    1    2    0    0  0.00000000000E+00  0.00000000000E+00  0.83768877584E+03  0.37995761286E+04  0.37060836838E+04 0.  0.
        4    1    3    3  502    0 -0.15570728102E+04  0.24633215926E+03 -0.57969024878E+03  0.16796421245E+04  0.12699999809E+01 0.  1.
       -4    1    3    3    0  502  0.15570728102E+04 -0.24633215926E+03  0.14173790246E+04  0.21199340040E+04  0.12699999809E+01 0. -1.
</event>
<event>
 5   0  0.2287500E-07  0.3690581E+04  0.7818609E-02  0.8070052E-01
        1   -1    0    0  501    0  0.00000000000E+00  0.00000000000E+00  0.17704848412E+04  0.17704848412E+04  0.50400001928E-02 0.  1.
       -1   -1    0    0    0  501  0.00000000000E+00  0.00000000000E+00 -0.19232564637E+04  0.19232564637E+04  0.50400001928E-02 0. -1.
    10030    2    1    2    0    0  0.00000000000E+00  0.00000000000E+00 -0.15277162250E+03  0.36937413049E+04  0.36905806669E+04 0.  0.
        2    1    3    3  502    0  0.28086928593E+03  0.13437228516E+04 -0.13105751835E+04  0.18979162177E+04  0.25500000920E-02 0. -1.
       -2    1    3    3    0  502 -0.28086928593E+03 -0.13437228516E+04  0.11578035610E+04  0.17958250872E+04  0.25500000920E-02 0.  1.
</event>
<event>
 5   0  0.7300916E-07  0.3191645E+04  0.7818609E-02  0.8191027E-01
       -2   -1    0    0    0  501  0.00000000000E+00  0.00000000000E+00  0.15543748128E+04  0.15543748128E+04  0.25500000920E-02 0.  1.
        2   -1    0    0  501    0  0.00000000000E+00  0.00000000000E+00 -0.16383751729E+04  0.16383751729E+04  0.25500000920E-02 0. -1.
    10030    2    1    2    0    0  0.00000000000E+00  0.00000000000E+00 -0.84000360166E+02  0.31927499857E+04  0.31916447814E+04 0.  0.
        1    1    3    3  502    0  0.69118528554E+03 -0.13444499677E+04  0.46941680388E+03  0.15829197549E+04  0.50400001928E-02 0.  1.
       -1    1    3    3    0  502 -0.69118528554E+03  0.13444499677E+04 -0.55341716404E+03  0.16098302308E+04  0.50400001928E-02 0. -1.
</event>
<event>
 5   0  0.2287500E-07  0.3222380E+04  0.7818609E-02  0.8182931E-01
       -1   -1    0    0    0  501  0.00000000000E+00  0.00000000000E+00  0.22089302294E+04  0.22089302294E+04  0.50400001928E-02 0. -1.
        1   -1    0    0  501    0  0.00000000000E+00  0.00000000000E+00 -0.11751995064E+04  0.11751995064E+04  0.50400001928E-02 0.  1.
    10030    2    1    2    0    0  0.00000000000E+00  0.00000000000E+00  0.10337307230E+04  0.33841297358E+04  0.32223803098E+04 0.  0.
        3    1    3    3  502    0 -0.26529736752E+03 -0.12966874801E+04 -0.44803104220E+03  0.13973234912E+04  0.10100000352E+00 0.  1.
       -3    1    3    3    0  502  0.26529736752E+03  0.12966874801E+04  0.14817617652E+04  0.19868062445E+04  0.10100000352E+00 0. -1.
</event>
<event>
 5   0  0.2411746E-07  0.2854502E+04  0.7818609E-02  0.8286545E-01
        1   -1    0    0  501    0  0.00000000000E+00  0.00000000000E+00  0.14139736502E+04  0.14139736502E+04  0.50400001928E-02 0.  1.
       -1   -1    0    0    0  501  0.00000000000E+00  0.00000000000E+00 -0.14406525750E+04  0.14406525750E+04  0.50400001928E-02 0. -1.
    10030    2    1    2    0    0  0.00000000000E+00  0.00000000000E+00 -0.26678924797E+02  0.28546262252E+04  0.28545015538E+04 0.  0.
        1    1    3    3  502    0  0.38457257566E+02 -0.33945036879E+03 -0.13991630491E+04  0.14402648199E+04  0.50400001928E-02 0. -1.
       -1    1    3    3    0  502 -0.38457257566E+02  0.33945036879E+03  0.13724841243E+04  0.14143614053E+04  0.50400001928E-02 0.  1.
</event>
<event>
 5   0  0.2287500E-07  0.3676501E+04  0.7818609E-02  0.8073190E-01
       -1   -1    0    0    0  501  0.00000000000E+00  0.00000000000E+00  0.16510364654E+04  0.16510364654E+04  0.50400001928E-02 0. -1.
        1   -1    0    0  501    0  0.00000000000E+00  0.00000000000E+00 -0.20466929334E+04  0.20466929334E+04  0.50400001928E-02 0.  1.
    10030    2    1    2    0    0  0.00000000000E+00  0.00000000000E+00 -0.39565646802E+03  0.36977293988E+04  0.36765008726E+04 0.  0.
        3    1    3    3  502    0 -0.11551234411E+04 -0.45235610091E+03 -0.15622113081E+04  0.19948534752E+04  0.10100000352E+00 0.  1.
       -3    1    3    3    0  502  0.11551234411E+04  0.45235610091E+03  0.11665548400E+04  0.17028759236E+04  0.10100000352E+00 0. -1.
</event>
<event>
 5   0  0.7074157E-07  0.3686579E+04  0.7818609E-02  0.8070943E-01
        2   -1    0    0  501    0  0.00000000000E+00  0.00000000000E+00  0.16750133783E+04  0.16750133783E+04  0.25500000920E-02 0. -1.
       -2   -1    0    0    0  501  0.00000000000E+00  0.00000000000E+00 -0.20284707319E+04  0.20284707319E+04  0.25500000920E-02 0.  1.
    10030    2    1    2    0    0  0.00000000000E+00  0.00000000000E+00 -0.35345735358E+03  0.37034841103E+04  0.36865786923E+04 0.  0.
        3    1    3    3  502    0  0.89865918346E+03 -0.11533466804E+04  0.95087956044E+03  0.17441240901E+04  0.10100000352E+00 0. -1.
       -3    1    3    3    0  502 -0.89865918346E+03  0.11533466804E+04 -0.13043369140E+04  0.19593600202E+04  0.10100000352E+00 0.  1.
</event>
<event>
 5   0  0.7124627E-07  0.3458454E+04  0.7818609E-02  0.8123707E-01
       -2   -1    0    0    0  501  0.00000000000E+00  0.00000000000E+00  0.10837029632E+04  0.10837029632E+04  0.25500000920E-02 0.  1.
        2   -1    0    0  501    0  0.00000000000E+00  0.00000000000E+00 -0.27592670495E+04  0.27592670495E+04  0.25500000920E-02 0. -1.
    10030    2    1    2    0    0  0.00000000000E+00  0.00000000000E+00 -0.16755640864E+04  0.38429700127E+04  0.34584539191E+04 0.  0.
        2    1    3    3  502    0 -0.15250911181E+04 -0.49508161858E+02  0.66225333297E+02  0.15273309305E+04  0.25500000920E-02 0.  1.
       -2    1    3    3    0  502  0.15250911181E+04  0.49508161858E+02 -0.17417894197E+04  0.23156390822E+04  0.25500000920E-02 0. -1.
</event>
<event>
 5   0  0.2287500E-07  0.3683113E+04  0.7818609E-02  0.8071715E-01
       -1   -1    0    0    0  501  0.00000000000E+00  0.00000000000E+00  0.17151195215E+04  0.17151195215E+04  0.50400001928E-02 0.  1.
        1   -1    0    0  501    0  0.00000000000E+00  0.00000000000E+00 -0.19773143127E+04  0.19773143127E+04  0.50400001928E-02 0. -1.
    10030    2    1    2    0    0  0.00000000000E+00  0.00000000000E+00 -0.26219479121E+03  0.36924338343E+04  0.36831130192E+04 0.  0.
        4    1    3    3  502    0  0.16510503489E+04 -0.11012242326E+03  0.67917725751E+03  0.17886803970E+04  0.12699999809E+01 0.  1.
       -4    1    3    3    0  502 -0.16510503489E+04  0.11012242326E+03 -0.94137204872E+03  0.19037534372E+04  0.12699999809E+01 0. -1.
</event>
<event>
 5   0  0.6939921E-07  0.3695379E+04  0.7818609E-02  0.8068987E-01
       -2   -1    0    0    0  501  0.00000000000E+00  0.00000000000E+00  0.15607767866E+04  0.15607767866E+04  0.25500000920E-02 0. -1.
        2   -1    0    0  501    0  0.00000000000E+00  0.00000000000E+00 -0.21873444993E+04  0.21873444993E+04  0.25500000920E-02 0.  1.
    10030    2    1    2    0    0  0.00000000000E+00  0.00000000000E+00 -0.62656771262E+03  0.37481212859E+04  0.36953790165E+04 0.  0.
        4    1    3    3  502    0  0.63822769546E+03  0.80805189055E+03 -0.18693485897E+04  0.21341856086E+04  0.12699999809E+01 0.  1.
       -4    1    3    3    0  502 -0.63822769546E+03 -0.80805189055E+03  0.12427808771E+04  0.16139356773E+04  0.12699999809E+01 0. -1.
</event>
<event>
 5   0  0.6949625E-07  0.3702773E+04  0.7818609E-02  0.8067348E-01
       -2   -1    0    0    0  501  0.00000000000E+00  0.00000000000E+00  0.14482652992E+04  0.14482652992E+04  0.25500000920E-02 0.  1.
        2   -1    0    0  501    0  0.00000000000E+00  0.00000000000E+00 -0.23667152373E+04  0.23667152373E+04  0.25500000920E-02 0. -1.
    10030    2    1    2    0    0  0.00000000000E+00  0.00000000000E+00 -0.91844993808E+03  0.38149805364E+04  0.37027727725E+04 0.  0.
        5    1    3    3  502    0 -0.32069509521E+03  0.23136048154E+03 -0.23226899384E+04  0.23561162230E+04  0.46999998093E+01 0. -1.
       -5    1    3    3    0  502  0.32069509521E+03 -0.23136048154E+03  0.14042400003E+04  0.14588643134E+04  0.46999998093E+01 0.  1.
</event>
<event>
 5   0  0.2287500E-07  0.3653400E+04  0.7818609E-02  0.8078368E-01
        1   -1    0    0  501    0  0.00000000000E+00  0.00000000000E+00  0.23627842048E+04  0.23627842049E+04  0.50400001928E-02 0. -1.
       -1   -1    0    0    0  501  0.00000000000E+00  0.00000000000E+00 -0.14122461547E+04  0.14122461547E+04  0.50400001928E-02 0.  1.
    10030    2    1    2    0    0  0.00000000000E+00  0.00000000000E+00  0.95053805017E+03  0.37750303595E+04  0.36534000097E+04 0.  0.
        4    1    3    3  502    0  0.10557236748E+04  0.96303571638E+03 -0.70052554087E+03  0.15914546537E+04  0.12699999809E+01 0.  1.
       -4    1    3    3    0  502 -0.10557236748E+04 -0.96303571638E+03  0.16510635910E+04  0.21835757058E+04  0.12699999809E+01 0. -1.
</event>
<event>
 5   0  0.6939921E-07  0.3750429E+04  0.7818609E-02  0.8056877E-01
        2   -1    0    0  501    0  0.00000000000E+00  0.00000000000E+00  0.18416295117E+04  0.18416295117E+04  0.25500000920E-02 0.  1.
       -2   -1    0    0    0  501  0.00000000000E+00  0.00000000000E+00 -0.19094121036E+04  0.19094121037E+04  0.25500000920E-02 0. -1.
    10030    2    1    2    0    0  0.00000000000E+00  0.00000000000E+00 -0.67782591995E+02  0.37510416153E+04  0.37504291381E+04 0.  0.
        4    1    3    3  502    0  0.94757515852E+03  0.13000417166E+04 -0.99759466537E+03  0.18929352538E+04  0.12699999809E+01 0. -1.
       -4    1    3    3    0  502 -0.94757515852E+03 -0.13000417166E+04  0.92981207337E+03  0.18581063615E+04  0.12699999809E+01 0.  1.
</event>
<event>
 5   0  0.2411746E-07  0.3609639E+04  0.7818609E-02  0.8088287E-01
       -1   -1    0    0    0  501  0.00000000000E+00  0.00000000000E+00  0.19257975155E+04  0.19257975156E+04  0.50400001928E-02 0.  1.
        1   -1    0    0  501    0  0.00000000000E+00  0.00000000000E+00 -0.16914411972E+04  0.16914411972E+04  0.50400001928E-02 0. -1.
    10030    2    1    2    0    0  0.00000000000E+00  0.00000000000E+00  0.23435631840E+03  0.36172387127E+04  0.36096389045E+04 0.  0.
        1    1    3    3  502    0  0.46489502507E+03 -0.12959043445E+04  0.12866303766E+04  0.18843866855E+04  0.50400001928E-02 0.  1.
       -1    1    3    3    0  502 -0.46489502507E+03  0.12959043445E+04 -0.10522740582E+04  0.17328520272E+04  0.50400001928E-02 0. -1.
</event>
<event>
 5   0  0.7300916E-07  0.3704119E+04  0.7818609E-02  0.8067050E-01
        2   -1    0    0  501    0  0.00000000000E+00  0.00000000000E+00  0.14823972693E+04  0.14823972693E+04  0.25500000920E-02 0.  1.
       -2   -1    0    0    0  501  0.00000000000E+00  0.00000000000E+00 -0.23139040181E+04  0.23139040181E+04  0.25500000920E-02 0. -1.
    10030    2    1    2    0    0  0.00000000000E+00  0.00000000000E+00 -0.83150674880E+03  0.37963012874E+04  0.37041193273E+04 0.  0.
        1    1    3    3  502    0  0.15453861438E+04  0.29291978202E+03 -0.14178934318E+04  0.21176501401E+04  0.50400001928E-02 0. -1.
       -1    1    3    3    0  502 -0.15453861438E+04 -0.29291978202E+03  0.58638668296E+03  0.16786511472E+04  0.50400001928E-02 0.  1.
</event>
<event>
 5   0  0.2287500E-07  0.3704728E+04  0.7818609E-02  0.8066915E-01
        1   -1    0    0  501    0  0.00000000000E+00  0.00000000000E+00  0.21019609617E+04  0.21019609617E+04  0.50400001928E-02 0. -1.
       -1   -1    0    0    0  501  0.00000000000E+00  0.00000000000E+00 -0.16324052437E+04  0.16324052437E+04  0.50400001928E-02 0.  1.
    10030    2    1    2    0    0  0.00000000000E+00  0.00000000000E+00  0.46955571808E+03  0.37343662054E+04  0.37047278420E+04 0.  0.
        4    1    3    3  502    0 -0.11664022082E+04  0.37917072261E+03  0.16340425244E+04  0.20431253346E+04  0.12699999809E+01 0. -1.
       -4    1    3    3    0  502  0.11664022082E+04 -0.37917072261E+03 -0.11644868064E+04  0.16912408708E+04  0.12699999809E+01 0.  1.
</event>
<event>
 5   0  0.7124627E-07  0.3706095E+04  0.7818609E-02  0.8066613E-01
        2   -1    0    0  501    0  0.00000000000E+00  0.00000000000E+00  0.12479221614E+04  0.12479221614E+04  0.25500000920E-02 0. -1.
       -2   -1    0    0    0  501  0.00000000000E+00  0.00000000000E+00 -0.27516014575E+04  0.27516014575E+04  0.25500000920E-02 0.  1.
    10030    2    1    2    0    0  0.00000000000E+00  0.00000000000E+00 -0.15036792962E+04  0.39995236189E+04  0.37060946767E+04 0.  0.
        2    1    3    3  502    0 -0.13121645250E+03  0.13685926545E+04  0.58891096129E+03  0.14956870434E+04  0.25500000920E-02 0.  1.
       -2    1    3    3    0  502  0.13121645250E+03 -0.13685926545E+04 -0.20925902575E+04  0.25038365755E+04  0.25500000920E-02 0. -1.
</event>
<event>
 5   0  0.7124627E-07  0.3740543E+04  0.7818609E-02  0.8059036E-01
        2   -1    0    0  501    0  0.00000000000E+00  0.00000000000E+00  0.11171000594E+04  0.11171000594E+04  0.25500000920E-02 0.  1.
       -2   -1    0    0    0  501  0.00000000000E+00  0.00000000000E+00 -0.31312461816E+04  0.31312461816E+04  0.25500000920E-02 0. -1.
    10030    2    1    2    0    0  0.00000000000E+00  0.00000000000E+00 -0.20141461221E+04  0.42483462410E+04  0.37405428994E+04 0.  0.
        2    1    3    3  502    0 -0.28427438962E+02  0.16559128819E+04 -0.19939793385E+04  0.25920665875E+04  0.25500000920E-02 0. -1.
       -2    1    3    3    0  502  0.28427438962E+02 -0.16559128819E+04 -0.20166783668E+02  0.16562796535E+04  0.25500000920E-02 0.  1.
</event>
<event>
 5   0  0.2287500E-07  0.2920232E+04  0.7818609E-02  0.8266883E-01
        1   -1    0    0  501    0  0.00000000000E+00  0.00000000000E+00  0.19944372865E+04  0.19944372865E+04  0.50400001928E-02 0.  1.
       -1   -1    0    0    0  501  0.00000000000E+00  0.00000000000E+00 -0.10689424102E+04  0.10689424102E+04  0.50400001928E-02 0. -1.
    10030    2    1    2    0    0  0.00000000000E+00  0.00000000000E+00  0.92549487630E+03  0.30633796967E+04  0.29202319087E+04 0.  0.
        4    1    3    3  502    0 -0.74431934624E+03 -0.46967443124E+03 -0.75940807672E+03  0.11624575693E+04  0.12699999809E+01 0. -1.
       -4    1    3    3    0  502  0.74431934624E+03  0.46967443124E+03  0.16849029530E+04  0.19009221274E+04  0.12699999809E+01 0.  1.
</event>
<event>
 5   0  0.2345471E-07  0.3693885E+04  0.7818609E-02  0.8069318E-01
       -1   -1    0    0    0  501  0.00000000000E+00  0.00000000000E+00  0.14385501501E+04  0.14385501501E+04  0.50400001928E-02 0.  1.
        1   -1    0    0  501    0  0.00000000000E+00  0.00000000000E+00 -0.23712738260E+04  0.23712738260E+04  0.50400001928E-02 0. -1.
    10030    2    1    2    0    0  0.00000000000E+00  0.00000000000E+00 -0.93272367589E+03  0.38098239762E+04  0.36938848485E+04 0.  0.
        5    1    3    3  502    0 -0.19063954840E+03  0.23331314571E+03 -0.23457499852E+04  0.23650250621E+04  0.46999998093E+01 0. -1.
       -5    1    3    3    0  502  0.19063954840E+03 -0.23331314571E+03  0.14130263093E+04  0.14447989141E+04  0.46999998093E+01 0.  1.
</event>
<event>
 5   0  0.2287500E-07  0.3755193E+04  0.7818609E-02  0.8055839E-01
        1   -1    0    0  501    0  0.00000000000E+00  0.00000000000E+00  0.12277031013E+04  0.12277031013E+04  0.50400001928E-02 0.  1.
       -1   -1    0    0    0  501  0.00000000000E+00  0.00000000000E+00 -0.28715156110E+04  0.28715156111E+04  0.50400001928E-02 0. -1.
    10030    2    1    2    0    0  0.00000000000E+00  0.00000000000E+00 -0.16438125098E+04  0.40992187123E+04  0.37551930022E+04 0.  0.
        2    1    3    3  502    0 -0.11281881213E+04 -0.46029024939E+03  0.73749425707E+03  0.14242799338E+04  0.25500000920E-02 0.  1.
       -2    1    3    3    0  502  0.11281881213E+04  0.46029024939E+03 -0.23813067669E+04  0.26749387785E+04  0.25500000920E-02 0. -1.
</event>
<event>
 5   0  0.7074157E-07  0.3678725E+04  0.7818609E-02  0.8072693E-01
        2   -1    0    0  501    0  0.00000000000E+00  0.00000000000E+00  0.23538243862E+04  0.23538243862E+04  0.25500000920E-02 0. -1.
       -2   -1    0    0    0  501  0.00000000000E+00  0.00000000000E+00 -0.14373437486E+04  0.14373437486E+04  0.25500000920E-02 0.  1.
    10030    2    1    2    0    0  0.00000000000E+00  0.00000000000E+00  0.91648063758E+03  0.37911681348E+04  0.36787251959E+04 0.  0.
        3    1    3    3  502    0 -0.37921935258E+03 -0.17994122377E+04  0.49898401988E+03  0.19054334889E+04  0.10100000352E+00 0. -1.
       -3    1    3    3    0  502  0.37921935258E+03  0.17994122377E+04  0.41749661771E+03  0.18857346458E+04  0.10100000352E+00 0.  1.
</event>
<event>
 5   0  0.2287500E-07  0.3657210E+04  0.7818609E-02  0.8077511E-01
        1   -1    0    0  501    0  0.00000000000E+00  0.00000000000E+00  0.16944605097E+04  0.16944605097E+04  0.50400001928E-02 0. -1.
       -1   -1    0    0    0  501  0.00000000000E+00  0.00000000000E+00 -0.19733691864E+04  0.19733691864E+04  0.50400001928E-02 0.  1.
    10030    2    1    2    0    0  0.00000000000E+00  0.00000000000E+00 -0.27890867665E+03  0.36678296961E+04  0.36572099515E+04 0.  0.
        2    1    3    3  502    0  0.20052007053E+03 -0.10440772910E+03  0.16803910248E+04  0.16955303798E+04  0.25500000920E-02 0. -1.
       -2    1    3    3    0  502 -0.20052007053E+03  0.10440772910E+03 -0.19592997015E+04  0.19722993162E+04  0.25500000920E-02 0.  1.
</event>
<event>
 5   0  0.2411746E-07  0.3671697E+04  0.7818609E-02  0.8074263E-01
        1   -1    0    0  501    0  0.00000000000E+00  0.00000000000E+00  0.19446668015E+04  0.19446668015E+04  0.50400001928E-02 0. -1.
       -1   -1    0    0    0  501  0.00000000000E+00  0.00000000000E+00 -0.17331196767E+04  0.17331196767E+04  0.50400001928E-02 0.  1.
    10030    2    1    2    0    0  0.00000000000E+00  0.00000000000E+00  0.21154712481E+03  0.36777864781E+04  0.36716973177E+04 0.  0.
        1    1    3    3  502    0 -0.93188099860E+03 -0.15808703835E+04  0.15865252468E+03  0.18419348491E+04  0.50400001928E-02 0. -1.
       -1    1    3    3    0  502  0.93188099860E+03  0.15808703835E+04  0.52894600129E+02  0.18358516290E+04  0.50400001928E-02 0.  1.
</event>
<event>
 5   0  0.7300916E-07  0.3684927E+04  0.7818609E-02  0.8071310E-01
        2   -1    0    0  501    0  0.00000000000E+00  0.00000000000E+00  0.20995643075E+04  0.20995643075E+04  0.25500000920E-02 0.  1.
       -2   -1    0    0    0  501  0.00000000000E+00  0.00000000000E+00 -0.16168459317E+04  0.16168459317E+04  0.25500000920E-02 0. -1.
    10030    2    1    2    0    0  0.00000000000E+00  0.00000000000E+00  0.48271837584E+03  0.37164102392E+04  0.36849271411E+04 0.  0.
        1    1    3    3  502    0 -0.14083055735E+04 -0.95578626195E+03  0.95295098175E+03  0.19506326001E+04  0.50400001928E-02 0.  1.
       -1    1    3    3    0  502  0.14083055735E+04  0.95578626195E+03 -0.47023260591E+03  0.17657776391E+04  0.50400001928E-02 0. -1.
</event>
<event>
 5   0  0.2287500E-07  0.3729630E+04  0.7818609E-02  0.8061427E-01
       -3   -1    0    0    0  501  0.00000000000E+00  0.00000000000E+00  0.13985446698E+04  0.13985446735E+04  0.10100000352E+00 0.  1.
        3   -1    0    0  501    0  0.00000000000E+00  0.00000000000E+00 -0.24865386766E+04  0.24865386787E+04  0.10100000352E+00 0. -1.
    10030    2    1    2    0    0  0.00000000000E+00  0.00000000000E+00 -0.10879940068E+04  0.38850833522E+04  0.37296302356E+04 0.  0.
        2    1    3    3  502    0 -0.12235681848E+04 -0.12584044038E+04  0.11220774950E+03  0.17587755188E+04  0.25500000920E-02 0.  1.
       -2    1    3    3    0  502  0.12235681848E+04  0.12584044038E+04 -0.12002017563E+04  0.21263078334E+04  0.25500000920E-02 0. -1.
</event>
<event>
 5   0  0.2345471E-07  0.3649021E+04  0.7818609E-02  0.8079354E-01
       -1   -1    0    0    0  501  0.00000000000E+00  0.00000000000E+00  0.17230082647E+04  0.17230082647E+04  0.50400001928E-02 0.  1.
        1   -1    0    0  501    0  0.00000000000E+00  0.00000000000E+00 -0.19319925350E+04  0.19319925350E+04  0.50400001928E-02 0. -1.
    10030    2    1    2    0    0  0.00000000000E+00  0.00000000000E+00 -0.20898427031E+03  0.36550007996E+04  0.36490212962E+04 0.  0.
        5    1    3    3  502    0 -0.18050107368E+04  0.89596336616E+02 -0.35535363564E+03  0.18418440650E+04  0.46999998093E+01 0. -1.
       -5    1    3    3    0  502  0.18050107368E+04 -0.89596336616E+02  0.14636936533E+03  0.18131567347E+04  0.46999998093E+01 0.  1.
</event>
<event>
 5   0  0.7124627E-07  0.3689627E+04  0.7818609E-02  0.8070264E-01
        2   -1    0    0  501    0  0.00000000000E+00  0.00000000000E+00  0.18935871660E+04  0.18935871660E+04  0.25500000920E-02 0. -1.
       -2   -1    0    0    0  501  0.00000000000E+00  0.00000000000E+00 -0.17972962810E+04  0.17972962810E+04  0.25500000920E-02 0.  1.
    10030    2    1    2    0    0  0.00000000000E+00  0.00000000000E+00  0.96290884924E+02  0.36908834470E+04  0.36896271742E+04 0.  0.
        2    1    3    3  502    0 -0.37278490302E+03 -0.17963641914E+04 -0.14542568646E+03  0.18403916764E+04  0.25500000920E-02 0.  1.
       -2    1    3    3    0  502  0.37278490302E+03  0.17963641914E+04  0.24171657139E+03  0.18504917706E+04  0.25500000920E-02 0. -1.
</event>
<event>
 5   0  0.7124627E-07  0.2812748E+04  0.7818609E-02  0.8299321E-01
        2   -1    0    0  501    0  0.00000000000E+00  0.00000000000E+00  0.16238906309E+04  0.16238906309E+04  0.25500000920E-02 0. -1.
       -2   -1    0    0    0  501  0.00000000000E+00  0.00000000000E+00 -0.12179933675E+04  0.12179933675E+04  0.25500000920E-02 0.  1.
    10030    2    1    2    0    0  0.00000000000E+00  0.00000000000E+00  0.40589726345E+03  0.28418839984E+04  0.28127481352E+04 0.  0.
        2    1    3    3  502    0 -0.62042637654E+03  0.11240631214E+04 -0.37696654623E+03  0.13381145566E+04  0.25500000920E-02 0.  1.
       -2    1    3    3    0  502  0.62042637654E+03 -0.11240631214E+04  0.78286380968E+03  0.15037694418E+04  0.25500000920E-02 0. -1.
</event>
<event>
 5   0  0.2287500E-07  0.3684742E+04  0.7818609E-02  0.8071352E-01
       -1   -1    0    0    0  501  0.00000000000E+00  0.00000000000E+00  0.15661004714E+04  0.15661004714E+04  0.50400001928E-02 0.  1.
        1   -1    0    0  501    0  0.00000000000E+00  0.00000000000E+00 -0.21673775694E+04  0.21673775694E+04  0.50400001928E-02 0. -1.
    10030    2    1    2    0    0  0.00000000000E+00  0.00000000000E+00 -0.60127709809E+03  0.37334780408E+04  0.36847420714E+04 0.  0.
        3    1    3    3  502    0  0.12101319962E+04 -0.12452344850E+04  0.32338279973E+03  0.17662403054E+04  0.10100000352E+00 0.  1.
       -3    1    3    3    0  502 -0.12101319962E+04  0.12452344850E+04 -0.92465989782E+03  0.19672377354E+04  0.10100000352E+00 0. -1.
</event>
<event>
 5   0  0.6949625E-07  0.3699797E+04  0.7818609E-02  0.8068007E-01
        2   -1    0    0  501    0  0.00000000000E+00  0.00000000000E+00  0.12628943715E+04  0.12628943715E+04  0.25500000920E-02 0.  1.
       -2   -1    0    0    0  501  0.00000000000E+00  0.00000000000E+00 -0.27097476492E+04  0.27097476492E+04  0.25500000920E-02 0. -1.
    10030    2    1    2    0    0  0.00000000000E+00  0.00000000000E+00 -0.14468532777E+04  0.39726420208E+04  0.36997973212E+04 0.  0.
        5    1    3    3  502    0 -0.11885362475E+04 -0.82477806408E+03  0.51451697246E+03  0.15354566329E+04  0.46999998093E+01 0. -1.
       -5    1    3    3    0  502  0.11885362475E+04  0.82477806408E+03 -0.19613702502E+04  0.24371853879E+04  0.46999998093E+01 0.  1.
</event>
<event>
 5   0  0.2287500E-07  0.3699500E+04  0.7818609E-02  0.8068073E-01
       -1   -1    0    0    0  501  0.00000000000E+00  0.00000000000E+00  0.29035643364E+04  0.29035643364E+04  0.50400001928E-02 0.  1.
        1   -1    0    0  501    0  0.00000000000E+00  0.00000000000E+00 -0.11784054099E+04  0.11784054099E+04  0.50400001928E-02 0. -1.
    10030    2    1    2    0    0  0.00000000000E+00  0.00000000000E+00  0.17251589265E+04  0.40819697463E+04  0.36995004646E+04 0.  0.
        4    1    3    3  502    0 -0.13865059636E+04  0.73123059005E+03  0.19461887317E+04  0.24989496104E+04  0.12699999809E+01 0.  1.
       -4    1    3    3    0  502  0.13865059636E+04 -0.73123059005E+03 -0.22102980517E+03  0.15830201359E+04  0.12699999809E+01 0. -1.
</event>
<event>
 5   0  0.7124627E-07  0.3596538E+04  0.7818609E-02  0.8091285E-01
        2   -1    0    0  501    0  0.00000000000E+00  0.00000000000E+00  0.21473438238E+04  0.21473438238E+04  0.25500000920E-02 0.  1.
       -2   -1    0    0    0  501  0.00000000000E+00  0.00000000000E+00 -0.15059398896E+04  0.15059398896E+04  0.25500000920E-02 0. -1.
    10030    2    1    2    0    0  0.00000000000E+00  0.00000000000E+00  0.64140393419E+03  0.36532837133E+04  0.35965376243E+04 0.  0.
        2    1    3    3  502    0  0.34380235761E+03  0.13070261329E+04  0.15256961159E+04  0.20382016610E+04  0.25500000920E-02 0.  1.
       -2    1    3    3    0  502 -0.34380235761E+03 -0.13070261329E+04 -0.88429218167E+03  0.16150820523E+04  0.25500000920E-02 0. -1.
</event>
<event>
 5   0  0.2345471E-07  0.3748992E+04  0.7818609E-02  0.8057191E-01
        1   -1    0    0  501    0  0.00000000000E+00  0.00000000000E+00  0.30112245281E+04  0.30112245281E+04  0.50400001928E-02 0. -1.
       -1   -1    0    0    0  501  0.00000000000E+00  0.00000000000E+00 -0.11668789585E+04  0.11668789585E+04  0.50400001928E-02 0.  1.
    10030    2    1    2    0    0  0.00000000000E+00  0.00000000000E+00  0.18443455696E+04  0.41781034866E+04  0.37489916198E+04 0.  0.
        5    1    3    3  502    0 -0.18726150179E+04 -0.18114777868E+02  0.83096862956E+03  0.20487913763E+04  0.46999998093E+01 0.  1.
       -5    1    3    3    0  502  0.18726150179E+04  0.18114777868E+02  0.10133769400E+04  0.21293121103E+04  0.46999998093E+01 0. -1.
</event>
<event>
 5   0  0.2287500E-07  0.3698942E+04  0.7818609E-02  0.8068196E-01
        3   -1    0    0  501    0  0.00000000000E+00  0.00000000000E+00  0.21914578332E+04  0.21914578356E+04  0.10100000352E+00 0. -1.
       -3   -1    0    0    0  501  0.00000000000E+00  0.00000000000E+00 -0.15608527296E+04  0.15608527329E+04  0.10100000352E+00 0.  1.
    10030    2    1    2    0    0  0.00000000000E+00  0.00000000000E+00  0.63060510364E+03  0.37523105684E+04  0.36989419846E+04 0.  0.
        2    1    3    3  502    0  0.97419346161E+03 -0.50024924124E+03  0.18271886464E+04  0.21302395531E+04  0.25500000920E-02 0. -1.
       -2    1    3    3    0  502 -0.97419346161E+03  0.50024924124E+03 -0.11965835428E+04  0.16220710153E+04  0.25500000920E-02 0.  1.
</event>
<event>
 5   0  0.2287500E-07  0.3649876E+04  0.7818609E-02  0.8079162E-01
        1   -1    0    0  501    0  0.00000000000E+00  0.00000000000E+00  0.20853178923E+04  0.20853178923E+04  0.50400001928E-02 0. -1.
       -1   -1    0    0    0  501  0.00000000000E+00  0.00000000000E+00 -0.15970698486E+04  0.15970698486E+04  0.50400001928E-02 0.  1.
    10030    2    1    2    0    0  0.00000000000E+00  0.00000000000E+00  0.48824804368E+03  0.36823877409E+04  0.36498757954E+04 0.  0.
        2    1    3    3  502    0 -0.52672324476E+03 -0.91899300260E+03 -0.12551863994E+04  0.16424001986E+04  0.25500000920E-02 0.  1.
       -2    1    3    3    0  502  0.52672324476E+03  0.91899300260E+03  0.17434344430E+04  0.20399875423E+04  0.25500000920E-02 0. -1.
</event>
<event>
 5   0  0.2345471E-07  0.3791725E+04  0.7818609E-02  0.8047933E-01
        1   -1    0    0  501    0  0.00000000000E+00  0.00000000000E+00  0.18593278186E+04  0.18593278186E+04  0.50400001928E-02 0.  1.
       -1   -1    0    0    0  501  0.00000000000E+00  0.00000000000E+00 -0.19331149514E+04  0.19331149514E+04  0.50400001928E-02 0. -1.
    10030    2    1    2    0    0  0.00000000000E+00  0.00000000000E+00 -0.73787132776E+02  0.37924427700E+04  0.37917248875E+04 0.  0.
        5    1    3    3  502    0  0.15599534344E+04 -0.13819908196E+03 -0.11056082023E+04  0.19170146819E+04  0.46999998093E+01 0. -1.
       -5    1    3    3    0  502 -0.15599534344E+04  0.13819908196E+03  0.10318210695E+04  0.18754280880E+04  0.46999998093E+01 0.  1.
</event>
<event>
 5   0  0.7124627E-07  0.3692823E+04  0.7818609E-02  0.8069554E-01
       -2   -1    0    0    0  501  0.00000000000E+00  0.00000000000E+00  0.21898545182E+04  0.21898545182E+04  0.25500000920E-02 0. -1.
        2   -1    0    0  501    0  0.00000000000E+00  0.00000000000E+00 -0.15568317681E+04  0.15568317681E+04  0.25500000920E-02 0.  1.
    10030    2    1    2    0    0  0.00000000000E+00  0.00000000000E+00  0.63302275016E+03  0.37466862863E+04  0.36928228127E+04 0.  0.
        2    1    3    3  502    0 -0.12987760563E+04  0.62094247793E+01  0.16480476572E+04  0.20983133421E+04  0.25500000920E-02 0. -1.
       -2    1    3    3    0  502  0.12987760563E+04 -0.62094247793E+01 -0.10150249070E+04  0.16483729442E+04  0.25500000920E-02 0.  1.
</event>
<event>
 5   0  0.7124627E-07  0.3698767E+04  0.7818609E-02  0.8068235E-01
        2   -1    0    0  501    0  0.00000000000E+00  0.00000000000E+00  0.20633040563E+04  0.20633040563E+04  0.25500000920E-02 0. -1.
       -2   -1    0    0    0  501  0.00000000000E+00  0.00000000000E+00 -0.16576423134E+04  0.16576423134E+04  0.25500000920E-02 0.  1.
    10030    2    1    2    0    0  0.00000000000E+00  0.00000000000E+00  0.40566174286E+03  0.37209463697E+04  0.36987674213E+04 0.  0.
        2    1    3    3  502    0  0.94844511604E+03 -0.71579275734E+03  0.16284780342E+04  0.20158988361E+04  0.25500000920E-02 0. -1.
       -2    1    3    3    0  502 -0.94844511604E+03  0.71579275734E+03 -0.12228162913E+04  0.17050475336E+04  0.25500000920E-02 0.  1.
</event>
<event>
 5   0  0.2287500E-07  0.3693195E+04  0.7818609E-02  0.8069472E-01
        1   -1    0    0  501    0  0.00000000000E+00  0.00000000000E+00  0.21792161414E+04  0.21792161414E+04  0.50400001928E-02 0.  1.
       -1   -1    0    0    0  501  0.00000000000E+00  0.00000000000E+00 -0.15647468207E+04  0.15647468207E+04  0.50400001928E-02 0. -1.
    10030    2    1    2    0    0  0.00000000000E+00  0.00000000000E+00  0.61446932072E+03  0.37439629621E+04  0.36931945678E+04 0.  0.
        4    1    3    3  502    0 -0.69579615243E+03 -0.97526257973E+03  0.17317741041E+04  0.21057807449E+04  0.12699999809E+01 0.  1.
       -4    1    3    3    0  502  0.69579615243E+03  0.97526257973E+03 -0.11173047833E+04  0.16381822173E+04  0.12699999809E+01 0. -1.
</event>
<event>
 5   0  0.6939921E-07  0.3725571E+04  0.7818609E-02  0.8062318E-01
        2   -1    0    0  501    0  0.00000000000E+00  0.00000000000E+00  0.15901453194E+04  0.15901453194E+04  0.25500000920E-02 0. -1.
       -2   -1    0    0    0  501  0.00000000000E+00  0.00000000000E+00 -0.21821717372E+04  0.21821717372E+04  0.25500000920E-02 0.  1.
    10030    2    1    2    0    0  0.00000000000E+00  0.00000000000E+00 -0.59202641782E+03  0.37723170565E+04  0.37255711905E+04 0.  0.
        4    1    3    3  502    0  0.63688902960E+03  0.90266795380E+03  0.12226496061E+04  0.16478199971E+04  0.12699999809E+01 0. -1.
       -4    1    3    3    0  502 -0.63688902960E+03 -0.90266795380E+03 -0.18146760239E+04  0.21244970594E+04  0.12699999809E+01 0.  1.
</event>
<event>
 5   0  0.2287500E-07  0.3690760E+04  0.7818609E-02  0.8070013E-01
        3   -1    0    0  501    0  0.00000000000E+00  0.00000000000E+00  0.20599119133E+04  0.20599119158E+04  0.10100000352E+00 0.  1.
       -3   -1    0    0    0  501  0.00000000000E+00  0.00000000000E+00 -0.16531910813E+04  0.16531910843E+04  0.10100000352E+00 0. -1.
    10030    2    1    2    0    0  0.00000000000E+00  0.00000000000E+00  0.40672083207E+03  0.37131030001E+04  0.36907603626E+04 0.  0.
        5    1    3    3  502    0  0.18946629064E+03 -0.14469446843E+04  0.13397377938E+04  0.19810264615E+04  0.46999998093E+01 0.  1.
       -5    1    3    3    0  502 -0.18946629064E+03  0.14469446843E+04 -0.93301696178E+03  0.17320765387E+04  0.46999998093E+01 0. -1.
</event>
<event>
 5   0  0.2287500E-07  0.3693949E+04  0.7818609E-02  0.8069304E-01
        3   -1    0    0  501    0  0.00000000000E+00  0.00000000000E+00  0.16189166158E+04  0.16189166190E+04  0.10100000352E+00 0. -1.
       -3   -1    0    0    0  501  0.00000000000E+00  0.00000000000E+00 -0.21071591169E+04  0.21071591193E+04  0.10100000352E+00 0.  1.
    10030    2    1    2    0    0  0.00000000000E+00  0.00000000000E+00 -0.48824250108E+03  0.37260757383E+04  0.36939490613E+04 0.  0.
        2    1    3    3  502    0  0.15945693301E+04  0.72135844441E+02 -0.11814283033E+04  0.19858569345E+04  0.25500000920E-02 0.  1.
       -2    1    3    3    0  502 -0.15945693301E+04 -0.72135844441E+02  0.69318580226E+03  0.17402188038E+04  0.25500000920E-02 0. -1.
</event>
<event>
 5   0  0.2287500E-07  0.3718381E+04  0.7818609E-02  0.8063900E-01
        1   -1    0    0  501    0  0.00000000000E+00  0.00000000000E+00  0.26373026687E+04  0.26373026687E+04  0.50400001928E-02 0. -1.
       -1   -1    0    0    0  501  0.00000000000E+00  0.00000000000E+00 -0.13106535837E+04  0.13106535838E+04  0.50400001928E-02 0.  1.
    10030    2    1    2    0    0  0.00000000000E+00  0.00000000000E+00  0.13266490849E+04  0.39479562524E+04  0.37183814727E+04 0.  0.
        3    1    3    3  502    0 -0.58505906237E+03 -0.85091692885E+03 -0.97816765328E+03  0.14223802918E+04  0.10100000352E+00 0.  1.
       -3    1    3    3    0  502  0.58505906237E+03  0.85091692885E+03  0.23048167382E+04  0.25255759607E+04  0.10100000352E+00 0. -1.
</event>
<event>
 5   0  0.7124627E-07  0.2984863E+04  0.7818609E-02  0.8248067E-01
        2   -1    0    0  501    0  0.00000000000E+00  0.00000000000E+00  0.15257351323E+04  0.15257351323E+04  0.25500000920E-02 0. -1.
       -2   -1    0    0    0  501  0.00000000000E+00  0.00000000000E+00 -0.14598544697E+04  0.14598544697E+04  0.25500000920E-02 0.  1.
    10030    2    1    2    0    0  0.00000000000E+00  0.00000000000E+00  0.65880662533E+02  0.29855896020E+04  0.29848626450E+04 0.  0.
        2    1    3    3  502    0  0.77687559598E+03 -0.40248797330E+03  0.12422918619E+04  0.15194806121E+04  0.25500000920E-02 0. -1.
       -2    1    3    3    0  502 -0.77687559598E+03  0.40248797330E+03 -0.11764111994E+04  0.14661089899E+04  0.25500000920E-02 0.  1.
</event>
<event>
 5   0  0.2411746E-07  0.3819555E+04  0.7818609E-02  0.8041972E-01
        1   -1    0    0  501    0  0.00000000000E+00  0.00000000000E+00  0.20236924547E+04  0.20236924547E+04  0.50400001928E-02 0.  1.
       -1   -1    0    0    0  501  0.00000000000E+00  0.00000000000E+00 -0.18022744615E+04  0.18022744616E+04  0.50400001928E-02 0. -1.
    10030    2    1    2    0    0  0.00000000000E+00  0.00000000000E+00  0.22141799314E+03  0.38259669162E+04  0.38195545443E+04 0.  0.
        1    1    3    3  502    0  0.16501411742E+04  0.14176462578E+03 -0.84177439861E+03  0.18578609319E+04  0.50400001928E-02 0. -1.
       -1    1    3    3    0  502 -0.16501411742E+04 -0.14176462578E+03  0.10631923918E+04  0.19681059844E+04  0.50400001928E-02 0.  1.
</event>
<event>
 5   0  0.7124627E-07  0.3715676E+04  0.7818609E-02  0.8064497E-01
       -2   -1    0    0    0  501  0.00000000000E+00  0.00000000000E+00  0.19937038902E+04  0.19937038902E+04  0.25500000920E-02 0.  1.
        2   -1    0    0  501    0  0.00000000000E+00  0.00000000000E+00 -0.17312308571E+04  0.17312308571E+04  0.25500000920E-02 0. -1.
    10030    2    1    2    0    0  0.00000000000E+00  0.00000000000E+00  0.26247303310E+03  0.37249347474E+04  0.37156758173E+04 0.  0.
        2    1    3    3  502    0  0.60460403613E+02  0.13790427890E+04  0.13777766781E+04  0.19503033223E+04  0.25500000920E-02 0.  1.
       -2    1    3    3    0  502 -0.60460403613E+02 -0.13790427890E+04 -0.11153036450E+04  0.17746314251E+04  0.25500000920E-02 0. -1.
</event>
<event>
 5   0  0.7124627E-07  0.3662680E+04  0.7818609E-02  0.8076283E-01
        2   -1    0    0  501    0  0.00000000000E+00  0.00000000000E+00  0.26045761677E+04  0.26045761677E+04  0.25500000920E-02 0. -1.
       -2   -1    0    0    0  501  0.00000000000E+00  0.00000000000E+00 -0.12876592644E+04  0.12876592644E+04  0.25500000920E-02 0.  1.
    10030    2    1    2    0    0  0.00000000000E+00  0.00000000000E+00  0.13169169033E+04  0.38922354321E+04  0.36626802384E+04 0.  0.
        2    1    3    3  502    0  0.18108372211E+04  0.19917038971E+02  0.36883637330E+03  0.18481256451E+04  0.25500000920E-02 0.  1.
       -2    1    3    3    0  502 -0.18108372211E+04 -0.19917038971E+02  0.94808053004E+03  0.20441097870E+04  0.25500000920E-02 0. -1.
</event>
<event>
 5   0  0.2287500E-07  0.3708857E+04  0.7818609E-02  0.8066002E-01
        1   -1    0    0  501    0  0.00000000000E+00  0.00000000000E+00  0.22359989997E+04  0.22359989997E+04  0.50400001928E-02 0.  1.
       -1   -1    0    0    0  501  0.00000000000E+00  0.00000000000E+00 -0.15379723191E+04  0.15379723191E+04  0.50400001928E-02 0. -1.
    10030    2    1    2    0    0  0.00000000000E+00  0.00000000000E+00  0.69802668061E+03  0.37739713188E+04  0.37088567333E+04 0.  0.
        3    1    3    3  502    0  0.17717485871E+04  0.41110779713E+03 -0.19001668539E+02  0.18189182913E+04  0.10100000352E+00 0. -1.
       -3    1    3    3    0  502 -0.17717485871E+04 -0.41110779713E+03  0.71702834915E+03  0.19550530275E+04  0.10100000352E+00 0.  1.
</event>
<event>
 5   0  0.2411746E-07  0.3690321E+04  0.7818609E-02  0.8070110E-01
       -1   -1    0    0    0  501  0.00000000000E+00  0.00000000000E+00  0.16828041681E+04  0.16828041681E+04  0.50400001928E-02 0.  1.
        1   -1    0    0  501    0  0.00000000000E+00  0.00000000000E+00 -0.20231813645E+04  0.20231813645E+04  0.50400001928E-02 0. -1.
    10030    2    1    2    0    0  0.00000000000E+00  0.00000000000E+00 -0.34037719637E+03  0.37059855326E+04  0.36903214132E+04 0.  0.
        1    1    3    3  502    0 -0.72236956334E+03  0.59721752827E+03  0.14259386110E+04  0.17063960514E+04  0.50400001928E-02 0.  1.
       -1    1    3    3    0  502  0.72236956334E+03 -0.59721752827E+03 -0.17663158073E+04  0.19995894812E+04  0.50400001928E-02 0. -1.
</event>
<event>
 5   0  0.2287500E-07  0.2795066E+04  0.7818609E-02  0.8304802E-01
       -1   -1    0    0    0  501  0.00000000000E+00  0.00000000000E+00  0.10179497165E+04  0.10179497165E+04  0.50400001928E-02 0.  1.
        1   -1    0    0  501    0  0.00000000000E+00  0.00000000000E+00 -0.19186593280E+04  0.19186593280E+04  0.50400001928E-02 0. -1.
    10030    2    1    2    0    0  0.00000000000E+00  0.00000000000E+00 -0.90070961156E+03  0.29366090445E+04  0.27950661667E+04 0.  0.
        3    1    3    3  502    0  0.24169179780E+03  0.27226409969E+03 -0.18679625112E+04  0.19031097232E+04  0.10100000352E+00 0. -1.
       -3    1    3    3    0  502 -0.24169179780E+03 -0.27226409969E+03  0.96725289964E+03  0.10334993213E+04  0.10100000352E+00 0.  1.
</event>
<event>
 5   0  0.2287500E-07  0.3182814E+04  0.7818609E-02  0.8193371E-01
        3   -1    0    0  501    0  0.00000000000E+00  0.00000000000E+00  0.10028637748E+04  0.10028637799E+04  0.10100000352E+00 0.  1.
       -3   -1    0    0    0  501  0.00000000000E+00  0.00000000000E+00 -0.25253440548E+04  0.25253440568E+04  0.10100000352E+00 0. -1.
    10030    2    1    2    0    0  0.00000000000E+00  0.00000000000E+00 -0.15224802800E+04  0.35282078367E+04  0.31828139022E+04 0.  0.
        3    1    3    3  502    0  0.87561267476E+02 -0.49138299147E+03 -0.24363328302E+04  0.24869342350E+04  0.10100000352E+00 0. -1.
       -3    1    3    3    0  502 -0.87561267476E+02  0.49138299147E+03  0.91385255020E+03  0.10412736017E+04  0.10100000352E+00 0.  1.
</event>
<event>
 5   0  0.2287500E-07  0.3738739E+04  0.7818609E-02  0.8059431E-01
        1   -1    0    0  501    0  0.00000000000E+00  0.00000000000E+00  0.15557854848E+04  0.15557854848E+04  0.50400001928E-02 0.  1.
       -1   -1    0    0    0  501  0.00000000000E+00  0.00000000000E+00 -0.22461596628E+04  0.22461596628E+04  0.50400001928E-02 0. -1.
    10030    2    1    2    0    0  0.00000000000E+00  0.00000000000E+00 -0.69037417804E+03  0.38019451477E+04  0.37387391458E+04 0.  0.
        4    1    3    3  502    0 -0.74315981956E+03 -0.11290929709E+04  0.96792270399E+03  0.16625322337E+04  0.12699999809E+01 0. -1.
       -4    1    3    3    0  502  0.74315981956E+03  0.11290929709E+04 -0.16582968820E+04  0.21394129139E+04  0.12699999809E+01 0.  1.
</event>
<event>
 5   0  0.2287500E-07  0.3740198E+04  0.7818609E-02  0.8059111E-01
       -1   -1    0    0    0  501  0.00000000000E+00  0.00000000000E+00  0.19443584538E+04  0.19443584538E+04  0.50400001928E-02 0. -1.
        1   -1    0    0  501    0  0.00000000000E+00  0.00000000000E+00 -0.17986760327E+04  0.17986760327E+04  0.50400001928E-02 0.  1.
    10030    2    1    2    0    0  0.00000000000E+00  0.00000000000E+00  0.14568242104E+03  0.37430344865E+04  0.37401983637E+04 0.  0.
        4    1    3    3  502    0  0.14011263867E+04  0.10744193052E+04  0.68953680473E+03  0.18955196155E+04  0.12699999809E+01 0. -1.
       -4    1    3    3    0  502 -0.14011263867E+04 -0.10744193052E+04 -0.54385438370E+03  0.18475148710E+04  0.12699999809E+01 0.  1.
</event>
<event>
 5   0  0.7300916E-07  0.3631438E+04  0.7818609E-02  0.8083328E-01
        2   -1    0    0  501    0  0.00000000000E+00  0.00000000000E+00  0.28220414176E+04  0.28220414176E+04  0.25500000920E-02 0.  1.
       -2   -1    0    0    0  501  0.00000000000E+00  0.00000000000E+00 -0.11682451219E+04  0.11682451219E+04  0.25500000920E-02 0. -1.
    10030    2    1    2    0    0  0.00000000000E+00  0.00000000000E+00  0.16537962957E+04  0.39902865395E+04  0.36314383486E+04 0.  0.
        1    1    3    3  502    0 -0.10316041448E+01 -0.18134654744E+04  0.92626687389E+03  0.20363271871E+04  0.50400001928E-02 0.  1.
       -1    1    3    3    0  502  0.10316041448E+01  0.18134654744E+04  0.72752942176E+03  0.19539593524E+04  0.50400001928E-02 0. -1.
</event>
<event>
 5   0  0.7074157E-07  0.3636981E+04  0.7818609E-02  0.8082073E-01
       -2   -1    0    0    0  501  0.00000000000E+00  0.00000000000E+00  0.19545847284E+04  0.19545847284E+04  0.25500000920E-02 0.  1.
        2   -1    0    0  501    0  0.00000000000E+00  0.00000000000E+00 -0.16918727066E+04  0.16918727066E+04  0.25500000920E-02 0. -1.
    10030    2    1    2    0    0  0.00000000000E+00  0.00000000000E+00  0.26271202183E+03  0.36464574350E+04  0.36369814708E+04 0.  0.
        3    1    3    3  502    0 -0.12185275813E+03  0.44511993133E+03 -0.16321835653E+04  0.16961730598E+04  0.10100000352E+00 0. -1.
       -3    1    3    3    0  502  0.12185275813E+03 -0.44511993133E+03  0.18948955871E+04  0.19502843752E+04  0.10100000352E+00 0.  1.
</event>
<event>
 5   0  0.2287500E-07  0.3677332E+04  0.7818609E-02  0.8073004E-01
       -3   -1    0    0    0  501  0.00000000000E+00  0.00000000000E+00  0.13575812286E+04  0.13575812324E+04  0.10100000352E+00 0. -1.
        3   -1    0    0  501    0  0.00000000000E+00  0.00000000000E+00 -0.24902325916E+04  0.24902325936E+04  0.10100000352E+00 0.  1.
    10030    2    1    2    0    0  0.00000000000E+00  0.00000000000E+00 -0.11326513630E+04  0.38478138260E+04  0.36773322027E+04 0.  0.
        2    1    3    3  502    0 -0.16671690180E+04 -0.72408315345E+03 -0.27607796998E+03  0.18384689264E+04  0.25500000920E-02 0.  1.
       -2    1    3    3    0  502  0.16671690180E+04  0.72408315345E+03 -0.85657339298E+03  0.20093448996E+04  0.25500000920E-02 0. -1.
</event>
<event>
 5   0  0.7124627E-07  0.3791930E+04  0.7818609E-02  0.8047889E-01
        2   -1    0    0  501    0  0.00000000000E+00  0.00000000000E+00  0.30518685286E+04  0.30518685286E+04  0.25500000920E-02 0. -1.
       -2   -1    0    0    0  501  0.00000000000E+00  0.00000000000E+00 -0.11778629270E+04  0.11778629270E+04  0.25500000920E-02 0.  1.
    10030    2    1    2    0    0  0.00000000000E+00  0.00000000000E+00  0.18740056015E+04  0.42297314556E+04  0.37919297451E+04 0.  0.
        2    1    3    3  502    0  0.82040914407E+03 -0.82534187910E+03 -0.73261654170E+03  0.13751317676E+04  0.25500000920E-02 0.  1.
       -2    1    3    3    0  502 -0.82040914407E+03  0.82534187910E+03  0.26066221432E+04  0.28545996880E+04  0.25500000920E-02 0. -1.
</event>
<event>
 5   0  0.6939921E-07  0.3692950E+04  0.7818609E-02  0.8069526E-01
        2   -1    0    0  501    0  0.00000000000E+00  0.00000000000E+00  0.12476966935E+04  0.12476966935E+04  0.25500000920E-02 0. -1.
       -2   -1    0    0    0  501  0.00000000000E+00  0.00000000000E+00 -0.27326108944E+04  0.27326108944E+04  0.25500000920E-02 0.  1.
    10030    2    1    2    0    0  0.00000000000E+00  0.00000000000E+00 -0.14849142010E+04  0.39803075879E+04  0.36929498115E+04 0.  0.
        4    1    3    3  502    0 -0.13842736372E+04  0.12096818941E+03 -0.20530616989E+04  0.24790947457E+04  0.12699999809E+01 0.  1.
       -4    1    3    3    0  502  0.13842736372E+04 -0.12096818941E+03  0.56814749800E+03  0.15012128423E+04  0.12699999809E+01 0. -1.
</event>
<event>
 5   0  0.2287500E-07  0.3694400E+04  0.7818609E-02  0.8069204E-01
       -1   -1    0    0    0  501  0.00000000000E+00  0.00000000000E+00  0.17287833519E+04  0.17287833519E+04  0.50400001928E-02 0. -1.
        1   -1    0    0  501    0  0.00000000000E+00  0.00000000000E+00 -0.19737283220E+04  0.19737283220E+04  0.50400001928E-02 0.  1.
    10030    2    1    2    0    0  0.00000000000E+00  0.00000000000E+00 -0.24494497011E+03  0.37025116739E+04  0.36944004462E+04 0.  0.
        4    1    3    3  502    0  0.55440893099E+02 -0.16683234778E+04 -0.91526562540E+03  0.19037042042E+04  0.12699999809E+01 0.  1.
       -4    1    3    3    0  502 -0.55440893099E+02  0.16683234778E+04  0.67032065529E+03  0.17988074697E+04  0.12699999809E+01 0. -1.
</event>
<event>
 5   0  0.6949625E-07  0.3664621E+04  0.7818609E-02  0.8075848E-01
        2   -1    0    0  501    0  0.00000000000E+00  0.00000000000E+00  0.19980836410E+04  0.19980836410E+04  0.25500000920E-02 0.  1.
       -2   -1    0    0    0  501  0.00000000000E+00  0.00000000000E+00 -0.16802907846E+04  0.16802907846E+04  0.25500000920E-02 0. -1.
    10030    2    1    2    0    0  0.00000000000E+00  0.00000000000E+00  0.31779285638E+03  0.36783744256E+04  0.36646208692E+04 0.  0.
        5    1    3    3  502    0 -0.12541314695E+04 -0.12893141215E+04  0.50972613392E+03  0.18694971164E+04  0.46999998093E+01 0.  1.
       -5    1    3    3    0  502  0.12541314695E+04  0.12893141215E+04 -0.19193327753E+03  0.18088773092E+04  0.46999998093E+01 0. -1.
</event>
<event>
 5   0  0.7300916E-07  0.3163895E+04  0.7818609E-02  0.8198418E-01
        2   -1    0    0  501    0  0.00000000000E+00  0.00000000000E+00  0.20199044053E+04  0.20199044053E+04  0.25500000920E-02 0. -1.
       -2   -1    0    0    0  501  0.00000000000E+00  0.00000000000E+00 -0.12389484631E+04  0.12389484631E+04  0.25500000920E-02 0.  1.
    10030    2    1    2    0    0  0.00000000000E+00  0.00000000000E+00  0.78095594225E+03  0.32588528684E+04  0.31638947255E+04 0.  0.
        1    1    3    3  502    0 -0.52898959191E+03 -0.14866826704E+04  0.27530930251E+03  0.16018272575E+04  0.50400001928E-02 0.  1.
       -1    1    3    3    0  502  0.52898959191E+03  0.14866826704E+04  0.50564663974E+03  0.16570256109E+04  0.50400001928E-02 0. -1.
</event>
<event>
 5   0  0.2287500E-07  0.3702479E+04  0.7818609E-02  0.8067413E-01
       -1   -1    0    0    0  501  0.00000000000E+00  0.00000000000E+00  0.16053437071E+04  0.16053437071E+04  0.50400001928E-02 0. -1.
        1   -1    0    0  501    0  0.00000000000E+00  0.00000000000E+00 -0.21347997988E+04  0.21347997988E+04  0.50400001928E-02 0.  1.
    10030    2    1    2    0    0  0.00000000000E+00  0.00000000000E+00 -0.52945609173E+03  0.37401435059E+04  0.37024788577E+04 0.  0.
        4    1    3    3  502    0  0.86131706481E+03 -0.43880225586E+03  0.13301525925E+04  0.16442998626E+04  0.12699999809E+01 0. -1.
       -4    1    3    3    0  502 -0.86131706481E+03  0.43880225586E+03 -0.18596086842E+04  0.20958436433E+04  0.12699999809E+01 0.  1.
</event>
<event>
 5   0  0.2287500E-07  0.3667061E+04  0.7818609E-02  0.8075301E-01
        1   -1    0    0  501    0  0.00000000000E+00  0.00000000000E+00  0.13263683769E+04  0.13263683769E+04  0.50400001928E-02 0. -1.
       -1   -1    0    0    0  501  0.00000000000E+00  0.00000000000E+00 -0.25346149986E+04  0.25346149986E+04  0.50400001928E-02 0.  1.
    10030    2    1    2    0    0  0.00000000000E+00  0.00000000000E+00 -0.12082466217E+04  0.38609833755E+04  0.36670605022E+04 0.  0.
        3    1    3    3  502    0 -0.40138101152E+03 -0.13629272594E+04  0.61611046665E+03  0.15486347368E+04  0.10100000352E+00 0. -1.
       -3    1    3    3    0  502  0.40138101152E+03  0.13629272594E+04 -0.18243570883E+04  0.23123486387E+04  0.10100000352E+00 0.  1.
</event>
<event>
 5   0  0.6939921E-07  0.3716231E+04  0.7818609E-02  0.8064374E-01
       -2   -1    0    0    0  501  0.00000000000E+00  0.00000000000E+00  0.12526877013E+04  0.12526877013E+04  0.25500000920E-02 0.  1.
        2   -1    0    0  501    0  0.00000000000E+00  0.00000000000E+00 -0.27561483079E+04  0.27561483079E+04  0.25500000920E-02 0. -1.
    10030    2    1    2    0    0  0.00000000000E+00  0.00000000000E+00 -0.15034606066E+04  0.40088360092E+04  0.37162309338E+04 0.  0.
        4    1    3    3  502    0  0.19645734561E+03 -0.64340972424E+03  0.11167032832E+04  0.13036868480E+04  0.12699999809E+01 0.  1.
       -4    1    3    3    0  502 -0.19645734561E+03  0.64340972424E+03 -0.26201638899E+04  0.27051491612E+04  0.12699999809E+01 0. -1.
</event>
<event>
 5   0  0.7074157E-07  0.3807812E+04  0.7818609E-02  0.8044480E-01
       -2   -1    0    0    0  501  0.00000000000E+00  0.00000000000E+00  0.13198244071E+04  0.13198244071E+04  0.25500000920E-02 0.  1.
        2   -1    0    0  501    0  0.00000000000E+00  0.00000000000E+00 -0.27464705182E+04  0.27464705182E+04  0.25500000920E-02 0. -1.
    10030    2    1    2    0    0  0.00000000000E+00  0.00000000000E+00 -0.14266461111E+04  0.40662949252E+04  0.38078124025E+04 0.  0.
        3    1    3    3  502    0  0.12096678630E+03 -0.85130792754E+03  0.11006628969E+04  0.13967164973E+04  0.10100000352E+00 0.  1.
       -3    1    3    3    0  502 -0.12096678630E+03  0.85130792754E+03 -0.25273090080E+04  0.26695784280E+04  0.10100000352E+00 0. -1.
</event>
<event>
 5   0  0.7124627E-07  0.3411433E+04  0.7818609E-02  0.8135106E-01
        2   -1    0    0  501    0  0.00000000000E+00  0.00000000000E+00  0.30330871848E+04  0.30330871848E+04  0.25500000920E-02 0. -1.
       -2   -1    0    0    0  501  0.00000000000E+00  0.00000000000E+00 -0.95924355094E+03  0.95924355094E+03  0.25500000920E-02 0.  1.
    10030    2    1    2    0    0  0.00000000000E+00  0.00000000000E+00  0.20738436339E+04  0.39923307358E+04  0.34114333184E+04 0.  0.
        2    1    3    3  502    0  0.13377122237E+04  0.52879342203E+03 -0.35895143411E+02  0.14388832260E+04  0.25500000920E-02 0.  1.
       -2    1    3    3    0  502 -0.13377122237E+04 -0.52879342203E+03  0.21097387773E+04  0.25534475098E+04  0.25500000920E-02 0. -1.
</event>
<event>
 5   0  0.7124627E-07  0.3746561E+04  0.7818609E-02  0.8057721E-01
       -2   -1    0    0    0  501  0.00000000000E+00  0.00000000000E+00  0.31730096864E+04  0.31730096864E+04  0.25500000920E-02 0. -1.
        2   -1    0    0  501    0  0.00000000000E+00  0.00000000000E+00 -0.11059465695E+04  0.11059465695E+04  0.25500000920E-02 0.  1.
    10030    2    1    2    0    0  0.00000000000E+00  0.00000000000E+00  0.20670631169E+04  0.42789562560E+04  0.37465606510E+04 0.  0.
        2    1    3    3  502    0 -0.68378524077E+03  0.17426972068E+04  0.11111892186E+04  0.21769927169E+04  0.25500000920E-02 0.  1.
       -2    1    3    3    0  502  0.68378524077E+03 -0.17426972068E+04  0.95587389829E+03  0.21019635390E+04  0.25500000920E-02 0. -1.
</event>
<event>
 5   0  0.6939921E-07  0.3694233E+04  0.7818609E-02  0.8069241E-01
       -2   -1    0    0    0  501  0.00000000000E+00  0.00000000000E+00  0.12592880338E+04  0.12592880338E+04  0.25500000920E-02 0. -1.
        2   -1    0    0  501    0  0.00000000000E+00  0.00000000000E+00 -0.27093404382E+04  0.27093404382E+04  0.25500000920E-02 0.  1.
    10030    2    1    2    0    0  0.00000000000E+00  0.00000000000E+00 -0.14500524044E+04  0.39686284720E+04  0.36942333404E+04 0.  0.
        4    1    3    3  502    0 -0.22615232536E+03  0.15271347533E+04 -0.18145317542E+04  0.23823963836E+04  0.12699999809E+01 0.  1.
       -4    1    3    3    0  502  0.22615232536E+03 -0.15271347533E+04  0.36447934979E+03  0.15862320884E+04  0.12699999809E+01 0. -1.
</event>
<event>
 5   0  0.6949625E-07  0.3693708E+04  0.7818609E-02  0.8069358E-01
       -2   -1    0    0    0  501  0.00000000000E+00  0.00000000000E+00  0.21925799077E+04  0.21925799077E+04  0.25500000920E-02 0. -1.
        2   -1    0    0  501    0  0.00000000000E+00  0.00000000000E+00 -0.15556418189E+04  0.15556418189E+04  0.25500000920E-02 0.  1.
    10030    2    1    2    0    0  0.00000000000E+00  0.00000000000E+00  0.63693808876E+03  0.37482217266E+04  0.36937076201E+04 0.  0.
        5    1    3    3  502    0 -0.58127121428E+03 -0.31302410360E+03 -0.14318018252E+04  0.15766860406E+04  0.46999998093E+01 0.  1.
       -5    1    3    3    0  502  0.58127121428E+03  0.31302410360E+03  0.20687399140E+04  0.21715356860E+04  0.46999998093E+01 0. -1.
</event>
<event>
 5   0  0.6949625E-07  0.3586569E+04  0.7818609E-02  0.8093575E-01
       -2   -1    0    0    0  501  0.00000000000E+00  0.00000000000E+00  0.12388143044E+04  0.12388143044E+04  0.25500000920E-02 0.  1.
        2   -1    0    0  501    0  0.00000000000E+00  0.00000000000E+00 -0.25959249732E+04  0.25959249732E+04  0.25500000920E-02 0. -1.
    10030    2    1    2    0    0  0.00000000000E+00  0.00000000000E+00 -0.13571106688E+04  0.38347392777E+04  0.35865688283E+04 0.  0.
        5    1    3    3  502    0  0.75717527976E+03  0.60972347266E+03  0.93262156097E+03  0.13471756320E+04  0.46999998093E+01 0.  1.
       -5    1    3    3    0  502 -0.75717527976E+03 -0.60972347266E+03 -0.22897322298E+04  0.24875636457E+04  0.46999998093E+01 0. -1.
</event>
<event>
 5   0  0.7074157E-07  0.3656459E+04  0.7818609E-02  0.8077680E-01
        2   -1    0    0  501    0  0.00000000000E+00  0.00000000000E+00  0.24469696861E+04  0.24469696861E+04  0.25500000920E-02 0. -1.
       -2   -1    0    0    0  501  0.00000000000E+00  0.00000000000E+00 -0.13659441008E+04  0.13659441008E+04  0.25500000920E-02 0.  1.
    10030    2    1    2    0    0  0.00000000000E+00  0.00000000000E+00  0.10810255853E+04  0.38129137869E+04  0.36564593845E+04 0.  0.
        3    1    3    3  502    0 -0.56434809040E+03 -0.84901655014E+03 -0.10420217143E+04  0.14577815792E+04  0.10100000352E+00 0.  1.
       -3    1    3    3    0  502  0.56434809040E+03  0.84901655014E+03  0.21230472995E+04  0.23551322077E+04  0.10100000352E+00 0. -1.
</event>
<event>
 5   0  0.2411746E-07  0.3663963E+04  0.7818609E-02  0.8075995E-01
       -1   -1    0    0    0  501  0.00000000000E+00  0.00000000000E+00  0.16069539463E+04  0.16069539463E+04  0.50400001928E-02 0. -1.
        1   -1    0    0  501    0  0.00000000000E+00  0.00000000000E+00 -0.20885199540E+04  0.20885199540E+04  0.50400001928E-02 0.  1.
    10030    2    1    2    0    0  0.00000000000E+00  0.00000000000E+00 -0.48156600770E+03  0.36954739003E+04  0.36639625446E+04 0.  0.
        1    1    3    3  502    0 -0.18253279289E+04  0.10771371309E+03 -0.35458553192E+03  0.18625668287E+04  0.50400001928E-02 0.  1.
       -1    1    3    3    0  502  0.18253279289E+04 -0.10771371309E+03 -0.12698047577E+03  0.18329070716E+04  0.50400001928E-02 0. -1.
</event>
<event>
 5   0  0.2411746E-07  0.3156809E+04  0.7818609E-02  0.8200318E-01
       -1   -1    0    0    0  501  0.00000000000E+00  0.00000000000E+00  0.90630027382E+03  0.90630027384E+03  0.50400001928E-02 0. -1.
        1   -1    0    0  501    0  0.00000000000E+00  0.00000000000E+00 -0.27489349113E+04  0.27489349113E+04  0.50400001928E-02 0.  1.
    10030    2    1    2    0    0  0.00000000000E+00  0.00000000000E+00 -0.18426346375E+04  0.36552351852E+04  0.31568088082E+04 0.  0.
        1    1    3    3  502    0  0.63064278563E+03 -0.40434174335E+03 -0.25299743613E+04  0.26385550662E+04  0.50400001928E-02 0.  1.
       -1    1    3    3    0  502 -0.63064278563E+03  0.40434174335E+03  0.68733972377E+03  0.10166801190E+04  0.50400001928E-02 0. -1.
</event>
<event>
 5   0  0.7124627E-07  0.3690979E+04  0.7818609E-02  0.8069964E-01
        2   -1    0    0  501    0  0.00000000000E+00  0.00000000000E+00  0.23195574762E+04  0.23195574762E+04  0.25500000920E-02 0.  1.
       -2   -1    0    0    0  501  0.00000000000E+00  0.00000000000E+00 -0.14683107116E+04  0.14683107116E+04  0.25500000920E-02 0. -1.
    10030    2    1    2    0    0  0.00000000000E+00  0.00000000000E+00  0.85124676461E+03  0.37878681878E+04  0.36909787800E+04 0.  0.
        2    1    3    3  502    0 -0.90061582892E+03  0.15530728610E+04 -0.13015391948E+02  0.17953589010E+04  0.25500000920E-02 0. -1.
       -2    1    3    3    0  502  0.90061582892E+03 -0.15530728610E+04  0.86426215656E+03  0.19925092868E+04  0.25500000920E-02 0.  1.
</event>
<event>
 5   0  0.6939921E-07  0.3742108E+04  0.7818609E-02  0.8058694E-01
        2   -1    0    0  501    0  0.00000000000E+00  0.00000000000E+00  0.16622421138E+04  0.16622421138E+04  0.25500000920E-02 0. -1.
       -2   -1    0    0    0  501  0.00000000000E+00  0.00000000000E+00 -0.21060970802E+04  0.21060970802E+04  0.25500000920E-02 0.  1.
    10030    2    1    2    0    0  0.00000000000E+00  0.00000000000E+00 -0.44385496645E+03  0.37683391940E+04  0.37421081023E+04 0.  0.
        4    1    3    3  502    0 -0.15507227014E+04  0.39569547436E+03 -0.11980133483E+04  0.19991381645E+04  0.12699999809E+01 0.  1.
       -4    1    3    3    0  502  0.15507227014E+04 -0.39569547436E+03  0.75415838189E+03  0.17692010295E+04  0.12699999809E+01 0. -1.
</event>
<event>
 5   0  0.2345471E-07  0.3590809E+04  0.7818609E-02  0.8092600E-01
        1   -1    0    0  501    0  0.00000000000E+00  0.00000000000E+00  0.16886047709E+04  0.16886047709E+04  0.50400001928E-02 0. -1.
       -1   -1    0    0    0  501  0.00000000000E+00  0.00000000000E+00 -0.19089592146E+04  0.19089592146E+04  0.50400001928E-02 0.  1.
    10030    2    1    2    0    0  0.00000000000E+00  0.00000000000E+00 -0.22035444364E+03  0.35975639855E+04  0.35908091775E+04 0.  0.
        5    1    3    3  502    0 -0.14235182689E+04 -0.18951966327E+03  0.96940890113E+03  0.17326562475E+04  0.46999998093E+01 0. -1.
       -5    1    3    3    0  502  0.14235182689E+04  0.18951966327E+03 -0.11897633448E+04  0.18649077380E+04  0.46999998093E+01 0.  1.
</event>
<event>
 5   0  0.6939921E-07  0.3661941E+04  0.7818609E-02  0.8076449E-01
       -2   -1    0    0    0  501  0.00000000000E+00  0.00000000000E+00  0.17560678569E+04  0.17560678569E+04  0.25500000920E-02 0. -1.
        2   -1    0    0  501    0  0.00000000000E+00  0.00000000000E+00 -0.19090684277E+04  0.19090684277E+04  0.25500000920E-02 0.  1.
    10030    2    1    2    0    0  0.00000000000E+00  0.00000000000E+00 -0.15300057080E+03  0.36651362847E+04  0.36619413991E+04 0.  0.
        4    1    3    3  502    0  0.56269237720E+03 -0.72452566193E+03  0.15094616133E+04  0.17663623980E+04  0.12699999809E+01 0. -1.
       -4    1    3    3    0  502 -0.56269237720E+03  0.72452566193E+03 -0.16624621841E+04  0.18987738867E+04  0.12699999809E+01 0.  1.
</event>
<event>
 5   0  0.2345471E-07  0.2963874E+04  0.7818609E-02  0.8254123E-01
        1   -1    0    0  501    0  0.00000000000E+00  0.00000000000E+00  0.17409412444E+04  0.17409412444E+04  0.50400001928E-02 0. -1.
       -1   -1    0    0    0  501  0.00000000000E+00  0.00000000000E+00 -0.12614651557E+04  0.12614651558E+04  0.50400001928E-02 0.  1.
    10030    2    1    2    0    0  0.00000000000E+00  0.00000000000E+00  0.47947608864E+03  0.30024064001E+04  0.29638736262E+04 0.  0.
        5    1    3    3  502    0 -0.10124405937E+04 -0.10723163618E+04  0.92186234367E+02  0.14776395797E+04  0.46999998093E+01 0. -1.
       -5    1    3    3    0  502  0.10124405937E+04  0.10723163618E+04  0.38728985427E+03  0.15247668205E+04  0.46999998093E+01 0.  1.
</event>
<event>
 5   0  0.2287500E-07  0.3744639E+04  0.7818609E-02  0.8058141E-01
       -1   -1    0    0    0  501  0.00000000000E+00  0.00000000000E+00  0.27939272170E+04  0.27939272170E+04  0.50400001928E-02 0. -1.
        1   -1    0    0  501    0  0.00000000000E+00  0.00000000000E+00 -0.12547141807E+04  0.12547141807E+04  0.50400001928E-02 0.  1.
    10030    2    1    2    0    0  0.00000000000E+00  0.00000000000E+00  0.15392130363E+04  0.40486413976E+04  0.37446388872E+04 0.  0.
        4    1    3    3  502    0  0.53520269083E+03 -0.29720951971E+03 -0.11434475465E+04  0.12970155448E+04  0.12699999809E+01 0.  1.
       -4    1    3    3    0  502 -0.53520269083E+03  0.29720951971E+03  0.26826605828E+04  0.27516258529E+04  0.12699999809E+01 0. -1.
</event>
<event>
 5   0  0.2411746E-07  0.3652099E+04  0.7818609E-02  0.8078661E-01
        1   -1    0    0  501    0  0.00000000000E+00  0.00000000000E+00  0.25682432798E+04  0.25682432798E+04  0.50400001928E-02 0.  1.
       -1   -1    0    0    0  501  0.00000000000E+00  0.00000000000E+00 -0.12983411972E+04  0.12983411972E+04  0.50400001928E-02 0. -1.
    10030    2    1    2    0    0  0.00000000000E+00  0.00000000000E+00  0.12699020826E+04  0.38665844769E+04  0.36520986046E+04 0.  0.
        1    1    3    3  502    0 -0.62124797748E+03  0.41581796117E+03 -0.11289070339E+04  0.13539884481E+04  0.50400001928E-02 0. -1.
       -1    1    3    3    0  502  0.62124797748E+03 -0.41581796117E+03  0.23988091165E+04  0.25125960288E+04  0.50400001928E-02 0.  1.
</event>
<event>
 5   0  0.2411746E-07  0.2773652E+04  0.7818609E-02  0.8311495E-01
       -1   -1    0    0    0  501  0.00000000000E+00  0.00000000000E+00  0.10862035347E+04  0.10862035347E+04  0.50400001928E-02 0. -1.
        1   -1    0    0  501    0  0.00000000000E+00  0.00000000000E+00 -0.17706502143E+04  0.17706502143E+04  0.50400001928E-02 0.  1.
    10030    2    1    2    0    0  0.00000000000E+00  0.00000000000E+00 -0.68444667961E+03  0.28568537490E+04  0.27736521206E+04 0.  0.
        1    1    3    3  502    0  0.12518232838E+04 -0.57598583155E+03 -0.50332921372E+03  0.14670247133E+04  0.50400001928E-02 0. -1.
       -1    1    3    3    0  502 -0.12518232838E+04  0.57598583155E+03 -0.18111746590E+03  0.13898290357E+04  0.50400001928E-02 0.  1.
</event>
<event>
 5   0  0.2411746E-07  0.3655646E+04  0.7818609E-02  0.8077863E-01
        1   -1    0    0  501    0  0.00000000000E+00  0.00000000000E+00  0.17712274602E+04  0.17712274603E+04  0.50400001928E-02 0. -1.
       -1   -1    0    0    0  501  0.00000000000E+00  0.00000000000E+00 -0.18862274324E+04  0.18862274324E+04  0.50400001928E-02 0.  1.
    10030    2    1    2    0    0  0.00000000000E+00  0.00000000000E+00 -0.11499997214E+03  0.36574548926E+04  0.36556464952E+04 0.  0.
        1    1    3    3  502    0 -0.25518536181E+02  0.49248153217E+03 -0.18184128611E+04  0.18840951644E+04  0.50400001928E-02 0.  1.
       -1    1    3    3    0  502  0.25518536181E+02 -0.49248153217E+03  0.17034128890E+04  0.17733597282E+04  0.50400001928E-02 0. -1.
</event>
<event>
 5   0  0.2287500E-07  0.3533195E+04  0.7818609E-02  0.8105968E-01
        1   -1    0    0  501    0  0.00000000000E+00  0.00000000000E+00  0.17869978254E+04  0.17869978254E+04  0.50400001928E-02 0.  1.
       -1   -1    0    0    0  501  0.00000000000E+00  0.00000000000E+00 -0.17464299834E+04  0.17464299834E+04  0.50400001928E-02 0. -1.
    10030    2    1    2    0    0  0.00000000000E+00  0.00000000000E+00  0.40567841989E+02  0.35334278089E+04  0.35331949183E+04 0.  0.
        2    1    3    3  502    0 -0.14508394065E+04  0.47164550676E+03  0.91111876735E+03  0.17769417198E+04  0.25500000920E-02 0.  1.
       -2    1    3    3    0  502  0.14508394065E+04 -0.47164550676E+03 -0.87055092536E+03  0.17564860890E+04  0.25500000920E-02 0. -1.
</event>
<event>
 5   0  0.2345471E-07  0.3753918E+04  0.7818609E-02  0.8056117E-01
       -1   -1    0    0    0  501  0.00000000000E+00  0.00000000000E+00  0.17117106145E+04  0.17117106145E+04  0.50400001928E-02 0.  1.
        1   -1    0    0  501    0  0.00000000000E+00  0.00000000000E+00 -0.20581605986E+04  0.20581605986E+04  0.50400001928E-02 0. -1.
    10030    2    1    2    0    0  0.00000000000E+00  0.00000000000E+00 -0.34644998405E+03  0.37698712131E+04  0.37539181360E+04 0.  0.
        5    1    3    3  502    0 -0.12620409978E+04 -0.79777508462E+03 -0.13154947839E+04  0.19899098428E+04  0.46999998093E+01 0. -1.
       -5    1    3    3    0  502  0.12620409978E+04  0.79777508462E+03  0.96904479984E+03  0.17799613704E+04  0.46999998093E+01 0.  1.
</event>
<event>
 5   0  0.7074157E-07  0.3603046E+04  0.7818609E-02  0.8089794E-01
        2   -1    0    0  501    0  0.00000000000E+00  0.00000000000E+00  0.27842184089E+04  0.27842184089E+04  0.25500000920E-02 0. -1.
       -2   -1    0    0    0  501  0.00000000000E+00  0.00000000000E+00 -0.11656716280E+04  0.11656716280E+04  0.25500000920E-02 0.  1.
    10030    2    1    2    0    0  0.00000000000E+00  0.00000000000E+00  0.16185467809E+04  0.39498900368E+04  0.36030456035E+04 0.  0.
        3    1    3    3  502    0  0.57626918612E+03  0.33651996656E+03  0.26437242851E+04  0.27266481197E+04  0.10100000352E+00 0. -1.
       -3    1    3    3    0  502 -0.57626918612E+03 -0.33651996656E+03 -0.10251775041E+04  0.12232419172E+04  0.10100000352E+00 0.  1.
</event>
<event>
 5   0  0.2287500E-07  0.3652860E+04  0.7818609E-02  0.8078490E-01
        1   -1    0    0  501    0  0.00000000000E+00  0.00000000000E+00  0.23401042762E+04  0.23401042762E+04  0.50400001928E-02 0.  1.
       -1   -1    0    0    0  501  0.00000000000E+00  0.00000000000E+00 -0.14255117956E+04  0.14255117956E+04  0.50400001928E-02 0. -1.
    10030    2    1    2    0    0  0.00000000000E+00  0.00000000000E+00  0.91459248057E+03  0.37656160718E+04  0.36528598378E+04 0.  0.
        3    1    3    3  502    0  0.17098393954E+04 -0.44087380277E+03 -0.23938892379E+02  0.17659256917E+04  0.10100000352E+00 0. -1.
       -3    1    3    3    0  502 -0.17098393954E+04  0.44087380277E+03  0.93853137295E+03  0.19996903801E+04  0.10100000352E+00 0.  1.
</event>
<event>
 5   0  0.2287500E-07  0.3692734E+04  0.7818609E-02  0.8069574E-01
       -1   -1    0    0    0  501  0.00000000000E+00  0.00000000000E+00  0.23780350409E+04  0.23780350409E+04  0.50400001928E-02 0.  1.
        1   -1    0    0  501    0  0.00000000000E+00  0.00000000000E+00 -0.14335661523E+04  0.14335661523E+04  0.50400001928E-02 0. -1.
    10030    2    1    2    0    0  0.00000000000E+00  0.00000000000E+00  0.94446888863E+03  0.38116011932E+04  0.36927336994E+04 0.  0.
        2    1    3    3  502    0  0.10374851239E+04 -0.15249311150E+04  0.56030541391E+03  0.19276235226E+04  0.25500000920E-02 0. -1.
       -2    1    3    3    0  502 -0.10374851239E+04  0.15249311150E+04  0.38416347472E+03  0.18839776706E+04  0.25500000920E-02 0.  1.
</event>
<event>
 5   0  0.6949625E-07  0.3670171E+04  0.7818609E-02  0.8074605E-01
       -2   -1    0    0    0  501  0.00000000000E+00  0.00000000000E+00  0.17148383900E+04  0.17148383900E+04  0.25500000920E-02 0.  1.
        2   -1    0    0  501    0  0.00000000000E+00  0.00000000000E+00 -0.19637646898E+04  0.19637646898E+04  0.25500000920E-02 0. -1.
    10030    2    1    2    0    0  0.00000000000E+00  0.00000000000E+00 -0.24892629980E+03  0.36786030797E+04  0.36701711561E+04 0.  0.
        5    1    3    3  502    0  0.17094625002E+04 -0.62562346842E+03  0.10812649399E+03  0.18235625003E+04  0.46999998093E+01 0.  1.
       -5    1    3    3    0  502 -0.17094625002E+04  0.62562346842E+03 -0.35705279379E+03  0.18550405794E+04  0.46999998093E+01 0. -1.
</event>
<event>
 5   0  0.7074157E-07  0.3711051E+04  0.7818609E-02  0.8065517E-01
        2   -1    0    0  501    0  0.00000000000E+00  0.00000000000E+00  0.27600117491E+04  0.27600117491E+04  0.25500000920E-02 0.  1.
       -2   -1    0    0    0  501  0.00000000000E+00  0.00000000000E+00 -0.12474490655E+04  0.12474490655E+04  0.25500000920E-02 0. -1.
    10030    2    1    2    0    0  0.00000000000E+00  0.00000000000E+00  0.15125626837E+04  0.40074608146E+04  0.37110505667E+04 0.  0.
        3    1    3    3  502    0 -0.11065101502E+04 -0.12691722791E+04  0.15981739935E+04  0.23214915702E+04  0.10100000352E+00 0.  1.
       -3    1    3    3    0  502  0.11065101502E+04  0.12691722791E+04 -0.85611309878E+02  0.16859692444E+04  0.10100000352E+00 0. -1.
</event>
<event>
 5   0  0.2411746E-07  0.3577412E+04  0.7818609E-02  0.8095685E-01
       -1   -1    0    0    0  501  0.00000000000E+00  0.00000000000E+00  0.30640514373E+04  0.30640514373E+04  0.50400001928E-02 0. -1.
        1   -1    0    0  501    0  0.00000000000E+00  0.00000000000E+00 -0.10441956389E+04  0.10441956389E+04  0.50400001928E-02 0.  1.
    10030    2    1    2    0    0  0.00000000000E+00  0.00000000000E+00  0.20198557984E+04  0.41082470762E+04  0.35774119965E+04 0.  0.
        1    1    3    3  502    0 -0.39081650358E+03 -0.15629562962E+04  0.11750679538E+03  0.16153568554E+04  0.50400001928E-02 0.  1.
       -1    1    3    3    0  502  0.39081650358E+03  0.15629562962E+04  0.19023490030E+04  0.24928902207E+04  0.50400001928E-02 0. -1.
</event>
<event>
 5   0  0.6939921E-07  0.3687625E+04  0.7818609E-02  0.8070710E-01
        2   -1    0    0  501    0  0.00000000000E+00  0.00000000000E+00  0.24467776739E+04  0.24467776739E+04  0.25500000920E-02 0.  1.
       -2   -1    0    0    0  501  0.00000000000E+00  0.00000000000E+00 -0.13894376890E+04  0.13894376890E+04  0.25500000920E-02 0. -1.
    10030    2    1    2    0    0  0.00000000000E+00  0.00000000000E+00  0.10573399848E+04  0.38362153629E+04  0.36876253154E+04 0.  0.
        4    1    3    3  502    0 -0.14369780849E+04  0.10626558241E+04  0.10002573972E+04  0.20480868855E+04  0.12699999809E+01 0.  1.
       -4    1    3    3    0  502  0.14369780849E+04 -0.10626558241E+04  0.57082587637E+02  0.17881284774E+04  0.12699999809E+01 0. -1.
</event>
<event>
 5   0  0.7300916E-07  0.3440685E+04  0.7818609E-02  0.8127993E-01
       -2   -1    0    0    0  501  0.00000000000E+00  0.00000000000E+00  0.13739407429E+04  0.13739407429E+04  0.25500000920E-02 0. -1.
        2   -1    0    0  501    0  0.00000000000E+00  0.00000000000E+00 -0.21540798411E+04  0.21540798411E+04  0.25500000920E-02 0.  1.
    10030    2    1    2    0    0  0.00000000000E+00  0.00000000000E+00 -0.78013909817E+03  0.35280205839E+04  0.34406848487E+04 0.  0.
        1    1    3    3  502    0  0.41148641553E+03  0.12328715339E+04 -0.15457473218E+04  0.20195613564E+04  0.50400001928E-02 0.  1.
       -1    1    3    3    0  502 -0.41148641553E+03 -0.12328715339E+04  0.76560822364E+03  0.15084592276E+04  0.50400001928E-02 0. -1.
</event>
<event>
 5   0  0.7074157E-07  0.3710278E+04  0.7818609E-02  0.8065688E-01
        2   -1    0    0  501    0  0.00000000000E+00  0.00000000000E+00  0.23944974708E+04  0.23944974708E+04  0.25500000920E-02 0. -1.
       -2   -1    0    0    0  501  0.00000000000E+00  0.00000000000E+00 -0.14372705031E+04  0.14372705031E+04  0.25500000920E-02 0.  1.
    10030    2    1    2    0    0  0.00000000000E+00  0.00000000000E+00  0.95722696769E+03  0.38317679739E+04  0.37102779328E+04 0.  0.
        3    1    3    3  502    0 -0.72252054144E+03 -0.16650171957E+04  0.82353993616E+02  0.18168930583E+04  0.10100000352E+00 0.  1.
       -3    1    3    3    0  502  0.72252054144E+03  0.16650171957E+04  0.87487297407E+03  0.20148749156E+04  0.10100000352E+00 0. -1.
</event>
<event>
 5   0  0.2345471E-07  0.3794086E+04  0.7818609E-02  0.8047425E-01
       -1   -1    0    0    0  501  0.00000000000E+00  0.00000000000E+00  0.14971733530E+04  0.14971733531E+04  0.50400001928E-02 0.  1.
        1   -1    0    0  501    0  0.00000000000E+00  0.00000000000E+00 -0.24037112178E+04  0.24037112178E+04  0.50400001928E-02 0. -1.
    10030    2    1    2    0    0  0.00000000000E+00  0.00000000000E+00 -0.90653786473E+03  0.39008845708E+04  0.37940861264E+04 0.  0.
        5    1    3    3  502    0  0.21169322576E+03  0.24185322010E+03 -0.23755064289E+04  0.23971566252E+04  0.46999998093E+01 0. -1.
       -5    1    3    3    0  502 -0.21169322576E+03 -0.24185322010E+03  0.14689685642E+04  0.15037279456E+04  0.46999998093E+01 0.  1.
</event>
<event>
 5   0  0.2287500E-07  0.3753295E+04  0.7818609E-02  0.8056253E-01
        1   -1    0    0  501    0  0.00000000000E+00  0.00000000000E+00  0.24313009401E+04  0.24313009401E+04  0.50400001928E-02 0. -1.
       -1   -1    0    0    0  501  0.00000000000E+00  0.00000000000E+00 -0.14485271432E+04  0.14485271432E+04  0.50400001928E-02 0.  1.
    10030    2    1    2    0    0  0.00000000000E+00  0.00000000000E+00  0.98277379688E+03  0.38798280833E+04  0.37532947686E+04 0.  0.
        2    1    3    3  502    0 -0.12105816920E+04 -0.40661897120E+03  0.19128670317E+04  0.22999798481E+04  0.25500000920E-02 0. -1.
       -2    1    3    3    0  502  0.12105816920E+04  0.40661897120E+03 -0.93009323483E+03  0.15798482352E+04  0.25500000920E-02 0.  1.
</event>
<event>
 5   0  0.2287500E-07  0.3397772E+04  0.7818609E-02  0.8138453E-01
        1   -1    0    0  501    0  0.00000000000E+00  0.00000000000E+00  0.16168756567E+04  0.16168756567E+04  0.50400001928E-02 0. -1.
       -1   -1    0    0    0  501  0.00000000000E+00  0.00000000000E+00 -0.17850555368E+04  0.17850555368E+04  0.50400001928E-02 0.  1.
    10030    2    1    2    0    0  0.00000000000E+00  0.00000000000E+00 -0.16817988004E+03  0.34019311935E+04  0.33977715305E+04 0.  0.
        3    1    3    3  502    0  0.48588539726E+03  0.92946125133E+03 -0.14222252828E+04  0.17671184460E+04  0.10100000352E+00 0.  1.
       -3    1    3    3    0  502 -0.48588539726E+03 -0.92946125133E+03  0.12540454028E+04  0.16348127475E+04  0.10100000352E+00 0. -1.
</event>
<event>
 5   0  0.7124627E-07  0.3682807E+04  0.7818609E-02  0.8071783E-01
        2   -1    0    0  501    0  0.00000000000E+00  0.00000000000E+00  0.11939460801E+04  0.11939460801E+04  0.25500000920E-02 0.  1.
       -2   -1    0    0    0  501  0.00000000000E+00  0.00000000000E+00 -0.28399658073E+04  0.28399658073E+04  0.25500000920E-02 0. -1.
    10030    2    1    2    0    0  0.00000000000E+00  0.00000000000E+00 -0.16460197273E+04  0.40339118874E+04  0.36828065620E+04 0.  0.
        2    1    3    3  502    0 -0.11109290524E+04 -0.75050723047E+03 -0.22056270288E+04  0.25811267022E+04  0.25500000920E-02 0. -1.
       -2    1    3    3    0  502  0.11109290524E+04  0.75050723047E+03  0.55960730159E+03  0.14527851852E+04  0.25500000920E-02 0.  1.
</event>
<event>
 5   0  0.6939921E-07  0.3718566E+04  0.7818609E-02  0.8063860E-01
       -2   -1    0    0    0  501  0.00000000000E+00  0.00000000000E+00  0.13017542328E+04  0.13017542328E+04  0.25500000920E-02 0. -1.
        2   -1    0    0  501    0  0.00000000000E+00  0.00000000000E+00 -0.26555957567E+04  0.26555957567E+04  0.25500000920E-02 0.  1.
    10030    2    1    2    0    0  0.00000000000E+00  0.00000000000E+00 -0.13538415239E+04  0.39573499896E+04  0.37185658617E+04 0.  0.
        4    1    3    3  502    0  0.12983810883E+04 -0.17661910126E+03 -0.20806927584E+04  0.24589167788E+04  0.12699999809E+01 0.  1.
       -4    1    3    3    0  502 -0.12983810883E+04  0.17661910126E+03  0.72685123444E+03  0.14984332108E+04  0.12699999809E+01 0. -1.
</event>
<event>
 5   0  0.2287500E-07  0.3004526E+04  0.7818609E-02  0.8242440E-01
       -1   -1    0    0    0  501  0.00000000000E+00  0.00000000000E+00  0.12156060986E+04  0.12156060986E+04  0.50400001928E-02 0. -1.
        1   -1    0    0  501    0  0.00000000000E+00  0.00000000000E+00 -0.18565181620E+04  0.18565181620E+04  0.50400001928E-02 0.  1.
    10030    2    1    2    0    0  0.00000000000E+00  0.00000000000E+00 -0.64091206347E+03  0.30721242606E+04  0.30045264518E+04 0.  0.
        2    1    3    3  502    0 -0.99916778063E+03 -0.71104295401E+03  0.56675024630E+03  0.13509715682E+04  0.25500000920E-02 0. -1.
       -2    1    3    3    0  502  0.99916778063E+03  0.71104295401E+03 -0.12076623098E+04  0.17211526925E+04  0.25500000920E-02 0.  1.
</event>
<event>
 5   0  0.2345471E-07  0.3729150E+04  0.7818609E-02  0.8061532E-01
        1   -1    0    0  501    0  0.00000000000E+00  0.00000000000E+00  0.13803284880E+04  0.13803284880E+04  0.50400001928E-02 0.  1.
       -1   -1    0    0    0  501  0.00000000000E+00  0.00000000000E+00 -0.25187049341E+04  0.25187049341E+04  0.50400001928E-02 0. -1.
    10030    2    1    2    0    0  0.00000000000E+00  0.00000000000E+00 -0.11383764461E+04  0.38990334221E+04  0.37291501302E+04 0.  0.
        5    1    3    3  502    0 -0.15772801074E+04  0.91882954930E+03 -0.17166009505E+03  0.18334529053E+04  0.46999998093E+01 0. -1.
       -5    1    3    3    0  502  0.15772801074E+04 -0.91882954930E+03 -0.96671635106E+03  0.20655805168E+04  0.46999998093E+01 0.  1.
</event>
<event>
 5   0  0.2287500E-07  0.3678140E+04  0.7818609E-02  0.8072824E-01
       -1   -1    0    0    0  501  0.00000000000E+00  0.00000000000E+00  0.15279390867E+04  0.15279390867E+04  0.50400001928E-02 0.  1.
        1   -1    0    0  501    0  0.00000000000E+00  0.00000000000E+00 -0.22135561992E+04  0.22135561992E+04  0.50400001928E-02 0. -1.
    10030    2    1    2    0    0  0.00000000000E+00  0.00000000000E+00 -0.68561711246E+03  0.37414952859E+04  0.36781403113E+04 0.  0.
        2    1    3    3  502    0 -0.57568548885E+03  0.11122996079E+04 -0.17126877076E+04  0.21217736410E+04  0.25500000920E-02 0. -1.
       -2    1    3    3    0  502  0.57568548885E+03 -0.11122996079E+04  0.10270705951E+04  0.16197216449E+04  0.25500000920E-02 0.  1.
</event>
<event>
 5   0  0.7124627E-07  0.3709041E+04  0.7818609E-02  0.8065961E-01
        2   -1    0    0  501    0  0.00000000000E+00  0.00000000000E+00  0.25208845174E+04  0.25208845174E+04  0.25500000920E-02 0. -1.
       -2   -1    0    0    0  501  0.00000000000E+00  0.00000000000E+00 -0.13643011214E+04  0.13643011214E+04  0.25500000920E-02 0.  1.
    10030    2    1    2    0    0  0.00000000000E+00  0.00000000000E+00  0.11565833960E+04  0.38851856387E+04  0.37090406166E+04 0.  0.
        2    1    3    3  502    0  0.12005803557E+04 -0.72997345999E+03  0.18461411384E+04  0.23200197296E+04  0.25500000920E-02 0. -1.
       -2    1    3    3    0  502 -0.12005803557E+04  0.72997345999E+03 -0.68955774240E+03  0.15651659091E+04  0.25500000920E-02 0.  1.
</event>
<event>
 5   0  0.7074157E-07  0.3708866E+04  0.7818609E-02  0.8066000E-01
        2   -1    0    0  501    0  0.00000000000E+00  0.00000000000E+00  0.18618637985E+04  0.18618637986E+04  0.25500000920E-02 0.  1.
       -2   -1    0    0    0  501  0.00000000000E+00  0.00000000000E+00 -0.18470313742E+04  0.18470313742E+04  0.25500000920E-02 0. -1.
    10030    2    1    2    0    0  0.00000000000E+00  0.00000000000E+00  0.14832424307E+02  0.37088951728E+04  0.37088655141E+04 0.  0.
        3    1    3    3  502    0 -0.78492012414E+03  0.68361633100E+02  0.16861636613E+04  0.18611611475E+04  0.10100000352E+00 0.  1.
       -3    1    3    3    0  502  0.78492012414E+03 -0.68361633100E+02 -0.16713312370E+04  0.18477340253E+04  0.10100000352E+00 0. -1.
</event>
<event>
 5   0  0.7124627E-07  0.3096544E+04  0.7818609E-02  0.8216687E-01
        2   -1    0    0  501    0  0.00000000000E+00  0.00000000000E+00  0.18783660327E+04  0.18783660327E+04  0.25500000920E-02 0. -1.
       -2   -1    0    0    0  501  0.00000000000E+00  0.00000000000E+00 -0.12761867025E+04  0.12761867025E+04  0.25500000920E-02 0.  1.
    10030    2    1    2    0    0  0.00000000000E+00  0.00000000000E+00  0.60217933015E+03  0.31545527352E+04  0.30965437205E+04 0.  0.
        2    1    3    3  502    0  0.10296945146E+04  0.41470391214E+03  0.14006120686E+04  0.17871665549E+04  0.25500000920E-02 0.  1.
       -2    1    3    3    0  502 -0.10296945146E+04 -0.41470391214E+03 -0.79843273844E+03  0.13673861803E+04  0.25500000920E-02 0. -1.
</event>
<event>
 5   0  0.2287500E-07  0.3668912E+04  0.7818609E-02  0.8074887E-01
       -1   -1    0    0    0  501  0.00000000000E+00  0.00000000000E+00  0.17026005657E+04  0.17026005657E+04  0.50400001928E-02 0.  1.
        1   -1    0    0  501    0  0.00000000000E+00  0.00000000000E+00 -0.19765223859E+04  0.19765223859E+04  0.50400001928E-02 0. -1.
    10030    2    1    2    0    0  0.00000000000E+00  0.00000000000E+00 -0.27392182015E+03  0.36791229516E+04  0.36689116274E+04 0.  0.
        3    1    3    3  502    0  0.15070454891E+03 -0.18186356113E+03  0.16872894116E+04  0.17037405274E+04  0.10100000352E+00 0.  1.
       -3    1    3    3    0  502 -0.15070454891E+03  0.18186356113E+03 -0.19612112318E+04  0.19753824242E+04  0.10100000352E+00 0. -1.
</event>
<event>
 5   0  0.2345471E-07  0.3899861E+04  0.7818609E-02  0.8025058E-01
       -1   -1    0    0    0  501  0.00000000000E+00  0.00000000000E+00  0.27085547294E+04  0.27085547294E+04  0.50400001928E-02 0. -1.
        1   -1    0    0  501    0  0.00000000000E+00  0.00000000000E+00 -0.14037851799E+04  0.14037851799E+04  0.50400001928E-02 0.  1.
    10030    2    1    2    0    0  0.00000000000E+00  0.00000000000E+00  0.13047695495E+04  0.41123399093E+04  0.38998610170E+04 0.  0.
        5    1    3    3  502    0  0.28946091524E+03 -0.15009195011E+04  0.19289895999E+04  0.24612131027E+04  0.46999998093E+01 0. -1.
       -5    1    3    3    0  502 -0.28946091524E+03  0.15009195011E+04 -0.62422005035E+03  0.16511268066E+04  0.46999998093E+01 0.  1.
</event>
<event>
 5   0  0.7074157E-07  0.3732846E+04  0.7818609E-02  0.8060721E-01
        2   -1    0    0  501    0  0.00000000000E+00  0.00000000000E+00  0.21126006822E+04  0.21126006822E+04  0.25500000920E-02 0.  1.
       -2   -1    0    0    0  501  0.00000000000E+00  0.00000000000E+00 -0.16489322865E+04  0.16489322865E+04  0.25500000920E-02 0. -1.
    10030    2    1    2    0    0  0.00000000000E+00  0.00000000000E+00  0.46366839569E+03  0.37615329687E+04  0.37328463528E+04 0.  0.
        3    1    3    3  502    0 -0.14751925872E+04 -0.10086754976E+04 -0.31074217264E+03  0.18138853704E+04  0.10100000352E+00 0. -1.
       -3    1    3    3    0  502  0.14751925872E+04  0.10086754976E+04  0.77441056833E+03  0.19476475983E+04  0.10100000352E+00 0.  1.
</event>
<event>
 5   0  0.2345471E-07  0.3545396E+04  0.7818609E-02  0.8103115E-01
       -1   -1    0    0    0  501  0.00000000000E+00  0.00000000000E+00  0.11238720518E+04  0.11238720518E+04  0.50400001928E-02 0. -1.
        1   -1    0    0  501    0  0.00000000000E+00  0.00000000000E+00 -0.27960997778E+04  0.27960997778E+04  0.50400001928E-02 0.  1.
    10030    2    1    2    0    0  0.00000000000E+00  0.00000000000E+00 -0.16722277259E+04  0.39199718296E+04  0.35453961101E+04 0.  0.
        5    1    3    3  502    0  0.69997121100E+03  0.18606804101E+02 -0.26367071164E+04  0.27281041801E+04  0.46999998093E+01 0.  1.
       -5    1    3    3    0  502 -0.69997121100E+03 -0.18606804101E+02  0.96447939050E+03  0.11918676496E+04  0.46999998093E+01 0. -1.
</event>
<event>
 5   0  0.2287500E-07  0.3628051E+04  0.7818609E-02  0.8084096E-01
       -1   -1    0    0    0  501  0.00000000000E+00  0.00000000000E+00  0.15808309358E+04  0.15808309358E+04  0.50400001928E-02 0. -1.
        1   -1    0    0  501    0  0.00000000000E+00  0.00000000000E+00 -0.20816198013E+04  0.20816198013E+04  0.50400001928E-02 0.  1.
    10030    2    1    2    0    0  0.00000000000E+00  0.00000000000E+00 -0.50078886556E+03  0.36624507371E+04  0.36280512557E+04 0.  0.
        2    1    3    3  502    0  0.82105545439E+02  0.95194525232E+03  0.13062208166E+04  0.16183800251E+04  0.25500000920E-02 0. -1.
       -2    1    3    3    0  502 -0.82105545439E+02 -0.95194525232E+03 -0.18070096822E+04  0.20440707120E+04  0.25500000920E-02 0.  1.
</event>
<event>
 5   0  0.6949625E-07  0.3692987E+04  0.7818609E-02  0.8069518E-01
        2   -1    0    0  501    0  0.00000000000E+00  0.00000000000E+00  0.17530190811E+04  0.17530190811E+04  0.25500000920E-02 0.  1.
       -2   -1    0    0    0  501  0.00000000000E+00  0.00000000000E+00 -0.19449526388E+04  0.19449526388E+04  0.25500000920E-02 0. -1.
    10030    2    1    2    0    0  0.00000000000E+00  0.00000000000E+00 -0.19193355768E+03  0.36979717199E+04  0.36929874560E+04 0.  0.
        5    1    3    3  502    0  0.11008467516E+04 -0.12246469510E+04 -0.93249434919E+03  0.18924036373E+04  0.46999998093E+01 0. -1.
       -5    1    3    3    0  502 -0.11008467516E+04  0.12246469510E+04  0.74056079151E+03  0.18055680826E+04  0.46999998093E+01 0.  1.
</event>
<event>
 5   0  0.2411746E-07  0.3692090E+04  0.7818609E-02  0.8069717E-01
       -1   -1    0    0    0  501  0.00000000000E+00  0.00000000000E+00  0.18949928619E+04  0.18949928619E+04  0.50400001928E-02 0.  1.
        1   -1    0    0  501    0  0.00000000000E+00  0.00000000000E+00 -0.17983610979E+04  0.17983610980E+04  0.50400001928E-02 0. -1.
    10030    2    1    2    0    0  0.00000000000E+00  0.00000000000E+00  0.96631763992E+02  0.36933539599E+04  0.36920896218E+04 0.  0.
        1    1    3    3  502    0 -0.93798792011E+03  0.13601118245E+04 -0.77546835691E+03  0.18251237454E+04  0.50400001928E-02 0. -1.
       -1    1    3    3    0  502  0.93798792011E+03 -0.13601118245E+04  0.87210012090E+03  0.18682302145E+04  0.50400001928E-02 0.  1.
</event>
<event>
 5   0  0.7074157E-07  0.3718101E+04  0.7818609E-02  0.8063962E-01
       -2   -1    0    0    0  501  0.00000000000E+00  0.00000000000E+00  0.11504118727E+04  0.11504118727E+04  0.25500000920E-02 0.  1.
        2   -1    0    0  501    0  0.00000000000E+00  0.00000000000E+00 -0.30042017489E+04  0.30042017489E+04  0.25500000920E-02 0. -1.
    10030    2    1    2    0    0  0.00000000000E+00  0.00000000000E+00 -0.18537898761E+04  0.41546136216E+04  0.37181013219E+04 0.  0.
        3    1    3    3  502    0  0.65761402039E+03 -0.26685360341E+03  0.99308719795E+03  0.12206101910E+04  0.10100000352E+00 0.  1.
       -3    1    3    3    0  502 -0.65761402039E+03  0.26685360341E+03 -0.28468770741E+04  0.29340034306E+04  0.10100000352E+00 0. -1.
</event>
<event>
 5   0  0.6939921E-07  0.3745815E+04  0.7818609E-02  0.8057884E-01
       -2   -1    0    0    0  501  0.00000000000E+00  0.00000000000E+00  0.11528504203E+04  0.11528504203E+04  0.25500000920E-02 0.  1.
        2   -1    0    0  501    0  0.00000000000E+00  0.00000000000E+00 -0.30427042550E+04  0.30427042550E+04  0.25500000920E-02 0. -1.
    10030    2    1    2    0    0  0.00000000000E+00  0.00000000000E+00 -0.18898538347E+04  0.41955546753E+04  0.37458152005E+04 0.  0.
        4    1    3    3  502    0 -0.41026645485E+02 -0.11116557180E+04  0.74273923742E+03  0.13375817017E+04  0.12699999809E+01 0.  1.
       -4    1    3    3    0  502  0.41026645485E+02  0.11116557180E+04 -0.26325930721E+04  0.28579729735E+04  0.12699999809E+01 0. -1.
</event>
<event>
 5   0  0.7074157E-07  0.3676787E+04  0.7818609E-02  0.8073126E-01
        2   -1    0    0  501    0  0.00000000000E+00  0.00000000000E+00  0.18095095616E+04  0.18095095616E+04  0.25500000920E-02 0.  1.
       -2   -1    0    0    0  501  0.00000000000E+00  0.00000000000E+00 -0.18677382854E+04  0.18677382854E+04  0.25500000920E-02 0. -1.
    10030    2    1    2    0    0  0.00000000000E+00  0.00000000000E+00 -0.58228723803E+02  0.36772478470E+04  0.36767867961E+04 0.  0.
        3    1    3    3  502    0 -0.60523014208E+03  0.92610295546E+03 -0.14975355324E+04  0.18618761747E+04  0.10100000352E+00 0. -1.
       -3    1    3    3    0  502  0.60523014208E+03 -0.92610295546E+03  0.14393068086E+04  0.18153716723E+04  0.10100000352E+00 0.  1.
</event>
<event>
 5   0  0.2287500E-07  0.3651806E+04  0.7818609E-02  0.8078727E-01
       -1   -1    0    0    0  501  0.00000000000E+00  0.00000000000E+00  0.11037068343E+04  0.11037068343E+04  0.50400001928E-02 0.  1.
        1   -1    0    0  501    0  0.00000000000E+00  0.00000000000E+00 -0.30206591371E+04  0.30206591371E+04  0.50400001928E-02 0. -1.
    10030    2    1    2    0    0  0.00000000000E+00  0.00000000000E+00 -0.19169523028E+04  0.41243659714E+04  0.36518062017E+04 0.  0.
        2    1    3    3  502    0  0.10695306421E+04 -0.24940345026E+03 -0.26059455297E+04  0.28279055817E+04  0.25500000920E-02 0. -1.
       -2    1    3    3    0  502 -0.10695306421E+04  0.24940345026E+03  0.68899322683E+03  0.12964603897E+04  0.25500000920E-02 0.  1.
</event>
<event>
 5   0  0.6939921E-07  0.3441409E+04  0.7818609E-02  0.8127817E-01
        2   -1    0    0  501    0  0.00000000000E+00  0.00000000000E+00  0.24064484238E+04  0.24064484238E+04  0.25500000920E-02 0. -1.
       -2   -1    0    0    0  501  0.00000000000E+00  0.00000000000E+00 -0.12303704882E+04  0.12303704882E+04  0.25500000920E-02 0.  1.
    10030    2    1    2    0    0  0.00000000000E+00  0.00000000000E+00  0.11760779356E+04  0.36368189119E+04  0.34414085035E+04 0.  0.
        4    1    3    3  502    0  0.11470297801E+04  0.57667865346E+03 -0.62269665462E+03  0.14268806266E+04  0.12699999809E+01 0.  1.
       -4    1    3    3    0  502 -0.11470297801E+04 -0.57667865346E+03  0.17987745902E+04  0.22099382854E+04  0.12699999809E+01 0. -1.
</event>
<event>
 5   0  0.2345471E-07  0.3718583E+04  0.7818609E-02  0.8063856E-01
        1   -1    0    0  501    0  0.00000000000E+00  0.00000000000E+00  0.16736887966E+04  0.16736887967E+04  0.50400001928E-02 0. -1.
       -1   -1    0    0    0  501  0.00000000000E+00  0.00000000000E+00 -0.20654766872E+04  0.20654766872E+04  0.50400001928E-02 0.  1.
    10030    2    1    2    0    0  0.00000000000E+00  0.00000000000E+00 -0.39178789057E+03  0.37391654839E+04  0.37185831663E+04 0.  0.
        5    1    3    3  502    0  0.32481138680E+03  0.17596858768E+04 -0.70361073601E+03  0.19227810535E+04  0.46999998093E+01 0.  1.
       -5    1    3    3    0  502 -0.32481138680E+03 -0.17596858768E+04  0.31182284544E+03  0.18163844304E+04  0.46999998093E+01 0. -1.
</event>
<event>
 5   0  0.6949625E-07  0.3504562E+04  0.7818609E-02  0.8112710E-01
        2   -1    0    0  501    0  0.00000000000E+00  0.00000000000E+00  0.20396580852E+04  0.20396580852E+04  0.25500000920E-02 0.  1.
       -2   -1    0    0    0  501  0.00000000000E+00  0.00000000000E+00 -0.15053939560E+04  0.15053939560E+04  0.25500000920E-02 0. -1.
    10030    2    1    2    0    0  0.00000000000E+00  0.00000000000E+00  0.53426412920E+03  0.35450520413E+04  0.35045621432E+04 0.  0.
        5    1    3    3  502    0 -0.11281942353E+04  0.52063541984E+03  0.15169568017E+04  0.19608833471E+04  0.46999998093E+01 0.  1.
       -5    1    3    3    0  502  0.11281942353E+04 -0.52063541984E+03 -0.98269267252E+03  0.15841686941E+04  0.46999998093E+01 0. -1.
</event>
<event>
 5   0  0.2287500E-07  0.3698987E+04  0.7818609E-02  0.8068186E-01
       -1   -1    0    0    0  501  0.00000000000E+00  0.00000000000E+00  0.15953927540E+04  0.15953927540E+04  0.50400001928E-02 0. -1.
        1   -1    0    0  501    0  0.00000000000E+00  0.00000000000E+00 -0.21440657866E+04  0.21440657866E+04  0.50400001928E-02 0.  1.
    10030    2    1    2    0    0  0.00000000000E+00  0.00000000000E+00 -0.54867303268E+03  0.37394585406E+04  0.36989874398E+04 0.  0.
        2    1    3    3  502    0 -0.11368986723E+04  0.67231974210E+03 -0.15831342593E+04  0.20617629615E+04  0.25500000920E-02 0.  1.
       -2    1    3    3    0  502  0.11368986723E+04 -0.67231974210E+03  0.10344612266E+04  0.16776955791E+04  0.25500000920E-02 0. -1.
</event>
<event>
 5   0  0.2287500E-07  0.3699652E+04  0.7818609E-02  0.8068039E-01
        1   -1    0    0  501    0  0.00000000000E+00  0.00000000000E+00  0.16361409350E+04  0.16361409350E+04  0.50400001928E-02 0.  1.
       -1   -1    0    0    0  501  0.00000000000E+00  0.00000000000E+00 -0.20914192483E+04  0.20914192483E+04  0.50400001928E-02 0. -1.
    10030    2    1    2    0    0  0.00000000000E+00  0.00000000000E+00 -0.45527831325E+03  0.37275601833E+04  0.36996522239E+04 0.  0.
        3    1    3    3  502    0 -0.14517982136E+03  0.84836337317E+03 -0.18773846541E+04  0.20652774010E+04  0.10100000352E+00 0. -1.
       -3    1    3    3    0  502  0.14517982136E+03 -0.84836337317E+03  0.14221063409E+04  0.16622827823E+04  0.10100000352E+00 0.  1.
</event>
<event>
 5   0  0.2345471E-07  0.3262936E+04  0.7818609E-02  0.8172391E-01
       -1   -1    0    0    0  501  0.00000000000E+00  0.00000000000E+00  0.95613308857E+03  0.95613308858E+03  0.50400001928E-02 0.  1.
        1   -1    0    0  501    0  0.00000000000E+00  0.00000000000E+00 -0.27838051704E+04  0.27838051704E+04  0.50400001928E-02 0. -1.
    10030    2    1    2    0    0  0.00000000000E+00  0.00000000000E+00 -0.18276720818E+04  0.37399382590E+04  0.32629362455E+04 0.  0.
        5    1    3    3  502    0 -0.53661656073E+03  0.57333772964E+02 -0.26785269447E+04  0.27323567077E+04  0.46999998093E+01 0. -1.
       -5    1    3    3    0  502  0.53661656073E+03 -0.57333772964E+02  0.85085486286E+03  0.10075815513E+04  0.46999998093E+01 0.  1.
</event>
<event>
 5   0  0.6949625E-07  0.3740909E+04  0.7818609E-02  0.8058956E-01
       -2   -1    0    0    0  501  0.00000000000E+00  0.00000000000E+00  0.28953232742E+04  0.28953232742E+04  0.25500000920E-02 0.  1.
        2   -1    0    0  501    0  0.00000000000E+00  0.00000000000E+00 -0.12083622954E+04  0.12083622954E+04  0.25500000920E-02 0. -1.
    10030    2    1    2    0    0  0.00000000000E+00  0.00000000000E+00  0.16869609788E+04  0.41036855697E+04  0.37409087012E+04 0.  0.
        5    1    3    3  502    0  0.38595742784E+02 -0.18392019909E+03 -0.11979734542E+04  0.12126329857E+04  0.46999998093E+01 0. -1.
       -5    1    3    3    0  502 -0.38595742784E+02  0.18392019909E+03  0.28849344329E+04  0.28910525840E+04  0.46999998093E+01 0.  1.
</event>
<event>
 5   0  0.2411746E-07  0.3701626E+04  0.7818609E-02  0.8067602E-01
       -1   -1    0    0    0  501  0.00000000000E+00  0.00000000000E+00  0.22020646796E+04  0.22020646796E+04  0.50400001928E-02 0.  1.
        1   -1    0    0  501    0  0.00000000000E+00  0.00000000000E+00 -0.15555898233E+04  0.15555898233E+04  0.50400001928E-02 0. -1.
    10030    2    1    2    0    0  0.00000000000E+00  0.00000000000E+00  0.64647485634E+03  0.37576545029E+04  0.37016263484E+04 0.  0.
        1    1    3    3  502    0 -0.16233301962E+03 -0.89238887267E+03  0.19609761811E+04  0.21605873026E+04  0.50400001928E-02 0.  1.
       -1    1    3    3    0  502  0.16233301962E+03  0.89238887267E+03 -0.13145013248E+04  0.15970672003E+04  0.50400001928E-02 0. -1.
</event>
<event>
 5   0  0.2345471E-07  0.3634888E+04  0.7818609E-02  0.8082547E-01
       -1   -1    0    0    0  501  0.00000000000E+00  0.00000000000E+00  0.11638336580E+04  0.11638336580E+04  0.50400001928E-02 0. -1.
        1   -1    0    0  501    0  0.00000000000E+00  0.00000000000E+00 -0.28381221291E+04  0.28381221291E+04  0.50400001928E-02 0.  1.
    10030    2    1    2    0    0  0.00000000000E+00  0.00000000000E+00 -0.16742884711E+04  0.40019557871E+04  0.36348876512E+04 0.  0.
        5    1    3    3  502    0 -0.12978016518E+03  0.44662857001E+03  0.10971953789E+04  0.11917129521E+04  0.46999998093E+01 0. -1.
       -5    1    3    3    0  502  0.12978016518E+03 -0.44662857001E+03 -0.27714838500E+04  0.28102428350E+04  0.46999998093E+01 0.  1.
</event>
<event>
 5   0  0.2287500E-07  0.3767956E+04  0.7818609E-02  0.8053067E-01
       -1   -1    0    0    0  501  0.00000000000E+00  0.00000000000E+00  0.12937279292E+04  0.12937279292E+04  0.50400001928E-02 0. -1.
        1   -1    0    0  501    0  0.00000000000E+00  0.00000000000E+00 -0.27435234875E+04  0.27435234875E+04  0.50400001928E-02 0.  1.
    10030    2    1    2    0    0  0.00000000000E+00  0.00000000000E+00 -0.14497955583E+04  0.40372514168E+04  0.37679559235E+04 0.  0.
        4    1    3    3  502    0 -0.12149749684E+04  0.14370662787E+04 -0.82101815204E+03  0.20531429765E+04  0.12699999809E+01 0. -1.
       -4    1    3    3    0  502  0.12149749684E+04 -0.14370662787E+04 -0.62877740627E+03  0.19841084403E+04  0.12699999809E+01 0.  1.
</event>
<event>
 5   0  0.2287500E-07  0.3701180E+04  0.7818609E-02  0.8067700E-01
        1   -1    0    0  501    0  0.00000000000E+00  0.00000000000E+00  0.17944491351E+04  0.17944491351E+04  0.50400001928E-02 0. -1.
       -1   -1    0    0    0  501  0.00000000000E+00  0.00000000000E+00 -0.19084875923E+04  0.19084875923E+04  0.50400001928E-02 0.  1.
    10030    2    1    2    0    0  0.00000000000E+00  0.00000000000E+00 -0.11403845715E+03  0.37029367274E+04  0.37011803033E+04 0.  0.
        2    1    3    3  502    0 -0.60705110295E+03  0.17316826381E+04  0.18277786592E+03  0.18440833899E+04  0.25500000920E-02 0. -1.
       -2    1    3    3    0  502  0.60705110295E+03 -0.17316826381E+04 -0.29681632308E+03  0.18588533375E+04  0.25500000920E-02 0.  1.
</event>
<event>
 5   0  0.7124627E-07  0.3710019E+04  0.7818609E-02  0.8065745E-01
       -2   -1    0    0    0  501  0.00000000000E+00  0.00000000000E+00  0.14288084908E+04  0.14288084908E+04  0.25500000920E-02 0. -1.
        2   -1    0    0  501    0  0.00000000000E+00  0.00000000000E+00 -0.24083425247E+04  0.24083425247E+04  0.25500000920E-02 0.  1.
    10030    2    1    2    0    0  0.00000000000E+00  0.00000000000E+00 -0.97953403389E+03  0.38371510155E+04  0.37100190016E+04 0.  0.
        2    1    3    3  502    0 -0.17156629412E+04 -0.47275568767E+03 -0.10312165027E+04  0.20567947743E+04  0.25500000920E-02 0.  1.
       -2    1    3    3    0  502  0.17156629412E+04  0.47275568767E+03  0.51682468756E+02  0.17803562412E+04  0.25500000920E-02 0. -1.
</event>
<event>
 5   0  0.7074157E-07  0.3665716E+04  0.7818609E-02  0.8075602E-01
       -2   -1    0    0    0  501  0.00000000000E+00  0.00000000000E+00  0.12241481730E+04  0.12241481730E+04  0.25500000920E-02 0. -1.
        2   -1    0    0  501    0  0.00000000000E+00  0.00000000000E+00 -0.27442498431E+04  0.27442498431E+04  0.25500000920E-02 0.  1.
    10030    2    1    2    0    0  0.00000000000E+00  0.00000000000E+00 -0.15201016701E+04  0.39683980161E+04  0.36657159911E+04 0.  0.
        3    1    3    3  502    0  0.11388339226E+04  0.12640032934E+04 -0.22056985697E+02  0.17015091976E+04  0.10100000352E+00 0.  1.
       -3    1    3    3    0  502 -0.11388339226E+04 -0.12640032934E+04 -0.14980446844E+04  0.22668888185E+04  0.10100000352E+00 0. -1.
</event>
<event>
 5   0  0.6939921E-07  0.3574140E+04  0.7818609E-02  0.8096441E-01
       -2   -1    0    0    0  501  0.00000000000E+00  0.00000000000E+00  0.16204854221E+04  0.16204854221E+04  0.25500000920E-02 0. -1.
        2   -1    0    0  501    0  0.00000000000E+00  0.00000000000E+00 -0.19707798551E+04  0.19707798551E+04  0.25500000920E-02 0.  1.
    10030    2    1    2    0    0  0.00000000000E+00  0.00000000000E+00 -0.35029443302E+03  0.35912652773E+04  0.35741404704E+04 0.  0.
        4    1    3    3  502    0 -0.40305197676E+03  0.16963428905E+04  0.21863396407E+03  0.17572229572E+04  0.12699999809E+01 0.  1.
       -4    1    3    3    0  502  0.40305197676E+03 -0.16963428905E+04 -0.56892839709E+03  0.18340423201E+04  0.12699999809E+01 0. -1.
</event>
<event>
 5   0  0.2345471E-07  0.3726891E+04  0.7818609E-02  0.8062028E-01
        1   -1    0    0  501    0  0.00000000000E+00  0.00000000000E+00  0.20373901129E+04  0.20373901129E+04  0.50400001928E-02 0. -1.
       -1   -1    0    0    0  501  0.00000000000E+00  0.00000000000E+00 -0.17043516945E+04  0.17043516945E+04  0.50400001928E-02 0.  1.
    10030    2    1    2    0    0  0.00000000000E+00  0.00000000000E+00  0.33303841838E+03  0.37417418075E+04  0.37268910858E+04 0.  0.
        5    1    3    3  502    0 -0.48406758979E+02 -0.63602889515E+03  0.19243618203E+04  0.20273298881E+04  0.46999998093E+01 0. -1.
       -5    1    3    3    0  502  0.48406758979E+02  0.63602889515E+03 -0.15913234019E+04  0.17144119194E+04  0.46999998093E+01 0.  1.
</event>
<event>
 5   0  0.7300916E-07  0.3761424E+04  0.7818609E-02  0.8054484E-01
       -2   -1    0    0    0  501  0.00000000000E+00  0.00000000000E+00  0.17189129487E+04  0.17189129487E+04  0.25500000920E-02 0.  1.
        2   -1    0    0  501    0  0.00000000000E+00  0.00000000000E+00 -0.20577410035E+04  0.20577410035E+04  0.25500000920E-02 0. -1.
    10030    2    1    2    0    0  0.00000000000E+00  0.00000000000E+00 -0.33882805476E+03  0.37766539522E+04  0.37614240155E+04 0.  0.
        1    1    3    3  502    0 -0.67559916434E+03  0.17453348972E+04 -0.35577136553E+03  0.19050462983E+04  0.50400001928E-02 0. -1.
       -1    1    3    3    0  502  0.67559916434E+03 -0.17453348972E+04  0.16943310775E+02  0.18716076539E+04  0.50400001928E-02 0.  1.
</event>
<event>
 5   0  0.6949625E-07  0.3700044E+04  0.7818609E-02  0.8067952E-01
       -2   -1    0    0    0  501  0.00000000000E+00  0.00000000000E+00  0.13874813280E+04  0.13874813280E+04  0.25500000920E-02 0. -1.
        2   -1    0    0  501    0  0.00000000000E+00  0.00000000000E+00 -0.24667588057E+04  0.24667588057E+04  0.25500000920E-02 0.  1.
    10030    2    1    2    0    0  0.00000000000E+00  0.00000000000E+00 -0.10792774777E+04  0.38542401337E+04  0.37000442071E+04 0.  0.
        5    1    3    3  502    0  0.18348829855E+04  0.13820016137E+03 -0.73909916599E+03  0.19829736565E+04  0.46999998093E+01 0.  1.
       -5    1    3    3    0  502 -0.18348829855E+04 -0.13820016137E+03 -0.34017831173E+03  0.18712664773E+04  0.46999998093E+01 0. -1.
</event>
<event>
 5   0  0.2287500E-07  0.3691421E+04  0.7818609E-02  0.8069866E-01
        1   -1    0    0  501    0  0.00000000000E+00  0.00000000000E+00  0.22710455404E+04  0.22710455404E+04  0.50400001928E-02 0.  1.
       -1   -1    0    0    0  501  0.00000000000E+00  0.00000000000E+00 -0.15000345899E+04  0.15000345899E+04  0.50400001928E-02 0. -1.
    10030    2    1    2    0    0  0.00000000000E+00  0.00000000000E+00  0.77101095050E+03  0.37710801304E+04  0.36914207920E+04 0.  0.
        4    1    3    3  502    0 -0.11983946633E+04 -0.31524070912E+03 -0.10119014313E+04  0.15998351769E+04  0.12699999809E+01 0. -1.
       -4    1    3    3    0  502  0.11983946633E+04  0.31524070912E+03  0.17829123818E+04  0.21712449534E+04  0.12699999809E+01 0.  1.
</event>
<event>
 5   0  0.2287500E-07  0.3732805E+04  0.7818609E-02  0.8060731E-01
       -1   -1    0    0    0  501  0.00000000000E+00  0.00000000000E+00  0.11574586220E+04  0.11574586220E+04  0.50400001928E-02 0. -1.
        1   -1    0    0  501    0  0.00000000000E+00  0.00000000000E+00 -0.30095745491E+04  0.30095745491E+04  0.50400001928E-02 0.  1.
    10030    2    1    2    0    0  0.00000000000E+00  0.00000000000E+00 -0.18521159271E+04  0.41670331711E+04  0.37328048491E+04 0.  0.
        2    1    3    3  502    0 -0.70436785686E+03  0.46616042436E+03  0.93188765530E+03  0.12577178623E+04  0.25500000920E-02 0. -1.
       -2    1    3    3    0  502  0.70436785686E+03 -0.46616042436E+03 -0.27840035824E+04  0.29093153088E+04  0.25500000920E-02 0.  1.
</event>
<event>
 5   0  0.2287500E-07  0.2796827E+04  0.7818609E-02  0.8304254E-01
       -1   -1    0    0    0  501  0.00000000000E+00  0.00000000000E+00  0.14457911903E+04  0.14457911903E+04  0.50400001928E-02 0. -1.
        1   -1    0    0  501    0  0.00000000000E+00  0.00000000000E+00 -0.13525879071E+04  0.13525879071E+04  0.50400001928E-02 0.  1.
    10030    2    1    2    0    0  0.00000000000E+00  0.00000000000E+00  0.93203283198E+02  0.27983790973E+04  0.27968265446E+04 0.  0.
        2    1    3    3  502    0 -0.44977641024E+03 -0.36829657054E+03 -0.12259607008E+04  0.13568053740E+04  0.25500000920E-02 0.  1.
       -2    1    3    3    0  502  0.44977641024E+03  0.36829657054E+03  0.13191639840E+04  0.14415737233E+04  0.25500000920E-02 0. -1.
</event>
<event>
 5   0  0.2345471E-07  0.3764676E+04  0.7818609E-02  0.8053778E-01
       -1   -1    0    0    0  501  0.00000000000E+00  0.00000000000E+00  0.20008106453E+04  0.20008106453E+04  0.50400001928E-02 0.  1.
        1   -1    0    0  501    0  0.00000000000E+00  0.00000000000E+00 -0.17708802288E+04  0.17708802288E+04  0.50400001928E-02 0. -1.
    10030    2    1    2    0    0  0.00000000000E+00  0.00000000000E+00  0.22993041656E+03  0.37716908741E+04  0.37646758231E+04 0.  0.
        5    1    3    3  502    0 -0.49877191209E+03  0.21444976871E+03  0.19206587539E+04  0.19959244130E+04  0.46999998093E+01 0.  1.
       -5    1    3    3    0  502  0.49877191209E+03 -0.21444976871E+03 -0.16907283373E+04  0.17757664611E+04  0.46999998093E+01 0. -1.
</event>
<event>
 5   0  0.2287500E-07  0.2988557E+04  0.7818609E-02  0.8247006E-01
        1   -1    0    0  501    0  0.00000000000E+00  0.00000000000E+00  0.13065838541E+04  0.13065838541E+04  0.50400001928E-02 0.  1.
       -1   -1    0    0    0  501  0.00000000000E+00  0.00000000000E+00 -0.17089361375E+04  0.17089361375E+04  0.50400001928E-02 0. -1.
    10030    2    1    2    0    0  0.00000000000E+00  0.00000000000E+00 -0.40235228336E+03  0.30155199916E+04  0.29885570866E+04 0.  0.
        2    1    3    3  502    0  0.66438313606E+03 -0.47306435599E+03 -0.14645400577E+04  0.16763270614E+04  0.25500000920E-02 0. -1.
       -2    1    3    3    0  502 -0.66438313606E+03  0.47306435599E+03  0.10621877743E+04  0.13391929302E+04  0.25500000920E-02 0.  1.
</event>
<event>
 5   0  0.7124627E-07  0.3699713E+04  0.7818609E-02  0.8068025E-01
        2   -1    0    0  501    0  0.00000000000E+00  0.00000000000E+00  0.10122415719E+04  0.10122415719E+04  0.25500000920E-02 0.  1.
       -2   -1    0    0    0  501  0.00000000000E+00  0.00000000000E+00 -0.33805859074E+04  0.33805859074E+04  0.25500000920E-02 0. -1.
    10030    2    1    2    0    0  0.00000000000E+00  0.00000000000E+00 -0.23683443354E+04  0.43928274793E+04  0.36997132824E+04 0.  0.
        2    1    3    3  502    0 -0.66567980852E+03  0.17112305433E+04 -0.14510735266E+04  0.23403106545E+04  0.25500000920E-02 0. -1.
       -2    1    3    3    0  502  0.66567980852E+03 -0.17112305433E+04 -0.91727080880E+03  0.20525168249E+04  0.25500000920E-02 0.  1.
</event>
<event>
 5   0  0.7124627E-07  0.3906501E+04  0.7818609E-02  0.8023678E-01
        2   -1    0    0  501    0  0.00000000000E+00  0.00000000000E+00  0.15339326313E+04  0.15339326313E+04  0.25500000920E-02 0. -1.
       -2   -1    0    0    0  501  0.00000000000E+00  0.00000000000E+00 -0.24871939995E+04  0.24871939995E+04  0.25500000920E-02 0.  1.
    10030    2    1    2    0    0  0.00000000000E+00  0.00000000000E+00 -0.95326136827E+03  0.40211266308E+04  0.39065012664E+04 0.  0.
        2    1    3    3  502    0 -0.89445087780E+03  0.11065415172E+04  0.90080901581E+03  0.16840229764E+04  0.25500000920E-02 0. -1.
       -2    1    3    3    0  502  0.89445087780E+03 -0.11065415172E+04 -0.18540703841E+04  0.23371036544E+04  0.25500000920E-02 0.  1.
</event>
<event>
 5   0  0.7074157E-07  0.3689658E+04  0.7818609E-02  0.8070258E-01
        2   -1    0    0  501    0  0.00000000000E+00  0.00000000000E+00  0.27034699513E+04  0.27034699513E+04  0.25500000920E-02 0. -1.
       -2   -1    0    0    0  501  0.00000000000E+00  0.00000000000E+00 -0.12588980866E+04  0.12588980866E+04  0.25500000920E-02 0.  1.
    10030    2    1    2    0    0  0.00000000000E+00  0.00000000000E+00  0.14445718647E+04  0.39623680378E+04  0.36896575173E+04 0.  0.
        3    1    3    3  502    0 -0.15824045336E+03 -0.12991008002E+04 -0.67408491957E+03  0.14721050979E+04  0.10100000352E+00 0.  1.
       -3    1    3    3    0  502  0.15824045336E+03  0.12991008002E+04  0.21186567843E+04  0.24902629400E+04  0.10100000352E+00 0. -1.
</event>
<event>
 5   0  0.2411746E-07  0.3615047E+04  0.7818609E-02  0.8087054E-01
        1   -1    0    0  501    0  0.00000000000E+00  0.00000000000E+00  0.24898991814E+04  0.24898991814E+04  0.50400001928E-02 0.  1.
       -1   -1    0    0    0  501  0.00000000000E+00  0.00000000000E+00 -0.13121578153E+04  0.13121578153E+04  0.50400001928E-02 0. -1.
    10030    2    1    2    0    0  0.00000000000E+00  0.00000000000E+00  0.11777413662E+04  0.38020569967E+04  0.36150467052E+04 0.  0.
        1    1    3    3  502    0 -0.16060428618E+03  0.17539667351E+04  0.16172330528E+03  0.17687135076E+04  0.50400001928E-02 0. -1.
       -1    1    3    3    0  502  0.16060428618E+03 -0.17539667351E+04  0.10160180609E+04  0.20333434891E+04  0.50400001928E-02 0.  1.
</event>
<event>
 5   0  0.2287500E-07  0.3664690E+04  0.7818609E-02  0.8075832E-01
       -1   -1    0    0    0  501  0.00000000000E+00  0.00000000000E+00  0.11552668161E+04  0.11552668161E+04  0.50400001928E-02 0. -1.
        1   -1    0    0  501    0  0.00000000000E+00  0.00000000000E+00 -0.29062443787E+04  0.29062443787E+04  0.50400001928E-02 0.  1.
    10030    2    1    2    0    0  0.00000000000E+00  0.00000000000E+00 -0.17509775626E+04  0.40615111947E+04  0.36646897223E+04 0.  0.
        2    1    3    3  502    0  0.74919292786E+03  0.58017103227E+03 -0.26136202311E+04  0.27800897795E+04  0.25500000920E-02 0.  1.
       -2    1    3    3    0  502 -0.74919292786E+03 -0.58017103227E+03  0.86264266850E+03  0.12814214152E+04  0.25500000920E-02 0. -1.
</event>
<event>
 5   0  0.2287500E-07  0.3689070E+04  0.7818609E-02  0.8070388E-01
       -1   -1    0    0    0  501  0.00000000000E+00  0.00000000000E+00  0.18551894575E+04  0.18551894575E+04  0.50400001928E-02 0.  1.
        1   -1    0    0  501    0  0.00000000000E+00  0.00000000000E+00 -0.18339415883E+04  0.18339415883E+04  0.50400001928E-02 0. -1.
    10030    2    1    2    0    0  0.00000000000E+00  0.00000000000E+00  0.21247869143E+02  0.36891310458E+04  0.36890698558E+04 0.  0.
        2    1    3    3  502    0 -0.80065499657E+03  0.97489717447E+03 -0.13350715170E+04  0.18368148736E+04  0.25500000920E-02 0. -1.
       -2    1    3    3    0  502  0.80065499657E+03 -0.97489717447E+03  0.13563193862E+04  0.18523161722E+04  0.25500000920E-02 0.  1.
</event>
<event>
 5   0  0.7074157E-07  0.3699330E+04  0.7818609E-02  0.8068110E-01
        2   -1    0    0  501    0  0.00000000000E+00  0.00000000000E+00  0.34352475291E+04  0.34352475291E+04  0.25500000920E-02 0. -1.
       -2   -1    0    0    0  501  0.00000000000E+00  0.00000000000E+00 -0.99592845779E+03  0.99592845780E+03  0.25500000920E-02 0.  1.
    10030    2    1    2    0    0  0.00000000000E+00  0.00000000000E+00  0.24393190713E+04  0.44311759869E+04  0.36993300874E+04 0.  0.
        3    1    3    3  502    0 -0.12917440077E+04 -0.32679177629E+03  0.27563735812E+04  0.30615340560E+04  0.10100000352E+00 0. -1.
       -3    1    3    3    0  502  0.12917440077E+04  0.32679177629E+03 -0.31705450993E+03  0.13696419309E+04  0.10100000352E+00 0.  1.
</event>
<event>
 5   0  0.7124627E-07  0.3760252E+04  0.7818609E-02  0.8054739E-01
        2   -1    0    0  501    0  0.00000000000E+00  0.00000000000E+00  0.28591626031E+04  0.28591626031E+04  0.25500000920E-02 0. -1.
       -2   -1    0    0    0  501  0.00000000000E+00  0.00000000000E+00 -0.12363319916E+04  0.12363319916E+04  0.25500000920E-02 0.  1.
    10030    2    1    2    0    0  0.00000000000E+00  0.00000000000E+00  0.16228306115E+04  0.40954945947E+04  0.37602522231E+04 0.  0.
        2    1    3    3  502    0  0.52421144452E+02  0.48477391537E+03  0.27890987967E+04  0.28313999759E+04  0.25500000920E-02 0. -1.
       -2    1    3    3    0  502 -0.52421144452E+02 -0.48477391537E+03 -0.11662681852E+04  0.12640946188E+04  0.25500000920E-02 0.  1.
</event>
<event>
 5   0  0.7124627E-07  0.3591774E+04  0.7818609E-02  0.8092379E-01
       -2   -1    0    0    0  501  0.00000000000E+00  0.00000000000E+00  0.14209368072E+04  0.14209368072E+04  0.25500000920E-02 0.  1.
        2   -1    0    0  501    0  0.00000000000E+00  0.00000000000E+00 -0.22697767030E+04  0.22697767030E+04  0.25500000920E-02 0. -1.
    10030    2    1    2    0    0  0.00000000000E+00  0.00000000000E+00 -0.84883989577E+03  0.36907135102E+04  0.35917735238E+04 0.  0.
        2    1    3    3  502    0  0.17254051651E+04 -0.40276519257E+03 -0.12314296378E+03  0.17760650252E+04  0.25500000920E-02 0. -1.
       -2    1    3    3    0  502 -0.17254051651E+04  0.40276519257E+03 -0.72569693199E+03  0.19146484851E+04  0.25500000920E-02 0.  1.
</event>
<event>
 5   0  0.2287500E-07  0.3706811E+04  0.7818609E-02  0.8066454E-01
       -1   -1    0    0    0  501  0.00000000000E+00  0.00000000000E+00  0.18942121896E+04  0.18942121896E+04  0.50400001928E-02 0.  1.
        1   -1    0    0  501    0  0.00000000000E+00  0.00000000000E+00 -0.18134776796E+04  0.18134776796E+04  0.50400001928E-02 0. -1.
    10030    2    1    2    0    0  0.00000000000E+00  0.00000000000E+00  0.80734509989E+02  0.37076898691E+04  0.37068107727E+04 0.  0.
        4    1    3    3  502    0  0.73718978671E+03 -0.13529598932E+04  0.10707380825E+04  0.18762811379E+04  0.12699999809E+01 0.  1.
       -4    1    3    3    0  502 -0.73718978671E+03  0.13529598932E+04 -0.99000357253E+03  0.18314087312E+04  0.12699999809E+01 0. -1.
</event>
<event>
 5   0  0.2287500E-07  0.3661645E+04  0.7818609E-02  0.8076515E-01
       -3   -1    0    0    0  501  0.00000000000E+00  0.00000000000E+00  0.10974110106E+04  0.10974110153E+04  0.10100000352E+00 0.  1.
        3   -1    0    0  501    0  0.00000000000E+00  0.00000000000E+00 -0.30543801320E+04  0.30543801337E+04  0.10100000352E+00 0. -1.
    10030    2    1    2    0    0  0.00000000000E+00  0.00000000000E+00 -0.19569691214E+04  0.41517911490E+04  0.36616446582E+04 0.  0.
        3    1    3    3  502    0  0.35996298199E+03  0.52919836591E+03  0.96643549575E+03  0.11591470297E+04  0.10100000352E+00 0.  1.
       -3    1    3    3    0  502 -0.35996298199E+03 -0.52919836591E+03 -0.29234046172E+04  0.29926441193E+04  0.10100000352E+00 0. -1.
</event>
<event>
 5   0  0.7300916E-07  0.3427776E+04  0.7818609E-02  0.8131123E-01
        2   -1    0    0  501    0  0.00000000000E+00  0.00000000000E+00  0.21541566048E+04  0.21541566048E+04  0.25500000920E-02 0. -1.
       -2   -1    0    0    0  501  0.00000000000E+00  0.00000000000E+00 -0.13636020972E+04  0.13636020972E+04  0.25500000920E-02 0.  1.
    10030    2    1    2    0    0  0.00000000000E+00  0.00000000000E+00  0.79055450764E+03  0.35177587020E+04  0.34277762260E+04 0.  0.
        1    1    3    3  502    0  0.10438553063E+04  0.13138736652E+04  0.37537062883E+02  0.16784835239E+04  0.50400001928E-02 0.  1.
       -1    1    3    3    0  502 -0.10438553063E+04 -0.13138736652E+04  0.75301744475E+03  0.18392751781E+04  0.50400001928E-02 0. -1.
</event>
<event>
 5   0  0.7074157E-07  0.3442796E+04  0.7818609E-02  0.8127482E-01
       -2   -1    0    0    0  501  0.00000000000E+00  0.00000000000E+00  0.12234023678E+04  0.12234023678E+04  0.25500000920E-02 0.  1.
        2   -1    0    0  501    0  0.00000000000E+00  0.00000000000E+00 -0.24221064391E+04  0.24221064391E+04  0.25500000920E-02 0. -1.
    10030    2    1    2    0    0  0.00000000000E+00  0.00000000000E+00 -0.11987040713E+04  0.36455088068E+04  0.34427958130E+04 0.  0.
        3    1    3    3  502    0 -0.92152495921E+03  0.71105641310E+03 -0.19422533200E+04  0.22643227337E+04  0.10100000352E+00 0. -1.
       -3    1    3    3    0  502  0.92152495921E+03 -0.71105641310E+03  0.74354924874E+03  0.13811860731E+04  0.10100000352E+00 0.  1.
</event>
<event>
 5   0  0.2287500E-07  0.2826777E+04  0.7818609E-02  0.8295003E-01
        1   -1    0    0  501    0  0.00000000000E+00  0.00000000000E+00  0.14138843293E+04  0.14138843293E+04  0.50400001928E-02 0.  1.
       -1   -1    0    0    0  501  0.00000000000E+00  0.00000000000E+00 -0.14128930971E+04  0.14128930971E+04  0.50400001928E-02 0. -1.
    10030    2    1    2    0    0  0.00000000000E+00  0.00000000000E+00  0.99123218899E+00  0.28267774264E+04  0.28267772526E+04 0.  0.
        2    1    3    3  502    0  0.16822675548E+03 -0.12811025112E+04  0.57333378167E+03  0.14135895835E+04  0.25500000920E-02 0.  1.
       -2    1    3    3    0  502 -0.16822675548E+03  0.12811025112E+04 -0.57234254948E+03  0.14131878429E+04  0.25500000920E-02 0. -1.
</event>
<event>
 5   0  0.7074157E-07  0.3688560E+04  0.7818609E-02  0.8070502E-01
       -2   -1    0    0    0  501  0.00000000000E+00  0.00000000000E+00  0.19892172757E+04  0.19892172757E+04  0.25500000920E-02 0. -1.
        2   -1    0    0  501    0  0.00000000000E+00  0.00000000000E+00 -0.17099028125E+04  0.17099028125E+04  0.25500000920E-02 0.  1.
    10030    2    1    2    0    0  0.00000000000E+00  0.00000000000E+00  0.27931446322E+03  0.36991200882E+04  0.36885597267E+04 0.  0.
        3    1    3    3  502    0  0.56219023600E+03 -0.16976178822E+04  0.59195163605E+03  0.18837120494E+04  0.10100000352E+00 0.  1.
       -3    1    3    3    0  502 -0.56219023600E+03  0.16976178822E+04 -0.31263717283E+03  0.18154080388E+04  0.10100000352E+00 0. -1.
</event>
<event>
 5   0  0.7124627E-07  0.3744736E+04  0.7818609E-02  0.8058120E-01
       -2   -1    0    0    0  501  0.00000000000E+00  0.00000000000E+00  0.15587712927E+04  0.15587712927E+04  0.25500000920E-02 0. -1.
        2   -1    0    0  501    0  0.00000000000E+00  0.00000000000E+00 -0.22490544529E+04  0.22490544529E+04  0.25500000920E-02 0.  1.
    10030    2    1    2    0    0  0.00000000000E+00  0.00000000000E+00 -0.69028316025E+03  0.38078257456E+04  0.37447357807E+04 0.  0.
        2    1    3    3  502    0 -0.14205171425E+04  0.12142021710E+04 -0.22653314520E+03  0.18824115199E+04  0.25500000920E-02 0. -1.
       -2    1    3    3    0  502  0.14205171425E+04 -0.12142021710E+04 -0.46375001505E+03  0.19254142257E+04  0.25500000920E-02 0.  1.
</event>
<event>
 5   0  0.7074157E-07  0.3849539E+04  0.7818609E-02  0.8035607E-01
        2   -1    0    0  501    0  0.00000000000E+00  0.00000000000E+00  0.28809654028E+04  0.28809654028E+04  0.25500000920E-02 0.  1.
       -2   -1    0    0    0  501  0.00000000000E+00  0.00000000000E+00 -0.12859363556E+04  0.12859363556E+04  0.25500000920E-02 0. -1.
    10030    2    1    2    0    0  0.00000000000E+00  0.00000000000E+00  0.15950290472E+04  0.41669017584E+04  0.38495392715E+04 0.  0.
        3    1    3    3  502    0  0.14547126910E+04 -0.12593805785E+04  0.74328769986E+03  0.20626936442E+04  0.10100000352E+00 0. -1.
       -3    1    3    3    0  502 -0.14547126910E+04  0.12593805785E+04  0.85174134732E+03  0.21042081142E+04  0.10100000352E+00 0.  1.
</event>
<event>
 5   0  0.2345471E-07  0.3732031E+04  0.7818609E-02  0.8060900E-01
        1   -1    0    0  501    0  0.00000000000E+00  0.00000000000E+00  0.23820088783E+04  0.23820088783E+04  0.50400001928E-02 0.  1.
       -1   -1    0    0    0  501  0.00000000000E+00  0.00000000000E+00 -0.14617972051E+04  0.14617972051E+04  0.50400001928E-02 0. -1.
    10030    2    1    2    0    0  0.00000000000E+00  0.00000000000E+00  0.92021167316E+03  0.38438060834E+04  0.37320310400E+04 0.  0.
        5    1    3    3  502    0  0.52351199377E+03 -0.28853937385E+03  0.22807222098E+04  0.23577607314E+04  0.46999998093E+01 0.  1.
       -5    1    3    3    0  502 -0.52351199377E+03  0.28853937385E+03 -0.13605105367E+04  0.14860453520E+04  0.46999998093E+01 0. -1.
</event>
<event>
 5   0  0.2345471E-07  0.3726905E+04  0.7818609E-02  0.8062025E-01
       -1   -1    0    0    0  501  0.00000000000E+00  0.00000000000E+00  0.17532604514E+04  0.17532604514E+04  0.50400001928E-02 0. -1.
        1   -1    0    0  501    0  0.00000000000E+00  0.00000000000E+00 -0.19805697695E+04  0.19805697695E+04  0.50400001928E-02 0.  1.
    10030    2    1    2    0    0  0.00000000000E+00  0.00000000000E+00 -0.22730931811E+03  0.37338302209E+04  0.37269046932E+04 0.  0.
        5    1    3    3  502    0 -0.43741267250E+03 -0.16679551581E+03 -0.19206920235E+04  0.19769245128E+04  0.46999998093E+01 0.  1.
       -5    1    3    3    0  502  0.43741267250E+03  0.16679551581E+03  0.16933827054E+04  0.17569057081E+04  0.46999998093E+01 0. -1.
</event>
<event>
 5   0  0.7300916E-07  0.3656988E+04  0.7818609E-02  0.8077561E-01
       -2   -1    0    0    0  501  0.00000000000E+00  0.00000000000E+00  0.27214064836E+04  0.27214064836E+04  0.25500000920E-02 0.  1.
        2   -1    0    0  501    0  0.00000000000E+00  0.00000000000E+00 -0.12285524636E+04  0.12285524636E+04  0.25500000920E-02 0. -1.
    10030    2    1    2    0    0  0.00000000000E+00  0.00000000000E+00  0.14928540200E+04  0.39499589471E+04  0.36569881814E+04 0.  0.
        1    1    3    3  502    0  0.65587091848E+03  0.15541760298E+04  0.15084698578E+04  0.22629872083E+04  0.50400001928E-02 0.  1.
       -1    1    3    3    0  502 -0.65587091848E+03 -0.15541760298E+04 -0.15615837767E+02  0.16869717388E+04  0.50400001928E-02 0. -1.
</event>
<event>
 5   0  0.2287500E-07  0.3674402E+04  0.7818609E-02  0.8073658E-01
        1   -1    0    0  501    0  0.00000000000E+00  0.00000000000E+00  0.32080963837E+04  0.32080963837E+04  0.50400001928E-02 0. -1.
       -1   -1    0    0    0  501  0.00000000000E+00  0.00000000000E+00 -0.10521216173E+04  0.10521216173E+04  0.50400001928E-02 0.  1.
    10030    2    1    2    0    0  0.00000000000E+00  0.00000000000E+00  0.21559747665E+04  0.42602180010E+04  0.36744020224E+04 0.  0.
        2    1    3    3  502    0 -0.11779072904E+04 -0.12113074047E+04  0.19145286418E+04  0.25534586610E+04  0.25500000920E-02 0. -1.
       -2    1    3    3    0  502  0.11779072904E+04  0.12113074047E+04  0.24144612464E+03  0.17067593399E+04  0.25500000920E-02 0.  1.
</event>
<event>
 5   0  0.7124627E-07  0.3739190E+04  0.7818609E-02  0.8059332E-01
        2   -1    0    0  501    0  0.00000000000E+00  0.00000000000E+00  0.28717179354E+04  0.28717179354E+04  0.25500000920E-02 0.  1.
       -2   -1    0    0    0  501  0.00000000000E+00  0.00000000000E+00 -0.12171754829E+04  0.12171754829E+04  0.25500000920E-02 0. -1.
    10030    2    1    2    0    0  0.00000000000E+00  0.00000000000E+00  0.16545424525E+04  0.40888934183E+04  0.37391895725E+04 0.  0.
        2    1    3    3  502    0  0.56598700083E+03  0.17794892027E+04  0.72668153941E+03  0.20037437878E+04  0.25500000920E-02 0.  1.
       -2    1    3    3    0  502 -0.56598700083E+03 -0.17794892027E+04  0.92786091311E+03  0.20851496305E+04  0.25500000920E-02 0. -1.
</event>
<event>
 5   0  0.2411746E-07  0.3275278E+04  0.7818609E-02  0.8169215E-01
       -1   -1    0    0    0  501  0.00000000000E+00  0.00000000000E+00  0.16981963426E+04  0.16981963426E+04  0.50400001928E-02 0.  1.
        1   -1    0    0  501    0  0.00000000000E+00  0.00000000000E+00 -0.15792408989E+04  0.15792408990E+04  0.50400001928E-02 0. -1.
    10030    2    1    2    0    0  0.00000000000E+00  0.00000000000E+00  0.11895544367E+03  0.32774372416E+04  0.32752777706E+04 0.  0.
        1    1    3    3  502    0  0.54419911109E+03 -0.25191817872E+03 -0.14654186399E+04  0.15833721077E+04  0.50400001928E-02 0. -1.
       -1    1    3    3    0  502 -0.54419911109E+03  0.25191817872E+03  0.15843740835E+04  0.16940651339E+04  0.50400001928E-02 0.  1.
</event>
<event>
 5   0  0.6939921E-07  0.3710434E+04  0.7818609E-02  0.8065653E-01
        2   -1    0    0  501    0  0.00000000000E+00  0.00000000000E+00  0.19568840267E+04  0.19568840267E+04  0.25500000920E-02 0.  1.
       -2   -1    0    0    0  501  0.00000000000E+00  0.00000000000E+00 -0.17588320477E+04  0.17588320477E+04  0.25500000920E-02 0. -1.
    10030    2    1    2    0    0  0.00000000000E+00  0.00000000000E+00  0.19805197904E+03  0.37157160744E+04  0.37104341200E+04 0.  0.
        4    1    3    3  502    0 -0.12875200096E+04  0.11511807763E+04 -0.57936271796E+03  0.18216991318E+04  0.12699999809E+01 0.  1.
       -4    1    3    3    0  502  0.12875200096E+04 -0.11511807763E+04  0.77741469699E+03  0.18940169426E+04  0.12699999809E+01 0. -1.
</event>
<event>
 5   0  0.2287500E-07  0.3712388E+04  0.7818609E-02  0.8065222E-01
       -1   -1    0    0    0  501  0.00000000000E+00  0.00000000000E+00  0.15676928650E+04  0.15676928650E+04  0.50400001928E-02 0. -1.
        1   -1    0    0  501    0  0.00000000000E+00  0.00000000000E+00 -0.21977882729E+04  0.21977882729E+04  0.50400001928E-02 0.  1.
    10030    2    1    2    0    0  0.00000000000E+00  0.00000000000E+00 -0.63009540798E+03  0.37654811379E+04  0.37123884464E+04 0.  0.
        4    1    3    3  502    0  0.13376617220E+04 -0.12307839475E+04  0.66210097879E+02  0.18189429342E+04  0.12699999809E+01 0. -1.
       -4    1    3    3    0  502 -0.13376617220E+04  0.12307839475E+04 -0.69630550585E+03  0.19465382037E+04  0.12699999809E+01 0.  1.
</event>
<event>
 5   0  0.6949625E-07  0.3645062E+04  0.7818609E-02  0.8080247E-01
        2   -1    0    0  501    0  0.00000000000E+00  0.00000000000E+00  0.26301516013E+04  0.26301516013E+04  0.25500000920E-02 0.  1.
       -2   -1    0    0    0  501  0.00000000000E+00  0.00000000000E+00 -0.12628999816E+04  0.12628999816E+04  0.25500000920E-02 0. -1.
    10030    2    1    2    0    0  0.00000000000E+00  0.00000000000E+00  0.13672516197E+04  0.38930515829E+04  0.36450615407E+04 0.  0.
        5    1    3    3  502    0 -0.39236656273E+03 -0.12103020577E+04  0.20773244123E+04  0.24359970021E+04  0.46999998093E+01 0.  1.
       -5    1    3    3    0  502  0.39236656273E+03  0.12103020577E+04 -0.71007279259E+03  0.14570545807E+04  0.46999998093E+01 0. -1.
</event>
<event>
 5   0  0.2287500E-07  0.3664845E+04  0.7818609E-02  0.8075798E-01
       -1   -1    0    0    0  501  0.00000000000E+00  0.00000000000E+00  0.13895663953E+04  0.13895663953E+04  0.50400001928E-02 0.  1.
        1   -1    0    0  501    0  0.00000000000E+00  0.00000000000E+00 -0.24164170378E+04  0.24164170378E+04  0.50400001928E-02 0. -1.
    10030    2    1    2    0    0  0.00000000000E+00  0.00000000000E+00 -0.10268506425E+04  0.38059834331E+04  0.36648448332E+04 0.  0.
        4    1    3    3  502    0  0.49763964204E+03 -0.17633372439E+04 -0.48466678578E+03  0.18952326916E+04  0.12699999809E+01 0. -1.
       -4    1    3    3    0  502 -0.49763964204E+03  0.17633372439E+04 -0.54218385667E+03  0.19107507416E+04  0.12699999809E+01 0.  1.
</event>
<event>
 5   0  0.2345471E-07  0.3562563E+04  0.7818609E-02  0.8099121E-01
        1   -1    0    0  501    0  0.00000000000E+00  0.00000000000E+00  0.91941265829E+03  0.91941265830E+03  0.50400001928E-02 0. -1.
       -1   -1    0    0    0  501  0.00000000000E+00  0.00000000000E+00 -0.34510774310E+04  0.34510774310E+04  0.50400001928E-02 0.  1.
    10030    2    1    2    0    0  0.00000000000E+00  0.00000000000E+00 -0.25316647727E+04  0.43704900893E+04  0.35625632765E+04 0.  0.
        5    1    3    3  502    0 -0.78001197990E+03 -0.14432854868E+04 -0.41460933921E+03  0.16921627225E+04  0.46999998093E+01 0. -1.
       -5    1    3    3    0  502  0.78001197990E+03  0.14432854868E+04 -0.21170554335E+04  0.26783273668E+04  0.46999998093E+01 0.  1.
</event>
<event>
 5   0  0.7300916E-07  0.3760978E+04  0.7818609E-02  0.8054581E-01
        2   -1    0    0  501    0  0.00000000000E+00  0.00000000000E+00  0.16517515445E+04  0.16517515445E+04  0.25500000920E-02 0.  1.
       -2   -1    0    0    0  501  0.00000000000E+00  0.00000000000E+00 -0.21409018776E+04  0.21409018776E+04  0.25500000920E-02 0. -1.
    10030    2    1    2    0    0  0.00000000000E+00  0.00000000000E+00 -0.48915033316E+03  0.37926534221E+04  0.37609775234E+04 0.  0.
        1    1    3    3  502    0  0.87416486461E+03 -0.12140825657E+04 -0.13935028585E+04  0.20445074966E+04  0.50400001928E-02 0. -1.
       -1    1    3    3    0  502 -0.87416486461E+03  0.12140825657E+04  0.90435252534E+03  0.17481459255E+04  0.50400001928E-02 0.  1.
</event>
<event>
 5   0  0.2345471E-07  0.3624109E+04  0.7818609E-02  0.8084991E-01
       -1   -1    0    0    0  501  0.00000000000E+00  0.00000000000E+00  0.18336100588E+04  0.18336100588E+04  0.50400001928E-02 0.  1.
        1   -1    0    0  501    0  0.00000000000E+00  0.00000000000E+00 -0.17907525482E+04  0.17907525482E+04  0.50400001928E-02 0. -1.
    10030    2    1    2    0    0  0.00000000000E+00  0.00000000000E+00  0.42857510590E+02  0.36243626071E+04  0.36241092066E+04 0.  0.
        5    1    3    3  502    0 -0.11097179431E+04 -0.10251461183E+04 -0.97920170678E+03  0.18003490077E+04  0.46999998093E+01 0. -1.
       -5    1    3    3    0  502  0.11097179431E+04  0.10251461183E+04  0.10220592174E+04  0.18240135994E+04  0.46999998093E+01 0.  1.
</event>
<event>
 5   0  0.7300916E-07  0.3722242E+04  0.7818609E-02  0.8063050E-01
       -2   -1    0    0    0  501  0.00000000000E+00  0.00000000000E+00  0.20995754552E+04  0.20995754552E+04  0.25500000920E-02 0.  1.
        2   -1    0    0  501    0  0.00000000000E+00  0.00000000000E+00 -0.16497487154E+04  0.16497487154E+04  0.25500000920E-02 0. -1.
    10030    2    1    2    0    0  0.00000000000E+00  0.00000000000E+00  0.44982673979E+03  0.37493241706E+04  0.37222422866E+04 0.  0.
        1    1    3    3  502    0  0.17566961541E+04  0.25907756718E+03 -0.33651913740E+03  0.18073039848E+04  0.50400001928E-02 0.  1.
       -1    1    3    3    0  502 -0.17566961541E+04 -0.25907756718E+03  0.78634587719E+03  0.19420201858E+04  0.50400001928E-02 0. -1.
</event>
<event>
 5   0  0.2287500E-07  0.3733664E+04  0.7818609E-02  0.8060542E-01
       -1   -1    0    0    0  501  0.00000000000E+00  0.00000000000E+00  0.10603313682E+04  0.10603313682E+04  0.50400001928E-02 0.  1.
        1   -1    0    0  501    0  0.00000000000E+00  0.00000000000E+00 -0.32867670937E+04  0.32867670937E+04  0.50400001928E-02 0. -1.
    10030    2    1    2    0    0  0.00000000000E+00  0.00000000000E+00 -0.22264357254E+04  0.43470984619E+04  0.37336642857E+04 0.  0.
        3    1    3    3  502    0  0.10971774672E+04 -0.11737068128E+04 -0.64141055150E+01  0.16066820556E+04  0.10100000352E+00 0.  1.
       -3    1    3    3    0  502 -0.10971774672E+04  0.11737068128E+04 -0.22200216199E+04  0.27404164063E+04  0.10100000352E+00 0. -1.
</event>
<event>
 5   0  0.2345471E-07  0.3702172E+04  0.7818609E-02  0.8067481E-01
        1   -1    0    0  501    0  0.00000000000E+00  0.00000000000E+00  0.10681739504E+04  0.10681739505E+04  0.50400001928E-02 0. -1.
       -1   -1    0    0    0  501  0.00000000000E+00  0.00000000000E+00 -0.32078297651E+04  0.32078297651E+04  0.50400001928E-02 0.  1.
    10030    2    1    2    0    0  0.00000000000E+00  0.00000000000E+00 -0.21396558146E+04  0.42760037155E+04  0.37021724393E+04 0.  0.
        5    1    3    3  502    0  0.55774671054E+03  0.77006682553E+03 -0.29042091328E+04  0.30559020086E+04  0.46999998093E+01 0.  1.
       -5    1    3    3    0  502 -0.55774671054E+03 -0.77006682553E+03  0.76455331821E+03  0.12201017069E+04  0.46999998093E+01 0. -1.
</event>
<event>
 5   0  0.6939921E-07  0.3428480E+04  0.7818609E-02  0.8130952E-01
       -2   -1    0    0    0  501  0.00000000000E+00  0.00000000000E+00  0.17450827813E+04  0.17450827813E+04  0.25500000920E-02 0.  1.
        2   -1    0    0  501    0  0.00000000000E+00  0.00000000000E+00 -0.16839422326E+04  0.16839422326E+04  0.25500000920E-02 0. -1.
    10030    2    1    2    0    0  0.00000000000E+00  0.00000000000E+00  0.61140548656E+02  0.34290250139E+04  0.34284798933E+04 0.  0.
        4    1    3    3  502    0 -0.79602747474E+03  0.10747149229E+04 -0.10419551483E+04  0.16953890557E+04  0.12699999809E+01 0. -1.
       -4    1    3    3    0  502  0.79602747474E+03 -0.10747149229E+04  0.11030956969E+04  0.17336359582E+04  0.12699999809E+01 0.  1.
</event>
<event>
 5   0  0.7124627E-07  0.2965905E+04  0.7818609E-02  0.8253534E-01
        2   -1    0    0  501    0  0.00000000000E+00  0.00000000000E+00  0.27150598623E+04  0.27150598623E+04  0.25500000920E-02 0. -1.
       -2   -1    0    0    0  501  0.00000000000E+00  0.00000000000E+00 -0.80998165536E+03  0.80998165536E+03  0.25500000920E-02 0.  1.
    10030    2    1    2    0    0  0.00000000000E+00  0.00000000000E+00  0.19050782070E+04  0.35250415177E+04  0.29659053806E+04 0.  0.
        2    1    3    3  502    0 -0.68410478868E+03 -0.81929500115E+03  0.21761417828E+04  0.24238062463E+04  0.25500000920E-02 0. -1.
       -2    1    3    3    0  502  0.68410478868E+03  0.81929500115E+03 -0.27106357581E+03  0.11012352714E+04  0.25500000920E-02 0.  1.
</event>
<event>
 5   0  0.2287500E-07  0.3693297E+04  0.7818609E-02  0.8069449E-01
        1   -1    0    0  501    0  0.00000000000E+00  0.00000000000E+00  0.22810738638E+04  0.22810738638E+04  0.50400001928E-02 0. -1.
       -1   -1    0    0    0  501  0.00000000000E+00  0.00000000000E+00 -0.14949584664E+04  0.14949584664E+04  0.50400001928E-02 0.  1.
    10030    2    1    2    0    0  0.00000000000E+00  0.00000000000E+00  0.78611539737E+03  0.37760323302E+04  0.36932970014E+04 0.  0.
        4    1    3    3  502    0  0.41489292203E+03  0.16255730924E+04  0.11820211853E+04  0.20522669687E+04  0.12699999809E+01 0. -1.
       -4    1    3    3    0  502 -0.41489292203E+03 -0.16255730924E+04 -0.39590578791E+03  0.17237653615E+04  0.12699999809E+01 0.  1.
</event>
<event>
 5   0  0.6949625E-07  0.3660785E+04  0.7818609E-02  0.8076708E-01
        2   -1    0    0  501    0  0.00000000000E+00  0.00000000000E+00  0.21561347427E+04  0.21561347427E+04  0.25500000920E-02 0. -1.
       -2   -1    0    0    0  501  0.00000000000E+00  0.00000000000E+00 -0.15538625008E+04  0.15538625008E+04  0.25500000920E-02 0.  1.
    10030    2    1    2    0    0  0.00000000000E+00  0.00000000000E+00  0.60227224192E+03  0.37099972436E+04  0.36607851199E+04 0.  0.
        5    1    3    3  502    0  0.70138631071E+03 -0.80709883546E+03  0.18066921742E+04  0.20994070566E+04  0.46999998093E+01 0. -1.
       -5    1    3    3    0  502 -0.70138631071E+03  0.80709883546E+03 -0.12044199323E+04  0.16105901869E+04  0.46999998093E+01 0.  1.
</event>
<event>
 5   0  0.2411746E-07  0.3707132E+04  0.7818609E-02  0.8066383E-01
       -1   -1    0    0    0  501  0.00000000000E+00  0.00000000000E+00  0.14072435273E+04  0.14072435273E+04  0.50400001928E-02 0. -1.
        1   -1    0    0  501    0  0.00000000000E+00  0.00000000000E+00 -0.24414449953E+04  0.24414449953E+04  0.50400001928E-02 0.  1.
    10030    2    1    2    0    0  0.00000000000E+00  0.00000000000E+00 -0.10342014679E+04  0.38486885226E+04  0.37071324050E+04 0.  0.
        1    1    3    3  502    0  0.16855169967E+04  0.72044219991E+03 -0.80274904727E+03  0.20011023318E+04  0.50400001928E-02 0.  1.
       -1    1    3    3    0  502 -0.16855169967E+04 -0.72044219991E+03 -0.23145242065E+03  0.18475861908E+04  0.50400001928E-02 0. -1.
</event>
<event>
 5   0  0.6939921E-07  0.3395075E+04  0.7818609E-02  0.8139116E-01
        2   -1    0    0  501    0  0.00000000000E+00  0.00000000000E+00  0.18362838380E+04  0.18362838380E+04  0.25500000920E-02 0. -1.
       -2   -1    0    0    0  501  0.00000000000E+00  0.00000000000E+00 -0.15692747103E+04  0.15692747103E+04  0.25500000920E-02 0.  1.
    10030    2    1    2    0    0  0.00000000000E+00  0.00000000000E+00  0.26700912769E+03  0.34055585484E+04  0.33950751320E+04 0.  0.
        4    1    3    3  502    0  0.11315609891E+04  0.10902992071E+04  0.77770998373E+03  0.17532875021E+04  0.12699999809E+01 0. -1.
       -4    1    3    3    0  502 -0.11315609891E+04 -0.10902992071E+04 -0.51070085605E+03  0.16522710463E+04  0.12699999809E+01 0.  1.
</event>
<event>
 5   0  0.2287500E-07  0.3840567E+04  0.7818609E-02  0.8037505E-01
       -1   -1    0    0    0  501  0.00000000000E+00  0.00000000000E+00  0.13610304304E+04  0.13610304304E+04  0.50400001928E-02 0.  1.
        1   -1    0    0  501    0  0.00000000000E+00  0.00000000000E+00 -0.27093353745E+04  0.27093353745E+04  0.50400001928E-02 0. -1.
    10030    2    1    2    0    0  0.00000000000E+00  0.00000000000E+00 -0.13483049442E+04  0.40703658049E+04  0.38405665680E+04 0.  0.
        2    1    3    3  502    0 -0.16100263411E+04  0.33655455757E+03 -0.17244236043E+04  0.23830842529E+04  0.25500000920E-02 0. -1.
       -2    1    3    3    0  502  0.16100263411E+04 -0.33655455757E+03  0.37611866010E+03  0.16872815520E+04  0.25500000920E-02 0.  1.
</event>
<event>
 5   0  0.2287500E-07  0.3728494E+04  0.7818609E-02  0.8061676E-01
       -1   -1    0    0    0  501  0.00000000000E+00  0.00000000000E+00  0.14952416405E+04  0.14952416405E+04  0.50400001928E-02 0.  1.
        1   -1    0    0  501    0  0.00000000000E+00  0.00000000000E+00 -0.23243182252E+04  0.23243182252E+04  0.50400001928E-02 0. -1.
    10030    2    1    2    0    0  0.00000000000E+00  0.00000000000E+00 -0.82907658473E+03  0.38195598657E+04  0.37284942784E+04 0.  0.
        2    1    3    3  502    0  0.17272266031E+04  0.15978277711E+03 -0.11142846224E+04  0.20616674062E+04  0.25500000920E-02 0.  1.
       -2    1    3    3    0  502 -0.17272266031E+04 -0.15978277711E+03  0.28520803768E+03  0.17578924594E+04  0.25500000920E-02 0. -1.
</event>
<event>
 5   0  0.7124627E-07  0.3774148E+04  0.7818609E-02  0.8051725E-01
        2   -1    0    0  501    0  0.00000000000E+00  0.00000000000E+00  0.24400952275E+04  0.24400952275E+04  0.25500000920E-02 0. -1.
       -2   -1    0    0    0  501  0.00000000000E+00  0.00000000000E+00 -0.14593893924E+04  0.14593893924E+04  0.25500000920E-02 0.  1.
    10030    2    1    2    0    0  0.00000000000E+00  0.00000000000E+00  0.98070583506E+03  0.38994846199E+04  0.37741484293E+04 0.  0.
        2    1    3    3  502    0 -0.12245465648E+04  0.46183086202E+03  0.18950033182E+04  0.23030066458E+04  0.25500000920E-02 0. -1.
       -2    1    3    3    0  502  0.12245465648E+04 -0.46183086202E+03 -0.91429748314E+03  0.15964779742E+04  0.25500000920E-02 0.  1.
</event>
<event>
 5   0  0.2345471E-07  0.3759228E+04  0.7818609E-02  0.8054961E-01
       -1   -1    0    0    0  501  0.00000000000E+00  0.00000000000E+00  0.17038447912E+04  0.17038447912E+04  0.50400001928E-02 0.  1.
        1   -1    0    0  501    0  0.00000000000E+00  0.00000000000E+00 -0.20735155898E+04  0.20735155898E+04  0.50400001928E-02 0. -1.
    10030    2    1    2    0    0  0.00000000000E+00  0.00000000000E+00 -0.36967079853E+03  0.37773603810E+04  0.37592279724E+04 0.  0.
        5    1    3    3  502    0  0.74820307105E+02 -0.11527071168E+04 -0.16747533841E+04  0.20344907872E+04  0.46999998093E+01 0. -1.
       -5    1    3    3    0  502 -0.74820307105E+02  0.11527071168E+04  0.13050825856E+04  0.17428695938E+04  0.46999998093E+01 0.  1.
</event>
<event>
 5   0  0.2287500E-07  0.3678597E+04  0.7818609E-02  0.8072722E-01
       -1   -1    0    0    0  501  0.00000000000E+00  0.00000000000E+00  0.16853351237E+04  0.16853351237E+04  0.50400001928E-02 0.  1.
        1   -1    0    0  501    0  0.00000000000E+00  0.00000000000E+00 -0.20073267851E+04  0.20073267851E+04  0.50400001928E-02 0. -1.
    10030    2    1    2    0    0  0.00000000000E+00  0.00000000000E+00 -0.32199166138E+03  0.36926619088E+04  0.36785966540E+04 0.  0.
        4    1    3    3  502    0  0.16586437086E+04 -0.70599259282E+03 -0.52775870565E+03  0.18783118371E+04  0.12699999809E+01 0. -1.
       -4    1    3    3    0  502 -0.16586437086E+04  0.70599259282E+03  0.20576704427E+03  0.18143500717E+04  0.12699999809E+01 0.  1.
</event>
<event>
 5   0  0.2345471E-07  0.3740906E+04  0.7818609E-02  0.8058957E-01
        1   -1    0    0  501    0  0.00000000000E+00  0.00000000000E+00  0.21011440334E+04  0.21011440335E+04  0.50400001928E-02 0.  1.
       -1   -1    0    0    0  501  0.00000000000E+00  0.00000000000E+00 -0.16650903311E+04  0.16650903311E+04  0.50400001928E-02 0. -1.
    10030    2    1    2    0    0  0.00000000000E+00  0.00000000000E+00  0.43605370230E+03  0.37662343646E+04  0.37409061012E+04 0.  0.
        5    1    3    3  502    0 -0.11998449325E+04 -0.19602080103E+03  0.16491010962E+04  0.20488066117E+04  0.46999998093E+01 0.  1.
       -5    1    3    3    0  502  0.11998449325E+04  0.19602080103E+03 -0.12130473939E+04  0.17174277529E+04  0.46999998093E+01 0. -1.
</event>
<event>
 5   0  0.7124627E-07  0.3773416E+04  0.7818609E-02  0.8051884E-01
       -2   -1    0    0    0  501  0.00000000000E+00  0.00000000000E+00  0.32158624068E+04  0.32158624068E+04  0.25500000920E-02 0. -1.
        2   -1    0    0  501    0  0.00000000000E+00  0.00000000000E+00 -0.11069090805E+04  0.11069090805E+04  0.25500000920E-02 0.  1.
    10030    2    1    2    0    0  0.00000000000E+00  0.00000000000E+00  0.21089533264E+04  0.43227714873E+04  0.37734161179E+04 0.  0.
        2    1    3    3  502    0 -0.32850042981E+03 -0.16179060134E+04  0.21007513638E+04  0.26718324598E+04  0.25500000920E-02 0. -1.
       -2    1    3    3    0  502  0.32850042981E+03  0.16179060134E+04  0.82019625767E+01  0.16509390276E+04  0.25500000920E-02 0.  1.
</event>
<event>
 5   0  0.7124627E-07  0.3694681E+04  0.7818609E-02  0.8069142E-01
       -2   -1    0    0    0  501  0.00000000000E+00  0.00000000000E+00  0.32832240066E+04  0.32832240066E+04  0.25500000920E-02 0. -1.
        2   -1    0    0  501    0  0.00000000000E+00  0.00000000000E+00 -0.10394257010E+04  0.10394257010E+04  0.25500000920E-02 0.  1.
    10030    2    1    2    0    0  0.00000000000E+00  0.00000000000E+00  0.22437983056E+04  0.43226497076E+04  0.36946812661E+04 0.  0.
        2    1    3    3  502    0 -0.17703708610E+04  0.24018946821E+03  0.57218534061E+03  0.18759797521E+04  0.25500000920E-02 0.  1.
       -2    1    3    3    0  502  0.17703708610E+04 -0.24018946821E+03  0.16716129650E+04  0.24466699555E+04  0.25500000920E-02 0. -1.
</event>
<event>
 5   0  0.2411746E-07  0.3677626E+04  0.7818609E-02  0.8072938E-01
       -1   -1    0    0    0  501  0.00000000000E+00  0.00000000000E+00  0.18029717425E+04  0.18029717425E+04  0.50400001928E-02 0. -1.
        1   -1    0    0  501    0  0.00000000000E+00  0.00000000000E+00 -0.18753669615E+04  0.18753669615E+04  0.50400001928E-02 0.  1.
    10030    2    1    2    0    0  0.00000000000E+00  0.00000000000E+00 -0.72395219004E+02  0.36783387039E+04  0.36776262117E+04 0.  0.
        1    1    3    3  502    0 -0.34351598689E+03 -0.61998322046E+03  0.16608488835E+04  0.18057689334E+04  0.50400001928E-02 0. -1.
       -1    1    3    3    0  502  0.34351598689E+03  0.61998322046E+03 -0.17332441025E+04  0.18725697706E+04  0.50400001928E-02 0.  1.
</event>
<event>
 5   0  0.7074157E-07  0.3554946E+04  0.7818609E-02  0.8100890E-01
        2   -1    0    0  501    0  0.00000000000E+00  0.00000000000E+00  0.19606728698E+04  0.19606728698E+04  0.25500000920E-02 0.  1.
       -2   -1    0    0    0  501  0.00000000000E+00  0.00000000000E+00 -0.16113910230E+04  0.16113910230E+04  0.25500000920E-02 0. -1.
    10030    2    1    2    0    0  0.00000000000E+00  0.00000000000E+00  0.34928184686E+03  0.35720638928E+04  0.35549462226E+04 0.  0.
        3    1    3    3  502    0  0.68184761635E+03  0.21411913576E+03  0.18099440334E+04  0.19459343747E+04  0.10100000352E+00 0.  1.
       -3    1    3    3    0  502 -0.68184761635E+03 -0.21411913576E+03 -0.14606621866E+04  0.16261295181E+04  0.10100000352E+00 0. -1.
</event>
<event>
 5   0  0.7074157E-07  0.3567828E+04  0.7818609E-02  0.8097901E-01
       -2   -1    0    0    0  501  0.00000000000E+00  0.00000000000E+00  0.13446821297E+04  0.13446821297E+04  0.25500000920E-02 0.  1.
        2   -1    0    0  501    0  0.00000000000E+00  0.00000000000E+00 -0.23666178083E+04  0.23666178083E+04  0.25500000920E-02 0. -1.
    10030    2    1    2    0    0  0.00000000000E+00  0.00000000000E+00 -0.10219356786E+04  0.37112999381E+04  0.35678277283E+04 0.  0.
        3    1    3    3  502    0 -0.71377852132E+03 -0.14792938527E+04  0.21312678607E+03  0.16562648089E+04  0.10100000352E+00 0.  1.
       -3    1    3    3    0  502  0.71377852132E+03  0.14792938527E+04 -0.12350624646E+04  0.20550351291E+04  0.10100000352E+00 0. -1.
</event>
<event>
 5   0  0.6939921E-07  0.3668065E+04  0.7818609E-02  0.8075076E-01
        2   -1    0    0  501    0  0.00000000000E+00  0.00000000000E+00  0.16666816619E+04  0.16666816619E+04  0.25500000920E-02 0.  1.
       -2   -1    0    0    0  501  0.00000000000E+00  0.00000000000E+00 -0.20181865188E+04  0.20181865188E+04  0.25500000920E-02 0. -1.
    10030    2    1    2    0    0  0.00000000000E+00  0.00000000000E+00 -0.35150485697E+03  0.36848681807E+04  0.36680645911E+04 0.  0.
        4    1    3    3  502    0 -0.17733328345E+04  0.44312791699E+03 -0.32677793562E+03  0.18568406299E+04  0.12699999809E+01 0.  1.
       -4    1    3    3    0  502  0.17733328345E+04 -0.44312791699E+03 -0.24726921356E+02  0.18280275508E+04  0.12699999809E+01 0. -1.
</event>
<event>
 5   0  0.2287500E-07  0.3649887E+04  0.7818609E-02  0.8079159E-01
       -1   -1    0    0    0  501  0.00000000000E+00  0.00000000000E+00  0.19833008348E+04  0.19833008348E+04  0.50400001928E-02 0.  1.
        1   -1    0    0  501    0  0.00000000000E+00  0.00000000000E+00 -0.16792298285E+04  0.16792298285E+04  0.50400001928E-02 0. -1.
    10030    2    1    2    0    0  0.00000000000E+00  0.00000000000E+00  0.30407100633E+03  0.36625306633E+04  0.36498865301E+04 0.  0.
        4    1    3    3  502    0  0.15203101992E+04  0.93527353037E+03  0.53326823895E+03  0.18629160760E+04  0.12699999809E+01 0. -1.
       -4    1    3    3    0  502 -0.15203101992E+04 -0.93527353037E+03 -0.22919723262E+03  0.17996145873E+04  0.12699999809E+01 0.  1.
</event>
<event>
 5   0  0.2287500E-07  0.3696839E+04  0.7818609E-02  0.8068663E-01
        1   -1    0    0  501    0  0.00000000000E+00  0.00000000000E+00  0.12422150618E+04  0.12422150618E+04  0.50400001928E-02 0. -1.
       -1   -1    0    0    0  501  0.00000000000E+00  0.00000000000E+00 -0.27504529723E+04  0.27504529723E+04  0.50400001928E-02 0.  1.
    10030    2    1    2    0    0  0.00000000000E+00  0.00000000000E+00 -0.15082379105E+04  0.39926680341E+04  0.36968387083E+04 0.  0.
        4    1    3    3  502    0  0.10680830470E+04  0.97722160619E+03 -0.19953878346E+04  0.24652256867E+04  0.12699999809E+01 0.  1.
       -4    1    3    3    0  502 -0.10680830470E+04 -0.97722160619E+03  0.48714992412E+03  0.15274423473E+04  0.12699999809E+01 0. -1.
</event>
<event>
 5   0  0.6949625E-07  0.3563385E+04  0.7818609E-02  0.8098931E-01
       -2   -1    0    0    0  501  0.00000000000E+00  0.00000000000E+00  0.31391883674E+04  0.31391883674E+04  0.25500000920E-02 0. -1.
        2   -1    0    0  501    0  0.00000000000E+00  0.00000000000E+00 -0.10112256115E+04  0.10112256115E+04  0.25500000920E-02 0.  1.
    10030    2    1    2    0    0  0.00000000000E+00  0.00000000000E+00  0.21279627558E+04  0.41504139789E+04  0.35633847260E+04 0.  0.
        5    1    3    3  502    0  0.17287214882E+04 -0.49358527625E+02  0.56505497499E+03  0.18194019520E+04  0.46999998093E+01 0.  1.
       -5    1    3    3    0  502 -0.17287214882E+04  0.49358527625E+02  0.15629077809E+04  0.23310120269E+04  0.46999998093E+01 0. -1.
</event>
<event>
 5   0  0.2287500E-07  0.3767795E+04  0.7818609E-02  0.8053101E-01
       -1   -1    0    0    0  501  0.00000000000E+00  0.00000000000E+00  0.14106028500E+04  0.14106028500E+04  0.50400001928E-02 0. -1.
        1   -1    0    0  501    0  0.00000000000E+00  0.00000000000E+00 -0.25159951609E+04  0.25159951609E+04  0.50400001928E-02 0.  1.
    10030    2    1    2    0    0  0.00000000000E+00  0.00000000000E+00 -0.11053923108E+04  0.39265980109E+04  0.37677950818E+04 0.  0.
        4    1    3    3  502    0  0.67164980770E+03 -0.15692453140E+03  0.12742835951E+04  0.14489786287E+04  0.12699999809E+01 0. -1.
       -4    1    3    3    0  502 -0.67164980770E+03  0.15692453140E+03 -0.23796759060E+04  0.24776193822E+04  0.12699999809E+01 0.  1.
</event>
<event>
 5   0  0.7074157E-07  0.3185988E+04  0.7818609E-02  0.8192528E-01
        2   -1    0    0  501    0  0.00000000000E+00  0.00000000000E+00  0.14168547533E+04  0.14168547533E+04  0.25500000920E-02 0.  1.
       -2   -1    0    0    0  501  0.00000000000E+00  0.00000000000E+00 -0.17910301376E+04  0.17910301376E+04  0.25500000920E-02 0. -1.
    10030    2    1    2    0    0  0.00000000000E+00  0.00000000000E+00 -0.37417538430E+03  0.32078848910E+04  0.31859877990E+04 0.  0.
        3    1    3    3  502    0  0.11139635090E+04 -0.33318485731E+03  0.90929601501E+03  0.14760576214E+04  0.10100000352E+00 0.  1.
       -3    1    3    3    0  502 -0.11139635090E+04  0.33318485731E+03 -0.12834713993E+04  0.17318272696E+04  0.10100000352E+00 0. -1.
</event>
<event>
 5   0  0.7074157E-07  0.3810040E+04  0.7818609E-02  0.8044004E-01
        2   -1    0    0  501    0  0.00000000000E+00  0.00000000000E+00  0.19679997680E+04  0.19679997680E+04  0.25500000920E-02 0. -1.
       -2   -1    0    0    0  501  0.00000000000E+00  0.00000000000E+00 -0.18440560483E+04  0.18440560483E+04  0.25500000920E-02 0.  1.
    10030    2    1    2    0    0  0.00000000000E+00  0.00000000000E+00  0.12394371976E+03  0.38120558163E+04  0.38100403542E+04 0.  0.
        3    1    3    3  502    0  0.13417835662E+04 -0.96977664023E+03  0.10049416318E+04  0.19366872654E+04  0.10100000352E+00 0. -1.
       -3    1    3    3    0  502 -0.13417835662E+04  0.96977664023E+03 -0.88099791206E+03  0.18753685509E+04  0.10100000352E+00 0.  1.
</event>
<event>
 5   0  0.2287500E-07  0.3457377E+04  0.7818609E-02  0.8123966E-01
       -1   -1    0    0    0  501  0.00000000000E+00  0.00000000000E+00  0.13656268366E+04  0.13656268366E+04  0.50400001928E-02 0. -1.
        1   -1    0    0  501    0  0.00000000000E+00  0.00000000000E+00 -0.21882721612E+04  0.21882721612E+04  0.50400001928E-02 0.  1.
    10030    2    1    2    0    0  0.00000000000E+00  0.00000000000E+00 -0.82264532460E+03  0.35538989978E+04  0.34573765714E+04 0.  0.
        4    1    3    3  502    0  0.32179088625E+03  0.86681659060E+03 -0.19127306951E+04  0.21244906922E+04  0.12699999809E+01 0.  1.
       -4    1    3    3    0  502 -0.32179088625E+03 -0.86681659060E+03  0.10900853705E+04  0.14294083056E+04  0.12699999809E+01 0. -1.
</event>
<event>
 5   0  0.2287500E-07  0.3584213E+04  0.7818609E-02  0.8094117E-01
        1   -1    0    0  501    0  0.00000000000E+00  0.00000000000E+00  0.16809923481E+04  0.16809923481E+04  0.50400001928E-02 0.  1.
       -1   -1    0    0    0  501  0.00000000000E+00  0.00000000000E+00 -0.19105655005E+04  0.19105655005E+04  0.50400001928E-02 0. -1.
    10030    2    1    2    0    0  0.00000000000E+00  0.00000000000E+00 -0.22957315241E+03  0.35915578487E+04  0.35842131561E+04 0.  0.
        3    1    3    3  502    0 -0.11097548727E+04 -0.13979749411E+04 -0.27560271213E+03  0.18060583264E+04  0.10100000352E+00 0.  1.
       -3    1    3    3    0  502  0.11097548727E+04  0.13979749411E+04  0.46029559716E+02  0.17854995222E+04  0.10100000352E+00 0. -1.
</event>
<event>
 5   0  0.2287500E-07  0.3708381E+04  0.7818609E-02  0.8066107E-01
        1   -1    0    0  501    0  0.00000000000E+00  0.00000000000E+00  0.21021051279E+04  0.21021051280E+04  0.50400001928E-02 0.  1.
       -1   -1    0    0    0  501  0.00000000000E+00  0.00000000000E+00 -0.16355140796E+04  0.16355140796E+04  0.50400001928E-02 0. -1.
    10030    2    1    2    0    0  0.00000000000E+00  0.00000000000E+00  0.46659104832E+03  0.37376192076E+04  0.37083810665E+04 0.  0.
        4    1    3    3  502    0 -0.17314332017E+04 -0.56200759290E+03 -0.12205690117E+03  0.18244486747E+04  0.12699999809E+01 0.  1.
       -4    1    3    3    0  502  0.17314332017E+04  0.56200759290E+03  0.58864794949E+03  0.19131705329E+04  0.12699999809E+01 0. -1.
</event>
<event>
 5   0  0.6949625E-07  0.3744559E+04  0.7818609E-02  0.8058158E-01
        2   -1    0    0  501    0  0.00000000000E+00  0.00000000000E+00  0.27097400960E+04  0.27097400960E+04  0.25500000920E-02 0.  1.
       -2   -1    0    0    0  501  0.00000000000E+00  0.00000000000E+00 -0.12936405910E+04  0.12936405910E+04  0.25500000920E-02 0. -1.
    10030    2    1    2    0    0  0.00000000000E+00  0.00000000000E+00  0.14160995050E+04  0.40033806869E+04  0.37445586010E+04 0.  0.
        5    1    3    3  502    0  0.13197044810E+04 -0.83316861953E+03  0.18137580630E+04  0.23928080296E+04  0.46999998093E+01 0.  1.
       -5    1    3    3    0  502 -0.13197044810E+04  0.83316861953E+03 -0.39765855799E+03  0.16105726573E+04  0.46999998093E+01 0. -1.
</event>
<event>
 5   0  0.2287500E-07  0.3663912E+04  0.7818609E-02  0.8076007E-01
       -1   -1    0    0    0  501  0.00000000000E+00  0.00000000000E+00  0.11965581016E+04  0.11965581016E+04  0.50400001928E-02 0. -1.
        1   -1    0    0  501    0  0.00000000000E+00  0.00000000000E+00 -0.28047630709E+04  0.28047630709E+04  0.50400001928E-02 0.  1.
    10030    2    1    2    0    0  0.00000000000E+00  0.00000000000E+00 -0.16082049693E+04  0.40013211725E+04  0.36639115576E+04 0.  0.
        4    1    3    3  502    0  0.14466220699E+04 -0.11229949803E+04 -0.85564200184E+03  0.20213752712E+04  0.12699999809E+01 0. -1.
       -4    1    3    3    0  502 -0.14466220699E+04  0.11229949803E+04 -0.75256296743E+03  0.19799459012E+04  0.12699999809E+01 0.  1.
</event>
<event>
 5   0  0.2287500E-07  0.3248043E+04  0.7818609E-02  0.8176243E-01
        1   -1    0    0  501    0  0.00000000000E+00  0.00000000000E+00  0.12053938680E+04  0.12053938680E+04  0.50400001928E-02 0.  1.
       -1   -1    0    0    0  501  0.00000000000E+00  0.00000000000E+00 -0.21880365401E+04  0.21880365401E+04  0.50400001928E-02 0. -1.
    10030    2    1    2    0    0  0.00000000000E+00  0.00000000000E+00 -0.98264267212E+03  0.33934304082E+04  0.32480429976E+04 0.  0.
        2    1    3    3  502    0 -0.65007929686E+03  0.10770099258E+04  0.58173185414E+03  0.13859889692E+04  0.25500000920E-02 0.  1.
       -2    1    3    3    0  502  0.65007929686E+03 -0.10770099258E+04 -0.15643745263E+04  0.20074414390E+04  0.25500000920E-02 0. -1.
</event>
<event>
 5   0  0.2345471E-07  0.3824603E+04  0.7818609E-02  0.8040896E-01
        1   -1    0    0  501    0  0.00000000000E+00  0.00000000000E+00  0.16573328399E+04  0.16573328399E+04  0.50400001928E-02 0.  1.
       -1   -1    0    0    0  501  0.00000000000E+00  0.00000000000E+00 -0.22064949353E+04  0.22064949353E+04  0.50400001928E-02 0. -1.
    10030    2    1    2    0    0  0.00000000000E+00  0.00000000000E+00 -0.54916209533E+03  0.38638277752E+04  0.38246027336E+04 0.  0.
        5    1    3    3  502    0 -0.54291463870E+03  0.33708875126E+02 -0.21266813881E+04  0.21951511132E+04  0.46999998093E+01 0. -1.
       -5    1    3    3    0  502  0.54291463870E+03 -0.33708875126E+02  0.15775192928E+04  0.16686766620E+04  0.46999998093E+01 0.  1.
</event>
<event>
 5   0  0.7124627E-07  0.3732277E+04  0.7818609E-02  0.8060846E-01
        2   -1    0    0  501    0  0.00000000000E+00  0.00000000000E+00  0.19820514872E+04  0.19820514872E+04  0.25500000920E-02 0.  1.
       -2   -1    0    0    0  501  0.00000000000E+00  0.00000000000E+00 -0.17570041715E+04  0.17570041715E+04  0.25500000920E-02 0. -1.
    10030    2    1    2    0    0  0.00000000000E+00  0.00000000000E+00  0.22504731568E+03  0.37390556586E+04  0.37322769088E+04 0.  0.
        2    1    3    3  502    0  0.15130403210E+04 -0.18137836630E+03 -0.96659735719E+03  0.18045773953E+04  0.25500000920E-02 0. -1.
       -2    1    3    3    0  502 -0.15130403210E+04  0.18137836630E+03  0.11916446729E+04  0.19344782633E+04  0.25500000920E-02 0.  1.
</event>
<event>
 5   0  0.6939921E-07  0.3756694E+04  0.7818609E-02  0.8055513E-01
        2   -1    0    0  501    0  0.00000000000E+00  0.00000000000E+00  0.21819616178E+04  0.21819616178E+04  0.25500000920E-02 0.  1.
       -2   -1    0    0    0  501  0.00000000000E+00  0.00000000000E+00 -0.16169797797E+04  0.16169797797E+04  0.25500000920E-02 0. -1.
    10030    2    1    2    0    0  0.00000000000E+00  0.00000000000E+00  0.56498183810E+03  0.37989413974E+04  0.37566941935E+04 0.  0.
        4    1    3    3  502    0  0.12890991148E+04  0.42382937478E+03 -0.10308750467E+04  0.17041457806E+04  0.12699999809E+01 0. -1.
       -4    1    3    3    0  502 -0.12890991148E+04 -0.42382937478E+03  0.15958568848E+04  0.20947956168E+04  0.12699999809E+01 0.  1.
</event>
<event>
 5   0  0.7074157E-07  0.3692956E+04  0.7818609E-02  0.8069525E-01
        2   -1    0    0  501    0  0.00000000000E+00  0.00000000000E+00  0.16487657861E+04  0.16487657861E+04  0.25500000920E-02 0. -1.
       -2   -1    0    0    0  501  0.00000000000E+00  0.00000000000E+00 -0.20678985735E+04  0.20678985735E+04  0.25500000920E-02 0.  1.
    10030    2    1    2    0    0  0.00000000000E+00  0.00000000000E+00 -0.41913278742E+03  0.37166643596E+04  0.36929556819E+04 0.  0.
        3    1    3    3  502    0 -0.10373992719E+04  0.85444866246E+03 -0.14838708038E+04  0.20020370473E+04  0.10100000352E+00 0.  1.
       -3    1    3    3    0  502  0.10373992719E+04 -0.85444866246E+03  0.10647380164E+04  0.17146273123E+04  0.10100000352E+00 0. -1.
</event>
<event>
 5   0  0.2287500E-07  0.2859209E+04  0.7818609E-02  0.8285119E-01
        1   -1    0    0  501    0  0.00000000000E+00  0.00000000000E+00  0.15477940454E+04  0.15477940454E+04  0.50400001928E-02 0. -1.
       -1   -1    0    0    0  501  0.00000000000E+00  0.00000000000E+00 -0.13204397783E+04  0.13204397784E+04  0.50400001928E-02 0.  1.
    10030    2    1    2    0    0  0.00000000000E+00  0.00000000000E+00  0.22735426707E+03  0.28682338238E+04  0.28592088600E+04 0.  0.
        4    1    3    3  502    0  0.32022629909E+03 -0.21610217598E+02  0.15111843710E+04  0.15448921322E+04  0.12699999809E+01 0. -1.
       -4    1    3    3    0  502 -0.32022629909E+03  0.21610217598E+02 -0.12838301039E+04  0.13233416916E+04  0.12699999809E+01 0.  1.
</event>
<event>
 5   0  0.2287500E-07  0.3654431E+04  0.7818609E-02  0.8078136E-01
        1   -1    0    0  501    0  0.00000000000E+00  0.00000000000E+00  0.26659832887E+04  0.26659832887E+04  0.50400001928E-02 0.  1.
       -1   -1    0    0    0  501  0.00000000000E+00  0.00000000000E+00 -0.12523399290E+04  0.12523399291E+04  0.50400001928E-02 0. -1.
    10030    2    1    2    0    0  0.00000000000E+00  0.00000000000E+00  0.14136433596E+04  0.39183232177E+04  0.36544314593E+04 0.  0.
        3    1    3    3  502    0 -0.81679304424E+03  0.26245810980E+02 -0.10454741563E+04  0.13269724720E+04  0.10100000352E+00 0. -1.
       -3    1    3    3    0  502  0.81679304424E+03 -0.26245810980E+02  0.24591175160E+04  0.25913507457E+04  0.10100000352E+00 0.  1.
</event>
<event>
 5   0  0.2345471E-07  0.3608906E+04  0.7818609E-02  0.8088455E-01
        1   -1    0    0  501    0  0.00000000000E+00  0.00000000000E+00  0.26202124263E+04  0.26202124263E+04  0.50400001928E-02 0. -1.
       -1   -1    0    0    0  501  0.00000000000E+00  0.00000000000E+00 -0.12426665842E+04  0.12426665842E+04  0.50400001928E-02 0.  1.
    10030    2    1    2    0    0  0.00000000000E+00  0.00000000000E+00  0.13775458421E+04  0.38628790105E+04  0.36089058872E+04 0.  0.
        5    1    3    3  502    0 -0.17461329884E+04 -0.35878127687E+03  0.98833218242E+03  0.20382656869E+04  0.46999998093E+01 0.  1.
       -5    1    3    3    0  502  0.17461329884E+04  0.35878127687E+03  0.38921365967E+03  0.18246133236E+04  0.46999998093E+01 0. -1.
</event>
<event>
 5   0  0.2345471E-07  0.3564075E+04  0.7818609E-02  0.8098771E-01
       -1   -1    0    0    0  501  0.00000000000E+00  0.00000000000E+00  0.10932433995E+04  0.10932433995E+04  0.50400001928E-02 0. -1.
        1   -1    0    0  501    0  0.00000000000E+00  0.00000000000E+00 -0.29048030620E+04  0.29048030620E+04  0.50400001928E-02 0.  1.
    10030    2    1    2    0    0  0.00000000000E+00  0.00000000000E+00 -0.18115596625E+04  0.39980464616E+04  0.35640745079E+04 0.  0.
        5    1    3    3  502    0  0.68433270482E+03  0.27602456388E+03  0.91380595300E+03  0.11745485177E+04  0.46999998093E+01 0. -1.
       -5    1    3    3    0  502 -0.68433270482E+03 -0.27602456388E+03 -0.27253656155E+04  0.28234979438E+04  0.46999998093E+01 0.  1.
</event>
<event>
 5   0  0.7124627E-07  0.3767203E+04  0.7818609E-02  0.8053230E-01
       -2   -1    0    0    0  501  0.00000000000E+00  0.00000000000E+00  0.23272754677E+04  0.23272754677E+04  0.25500000920E-02 0.  1.
        2   -1    0    0  501    0  0.00000000000E+00  0.00000000000E+00 -0.15245095636E+04  0.15245095636E+04  0.25500000920E-02 0. -1.
    10030    2    1    2    0    0  0.00000000000E+00  0.00000000000E+00  0.80276590412E+03  0.38517850313E+04  0.37672025205E+04 0.  0.
        2    1    3    3  502    0  0.71861620011E+03  0.11614230979E+04 -0.92490794072E+03  0.16494749329E+04  0.25500000920E-02 0. -1.
       -2    1    3    3    0  502 -0.71861620011E+03 -0.11614230979E+04  0.17276738448E+04  0.22023100984E+04  0.25500000920E-02 0.  1.
</event>
<event>
 5   0  0.7124627E-07  0.3677113E+04  0.7818609E-02  0.8073053E-01
       -2   -1    0    0    0  501  0.00000000000E+00  0.00000000000E+00  0.12469190970E+04  0.12469190970E+04  0.25500000920E-02 0. -1.
        2   -1    0    0  501    0  0.00000000000E+00  0.00000000000E+00 -0.27109142763E+04  0.27109142763E+04  0.25500000920E-02 0.  1.
    10030    2    1    2    0    0  0.00000000000E+00  0.00000000000E+00 -0.14639951793E+04  0.39578333733E+04  0.36771134231E+04 0.  0.
        2    1    3    3  502    0 -0.92636563342E+02  0.40938543390E+03  0.11946592987E+04  0.12662498989E+04  0.25500000920E-02 0. -1.
       -2    1    3    3    0  502  0.92636563342E+02 -0.40938543390E+03 -0.26586544780E+04  0.26915834744E+04  0.25500000920E-02 0.  1.
</event>
<event>
 5   0  0.2287500E-07  0.3741591E+04  0.7818609E-02  0.8058807E-01
       -1   -1    0    0    0  501  0.00000000000E+00  0.00000000000E+00  0.21012282153E+04  0.21012282153E+04  0.50400001928E-02 0.  1.
        1   -1    0    0  501    0  0.00000000000E+00  0.00000000000E+00 -0.16656335254E+04  0.16656335254E+04  0.50400001928E-02 0. -1.
    10030    2    1    2    0    0  0.00000000000E+00  0.00000000000E+00  0.43559468991E+03  0.37668617407E+04  0.37415911909E+04 0.  0.
        3    1    3    3  502    0 -0.84504125305E+02 -0.13326155599E+04  0.15369412483E+04  0.20359748497E+04  0.10100000352E+00 0.  1.
       -3    1    3    3    0  502  0.84504125305E+02  0.13326155599E+04 -0.11013465584E+04  0.17308868910E+04  0.10100000352E+00 0. -1.
</event>
<event>
 5   0  0.2411746E-07  0.3720577E+04  0.7818609E-02  0.8063417E-01
       -1   -1    0    0    0  501  0.00000000000E+00  0.00000000000E+00  0.23931570662E+04  0.23931570662E+04  0.50400001928E-02 0.  1.
        1   -1    0    0  501    0  0.00000000000E+00  0.00000000000E+00 -0.14460702400E+04  0.14460702400E+04  0.50400001928E-02 0. -1.
    10030    2    1    2    0    0  0.00000000000E+00  0.00000000000E+00  0.94708682628E+03  0.38392273062E+04  0.37205769515E+04 0.  0.
        1    1    3    3  502    0  0.39549741582E+02 -0.16268199683E+04 -0.45662761821E+03  0.16901527070E+04  0.50400001928E-02 0. -1.
       -1    1    3    3    0  502 -0.39549741582E+02  0.16268199683E+04  0.14037144445E+04  0.21490745992E+04  0.50400001928E-02 0.  1.
</event>
<event>
 5   0  0.7300916E-07  0.3701456E+04  0.7818609E-02  0.8067639E-01
       -2   -1    0    0    0  501  0.00000000000E+00  0.00000000000E+00  0.14962699247E+04  0.14962699247E+04  0.25500000920E-02 0. -1.
        2   -1    0    0  501    0  0.00000000000E+00  0.00000000000E+00 -0.22891551535E+04  0.22891551535E+04  0.25500000920E-02 0.  1.
    10030    2    1    2    0    0  0.00000000000E+00  0.00000000000E+00 -0.79288522876E+03  0.37854250781E+04  0.37014559347E+04 0.  0.
        1    1    3    3  502    0 -0.54816123592E+03  0.11167060110E+04  0.10049278886E+04  0.15991851415E+04  0.50400001928E-02 0. -1.
       -1    1    3    3    0  502  0.54816123592E+03 -0.11167060110E+04 -0.17978131174E+04  0.21862399366E+04  0.50400001928E-02 0.  1.
</event>
<event>
 5   0  0.6949625E-07  0.3694823E+04  0.7818609E-02  0.8069110E-01
        2   -1    0    0  501    0  0.00000000000E+00  0.00000000000E+00  0.14896137567E+04  0.14896137567E+04  0.25500000920E-02 0.  1.
       -2   -1    0    0    0  501  0.00000000000E+00  0.00000000000E+00 -0.22911506772E+04  0.22911506772E+04  0.25500000920E-02 0. -1.
    10030    2    1    2    0    0  0.00000000000E+00  0.00000000000E+00 -0.80153692056E+03  0.37807644339E+04  0.36948231716E+04 0.  0.
        5    1    3    3  502    0  0.36969868411E+03 -0.95876730439E+03  0.11701923375E+04  0.15573323530E+04  0.46999998093E+01 0.  1.
       -5    1    3    3    0  502 -0.36969868411E+03  0.95876730439E+03 -0.19717292581E+04  0.22234320809E+04  0.46999998093E+01 0. -1.
</event>
<event>
 5   0  0.2287500E-07  0.3621869E+04  0.7818609E-02  0.8085501E-01
       -1   -1    0    0    0  501  0.00000000000E+00  0.00000000000E+00  0.14066601405E+04  0.14066601405E+04  0.50400001928E-02 0.  1.
        1   -1    0    0  501    0  0.00000000000E+00  0.00000000000E+00 -0.23313978977E+04  0.23313978977E+04  0.50400001928E-02 0. -1.
    10030    2    1    2    0    0  0.00000000000E+00  0.00000000000E+00 -0.92473775723E+03  0.37380580382E+04  0.36218694036E+04 0.  0.
        2    1    3    3  502    0  0.16389202379E+04 -0.71297655294E+03 -0.76342741125E+03  0.19435062448E+04  0.25500000920E-02 0.  1.
       -2    1    3    3    0  502 -0.16389202379E+04  0.71297655294E+03 -0.16131034598E+03  0.17945517934E+04  0.25500000920E-02 0. -1.
</event>
<event>
 5   0  0.2287500E-07  0.3666646E+04  0.7818609E-02  0.8075394E-01
        1   -1    0    0  501    0  0.00000000000E+00  0.00000000000E+00  0.98100420530E+03  0.98100420531E+03  0.50400001928E-02 0.  1.
       -1   -1    0    0    0  501  0.00000000000E+00  0.00000000000E+00 -0.34261550121E+04  0.34261550121E+04  0.50400001928E-02 0. -1.
    10030    2    1    2    0    0  0.00000000000E+00  0.00000000000E+00 -0.24451508068E+04  0.44071592174E+04  0.36666455923E+04 0.  0.
        2    1    3    3  502    0  0.17782767363E+04 -0.15767202263E+03 -0.17238715366E+04  0.24817053999E+04  0.25500000920E-02 0. -1.
       -2    1    3    3    0  502 -0.17782767363E+04  0.15767202263E+03 -0.72127927019E+03  0.19254538174E+04  0.25500000920E-02 0.  1.
</event>
<event>
 5   0  0.2287500E-07  0.3437647E+04  0.7818609E-02  0.8128728E-01
       -1   -1    0    0    0  501  0.00000000000E+00  0.00000000000E+00  0.12088440657E+04  0.12088440658E+04  0.50400001928E-02 0. -1.
        1   -1    0    0  501    0  0.00000000000E+00  0.00000000000E+00 -0.24439493177E+04  0.24439493177E+04  0.50400001928E-02 0.  1.
    10030    2    1    2    0    0  0.00000000000E+00  0.00000000000E+00 -0.12351052520E+04  0.36527933835E+04  0.34376466542E+04 0.  0.
        3    1    3    3  502    0 -0.13925996248E+04 -0.97429077948E+03 -0.34503025229E+03  0.17342497292E+04  0.10100000352E+00 0. -1.
       -3    1    3    3    0  502  0.13925996248E+04  0.97429077948E+03 -0.89007499966E+03  0.19185436542E+04  0.10100000352E+00 0.  1.
</event>
<event>
 5   0  0.7074157E-07  0.3878001E+04  0.7818609E-02  0.8029620E-01
       -2   -1    0    0    0  501  0.00000000000E+00  0.00000000000E+00  0.22977764576E+04  0.22977764576E+04  0.25500000920E-02 0. -1.
        2   -1    0    0  501    0  0.00000000000E+00  0.00000000000E+00 -0.16362437694E+04  0.16362437694E+04  0.25500000920E-02 0.  1.
    10030    2    1    2    0    0  0.00000000000E+00  0.00000000000E+00  0.66153268819E+03  0.39340202270E+04  0.38780007283E+04 0.  0.
        3    1    3    3  502    0  0.43611192334E+03  0.18403079340E+04 -0.10295565715E+03  0.18940767616E+04  0.10100000352E+00 0.  1.
       -3    1    3    3    0  502 -0.43611192334E+03 -0.18403079340E+04  0.76448834534E+03  0.20399434653E+04  0.10100000352E+00 0. -1.
</event>
<event>
 5   0  0.2345471E-07  0.3706791E+04  0.7818609E-02  0.8066459E-01
       -1   -1    0    0    0  501  0.00000000000E+00  0.00000000000E+00  0.16002359147E+04  0.16002359147E+04  0.50400001928E-02 0. -1.
        1   -1    0    0  501    0  0.00000000000E+00  0.00000000000E+00 -0.21466052411E+04  0.21466052411E+04  0.50400001928E-02 0.  1.
    10030    2    1    2    0    0  0.00000000000E+00  0.00000000000E+00 -0.54636932636E+03  0.37468411558E+04  0.37067909579E+04 0.  0.
        5    1    3    3  502    0  0.13697267265E+04 -0.12458422513E+04 -0.18996351622E+03  0.18612851603E+04  0.46999998093E+01 0. -1.
       -5    1    3    3    0  502 -0.13697267265E+04  0.12458422513E+04 -0.35640581014E+03  0.18855559954E+04  0.46999998093E+01 0.  1.
</event>
<event>
 5   0  0.2287500E-07  0.3358865E+04  0.7818609E-02  0.8148077E-01
        1   -1    0    0  501    0  0.00000000000E+00  0.00000000000E+00  0.29432321159E+04  0.29432321159E+04  0.50400001928E-02 0.  1.
       -1   -1    0    0    0  501  0.00000000000E+00  0.00000000000E+00 -0.95829826855E+03  0.95829826856E+03  0.50400001928E-02 0. -1.
    10030    2    1    2    0    0  0.00000000000E+00  0.00000000000E+00  0.19849338473E+04  0.39015303844E+04  0.33588654278E+04 0.  0.
        2    1    3    3  502    0  0.72382905704E+03 -0.49481303229E+03 -0.67133663552E+03  0.11042922253E+04  0.25500000920E-02 0. -1.
       -2    1    3    3    0  502 -0.72382905704E+03  0.49481303229E+03  0.26562704828E+04  0.27972381591E+04  0.25500000920E-02 0.  1.
</event>
<event>
 5   0  0.7300916E-07  0.3846216E+04  0.7818609E-02  0.8036309E-01
        2   -1    0    0  501    0  0.00000000000E+00  0.00000000000E+00  0.20223181914E+04  0.20223181914E+04  0.25500000920E-02 0. -1.
       -2   -1    0    0    0  501  0.00000000000E+00  0.00000000000E+00 -0.18287651168E+04  0.18287651168E+04  0.25500000920E-02 0.  1.
    10030    2    1    2    0    0  0.00000000000E+00  0.00000000000E+00  0.19355307458E+03  0.38510833082E+04  0.38462163036E+04 0.  0.
        1    1    3    3  502    0 -0.45939547045E+03  0.48455660444E+03 -0.17089760249E+04  0.18347856428E+04  0.50400001928E-02 0.  1.
       -1    1    3    3    0  502  0.45939547045E+03 -0.48455660444E+03  0.19025290995E+04  0.20162976654E+04  0.50400001928E-02 0. -1.
</event>
<event>
 5   0  0.6949625E-07  0.3720102E+04  0.7818609E-02  0.8063521E-01
       -2   -1    0    0    0  501  0.00000000000E+00  0.00000000000E+00  0.23554853740E+04  0.23554853740E+04  0.25500000920E-02 0.  1.
        2   -1    0    0  501    0  0.00000000000E+00  0.00000000000E+00 -0.14688227532E+04  0.14688227532E+04  0.25500000920E-02 0. -1.
    10030    2    1    2    0    0  0.00000000000E+00  0.00000000000E+00  0.88666262083E+03  0.38243081272E+04  0.37201024244E+04 0.  0.
        5    1    3    3  502    0  0.82515177704E+03  0.12027962377E+04  0.16298606583E+04  0.21872498943E+04  0.46999998093E+01 0.  1.
       -5    1    3    3    0  502 -0.82515177704E+03 -0.12027962377E+04 -0.74319803751E+03  0.16370582328E+04  0.46999998093E+01 0. -1.
</event>
<event>
 5   0  0.6949625E-07  0.3760376E+04  0.7818609E-02  0.8054712E-01
       -2   -1    0    0    0  501  0.00000000000E+00  0.00000000000E+00  0.32267501192E+04  0.32267501192E+04  0.25500000920E-02 0. -1.
        2   -1    0    0  501    0  0.00000000000E+00  0.00000000000E+00 -0.10955628923E+04  0.10955628923E+04  0.25500000920E-02 0.  1.
    10030    2    1    2    0    0  0.00000000000E+00  0.00000000000E+00  0.21311872269E+04  0.43223130115E+04  0.37603764138E+04 0.  0.
        5    1    3    3  502    0 -0.14713978268E+04  0.69615207455E+03 -0.16004733486E+02  0.16278567249E+04  0.46999998093E+01 0. -1.
       -5    1    3    3    0  502  0.14713978268E+04 -0.69615207455E+03  0.21471919604E+04  0.26944562866E+04  0.46999998093E+01 0.  1.
</event>
<event>
 5   0  0.6949625E-07  0.3663176E+04  0.7818609E-02  0.8076172E-01
        2   -1    0    0  501    0  0.00000000000E+00  0.00000000000E+00  0.18880888243E+04  0.18880888243E+04  0.25500000920E-02 0. -1.
       -2   -1    0    0    0  501  0.00000000000E+00  0.00000000000E+00 -0.17767783889E+04  0.17767783889E+04  0.25500000920E-02 0.  1.
    10030    2    1    2    0    0  0.00000000000E+00  0.00000000000E+00  0.11131043536E+03  0.36648672133E+04  0.36631764464E+04 0.  0.
        5    1    3    3  502    0  0.46104105574E+03  0.17698912167E+04 -0.42469383629E+02  0.18294533371E+04  0.46999998093E+01 0.  1.
       -5    1    3    3    0  502 -0.46104105574E+03 -0.17698912167E+04  0.15377981899E+03  0.18354138762E+04  0.46999998093E+01 0. -1.
</event>
<event>
 5   0  0.7124627E-07  0.3692331E+04  0.7818609E-02  0.8069664E-01
       -2   -1    0    0    0  501  0.00000000000E+00  0.00000000000E+00  0.22265475297E+04  0.22265475297E+04  0.25500000920E-02 0.  1.
        2   -1    0    0  501    0  0.00000000000E+00  0.00000000000E+00 -0.15307674112E+04  0.15307674112E+04  0.25500000920E-02 0. -1.
    10030    2    1    2    0    0  0.00000000000E+00  0.00000000000E+00  0.69578011850E+03  0.37573149409E+04  0.36923306450E+04 0.  0.
        2    1    3    3  502    0  0.49532388911E+03  0.85041113808E+02  0.21555977986E+04  0.22134090483E+04  0.25500000920E-02 0.  1.
       -2    1    3    3    0  502 -0.49532388911E+03 -0.85041113808E+02 -0.14598176801E+04  0.15439058926E+04  0.25500000920E-02 0. -1.
</event>
<event>
 5   0  0.6939921E-07  0.3682112E+04  0.7818609E-02  0.8071938E-01
       -2   -1    0    0    0  501  0.00000000000E+00  0.00000000000E+00  0.12404726680E+04  0.12404726680E+04  0.25500000920E-02 0.  1.
        2   -1    0    0  501    0  0.00000000000E+00  0.00000000000E+00 -0.27324156902E+04  0.27324156902E+04  0.25500000920E-02 0. -1.
    10030    2    1    2    0    0  0.00000000000E+00  0.00000000000E+00 -0.14919430222E+04  0.39728883582E+04  0.36821118839E+04 0.  0.
        4    1    3    3  502    0  0.41779554315E+03 -0.15652048109E+04 -0.16897256619E+04  0.23408531866E+04  0.12699999809E+01 0.  1.
       -4    1    3    3    0  502 -0.41779554315E+03  0.15652048109E+04  0.19778263965E+03  0.16320351716E+04  0.12699999809E+01 0. -1.
</event>
<event>
 5   0  0.7074157E-07  0.3609461E+04  0.7818609E-02  0.8088328E-01
       -2   -1    0    0    0  501  0.00000000000E+00  0.00000000000E+00  0.15839645618E+04  0.15839645618E+04  0.25500000920E-02 0.  1.
        2   -1    0    0  501    0  0.00000000000E+00  0.00000000000E+00 -0.20562655412E+04  0.20562655412E+04  0.25500000920E-02 0. -1.
    10030    2    1    2    0    0  0.00000000000E+00  0.00000000000E+00 -0.47230097942E+03  0.36402301029E+04  0.36094607613E+04 0.  0.
        3    1    3    3  502    0 -0.47827345500E+03  0.16531157215E+03  0.15109502235E+04  0.15934377935E+04  0.10100000352E+00 0.  1.
       -3    1    3    3    0  502  0.47827345500E+03 -0.16531157215E+03 -0.19832512030E+04  0.20467923094E+04  0.10100000352E+00 0. -1.
</event>
<event>
 5   0  0.6949625E-07  0.3739422E+04  0.7818609E-02  0.8059281E-01
        2   -1    0    0  501    0  0.00000000000E+00  0.00000000000E+00  0.27903651136E+04  0.27903651136E+04  0.25500000920E-02 0. -1.
       -2   -1    0    0    0  501  0.00000000000E+00  0.00000000000E+00 -0.12528181308E+04  0.12528181308E+04  0.25500000920E-02 0.  1.
    10030    2    1    2    0    0  0.00000000000E+00  0.00000000000E+00  0.15375469828E+04  0.40431832444E+04  0.37394224185E+04 0.  0.
        5    1    3    3  502    0  0.68844777401E+02 -0.11614454090E+03  0.27850809666E+04  0.27883556513E+04  0.46999998093E+01 0. -1.
       -5    1    3    3    0  502 -0.68844777401E+02  0.11614454090E+03 -0.12475339838E+04  0.12548275931E+04  0.46999998093E+01 0.  1.
</event>
<event>
 5   0  0.6939921E-07  0.3677852E+04  0.7818609E-02  0.8072888E-01
       -2   -1    0    0    0  501  0.00000000000E+00  0.00000000000E+00  0.20526966533E+04  0.20526966533E+04  0.25500000920E-02 0.  1.
        2   -1    0    0  501    0  0.00000000000E+00  0.00000000000E+00 -0.16474176107E+04  0.16474176107E+04  0.25500000920E-02 0. -1.
    10030    2    1    2    0    0  0.00000000000E+00  0.00000000000E+00  0.40527904263E+03  0.37001142640E+04  0.36778518818E+04 0.  0.
        4    1    3    3  502    0 -0.54789760196E+03 -0.11960923471E+04 -0.10899794946E+04  0.17084746403E+04  0.12699999809E+01 0. -1.
       -4    1    3    3    0  502  0.54789760196E+03  0.11960923471E+04  0.14952585372E+04  0.19916396238E+04  0.12699999809E+01 0.  1.
</event>
<event>
 5   0  0.7300916E-07  0.3705106E+04  0.7818609E-02  0.8066831E-01
        2   -1    0    0  501    0  0.00000000000E+00  0.00000000000E+00  0.26803806939E+04  0.26803806939E+04  0.25500000920E-02 0. -1.
       -2   -1    0    0    0  501  0.00000000000E+00  0.00000000000E+00 -0.12803976563E+04  0.12803976563E+04  0.25500000920E-02 0.  1.
    10030    2    1    2    0    0  0.00000000000E+00  0.00000000000E+00  0.13999830376E+04  0.39607783503E+04  0.37051062919E+04 0.  0.
        1    1    3    3  502    0  0.12537874421E+04 -0.13634011538E+04  0.73556711741E+03  0.19929637830E+04  0.50400001928E-02 0.  1.
       -1    1    3    3    0  502 -0.12537874421E+04  0.13634011538E+04  0.66441592019E+03  0.19678145673E+04  0.50400001928E-02 0. -1.
</event>
<event>
 5   0  0.2287500E-07  0.3928258E+04  0.7818609E-02  0.8019178E-01
       -1   -1    0    0    0  501  0.00000000000E+00  0.00000000000E+00  0.19468776840E+04  0.19468776840E+04  0.50400001928E-02 0. -1.
        1   -1    0    0  501    0  0.00000000000E+00  0.00000000000E+00 -0.19815334248E+04  0.19815334248E+04  0.50400001928E-02 0.  1.
    10030    2    1    2    0    0  0.00000000000E+00  0.00000000000E+00 -0.34655740879E+02  0.39284111088E+04  0.39282582425E+04 0.  0.
        2    1    3    3  502    0 -0.32935714201E+02  0.13281224900E+04 -0.14640386154E+04  0.19769681781E+04  0.25500000920E-02 0.  1.
       -2    1    3    3    0  502  0.32935714201E+02 -0.13281224900E+04  0.14293828745E+04  0.19514429307E+04  0.25500000920E-02 0. -1.
</event>
<event>
 5   0  0.7074157E-07  0.3646535E+04  0.7818609E-02  0.8079915E-01
        2   -1    0    0  501    0  0.00000000000E+00  0.00000000000E+00  0.29969459295E+04  0.29969459295E+04  0.25500000920E-02 0.  1.
       -2   -1    0    0    0  501  0.00000000000E+00  0.00000000000E+00 -0.11092306815E+04  0.11092306815E+04  0.25500000920E-02 0. -1.
    10030    2    1    2    0    0  0.00000000000E+00  0.00000000000E+00  0.18877152480E+04  0.41061766110E+04  0.36465349996E+04 0.  0.
        3    1    3    3  502    0  0.12864718776E+04  0.12220159820E+04  0.14162232644E+04  0.22702469683E+04  0.10100000352E+00 0.  1.
       -3    1    3    3    0  502 -0.12864718776E+04 -0.12220159820E+04  0.47149198357E+03  0.18359296427E+04  0.10100000352E+00 0. -1.
</event>
<event>
 5   0  0.2287500E-07  0.3712734E+04  0.7818609E-02  0.8065146E-01
        1   -1    0    0  501    0  0.00000000000E+00  0.00000000000E+00  0.20237655194E+04  0.20237655194E+04  0.50400001928E-02 0.  1.
       -1   -1    0    0    0  501  0.00000000000E+00  0.00000000000E+00 -0.17028152117E+04  0.17028152117E+04  0.50400001928E-02 0. -1.
    10030    2    1    2    0    0  0.00000000000E+00  0.00000000000E+00  0.32095030766E+03  0.37265807311E+04  0.37127341469E+04 0.  0.
        4    1    3    3  502    0  0.18344352900E+04 -0.16782801320E+03 -0.70116318103E+02  0.18434307652E+04  0.12699999809E+01 0.  1.
       -4    1    3    3    0  502 -0.18344352900E+04  0.16782801320E+03  0.39106662576E+03  0.18831499659E+04  0.12699999809E+01 0. -1.
</event>
<event>
 5   0  0.2411746E-07  0.3702613E+04  0.7818609E-02  0.8067383E-01
       -1   -1    0    0    0  501  0.00000000000E+00  0.00000000000E+00  0.18568848324E+04  0.18568848324E+04  0.50400001928E-02 0.  1.
        1   -1    0    0  501    0  0.00000000000E+00  0.00000000000E+00 -0.18457446658E+04  0.18457446658E+04  0.50400001928E-02 0. -1.
    10030    2    1    2    0    0  0.00000000000E+00  0.00000000000E+00  0.11140166615E+02  0.37026294983E+04  0.37026127394E+04 0.  0.
        1    1    3    3  502    0  0.49423576013E+03 -0.15934252031E+04  0.80810870572E+03  0.18537293612E+04  0.50400001928E-02 0.  1.
       -1    1    3    3    0  502 -0.49423576013E+03  0.15934252031E+04 -0.79696853910E+03  0.18489001370E+04  0.50400001928E-02 0. -1.
</event>
<event>
 5   0  0.2345471E-07  0.3659964E+04  0.7818609E-02  0.8076893E-01
        1   -1    0    0  501    0  0.00000000000E+00  0.00000000000E+00  0.13333309336E+04  0.13333309336E+04  0.50400001928E-02 0.  1.
       -1   -1    0    0    0  501  0.00000000000E+00  0.00000000000E+00 -0.25116306177E+04  0.25116306177E+04  0.50400001928E-02 0. -1.
    10030    2    1    2    0    0  0.00000000000E+00  0.00000000000E+00 -0.11782996841E+04  0.38449615513E+04  0.36599643694E+04 0.  0.
        5    1    3    3  502    0 -0.70341881895E+03  0.12930072449E+04 -0.17313727721E+04  0.22725183247E+04  0.46999998093E+01 0. -1.
       -5    1    3    3    0  502  0.70341881895E+03 -0.12930072449E+04  0.55307308798E+03  0.15724432266E+04  0.46999998093E+01 0.  1.
</event>
<event>
 5   0  0.6939921E-07  0.3640436E+04  0.7818609E-02  0.8081292E-01
        2   -1    0    0  501    0  0.00000000000E+00  0.00000000000E+00  0.26912619068E+04  0.26912619068E+04  0.25500000920E-02 0.  1.
       -2   -1    0    0    0  501  0.00000000000E+00  0.00000000000E+00 -0.12310931815E+04  0.12310931815E+04  0.25500000920E-02 0. -1.
    10030    2    1    2    0    0  0.00000000000E+00  0.00000000000E+00  0.14601687253E+04  0.39223550883E+04  0.36404363382E+04 0.  0.
        4    1    3    3  502    0 -0.44492578410E+03 -0.11821215293E+03 -0.11673314729E+04  0.12548296486E+04  0.12699999809E+01 0. -1.
       -4    1    3    3    0  502  0.44492578410E+03  0.11821215293E+03  0.26275001983E+04  0.26675254397E+04  0.12699999809E+01 0.  1.
</event>
<event>
 5   0  0.2287500E-07  0.3688872E+04  0.7818609E-02  0.8070432E-01
        1   -1    0    0  501    0  0.00000000000E+00  0.00000000000E+00  0.25668098381E+04  0.25668098381E+04  0.50400001928E-02 0. -1.
       -1   -1    0    0    0  501  0.00000000000E+00  0.00000000000E+00 -0.13253586434E+04  0.13253586434E+04  0.50400001928E-02 0.  1.
    10030    2    1    2    0    0  0.00000000000E+00  0.00000000000E+00  0.12414511946E+04  0.38921684815E+04  0.36888717001E+04 0.  0.
        2    1    3    3  502    0 -0.12109708815E+04  0.12114867576E+04  0.13423727860E+04  0.21762617803E+04  0.25500000920E-02 0. -1.
       -2    1    3    3    0  502  0.12109708815E+04 -0.12114867576E+04 -0.10092159137E+03  0.17159067012E+04  0.25500000920E-02 0.  1.
</event>
<event>
 5   0  0.7124627E-07  0.3695540E+04  0.7818609E-02  0.8068951E-01
       -2   -1    0    0    0  501  0.00000000000E+00  0.00000000000E+00  0.18207368802E+04  0.18207368802E+04  0.25500000920E-02 0.  1.
        2   -1    0    0  501    0  0.00000000000E+00  0.00000000000E+00 -0.18752042386E+04  0.18752042386E+04  0.25500000920E-02 0. -1.
    10030    2    1    2    0    0  0.00000000000E+00  0.00000000000E+00 -0.54467358371E+02  0.36959411188E+04  0.36955397522E+04 0.  0.
        2    1    3    3  502    0 -0.98147255103E+03  0.47541051980E+02  0.15377701303E+04  0.18249069822E+04  0.25500000920E-02 0.  1.
       -2    1    3    3    0  502  0.98147255103E+03 -0.47541051980E+02 -0.15922374886E+04  0.18710341366E+04  0.25500000920E-02 0. -1.
</event>
<event>
 5   0  0.7300916E-07  0.3594352E+04  0.7818609E-02  0.8091787E-01
        2   -1    0    0  501    0  0.00000000000E+00  0.00000000000E+00  0.20019746835E+04  0.20019746835E+04  0.25500000920E-02 0.  1.
       -2   -1    0    0    0  501  0.00000000000E+00  0.00000000000E+00 -0.16133280227E+04  0.16133280227E+04  0.25500000920E-02 0. -1.
    10030    2    1    2    0    0  0.00000000000E+00  0.00000000000E+00  0.38864666071E+03  0.36153027062E+04  0.35943521573E+04 0.  0.
        1    1    3    3  502    0  0.11855491547E+04 -0.13399710288E+04  0.23650163483E+02  0.17893039112E+04  0.50400001928E-02 0.  1.
       -1    1    3    3    0  502 -0.11855491547E+04  0.13399710288E+04  0.36499649723E+03  0.18259987950E+04  0.50400001928E-02 0. -1.
</event>
<event>
 5   0  0.6949625E-07  0.3636686E+04  0.7818609E-02  0.8082140E-01
        2   -1    0    0  501    0  0.00000000000E+00  0.00000000000E+00  0.13764610731E+04  0.13764610731E+04  0.25500000920E-02 0.  1.
       -2   -1    0    0    0  501  0.00000000000E+00  0.00000000000E+00 -0.24020809782E+04  0.24020809782E+04  0.25500000920E-02 0. -1.
    10030    2    1    2    0    0  0.00000000000E+00  0.00000000000E+00 -0.10256199050E+04  0.37785420513E+04  0.36366858324E+04 0.  0.
        5    1    3    3  502    0  0.37179169954E+03  0.14684375290E+04  0.53231490959E+03  0.16055899531E+04  0.46999998093E+01 0.  1.
       -5    1    3    3    0  502 -0.37179169954E+03 -0.14684375290E+04 -0.15579348146E+04  0.21729520982E+04  0.46999998093E+01 0. -1.
</event>
<event>
 5   0  0.2287500E-07  0.3686487E+04  0.7818609E-02  0.8070963E-01
        1   -1    0    0  501    0  0.00000000000E+00  0.00000000000E+00  0.23047362887E+04  0.23047362887E+04  0.50400001928E-02 0.  1.
       -1   -1    0    0    0  501  0.00000000000E+00  0.00000000000E+00 -0.14741585708E+04  0.14741585708E+04  0.50400001928E-02 0. -1.
    10030    2    1    2    0    0  0.00000000000E+00  0.00000000000E+00  0.83057771792E+03  0.37788948595E+04  0.36864870831E+04 0.  0.
        2    1    3    3  502    0  0.82475242672E+03  0.55048495661E+03  0.20080380552E+04  0.22395238520E+04  0.25500000920E-02 0.  1.
       -2    1    3    3    0  502 -0.82475242672E+03 -0.55048495661E+03 -0.11774603372E+04  0.15393710075E+04  0.25500000920E-02 0. -1.
</event>
<event>
 5   0  0.2287500E-07  0.3698621E+04  0.7818609E-02  0.8068267E-01
       -1   -1    0    0    0  501  0.00000000000E+00  0.00000000000E+00  0.19600202249E+04  0.19600202249E+04  0.50400001928E-02 0. -1.
        1   -1    0    0  501    0  0.00000000000E+00  0.00000000000E+00 -0.17448541032E+04  0.17448541032E+04  0.50400001928E-02 0.  1.
    10030    2    1    2    0    0  0.00000000000E+00  0.00000000000E+00  0.21516612167E+03  0.37048743282E+04  0.36986210035E+04 0.  0.
        4    1    3    3  502    0  0.14000472940E+04  0.11825932298E+04  0.35556686049E+03  0.18668391944E+04  0.12699999809E+01 0.  1.
       -4    1    3    3    0  502 -0.14000472940E+04 -0.11825932298E+04 -0.14040073882E+03  0.18380351338E+04  0.12699999809E+01 0. -1.
</event>
<event>
 5   0  0.6939921E-07  0.3681529E+04  0.7818609E-02  0.8072067E-01
       -2   -1    0    0    0  501  0.00000000000E+00  0.00000000000E+00  0.16940390215E+04  0.16940390215E+04  0.25500000920E-02 0. -1.
        2   -1    0    0  501    0  0.00000000000E+00  0.00000000000E+00 -0.20001987525E+04  0.20001987525E+04  0.25500000920E-02 0.  1.
    10030    2    1    2    0    0  0.00000000000E+00  0.00000000000E+00 -0.30615973095E+03  0.36942377740E+04  0.36815294308E+04 0.  0.
        4    1    3    3  502    0  0.37477702838E+02  0.13832855020E+04  0.10650007299E+04  0.17461705317E+04  0.12699999809E+01 0. -1.
       -4    1    3    3    0  502 -0.37477702838E+02 -0.13832855020E+04 -0.13711604608E+04  0.19480672423E+04  0.12699999809E+01 0.  1.
</event>
<event>
 5   0  0.7074157E-07  0.3685630E+04  0.7818609E-02  0.8071154E-01
        2   -1    0    0  501    0  0.00000000000E+00  0.00000000000E+00  0.21560256395E+04  0.21560256395E+04  0.25500000920E-02 0. -1.
       -2   -1    0    0    0  501  0.00000000000E+00  0.00000000000E+00 -0.15751053332E+04  0.15751053332E+04  0.25500000920E-02 0.  1.
    10030    2    1    2    0    0  0.00000000000E+00  0.00000000000E+00  0.58092030631E+03  0.37311309727E+04  0.36856301948E+04 0.  0.
        3    1    3    3  502    0 -0.14757814484E+04 -0.93185161555E+03  0.88910578721E+03  0.19587719183E+04  0.10100000352E+00 0. -1.
       -3    1    3    3    0  502  0.14757814484E+04  0.93185161555E+03 -0.30818548090E+03  0.17723590544E+04  0.10100000352E+00 0.  1.
</event>
<event>
 5   0  0.2411746E-07  0.3747442E+04  0.7818609E-02  0.8057529E-01
       -1   -1    0    0    0  501  0.00000000000E+00  0.00000000000E+00  0.24826515856E+04  0.24826515856E+04  0.50400001928E-02 0. -1.
        1   -1    0    0  501    0  0.00000000000E+00  0.00000000000E+00 -0.14141455334E+04  0.14141455334E+04  0.50400001928E-02 0.  1.
    10030    2    1    2    0    0  0.00000000000E+00  0.00000000000E+00  0.10685060521E+04  0.38967971190E+04  0.37474421414E+04 0.  0.
        1    1    3    3  502    0 -0.12979257478E+04  0.81086242111E+03 -0.58990763369E+03  0.16401524713E+04  0.50400001928E-02 0.  1.
       -1    1    3    3    0  502  0.12979257478E+04 -0.81086242111E+03  0.16584136858E+04  0.22566446477E+04  0.50400001928E-02 0. -1.
</event>
<event>
 5   0  0.2287500E-07  0.3829574E+04  0.7818609E-02  0.8039838E-01
        1   -1    0    0  501    0  0.00000000000E+00  0.00000000000E+00  0.24776731557E+04  0.24776731557E+04  0.50400001928E-02 0.  1.
       -1   -1    0    0    0  501  0.00000000000E+00  0.00000000000E+00 -0.14797793178E+04  0.14797793178E+04  0.50400001928E-02 0. -1.
    10030    2    1    2    0    0  0.00000000000E+00  0.00000000000E+00  0.99789383796E+03  0.39574524735E+04  0.38295741236E+04 0.  0.
        3    1    3    3  502    0  0.61134642555E+03  0.60975028397E+03 -0.12671775758E+04  0.15333880395E+04  0.10100000352E+00 0. -1.
       -3    1    3    3    0  502 -0.61134642555E+03 -0.60975028397E+03  0.22650714137E+04  0.24240644340E+04  0.10100000352E+00 0.  1.
</event>
<event>
 5   0  0.2287500E-07  0.2866641E+04  0.7818609E-02  0.8282872E-01
        1   -1    0    0  501    0  0.00000000000E+00  0.00000000000E+00  0.23196009556E+04  0.23196009556E+04  0.50400001928E-02 0.  1.
       -1   -1    0    0    0  501  0.00000000000E+00  0.00000000000E+00 -0.88567302069E+03  0.88567302071E+03  0.50400001928E-02 0. -1.
    10030    2    1    2    0    0  0.00000000000E+00  0.00000000000E+00  0.14339279349E+04  0.32052739763E+04  0.28666412298E+04 0.  0.
        2    1    3    3  502    0 -0.13550722469E+03 -0.21819979797E+03 -0.85973024391E+03  0.89727891543E+03  0.25500000920E-02 0. -1.
       -2    1    3    3    0  502  0.13550722469E+03  0.21819979797E+03  0.22936581788E+04  0.23079950608E+04  0.25500000920E-02 0.  1.
</event>
<event>
 5   0  0.2287500E-07  0.3685868E+04  0.7818609E-02  0.8071101E-01
       -1   -1    0    0    0  501  0.00000000000E+00  0.00000000000E+00  0.15632819254E+04  0.15632819255E+04  0.50400001928E-02 0.  1.
        1   -1    0    0  501    0  0.00000000000E+00  0.00000000000E+00 -0.21726124316E+04  0.21726124316E+04  0.50400001928E-02 0. -1.
    10030    2    1    2    0    0  0.00000000000E+00  0.00000000000E+00 -0.60933050614E+03  0.37358943570E+04  0.36858680092E+04 0.  0.
        2    1    3    3  502    0  0.13867755048E+04 -0.95772523217E+03  0.45112402554E+03  0.17446767057E+04  0.25500000920E-02 0.  1.
       -2    1    3    3    0  502 -0.13867755048E+04  0.95772523217E+03 -0.10604545317E+04  0.19912176513E+04  0.25500000920E-02 0. -1.
</event>
<event>
 5   0  0.6949625E-07  0.3842535E+04  0.7818609E-02  0.8037088E-01
        2   -1    0    0  501    0  0.00000000000E+00  0.00000000000E+00  0.20476999366E+04  0.20476999366E+04  0.25500000920E-02 0. -1.
       -2   -1    0    0    0  501  0.00000000000E+00  0.00000000000E+00 -0.18026411821E+04  0.18026411821E+04  0.25500000920E-02 0.  1.
    10030    2    1    2    0    0  0.00000000000E+00  0.00000000000E+00  0.24505875448E+03  0.38503411187E+04  0.38425347021E+04 0.  0.
        5    1    3    3  502    0  0.13821573356E+04 -0.10699968530E+03 -0.12103753925E+04  0.18403365219E+04  0.46999998093E+01 0.  1.
       -5    1    3    3    0  502 -0.13821573356E+04  0.10699968530E+03  0.14554341470E+04  0.20100045968E+04  0.46999998093E+01 0. -1.
</event>
<event>
 5   0  0.2345471E-07  0.3725353E+04  0.7818609E-02  0.8062366E-01
       -1   -1    0    0    0  501  0.00000000000E+00  0.00000000000E+00  0.29481512360E+04  0.29481512360E+04  0.50400001928E-02 0. -1.
        1   -1    0    0  501    0  0.00000000000E+00  0.00000000000E+00 -0.11768608662E+04  0.11768608662E+04  0.50400001928E-02 0.  1.
    10030    2    1    2    0    0  0.00000000000E+00  0.00000000000E+00  0.17712903698E+04  0.41250121021E+04  0.37253530395E+04 0.  0.
        5    1    3    3  502    0  0.17002946415E+04  0.75344996467E+03  0.10009992481E+04  0.21120393703E+04  0.46999998093E+01 0. -1.
       -5    1    3    3    0  502 -0.17002946415E+04 -0.75344996467E+03  0.77029112169E+03  0.20129727318E+04  0.46999998093E+01 0.  1.
</event>
<event>
 5   0  0.2287500E-07  0.3680026E+04  0.7818609E-02  0.8072403E-01
        1   -1    0    0  501    0  0.00000000000E+00  0.00000000000E+00  0.20071883817E+04  0.20071883817E+04  0.50400001928E-02 0. -1.
       -1   -1    0    0    0  501  0.00000000000E+00  0.00000000000E+00 -0.16867611652E+04  0.16867611652E+04  0.50400001928E-02 0.  1.
    10030    2    1    2    0    0  0.00000000000E+00  0.00000000000E+00  0.32042721653E+03  0.36939495469E+04  0.36800257681E+04 0.  0.
        3    1    3    3  502    0 -0.25078541298E+03 -0.10474063684E+04 -0.13373070606E+04  0.17170741418E+04  0.10100000352E+00 0.  1.
       -3    1    3    3    0  502  0.25078541298E+03  0.10474063684E+04  0.16577342771E+04  0.19768754052E+04  0.10100000352E+00 0. -1.
</event>
<event>
 5   0  0.2345471E-07  0.3880026E+04  0.7818609E-02  0.8029196E-01
       -1   -1    0    0    0  501  0.00000000000E+00  0.00000000000E+00  0.17089858188E+04  0.17089858188E+04  0.50400001928E-02 0.  1.
        1   -1    0    0  501    0  0.00000000000E+00  0.00000000000E+00 -0.22022708107E+04  0.22022708107E+04  0.50400001928E-02 0. -1.
    10030    2    1    2    0    0  0.00000000000E+00  0.00000000000E+00 -0.49328499190E+03  0.39112566294E+04  0.38800255589E+04 0.  0.
        5    1    3    3  502    0 -0.11139806418E+04 -0.11149853240E+04  0.89360433980E+03  0.18118211692E+04  0.46999998093E+01 0.  1.
       -5    1    3    3    0  502  0.11139806418E+04  0.11149853240E+04 -0.13868893317E+04  0.20994354602E+04  0.46999998093E+01 0. -1.
</event>
<event>
 5   0  0.2411746E-07  0.3656853E+04  0.7818609E-02  0.8077592E-01
        1   -1    0    0  501    0  0.00000000000E+00  0.00000000000E+00  0.10951246317E+04  0.10951246317E+04  0.50400001928E-02 0.  1.
       -1   -1    0    0    0  501  0.00000000000E+00  0.00000000000E+00 -0.30527514252E+04  0.30527514252E+04  0.50400001928E-02 0. -1.
    10030    2    1    2    0    0  0.00000000000E+00  0.00000000000E+00 -0.19576267935E+04  0.41478760569E+04  0.36568528984E+04 0.  0.
        1    1    3    3  502    0  0.92546291268E+03 -0.97573681719E+03  0.42631426580E+03  0.14107755996E+04  0.50400001928E-02 0.  1.
       -1    1    3    3    0  502 -0.92546291268E+03  0.97573681719E+03 -0.23839410593E+04  0.27371004573E+04  0.50400001928E-02 0. -1.
</event>
<event>
 5   0  0.7124627E-07  0.3202873E+04  0.7818609E-02  0.8188059E-01
        2   -1    0    0  501    0  0.00000000000E+00  0.00000000000E+00  0.91810657071E+03  0.91810657071E+03  0.25500000920E-02 0. -1.
       -2   -1    0    0    0  501  0.00000000000E+00  0.00000000000E+00 -0.27933564310E+04  0.27933564310E+04  0.25500000920E-02 0.  1.
    10030    2    1    2    0    0  0.00000000000E+00  0.00000000000E+00 -0.18752498603E+04  0.37114630017E+04  0.32028730188E+04 0.  0.
        2    1    3    3  502    0 -0.14412662071E+04 -0.10134065094E+03 -0.13723552286E+03  0.14513275977E+04  0.25500000920E-02 0. -1.
       -2    1    3    3    0  502  0.14412662071E+04  0.10134065094E+03 -0.17380143375E+04  0.22601354040E+04  0.25500000920E-02 0.  1.
</event>
<event>
 5   0  0.7300916E-07  0.3687422E+04  0.7818609E-02  0.8070755E-01
        2   -1    0    0  501    0  0.00000000000E+00  0.00000000000E+00  0.17366435019E+04  0.17366435019E+04  0.25500000920E-02 0.  1.
       -2   -1    0    0    0  501  0.00000000000E+00  0.00000000000E+00 -0.19573797024E+04  0.19573797025E+04  0.25500000920E-02 0. -1.
    10030    2    1    2    0    0  0.00000000000E+00  0.00000000000E+00 -0.22073620057E+03  0.36940232043E+04  0.36874222655E+04 0.  0.
        1    1    3    3  502    0  0.62333941234E+03  0.11484748597E+04  0.11926232367E+04  0.17691514098E+04  0.50400001928E-02 0.  1.
       -1    1    3    3    0  502 -0.62333941234E+03 -0.11484748597E+04 -0.14133594373E+04  0.19248717945E+04  0.50400001928E-02 0. -1.
</event>
<event>
 5   0  0.2287500E-07  0.3713886E+04  0.7818609E-02  0.8064891E-01
       -3   -1    0    0    0  501  0.00000000000E+00  0.00000000000E+00  0.12949932927E+04  0.12949932966E+04  0.10100000352E+00 0.  1.
        3   -1    0    0  501    0  0.00000000000E+00  0.00000000000E+00 -0.26627453793E+04  0.26627453812E+04  0.10100000352E+00 0. -1.
    10030    2    1    2    0    0  0.00000000000E+00  0.00000000000E+00 -0.13677520866E+04  0.39577386778E+04  0.37138860606E+04 0.  0.
        2    1    3    3  502    0 -0.23850042565E+03 -0.17891235948E+04 -0.21888715326E+03  0.18181741601E+04  0.25500000920E-02 0.  1.
       -2    1    3    3    0  502  0.23850042565E+03  0.17891235948E+04 -0.11488649334E+04  0.21395645177E+04  0.25500000920E-02 0. -1.
</event>
<event>
 5   0  0.2287500E-07  0.3628757E+04  0.7818609E-02  0.8083936E-01
        1   -1    0    0  501    0  0.00000000000E+00  0.00000000000E+00  0.20460261477E+04  0.20460261477E+04  0.50400001928E-02 0.  1.
       -1   -1    0    0    0  501  0.00000000000E+00  0.00000000000E+00 -0.16089576515E+04  0.16089576515E+04  0.50400001928E-02 0. -1.
    10030    2    1    2    0    0  0.00000000000E+00  0.00000000000E+00  0.43706849624E+03  0.36549837992E+04  0.36287570464E+04 0.  0.
        2    1    3    3  502    0  0.10313977497E+04  0.84437689371E+03 -0.10213033574E+04  0.16792302417E+04  0.25500000920E-02 0. -1.
       -2    1    3    3    0  502 -0.10313977497E+04 -0.84437689371E+03  0.14583718536E+04  0.19757535575E+04  0.25500000920E-02 0.  1.
</event>
<event>
 5   0  0.2287500E-07  0.4114826E+04  0.7818609E-02  0.7981775E-01
        1   -1    0    0  501    0  0.00000000000E+00  0.00000000000E+00  0.16356211844E+04  0.16356211844E+04  0.50400001928E-02 0.  1.
       -1   -1    0    0    0  501  0.00000000000E+00  0.00000000000E+00 -0.25879762942E+04  0.25879762942E+04  0.50400001928E-02 0. -1.
    10030    2    1    2    0    0  0.00000000000E+00  0.00000000000E+00 -0.95235510981E+03  0.42235974787E+04  0.41148262912E+04 0.  0.
        3    1    3    3  502    0 -0.18441385517E+04  0.89678235862E+03 -0.30478076917E+03  0.20731514474E+04  0.10100000352E+00 0.  1.
       -3    1    3    3    0  502  0.18441385517E+04 -0.89678235862E+03 -0.64757434064E+03  0.21504460312E+04  0.10100000352E+00 0. -1.
</event>
<event>
 5   0  0.7124627E-07  0.3728178E+04  0.7818609E-02  0.8061746E-01
        2   -1    0    0  501    0  0.00000000000E+00  0.00000000000E+00  0.16151315977E+04  0.16151315977E+04  0.25500000920E-02 0.  1.
       -2   -1    0    0    0  501  0.00000000000E+00  0.00000000000E+00 -0.21514209330E+04  0.21514209330E+04  0.25500000920E-02 0. -1.
    10030    2    1    2    0    0  0.00000000000E+00  0.00000000000E+00 -0.53628933533E+03  0.37665525307E+04  0.37281780692E+04 0.  0.
        2    1    3    3  502    0 -0.84448569247E+03  0.48411530183E+03 -0.18742578347E+04  0.21119578929E+04  0.25500000920E-02 0. -1.
       -2    1    3    3    0  502  0.84448569247E+03 -0.48411530183E+03  0.13379684994E+04  0.16545946378E+04  0.25500000920E-02 0.  1.
</event>
<event>
 5   0  0.7300916E-07  0.3831255E+04  0.7818609E-02  0.8039481E-01
       -2   -1    0    0    0  501  0.00000000000E+00  0.00000000000E+00  0.16588522270E+04  0.16588522270E+04  0.25500000920E-02 0.  1.
        2   -1    0    0  501    0  0.00000000000E+00  0.00000000000E+00 -0.22121488102E+04  0.22121488102E+04  0.25500000920E-02 0. -1.
    10030    2    1    2    0    0  0.00000000000E+00  0.00000000000E+00 -0.55329658317E+03  0.38710010372E+04  0.38312546145E+04 0.  0.
        1    1    3    3  502    0  0.12452314438E+02 -0.19028843789E+04 -0.49916922583E+03  0.19673062638E+04  0.50400001928E-02 0. -1.
       -1    1    3    3    0  502 -0.12452314438E+02  0.19028843789E+04 -0.54127357342E+02  0.19036947734E+04  0.50400001928E-02 0.  1.
</event>
<event>
 5   0  0.2411746E-07  0.3717625E+04  0.7818609E-02  0.8064067E-01
        1   -1    0    0  501    0  0.00000000000E+00  0.00000000000E+00  0.18087573960E+04  0.18087573960E+04  0.50400001928E-02 0. -1.
       -1   -1    0    0    0  501  0.00000000000E+00  0.00000000000E+00 -0.19102528098E+04  0.19102528098E+04  0.50400001928E-02 0.  1.
    10030    2    1    2    0    0  0.00000000000E+00  0.00000000000E+00 -0.10149541382E+03  0.37190102057E+04  0.37176249934E+04 0.  0.
        1    1    3    3  502    0 -0.61679064995E+02 -0.57110339316E+03  0.17177403184E+04  0.18112413407E+04  0.50400001928E-02 0. -1.
       -1    1    3    3    0  502  0.61679064995E+02  0.57110339316E+03 -0.18192357323E+04  0.19077688650E+04  0.50400001928E-02 0.  1.
</event>
<event>
 5   0  0.7124627E-07  0.3690645E+04  0.7818609E-02  0.8070038E-01
        2   -1    0    0  501    0  0.00000000000E+00  0.00000000000E+00  0.23353345704E+04  0.23353345704E+04  0.25500000920E-02 0.  1.
       -2   -1    0    0    0  501  0.00000000000E+00  0.00000000000E+00 -0.14581273190E+04  0.14581273190E+04  0.25500000920E-02 0. -1.
    10030    2    1    2    0    0  0.00000000000E+00  0.00000000000E+00  0.87720725147E+03  0.37934618894E+04  0.36906450038E+04 0.  0.
        2    1    3    3  502    0 -0.60280522382E+03  0.12022766886E+04  0.17372785969E+04  0.21970389840E+04  0.25500000920E-02 0.  1.
       -2    1    3    3    0  502  0.60280522382E+03 -0.12022766886E+04 -0.86007134548E+03  0.15964229054E+04  0.25500000920E-02 0. -1.
</event>
<event>
 5   0  0.2287500E-07  0.3376178E+04  0.7818609E-02  0.8143778E-01
       -1   -1    0    0    0  501  0.00000000000E+00  0.00000000000E+00  0.11305716245E+04  0.11305716245E+04  0.50400001928E-02 0.  1.
        1   -1    0    0  501    0  0.00000000000E+00  0.00000000000E+00 -0.25205347781E+04  0.25205347781E+04  0.50400001928E-02 0. -1.
    10030    2    1    2    0    0  0.00000000000E+00  0.00000000000E+00 -0.13899631536E+04  0.36511064026E+04  0.33761783713E+04 0.  0.
        4    1    3    3  502    0  0.11832123782E+03  0.64719228560E+03  0.98621376875E+03  0.11855281441E+04  0.12699999809E+01 0.  1.
       -4    1    3    3    0  502 -0.11832123782E+03 -0.64719228560E+03 -0.23761769223E+04  0.24655782586E+04  0.12699999809E+01 0. -1.
</event>
<event>
 5   0  0.2287500E-07  0.3690109E+04  0.7818609E-02  0.8070157E-01
       -1   -1    0    0    0  501  0.00000000000E+00  0.00000000000E+00  0.36212108567E+04  0.36212108567E+04  0.50400001928E-02 0.  1.
        1   -1    0    0  501    0  0.00000000000E+00  0.00000000000E+00 -0.94007937038E+03  0.94007937040E+03  0.50400001928E-02 0. -1.
    10030    2    1    2    0    0  0.00000000000E+00  0.00000000000E+00  0.26811314863E+04  0.45612902271E+04  0.36901087367E+04 0.  0.
        3    1    3    3  502    0 -0.63747159362E+02 -0.55404522267E+03  0.35145292469E+04  0.35585032874E+04  0.10100000352E+00 0.  1.
       -3    1    3    3    0  502  0.63747159362E+02  0.55404522267E+03 -0.83339776052E+03  0.10027869397E+04  0.10100000352E+00 0. -1.
</event>
<event>
 5   0  0.6949625E-07  0.3715260E+04  0.7818609E-02  0.8064588E-01
       -2   -1    0    0    0  501  0.00000000000E+00  0.00000000000E+00  0.14116345098E+04  0.14116345098E+04  0.25500000920E-02 0. -1.
        2   -1    0    0  501    0  0.00000000000E+00  0.00000000000E+00 -0.24445347227E+04  0.24445347227E+04  0.25500000920E-02 0.  1.
    10030    2    1    2    0    0  0.00000000000E+00  0.00000000000E+00 -0.10329002129E+04  0.38561692325E+04  0.37152601928E+04 0.  0.
        5    1    3    3  502    0 -0.39192332468E+03 -0.10998719894E+04  0.98314630451E+03  0.15264078851E+04  0.46999998093E+01 0. -1.
       -5    1    3    3    0  502  0.39192332468E+03  0.10998719894E+04 -0.20160465174E+04  0.23297613474E+04  0.46999998093E+01 0.  1.
</event>
<event>
 5   0  0.7124627E-07  0.3791579E+04  0.7818609E-02  0.8047964E-01
       -2   -1    0    0    0  501  0.00000000000E+00  0.00000000000E+00  0.22482287818E+04  0.22482287818E+04  0.25500000920E-02 0. -1.
        2   -1    0    0  501    0  0.00000000000E+00  0.00000000000E+00 -0.15985994862E+04  0.15985994862E+04  0.25500000920E-02 0.  1.
    10030    2    1    2    0    0  0.00000000000E+00  0.00000000000E+00  0.64962929564E+03  0.38468282680E+04  0.37915787611E+04 0.  0.
        2    1    3    3  502    0 -0.16864236369E+04  0.58081701042E+03  0.97654903824E+03  0.20334751306E+04  0.25500000920E-02 0. -1.
       -2    1    3    3    0  502  0.16864236369E+04 -0.58081701042E+03 -0.32691974260E+03  0.18133531374E+04  0.25500000920E-02 0.  1.
</event>
<event>
 5   0  0.2287500E-07  0.3700518E+04  0.7818609E-02  0.8067847E-01
       -3   -1    0    0    0  501  0.00000000000E+00  0.00000000000E+00  0.15266171865E+04  0.15266171899E+04  0.10100000352E+00 0. -1.
        3   -1    0    0  501    0  0.00000000000E+00  0.00000000000E+00 -0.22425129107E+04  0.22425129130E+04  0.10100000352E+00 0.  1.
    10030    2    1    2    0    0  0.00000000000E+00  0.00000000000E+00 -0.71589572415E+03  0.37691301028E+04  0.37005182129E+04 0.  0.
        3    1    3    3  502    0  0.12998139003E+04  0.11215877414E+04 -0.10606552799E+04  0.20180349031E+04  0.10100000352E+00 0. -1.
       -3    1    3    3    0  502 -0.12998139003E+04 -0.11215877414E+04  0.34475955572E+03  0.17510951997E+04  0.10100000352E+00 0.  1.
</event>
<event>
 5   0  0.2345471E-07  0.3784877E+04  0.7818609E-02  0.8049408E-01
        1   -1    0    0  501    0  0.00000000000E+00  0.00000000000E+00  0.14106305157E+04  0.14106305157E+04  0.50400001928E-02 0. -1.
       -1   -1    0    0    0  501  0.00000000000E+00  0.00000000000E+00 -0.25388105670E+04  0.25388105671E+04  0.50400001928E-02 0.  1.
    10030    2    1    2    0    0  0.00000000000E+00  0.00000000000E+00 -0.11281800513E+04  0.39494410828E+04  0.37848770968E+04 0.  0.
        5    1    3    3  502    0 -0.11439081230E+04 -0.78673826964E+03 -0.19060136640E+04  0.23580485737E+04  0.46999998093E+01 0.  1.
       -5    1    3    3    0  502  0.11439081230E+04  0.78673826964E+03  0.77783361265E+03  0.15913925090E+04  0.46999998093E+01 0. -1.
</event>
<event>
 5   0  0.2287500E-07  0.2978198E+04  0.7818609E-02  0.8249984E-01
        1   -1    0    0  501    0  0.00000000000E+00  0.00000000000E+00  0.20563247164E+04  0.20563247164E+04  0.50400001928E-02 0. -1.
       -1   -1    0    0    0  501  0.00000000000E+00  0.00000000000E+00 -0.10783393987E+04  0.10783393987E+04  0.50400001928E-02 0.  1.
    10030    2    1    2    0    0  0.00000000000E+00  0.00000000000E+00  0.97798531778E+03  0.31346641151E+04  0.29781980849E+04 0.  0.
        2    1    3    3  502    0 -0.15010315407E+03  0.13831428773E+04  0.10477310712E+04  0.17416531151E+04  0.25500000920E-02 0.  1.
       -2    1    3    3    0  502  0.15010315407E+03 -0.13831428773E+04 -0.69745753427E+02  0.13930110000E+04  0.25500000920E-02 0. -1.
</event>
<event>
 5   0  0.2411746E-07  0.3716287E+04  0.7818609E-02  0.8064362E-01
        1   -1    0    0  501    0  0.00000000000E+00  0.00000000000E+00  0.21639010228E+04  0.21639010228E+04  0.50400001928E-02 0. -1.
       -1   -1    0    0    0  501  0.00000000000E+00  0.00000000000E+00 -0.15955890010E+04  0.15955890010E+04  0.50400001928E-02 0.  1.
    10030    2    1    2    0    0  0.00000000000E+00  0.00000000000E+00  0.56831202181E+03  0.37594900237E+04  0.37162866795E+04 0.  0.
        1    1    3    3  502    0  0.10375633830E+04 -0.31183144356E+03  0.18113150692E+04  0.21106015500E+04  0.50400001928E-02 0. -1.
       -1    1    3    3    0  502 -0.10375633830E+04  0.31183144356E+03 -0.12430030474E+04  0.16488884737E+04  0.50400001928E-02 0.  1.
</event>
<event>
 5   0  0.7124627E-07  0.3730428E+04  0.7818609E-02  0.8061252E-01
        2   -1    0    0  501    0  0.00000000000E+00  0.00000000000E+00  0.15426695799E+04  0.15426695799E+04  0.25500000920E-02 0.  1.
       -2   -1    0    0    0  501  0.00000000000E+00  0.00000000000E+00 -0.22551964220E+04  0.22551964220E+04  0.25500000920E-02 0. -1.
    10030    2    1    2    0    0  0.00000000000E+00  0.00000000000E+00 -0.71252684208E+03  0.37978660020E+04  0.37304278130E+04 0.  0.
        2    1    3    3  502    0 -0.89770506955E+03 -0.15972100133E+04 -0.71196283912E+03  0.19656666306E+04  0.25500000920E-02 0. -1.
       -2    1    3    3    0  502  0.89770506955E+03  0.15972100133E+04 -0.56400296442E+00  0.18321993714E+04  0.25500000920E-02 0.  1.
</event>
<event>
 5   0  0.2411746E-07  0.3706855E+04  0.7818609E-02  0.8066444E-01
       -1   -1    0    0    0  501  0.00000000000E+00  0.00000000000E+00  0.12196786244E+04  0.12196786244E+04  0.50400001928E-02 0.  1.
        1   -1    0    0  501    0  0.00000000000E+00  0.00000000000E+00 -0.28164750410E+04  0.28164750410E+04  0.50400001928E-02 0. -1.
    10030    2    1    2    0    0  0.00000000000E+00  0.00000000000E+00 -0.15967964166E+04  0.40361536654E+04  0.37068554887E+04 0.  0.
        1    1    3    3  502    0 -0.65561680059E+03 -0.17335154820E+04 -0.78001372359E+03  0.20108035022E+04  0.50400001928E-02 0.  1.
       -1    1    3    3    0  502  0.65561680059E+03  0.17335154820E+04 -0.81678269301E+03  0.20253501631E+04  0.50400001928E-02 0. -1.
</event>
<event>
 5   0  0.6949625E-07  0.3578092E+04  0.7818609E-02  0.8095529E-01
       -2   -1    0    0    0  501  0.00000000000E+00  0.00000000000E+00  0.15364500820E+04  0.15364500820E+04  0.25500000920E-02 0. -1.
        2   -1    0    0  501    0  0.00000000000E+00  0.00000000000E+00 -0.20831688296E+04  0.20831688296E+04  0.25500000920E-02 0.  1.
    10030    2    1    2    0    0  0.00000000000E+00  0.00000000000E+00 -0.54671874767E+03  0.36196189116E+04  0.35780916249E+04 0.  0.
        5    1    3    3  502    0  0.36140858643E+03  0.75623950587E+03 -0.18722564719E+04  0.20513119566E+04  0.46999998093E+01 0.  1.
       -5    1    3    3    0  502 -0.36140858643E+03 -0.75623950587E+03  0.13255377243E+04  0.15683069550E+04  0.46999998093E+01 0. -1.
</event>
<event>
 5   0  0.2287500E-07  0.3653007E+04  0.7818609E-02  0.8078457E-01
        1   -1    0    0  501    0  0.00000000000E+00  0.00000000000E+00  0.17313437096E+04  0.17313437096E+04  0.50400001928E-02 0.  1.
       -1   -1    0    0    0  501  0.00000000000E+00  0.00000000000E+00 -0.19268933701E+04  0.19268933701E+04  0.50400001928E-02 0. -1.
    10030    2    1    2    0    0  0.00000000000E+00  0.00000000000E+00 -0.19554966049E+03  0.36582370798E+04  0.36530068248E+04 0.  0.
        3    1    3    3  502    0  0.73721733124E+02  0.17842573560E+04 -0.48186732182E+03  0.18496500568E+04  0.10100000352E+00 0. -1.
       -3    1    3    3    0  502 -0.73721733124E+02 -0.17842573560E+04  0.28631766133E+03  0.18085870230E+04  0.10100000352E+00 0.  1.
</event>
<event>
 5   0  0.2287500E-07  0.3790900E+04  0.7818609E-02  0.8048111E-01
       -3   -1    0    0    0  501  0.00000000000E+00  0.00000000000E+00  0.14669061071E+04  0.14669061106E+04  0.10100000352E+00 0. -1.
        3   -1    0    0  501    0  0.00000000000E+00  0.00000000000E+00 -0.24491888152E+04  0.24491888173E+04  0.10100000352E+00 0.  1.
    10030    2    1    2    0    0  0.00000000000E+00  0.00000000000E+00 -0.98228270805E+03  0.39160949279E+04  0.37908996512E+04 0.  0.
        3    1    3    3  502    0  0.58486487788E+03  0.17236262611E+04 -0.10375478504E+04  0.20951038078E+04  0.10100000352E+00 0.  1.
       -3    1    3    3    0  502 -0.58486487788E+03 -0.17236262611E+04  0.55265142381E+02  0.18209911201E+04  0.10100000352E+00 0. -1.
</event>
<event>
 5   0  0.2345471E-07  0.3539369E+04  0.7818609E-02  0.8104523E-01
        1   -1    0    0  501    0  0.00000000000E+00  0.00000000000E+00  0.25142358417E+04  0.25142358417E+04  0.50400001928E-02 0.  1.
       -1   -1    0    0    0  501  0.00000000000E+00  0.00000000000E+00 -0.12456203369E+04  0.12456203369E+04  0.50400001928E-02 0. -1.
    10030    2    1    2    0    0  0.00000000000E+00  0.00000000000E+00  0.12686155048E+04  0.37598561786E+04  0.35393690377E+04 0.  0.
        5    1    3    3  502    0  0.17603754478E+04  0.11105981988E+03  0.48219085882E+03  0.18286022299E+04  0.46999998093E+01 0. -1.
       -5    1    3    3    0  502 -0.17603754478E+04 -0.11105981988E+03  0.78642464594E+03  0.19312539487E+04  0.46999998093E+01 0.  1.
</event>
<event>
 5   0  0.7124627E-07  0.3795211E+04  0.7818609E-02  0.8047183E-01
        2   -1    0    0  501    0  0.00000000000E+00  0.00000000000E+00  0.16452309323E+04  0.16452309323E+04  0.25500000920E-02 0.  1.
       -2   -1    0    0    0  501  0.00000000000E+00  0.00000000000E+00 -0.21886940397E+04  0.21886940397E+04  0.25500000920E-02 0. -1.
    10030    2    1    2    0    0  0.00000000000E+00  0.00000000000E+00 -0.54346310744E+03  0.38339249720E+04  0.37952112645E+04 0.  0.
        2    1    3    3  502    0 -0.18928003295E+04 -0.11118944968E+03 -0.19445975723E+03  0.19060091234E+04  0.25500000920E-02 0.  1.
       -2    1    3    3    0  502  0.18928003295E+04  0.11118944968E+03 -0.34900335021E+03  0.19279158487E+04  0.25500000920E-02 0. -1.
</event>
<event>
 5   0  0.2287500E-07  0.3706267E+04  0.7818609E-02  0.8066574E-01
       -3   -1    0    0    0  501  0.00000000000E+00  0.00000000000E+00  0.12794405512E+04  0.12794405552E+04  0.10100000352E+00 0. -1.
        3   -1    0    0  501    0  0.00000000000E+00  0.00000000000E+00 -0.26840664711E+04  0.26840664730E+04  0.10100000352E+00 0.  1.
    10030    2    1    2    0    0  0.00000000000E+00  0.00000000000E+00 -0.14046259199E+04  0.39635070282E+04  0.37062668533E+04 0.  0.
        3    1    3    3  502    0 -0.15172469153E+04  0.65951349412E+03  0.19056631482E+03  0.16653263288E+04  0.10100000352E+00 0. -1.
       -3    1    3    3    0  502  0.15172469153E+04 -0.65951349412E+03 -0.15951922347E+04  0.22981806994E+04  0.10100000352E+00 0.  1.
</event>
<event>
 5   0  0.2411746E-07  0.3414551E+04  0.7818609E-02  0.8134344E-01
        1   -1    0    0  501    0  0.00000000000E+00  0.00000000000E+00  0.16274289438E+04  0.16274289438E+04  0.50400001928E-02 0.  1.
       -1   -1    0    0    0  501  0.00000000000E+00  0.00000000000E+00 -0.17910398889E+04  0.17910398889E+04  0.50400001928E-02 0. -1.
    10030    2    1    2    0    0  0.00000000000E+00  0.00000000000E+00 -0.16361094515E+03  0.34184688327E+04  0.34145513056E+04 0.  0.
        1    1    3    3  502    0 -0.31580123887E+03 -0.49602545396E+03 -0.16864601866E+04  0.17860346118E+04  0.50400001928E-02 0. -1.
       -1    1    3    3    0  502  0.31580123887E+03  0.49602545396E+03  0.15228492415E+04  0.16324342209E+04  0.50400001928E-02 0.  1.
</event>
<event>
 5   0  0.7124627E-07  0.3716998E+04  0.7818609E-02  0.8064205E-01
       -2   -1    0    0    0  501  0.00000000000E+00  0.00000000000E+00  0.25241759244E+04  0.25241759244E+04  0.25500000920E-02 0.  1.
        2   -1    0    0  501    0  0.00000000000E+00  0.00000000000E+00 -0.13683745847E+04  0.13683745847E+04  0.25500000920E-02 0. -1.
    10030    2    1    2    0    0  0.00000000000E+00  0.00000000000E+00  0.11558013398E+04  0.38925505091E+04  0.37169978113E+04 0.  0.
        2    1    3    3  502    0 -0.16389234331E+03  0.85523841802E+03 -0.11415104166E+04  0.14357365646E+04  0.25500000920E-02 0. -1.
       -2    1    3    3    0  502  0.16389234331E+03 -0.85523841802E+03  0.22973117564E+04  0.24568139445E+04  0.25500000920E-02 0.  1.
</event>
<event>
 5   0  0.2287500E-07  0.3465193E+04  0.7818609E-02  0.8122089E-01
       -1   -1    0    0    0  501  0.00000000000E+00  0.00000000000E+00  0.15136083926E+04  0.15136083926E+04  0.50400001928E-02 0. -1.
        1   -1    0    0  501    0  0.00000000000E+00  0.00000000000E+00 -0.19832673980E+04  0.19832673980E+04  0.50400001928E-02 0.  1.
    10030    2    1    2    0    0  0.00000000000E+00  0.00000000000E+00 -0.46965900533E+03  0.34968757906E+04  0.34651927383E+04 0.  0.
        2    1    3    3  502    0 -0.10892865527E+04  0.12527768344E+04  0.26558262392E+03  0.16812284559E+04  0.25500000920E-02 0. -1.
       -2    1    3    3    0  502  0.10892865527E+04 -0.12527768344E+04 -0.73524162925E+03  0.18156473347E+04  0.25500000920E-02 0.  1.
</event>
<event>
 5   0  0.2287500E-07  0.3490624E+04  0.7818609E-02  0.8116015E-01
        1   -1    0    0  501    0  0.00000000000E+00  0.00000000000E+00  0.22302857993E+04  0.22302857993E+04  0.50400001928E-02 0. -1.
       -1   -1    0    0    0  501  0.00000000000E+00  0.00000000000E+00 -0.13657957029E+04  0.13657957029E+04  0.50400001928E-02 0.  1.
    10030    2    1    2    0    0  0.00000000000E+00  0.00000000000E+00  0.86449009643E+03  0.35960815023E+04  0.34906244490E+04 0.  0.
        2    1    3    3  502    0  0.12673469092E+04  0.65070931158E+03  0.14709332788E+04  0.20477391209E+04  0.25500000920E-02 0. -1.
       -2    1    3    3    0  502 -0.12673469092E+04 -0.65070931158E+03 -0.60644318237E+03  0.15483423814E+04  0.25500000920E-02 0.  1.
</event>
<event>
 5   0  0.2287500E-07  0.3658590E+04  0.7818609E-02  0.8077201E-01
       -1   -1    0    0    0  501  0.00000000000E+00  0.00000000000E+00  0.16331544821E+04  0.16331544821E+04  0.50400001928E-02 0.  1.
        1   -1    0    0  501    0  0.00000000000E+00  0.00000000000E+00 -0.20489918192E+04  0.20489918192E+04  0.50400001928E-02 0. -1.
    10030    2    1    2    0    0  0.00000000000E+00  0.00000000000E+00 -0.41583733717E+03  0.36821463013E+04  0.36585899870E+04 0.  0.
        4    1    3    3  502    0 -0.13537449765E+04  0.90095488213E+03  0.63531439348E+03  0.17458439657E+04  0.12699999809E+01 0.  1.
       -4    1    3    3    0  502  0.13537449765E+04 -0.90095488213E+03 -0.10511517307E+04  0.19363023356E+04  0.12699999809E+01 0. -1.
</event>
<event>
 5   0  0.2287500E-07  0.2721480E+04  0.7818609E-02  0.8328069E-01
        1   -1    0    0  501    0  0.00000000000E+00  0.00000000000E+00  0.15615467669E+04  0.15615467669E+04  0.50400001928E-02 0.  1.
       -1   -1    0    0    0  501  0.00000000000E+00  0.00000000000E+00 -0.11857563207E+04  0.11857563207E+04  0.50400001928E-02 0. -1.
    10030    2    1    2    0    0  0.00000000000E+00  0.00000000000E+00  0.37579044623E+03  0.27473030876E+04  0.27214804419E+04 0.  0.
        4    1    3    3  502    0 -0.67458755189E+03 -0.10581272611E+04  0.71911128991E+03  0.14463140482E+04  0.12699999809E+01 0.  1.
       -4    1    3    3    0  502  0.67458755189E+03  0.10581272611E+04 -0.34332084368E+03  0.13009890394E+04  0.12699999809E+01 0. -1.
</event>
<event>
 5   0  0.2345471E-07  0.2796395E+04  0.7818609E-02  0.8304388E-01
       -1   -1    0    0    0  501  0.00000000000E+00  0.00000000000E+00  0.83638966865E+03  0.83638966867E+03  0.50400001928E-02 0. -1.
        1   -1    0    0  501    0  0.00000000000E+00  0.00000000000E+00 -0.23373756185E+04  0.23373756185E+04  0.50400001928E-02 0.  1.
    10030    2    1    2    0    0  0.00000000000E+00  0.00000000000E+00 -0.15009859499E+04  0.31737652872E+04  0.27963954078E+04 0.  0.
        5    1    3    3  502    0  0.22116838971E+03  0.13003726171E+04 -0.22417732811E+03  0.13379693436E+04  0.46999998093E+01 0. -1.
       -5    1    3    3    0  502 -0.22116838971E+03 -0.13003726171E+04 -0.12768086218E+04  0.18357959436E+04  0.46999998093E+01 0.  1.
</event>
<event>
 5   0  0.2287500E-07  0.3671126E+04  0.7818609E-02  0.8074391E-01
       -1   -1    0    0    0  501  0.00000000000E+00  0.00000000000E+00  0.11723141004E+04  0.11723141004E+04  0.50400001928E-02 0. -1.
        1   -1    0    0  501    0  0.00000000000E+00  0.00000000000E+00 -0.28740524316E+04  0.28740524316E+04  0.50400001928E-02 0.  1.
    10030    2    1    2    0    0  0.00000000000E+00  0.00000000000E+00 -0.17017383312E+04  0.40463665320E+04  0.36711263617E+04 0.  0.
        3    1    3    3  502    0 -0.15444447269E+03  0.12223871340E+04  0.64879352601E+03  0.13924857091E+04  0.10100000352E+00 0. -1.
       -3    1    3    3    0  502  0.15444447269E+03 -0.12223871340E+04 -0.23505318572E+04  0.26538808229E+04  0.10100000352E+00 0.  1.
</event>
<event>
 5   0  0.6949625E-07  0.3743718E+04  0.7818609E-02  0.8058342E-01
       -2   -1    0    0    0  501  0.00000000000E+00  0.00000000000E+00  0.17000351873E+04  0.17000351873E+04  0.25500000920E-02 0. -1.
        2   -1    0    0  501    0  0.00000000000E+00  0.00000000000E+00 -0.20610496087E+04  0.20610496087E+04  0.25500000920E-02 0.  1.
    10030    2    1    2    0    0  0.00000000000E+00  0.00000000000E+00 -0.36101442144E+03  0.37610847960E+04  0.37437183962E+04 0.  0.
        5    1    3    3  502    0  0.81206458910E+03  0.12156920680E+04 -0.13548946008E+04  0.19932680629E+04  0.46999998093E+01 0.  1.
       -5    1    3    3    0  502 -0.81206458910E+03 -0.12156920680E+04  0.99388017938E+03  0.17678167332E+04  0.46999998093E+01 0. -1.
</event>
<event>
 5   0  0.2345471E-07  0.3682006E+04  0.7818609E-02  0.8071961E-01
       -1   -1    0    0    0  501  0.00000000000E+00  0.00000000000E+00  0.15323904604E+04  0.15323904604E+04  0.50400001928E-02 0.  1.
        1   -1    0    0  501    0  0.00000000000E+00  0.00000000000E+00 -0.22117675238E+04  0.22117675238E+04  0.50400001928E-02 0. -1.
    10030    2    1    2    0    0  0.00000000000E+00  0.00000000000E+00 -0.67937706335E+03  0.37441579842E+04  0.36820056785E+04 0.  0.
        5    1    3    3  502    0 -0.11680684266E+03 -0.40168276144E+03 -0.21627920409E+04  0.22028809277E+04  0.46999998093E+01 0. -1.
       -5    1    3    3    0  502  0.11680684266E+03  0.40168276144E+03  0.14834149776E+04  0.15412770565E+04  0.46999998093E+01 0.  1.
</event>
<event>
 5   0  0.6939921E-07  0.3701634E+04  0.7818609E-02  0.8067600E-01
       -2   -1    0    0    0  501  0.00000000000E+00  0.00000000000E+00  0.17772975913E+04  0.17772975913E+04  0.25500000920E-02 0.  1.
        2   -1    0    0  501    0  0.00000000000E+00  0.00000000000E+00 -0.19273779446E+04  0.19273779446E+04  0.25500000920E-02 0. -1.
    10030    2    1    2    0    0  0.00000000000E+00  0.00000000000E+00 -0.15008035326E+03  0.37046755359E+04  0.37016343301E+04 0.  0.
        4    1    3    3  502    0 -0.27577228784E+03  0.19678516936E+03 -0.18960811321E+04  0.19261100774E+04  0.12699999809E+01 0. -1.
       -4    1    3    3    0  502  0.27577228784E+03 -0.19678516936E+03  0.17460007789E+04  0.17785654585E+04  0.12699999809E+01 0.  1.
</event>
<event>
 5   0  0.2287500E-07  0.3682333E+04  0.7818609E-02  0.8071888E-01
       -1   -1    0    0    0  501  0.00000000000E+00  0.00000000000E+00  0.14849464135E+04  0.14849464135E+04  0.50400001928E-02 0.  1.
        1   -1    0    0  501    0  0.00000000000E+00  0.00000000000E+00 -0.22828387303E+04  0.22828387303E+04  0.50400001928E-02 0. -1.
    10030    2    1    2    0    0  0.00000000000E+00  0.00000000000E+00 -0.79789231680E+03  0.37677851438E+04  0.36823325136E+04 0.  0.
        3    1    3    3  502    0 -0.10376972419E+03 -0.77452326212E+03 -0.21047380821E+04  0.22451229017E+04  0.10100000352E+00 0. -1.
       -3    1    3    3    0  502  0.10376972419E+03  0.77452326212E+03  0.13068457653E+04  0.15226622422E+04  0.10100000352E+00 0.  1.
</event>
<event>
 5   0  0.2287500E-07  0.3722837E+04  0.7818609E-02  0.8062920E-01
        1   -1    0    0  501    0  0.00000000000E+00  0.00000000000E+00  0.30389380079E+04  0.30389380079E+04  0.50400001928E-02 0.  1.
       -1   -1    0    0    0  501  0.00000000000E+00  0.00000000000E+00 -0.11401613833E+04  0.11401613833E+04  0.50400001928E-02 0. -1.
    10030    2    1    2    0    0  0.00000000000E+00  0.00000000000E+00  0.18987766246E+04  0.41790993911E+04  0.37228374999E+04 0.  0.
        2    1    3    3  502    0 -0.11846024512E+04  0.10295253926E+04  0.20728852096E+04  0.26000112680E+04  0.25500000920E-02 0.  1.
       -2    1    3    3    0  502  0.11846024512E+04 -0.10295253926E+04 -0.17410858503E+03  0.15790881232E+04  0.25500000920E-02 0. -1.
</event>
<event>
 5   0  0.7300916E-07  0.3694362E+04  0.7818609E-02  0.8069213E-01
       -2   -1    0    0    0  501  0.00000000000E+00  0.00000000000E+00  0.13886493077E+04  0.13886493077E+04  0.25500000920E-02 0.  1.
        2   -1    0    0  501    0  0.00000000000E+00  0.00000000000E+00 -0.24571192177E+04  0.24571192177E+04  0.25500000920E-02 0. -1.
    10030    2    1    2    0    0  0.00000000000E+00  0.00000000000E+00 -0.10684699100E+04  0.38457685254E+04  0.36943615961E+04 0.  0.
        1    1    3    3  502    0  0.16133866507E+04  0.17345763784E+03 -0.14530009317E+04  0.21781450237E+04  0.50400001928E-02 0.  1.
       -1    1    3    3    0  502 -0.16133866507E+04 -0.17345763784E+03  0.38453102162E+03  0.16676235017E+04  0.50400001928E-02 0. -1.
</event>
<event>
 5   0  0.7074157E-07  0.3622691E+04  0.7818609E-02  0.8085314E-01
        2   -1    0    0  501    0  0.00000000000E+00  0.00000000000E+00  0.14958760642E+04  0.14958760642E+04  0.25500000920E-02 0. -1.
       -2   -1    0    0    0  501  0.00000000000E+00  0.00000000000E+00 -0.21933456375E+04  0.21933456375E+04  0.25500000920E-02 0.  1.
    10030    2    1    2    0    0  0.00000000000E+00  0.00000000000E+00 -0.69746957338E+03  0.36892217017E+04  0.36226913971E+04 0.  0.
        3    1    3    3  502    0  0.53697560400E+03 -0.17217035282E+04 -0.17721543980E+03  0.18121840857E+04  0.10100000352E+00 0.  1.
       -3    1    3    3    0  502 -0.53697560400E+03  0.17217035282E+04 -0.52025413358E+03  0.18770376160E+04  0.10100000352E+00 0. -1.
</event>
<event>
 5   0  0.7300916E-07  0.3276918E+04  0.7818609E-02  0.8168794E-01
       -2   -1    0    0    0  501  0.00000000000E+00  0.00000000000E+00  0.11677753607E+04  0.11677753607E+04  0.25500000920E-02 0.  1.
        2   -1    0    0  501    0  0.00000000000E+00  0.00000000000E+00 -0.22988565976E+04  0.22988565976E+04  0.25500000920E-02 0. -1.
    10030    2    1    2    0    0  0.00000000000E+00  0.00000000000E+00 -0.11310812369E+04  0.34666319584E+04  0.32769181208E+04 0.  0.
        1    1    3    3  502    0  0.12213705100E+04  0.37243364094E+03 -0.16516713344E+04  0.20876951254E+04  0.50400001928E-02 0. -1.
       -1    1    3    3    0  502 -0.12213705100E+04 -0.37243364094E+03  0.52059009752E+03  0.13789368330E+04  0.50400001928E-02 0.  1.
</event>
<event>
 5   0  0.7074157E-07  0.3711108E+04  0.7818609E-02  0.8065505E-01
        2   -1    0    0  501    0  0.00000000000E+00  0.00000000000E+00  0.17483519670E+04  0.17483519670E+04  0.25500000920E-02 0. -1.
       -2   -1    0    0    0  501  0.00000000000E+00  0.00000000000E+00 -0.19693293602E+04  0.19693293602E+04  0.25500000920E-02 0.  1.
    10030    2    1    2    0    0  0.00000000000E+00  0.00000000000E+00 -0.22097739314E+03  0.37176813272E+04  0.37111081152E+04 0.  0.
        3    1    3    3  502    0 -0.71813480185E+02 -0.13113437923E+04 -0.14236503483E+04  0.19368944323E+04  0.10100000352E+00 0.  1.
       -3    1    3    3    0  502  0.71813480185E+02  0.13113437923E+04  0.12026729552E+04  0.17807868949E+04  0.10100000352E+00 0. -1.
</event>
<event>
 5   0  0.7124627E-07  0.3697850E+04  0.7818609E-02  0.8068439E-01
        2   -1    0    0  501    0  0.00000000000E+00  0.00000000000E+00  0.29927640377E+04  0.29927640377E+04  0.25500000920E-02 0. -1.
       -2   -1    0    0    0  501  0.00000000000E+00  0.00000000000E+00 -0.11422627439E+04  0.11422627439E+04  0.25500000920E-02 0.  1.
    10030    2    1    2    0    0  0.00000000000E+00  0.00000000000E+00  0.18505012938E+04  0.41350267816E+04  0.36978495705E+04 0.  0.
        2    1    3    3  502    0  0.98449795784E+03  0.14683199633E+04  0.15308734697E+04  0.23385408536E+04  0.25500000920E-02 0.  1.
       -2    1    3    3    0  502 -0.98449795784E+03 -0.14683199633E+04  0.31962782414E+03  0.17964859280E+04  0.25500000920E-02 0. -1.
</event>
<event>
 5   0  0.7300916E-07  0.3636890E+04  0.7818609E-02  0.8082094E-01
       -2   -1    0    0    0  501  0.00000000000E+00  0.00000000000E+00  0.15854674279E+04  0.15854674279E+04  0.25500000920E-02 0.  1.
        2   -1    0    0  501    0  0.00000000000E+00  0.00000000000E+00 -0.20856573409E+04  0.20856573409E+04  0.25500000920E-02 0. -1.
    10030    2    1    2    0    0  0.00000000000E+00  0.00000000000E+00 -0.50018991300E+03  0.36711247689E+04  0.36368897591E+04 0.  0.
        1    1    3    3  502    0 -0.15934168350E+04 -0.77194959923E+02  0.63093578459E+03  0.17155221468E+04  0.50400001928E-02 0. -1.
       -1    1    3    3    0  502  0.15934168350E+04  0.77194959923E+02 -0.11311256976E+04  0.19556026221E+04  0.50400001928E-02 0.  1.
</event>
<event>
 5   0  0.2345471E-07  0.3687608E+04  0.7818609E-02  0.8070714E-01
       -1   -1    0    0    0  501  0.00000000000E+00  0.00000000000E+00  0.20394954542E+04  0.20394954542E+04  0.50400001928E-02 0. -1.
        1   -1    0    0  501    0  0.00000000000E+00  0.00000000000E+00 -0.16668893469E+04  0.16668893469E+04  0.50400001928E-02 0.  1.
    10030    2    1    2    0    0  0.00000000000E+00  0.00000000000E+00  0.37260610729E+03  0.37063848011E+04  0.36876080300E+04 0.  0.
        5    1    3    3  502    0 -0.22254183706E+03  0.10737570586E+04 -0.13035102867E+04  0.17034201618E+04  0.46999998093E+01 0.  1.
       -5    1    3    3    0  502  0.22254183706E+03 -0.10737570586E+04  0.16761163940E+04  0.20029646393E+04  0.46999998093E+01 0. -1.
</event>
<event>
 5   0  0.2345471E-07  0.3734367E+04  0.7818609E-02  0.8060388E-01
       -1   -1    0    0    0  501  0.00000000000E+00  0.00000000000E+00  0.14813898815E+04  0.14813898815E+04  0.50400001928E-02 0. -1.
        1   -1    0    0  501    0  0.00000000000E+00  0.00000000000E+00 -0.23534485795E+04  0.23534485795E+04  0.50400001928E-02 0.  1.
    10030    2    1    2    0    0  0.00000000000E+00  0.00000000000E+00 -0.87205869797E+03  0.38348384610E+04  0.37343673693E+04 0.  0.
        5    1    3    3  502    0 -0.12551387205E+04  0.10264884509E+04  0.51478717147E+03  0.17011994796E+04  0.46999998093E+01 0. -1.
       -5    1    3    3    0  502  0.12551387205E+04 -0.10264884509E+04 -0.13868458694E+04  0.21336389814E+04  0.46999998093E+01 0.  1.
</event>
<event>
 5   0  0.7124627E-07  0.3773987E+04  0.7818609E-02  0.8051760E-01
        2   -1    0    0  501    0  0.00000000000E+00  0.00000000000E+00  0.13721479016E+04  0.13721479016E+04  0.25500000920E-02 0. -1.
       -2   -1    0    0    0  501  0.00000000000E+00  0.00000000000E+00 -0.25950144519E+04  0.25950144519E+04  0.25500000920E-02 0.  1.
    10030    2    1    2    0    0  0.00000000000E+00  0.00000000000E+00 -0.12228665502E+04  0.39671623535E+04  0.37739865579E+04 0.  0.
        2    1    3    3  502    0 -0.14111617450E+04 -0.12386443439E+04 -0.41441969648E+03  0.19228522996E+04  0.25500000920E-02 0. -1.
       -2    1    3    3    0  502  0.14111617450E+04  0.12386443439E+04 -0.80844685375E+03  0.20443100539E+04  0.25500000920E-02 0.  1.
</event>
<event>
 5   0  0.2287500E-07  0.3702325E+04  0.7818609E-02  0.8067447E-01
       -1   -1    0    0    0  501  0.00000000000E+00  0.00000000000E+00  0.16751058084E+04  0.16751058084E+04  0.50400001928E-02 0. -1.
        1   -1    0    0  501    0  0.00000000000E+00  0.00000000000E+00 -0.20457225833E+04  0.20457225833E+04  0.50400001928E-02 0.  1.
    10030    2    1    2    0    0  0.00000000000E+00  0.00000000000E+00 -0.37061677489E+03  0.37208283918E+04  0.37023245572E+04 0.  0.
        3    1    3    3  502    0  0.13454351924E+04  0.11878012244E+04 -0.64115461246E+03  0.19058192079E+04  0.10100000352E+00 0.  1.
       -3    1    3    3    0  502 -0.13454351924E+04 -0.11878012244E+04  0.27053783757E+03  0.18150091839E+04  0.10100000352E+00 0. -1.
</event>
<event>
 5   0  0.2345471E-07  0.3659949E+04  0.7818609E-02  0.8076896E-01
        1   -1    0    0  501    0  0.00000000000E+00  0.00000000000E+00  0.14027724616E+04  0.14027724616E+04  0.50400001928E-02 0.  1.
       -1   -1    0    0    0  501  0.00000000000E+00  0.00000000000E+00 -0.23872777243E+04  0.23872777243E+04  0.50400001928E-02 0. -1.
    10030    2    1    2    0    0  0.00000000000E+00  0.00000000000E+00 -0.98450526269E+03  0.37900501859E+04  0.36599494258E+04 0.  0.
        5    1    3    3  502    0 -0.13494707163E+04 -0.40460889197E+03 -0.17016749629E+04  0.22091852206E+04  0.46999998093E+01 0. -1.
       -5    1    3    3    0  502  0.13494707163E+04  0.40460889197E+03  0.71716970017E+03  0.15808649653E+04  0.46999998093E+01 0.  1.
</event>
<event>
 5   0  0.6949625E-07  0.3599625E+04  0.7818609E-02  0.8090578E-01
       -2   -1    0    0    0  501  0.00000000000E+00  0.00000000000E+00  0.18021318580E+04  0.18021318580E+04  0.25500000920E-02 0.  1.
        2   -1    0    0  501    0  0.00000000000E+00  0.00000000000E+00 -0.17974962807E+04  0.17974962807E+04  0.25500000920E-02 0. -1.
    10030    2    1    2    0    0  0.00000000000E+00  0.00000000000E+00  0.46355773073E+01  0.35996281388E+04  0.35996251539E+04 0.  0.
        5    1    3    3  502    0 -0.11317252008E+04  0.13834880393E+04 -0.20854285491E+03  0.17995425244E+04  0.46999998093E+01 0.  1.
       -5    1    3    3    0  502  0.11317252008E+04 -0.13834880393E+04  0.21317843222E+03  0.18000856143E+04  0.46999998093E+01 0. -1.
</event>
<event>
 5   0  0.7074157E-07  0.3680042E+04  0.7818609E-02  0.8072399E-01
       -2   -1    0    0    0  501  0.00000000000E+00  0.00000000000E+00  0.16414754879E+04  0.16414754879E+04  0.25500000920E-02 0.  1.
        2   -1    0    0  501    0  0.00000000000E+00  0.00000000000E+00 -0.20625818197E+04  0.20625818197E+04  0.25500000920E-02 0. -1.
    10030    2    1    2    0    0  0.00000000000E+00  0.00000000000E+00 -0.42110633181E+03  0.37040573077E+04  0.36800421188E+04 0.  0.
        3    1    3    3  502    0 -0.15889247470E+03  0.18301079222E+04 -0.31676745756E+03  0.18641039289E+04  0.10100000352E+00 0.  1.
       -3    1    3    3    0  502  0.15889247470E+03 -0.18301079222E+04 -0.10433887425E+03  0.18399533788E+04  0.10100000352E+00 0. -1.
</event>
<event>
 5   0  0.2345471E-07  0.3373543E+04  0.7818609E-02  0.8144431E-01
        1   -1    0    0  501    0  0.00000000000E+00  0.00000000000E+00  0.19640144065E+04  0.19640144065E+04  0.50400001928E-02 0. -1.
       -1   -1    0    0    0  501  0.00000000000E+00  0.00000000000E+00 -0.14486642156E+04  0.14486642156E+04  0.50400001928E-02 0.  1.
    10030    2    1    2    0    0  0.00000000000E+00  0.00000000000E+00  0.51535019094E+03  0.34126786221E+04  0.33735425828E+04 0.  0.
        5    1    3    3  502    0  0.12085040179E+04  0.19219828300E+03  0.14320705850E+04  0.18836853218E+04  0.46999998093E+01 0. -1.
       -5    1    3    3    0  502 -0.12085040179E+04 -0.19219828300E+03 -0.91672039409E+03  0.15289933002E+04  0.46999998093E+01 0.  1.
</event>
<event>
 5   0  0.7124627E-07  0.3354956E+04  0.7818609E-02  0.8149051E-01
        2   -1    0    0  501    0  0.00000000000E+00  0.00000000000E+00  0.17930324138E+04  0.17930324138E+04  0.25500000920E-02 0.  1.
       -2   -1    0    0    0  501  0.00000000000E+00  0.00000000000E+00 -0.15693707616E+04  0.15693707616E+04  0.25500000920E-02 0. -1.
    10030    2    1    2    0    0  0.00000000000E+00  0.00000000000E+00  0.22366165224E+03  0.33624031754E+04  0.33549561219E+04 0.  0.
        2    1    3    3  502    0  0.53500624319E+03  0.15551416668E+04 -0.21941053960E+03  0.16591679447E+04  0.25500000920E-02 0. -1.
       -2    1    3    3    0  502 -0.53500624319E+03 -0.15551416668E+04  0.44307219184E+03  0.17032352307E+04  0.25500000920E-02 0.  1.
</event>
<event>
 5   0  0.2411746E-07  0.3668523E+04  0.7818609E-02  0.8074973E-01
       -1   -1    0    0    0  501  0.00000000000E+00  0.00000000000E+00  0.16020798860E+04  0.16020798860E+04  0.50400001928E-02 0. -1.
        1   -1    0    0  501    0  0.00000000000E+00  0.00000000000E+00 -0.21000923119E+04  0.21000923119E+04  0.50400001928E-02 0.  1.
    10030    2    1    2    0    0  0.00000000000E+00  0.00000000000E+00 -0.49801242589E+03  0.37021721980E+04  0.36685232188E+04 0.  0.
        1    1    3    3  502    0  0.10673993820E+04 -0.90610291765E+03 -0.14448442412E+04  0.20119490102E+04  0.50400001928E-02 0.  1.
       -1    1    3    3    0  502 -0.10673993820E+04  0.90610291765E+03  0.94683181534E+03  0.16902231878E+04  0.50400001928E-02 0. -1.
</event>
<event>
 5   0  0.7300916E-07  0.3722736E+04  0.7818609E-02  0.8062942E-01
       -2   -1    0    0    0  501  0.00000000000E+00  0.00000000000E+00  0.15757145215E+04  0.15757145215E+04  0.25500000920E-02 0. -1.
        2   -1    0    0  501    0  0.00000000000E+00  0.00000000000E+00 -0.21988059973E+04  0.21988059973E+04  0.25500000920E-02 0.  1.
    10030    2    1    2    0    0  0.00000000000E+00  0.00000000000E+00 -0.62309147573E+03  0.37745205188E+04  0.37227358434E+04 0.  0.
        1    1    3    3  502    0  0.17032182783E+04  0.63023351320E+03  0.10222878482E+03  0.18189550597E+04  0.50400001928E-02 0.  1.
       -1    1    3    3    0  502 -0.17032182783E+04 -0.63023351320E+03 -0.72532026055E+03  0.19555654591E+04  0.50400001928E-02 0. -1.
</event>
<event>
 5   0  0.2287500E-07  0.3699991E+04  0.7818609E-02  0.8067964E-01
       -1   -1    0    0    0  501  0.00000000000E+00  0.00000000000E+00  0.13143529782E+04  0.13143529782E+04  0.50400001928E-02 0. -1.
        1   -1    0    0  501    0  0.00000000000E+00  0.00000000000E+00 -0.26039295598E+04  0.26039295598E+04  0.50400001928E-02 0.  1.
    10030    2    1    2    0    0  0.00000000000E+00  0.00000000000E+00 -0.12895765816E+04  0.39182825380E+04  0.36999905794E+04 0.  0.
        2    1    3    3  502    0 -0.10586812158E+04  0.13127689362E+04  0.16054772960E+03  0.16940908388E+04  0.25500000920E-02 0. -1.
       -2    1    3    3    0  502  0.10586812158E+04 -0.13127689362E+04 -0.14501243112E+04  0.22241916991E+04  0.25500000920E-02 0.  1.
</event>
<event>
 5   0  0.2287500E-07  0.2968944E+04  0.7818609E-02  0.8252655E-01
       -1   -1    0    0    0  501  0.00000000000E+00  0.00000000000E+00  0.11909115661E+04  0.11909115661E+04  0.50400001928E-02 0.  1.
        1   -1    0    0  501    0  0.00000000000E+00  0.00000000000E+00 -0.18503947755E+04  0.18503947755E+04  0.50400001928E-02 0. -1.
    10030    2    1    2    0    0  0.00000000000E+00  0.00000000000E+00 -0.65948320941E+03  0.30413063417E+04  0.29689436102E+04 0.  0.
        3    1    3    3  502    0 -0.12951337488E+04 -0.49321994185E+03  0.21522032171E+03  0.14024824903E+04  0.10100000352E+00 0.  1.
       -3    1    3    3    0  502  0.12951337488E+04  0.49321994185E+03 -0.87470353112E+03  0.16388238514E+04  0.10100000352E+00 0. -1.
</event>
<event>
 5   0  0.2345471E-07  0.3765016E+04  0.7818609E-02  0.8053704E-01
        1   -1    0    0  501    0  0.00000000000E+00  0.00000000000E+00  0.25725926236E+04  0.25725926236E+04  0.50400001928E-02 0.  1.
       -1   -1    0    0    0  501  0.00000000000E+00  0.00000000000E+00 -0.13775346918E+04  0.13775346919E+04  0.50400001928E-02 0. -1.
    10030    2    1    2    0    0  0.00000000000E+00  0.00000000000E+00  0.11950579317E+04  0.39501273154E+04  0.37650155840E+04 0.  0.
        5    1    3    3  502    0  0.77239019471E+03  0.16098488101E+04  0.12231819968E+04  0.21643465738E+04  0.46999998093E+01 0.  1.
       -5    1    3    3    0  502 -0.77239019471E+03 -0.16098488101E+04 -0.28124065067E+02  0.17857807416E+04  0.46999998093E+01 0. -1.
</event>
<event>
 5   0  0.2287500E-07  0.3733090E+04  0.7818609E-02  0.8060668E-01
       -1   -1    0    0    0  501  0.00000000000E+00  0.00000000000E+00  0.24194398946E+04  0.24194398946E+04  0.50400001928E-02 0.  1.
        1   -1    0    0  501    0  0.00000000000E+00  0.00000000000E+00 -0.14399987842E+04  0.14399987842E+04  0.50400001928E-02 0. -1.
    10030    2    1    2    0    0  0.00000000000E+00  0.00000000000E+00  0.97944111041E+03  0.38594386789E+04  0.37330901445E+04 0.  0.
        2    1    3    3  502    0 -0.19478443229E+03  0.86840656605E+03  0.21859582399E+04  0.23601873581E+04  0.25500000920E-02 0.  1.
       -2    1    3    3    0  502  0.19478443229E+03 -0.86840656605E+03 -0.12065171295E+04  0.14992513207E+04  0.25500000920E-02 0. -1.
</event>
<event>
 5   0  0.6939921E-07  0.3737211E+04  0.7818609E-02  0.8059765E-01
        2   -1    0    0  501    0  0.00000000000E+00  0.00000000000E+00  0.17023316853E+04  0.17023316853E+04  0.25500000920E-02 0.  1.
       -2   -1    0    0    0  501  0.00000000000E+00  0.00000000000E+00 -0.20511198366E+04  0.20511198366E+04  0.25500000920E-02 0. -1.
    10030    2    1    2    0    0  0.00000000000E+00  0.00000000000E+00 -0.34878815131E+03  0.37534515220E+04  0.37372108789E+04 0.  0.
        4    1    3    3  502    0 -0.16754031293E+04  0.82587159316E+03 -0.12273963804E+03  0.18719257907E+04  0.12699999809E+01 0.  1.
       -4    1    3    3    0  502  0.16754031293E+04 -0.82587159316E+03 -0.22604851327E+03  0.18815257313E+04  0.12699999809E+01 0. -1.
</event>
<event>
 5   0  0.2287500E-07  0.3694067E+04  0.7818609E-02  0.8069278E-01
       -1   -1    0    0    0  501  0.00000000000E+00  0.00000000000E+00  0.19049902477E+04  0.19049902477E+04  0.50400001928E-02 0.  1.
        1   -1    0    0  501    0  0.00000000000E+00  0.00000000000E+00 -0.17908398219E+04  0.17908398219E+04  0.50400001928E-02 0. -1.
    10030    2    1    2    0    0  0.00000000000E+00  0.00000000000E+00  0.11415042581E+03  0.36958300697E+04  0.36940668083E+04 0.  0.
        4    1    3    3  502    0 -0.14056820463E+04  0.11433193036E+04  0.41558930311E+03  0.18589881998E+04  0.12699999809E+01 0.  1.
       -4    1    3    3    0  502  0.14056820463E+04 -0.11433193036E+04 -0.30143887730E+03  0.18368418699E+04  0.12699999809E+01 0. -1.
</event>
<event>
 5   0  0.2345471E-07  0.2725356E+04  0.7818609E-02  0.8326825E-01
        1   -1    0    0  501    0  0.00000000000E+00  0.00000000000E+00  0.14708740955E+04  0.14708740955E+04  0.50400001928E-02 0.  1.
       -1   -1    0    0    0  501  0.00000000000E+00  0.00000000000E+00 -0.12624403193E+04  0.12624403193E+04  0.50400001928E-02 0. -1.
    10030    2    1    2    0    0  0.00000000000E+00  0.00000000000E+00  0.20843377615E+03  0.27333144148E+04  0.27253555825E+04 0.  0.
        5    1    3    3  502    0 -0.91010807073E+03  0.42296643583E+03  0.10286849451E+04  0.14371541715E+04  0.46999998093E+01 0.  1.
       -5    1    3    3    0  502  0.91010807073E+03 -0.42296643583E+03 -0.82025116898E+03  0.12961602434E+04  0.46999998093E+01 0. -1.
</event>
<event>
 5   0  0.6949625E-07  0.3618884E+04  0.7818609E-02  0.8086180E-01
       -2   -1    0    0    0  501  0.00000000000E+00  0.00000000000E+00  0.15748380559E+04  0.15748380559E+04  0.25500000920E-02 0.  1.
        2   -1    0    0  501    0  0.00000000000E+00  0.00000000000E+00 -0.20789951020E+04  0.20789951020E+04  0.25500000920E-02 0. -1.
    10030    2    1    2    0    0  0.00000000000E+00  0.00000000000E+00 -0.50415704606E+03  0.36538331579E+04  0.36188841400E+04 0.  0.
        5    1    3    3  502    0 -0.27851833718E+02  0.58577106096E+03 -0.19803793375E+04  0.20653880678E+04  0.46999998093E+01 0. -1.
       -5    1    3    3    0  502  0.27851833718E+02 -0.58577106096E+03  0.14762222914E+04  0.15884450901E+04  0.46999998093E+01 0.  1.
</event>
<event>
 5   0  0.7300916E-07  0.3694854E+04  0.7818609E-02  0.8069103E-01
        2   -1    0    0  501    0  0.00000000000E+00  0.00000000000E+00  0.15687858931E+04  0.15687858931E+04  0.25500000920E-02 0.  1.
       -2   -1    0    0    0  501  0.00000000000E+00  0.00000000000E+00 -0.21755588573E+04  0.21755588573E+04  0.25500000920E-02 0. -1.
    10030    2    1    2    0    0  0.00000000000E+00  0.00000000000E+00 -0.60677296421E+03  0.37443447504E+04  0.36948537427E+04 0.  0.
        1    1    3    3  502    0 -0.58238642389E+03  0.51798003079E+03  0.13940142807E+04  0.15971077214E+04  0.50400001928E-02 0.  1.
       -1    1    3    3    0  502  0.58238642389E+03 -0.51798003079E+03 -0.20007872449E+04  0.21472370290E+04  0.50400001928E-02 0. -1.
</event>
<event>
 5   0  0.7074157E-07  0.3503635E+04  0.7818609E-02  0.8112929E-01
        2   -1    0    0  501    0  0.00000000000E+00  0.00000000000E+00  0.14003727114E+04  0.14003727114E+04  0.25500000920E-02 0.  1.
       -2   -1    0    0    0  501  0.00000000000E+00  0.00000000000E+00 -0.21914627653E+04  0.21914627653E+04  0.25500000920E-02 0. -1.
    10030    2    1    2    0    0  0.00000000000E+00  0.00000000000E+00 -0.79109005392E+03  0.35918354767E+04  0.35036350578E+04 0.  0.
        3    1    3    3  502    0  0.54252542197E+03 -0.26528563673E+03 -0.20813732111E+04  0.21672158999E+04  0.10100000352E+00 0. -1.
       -3    1    3    3    0  502 -0.54252542197E+03  0.26528563673E+03  0.12902831572E+04  0.14246195768E+04  0.10100000352E+00 0.  1.
</event>
<event>
 5   0  0.7074157E-07  0.3711781E+04  0.7818609E-02  0.8065356E-01
       -2   -1    0    0    0  501  0.00000000000E+00  0.00000000000E+00  0.16350359543E+04  0.16350359543E+04  0.25500000920E-02 0. -1.
        2   -1    0    0  501    0  0.00000000000E+00  0.00000000000E+00 -0.21065775408E+04  0.21065775408E+04  0.25500000920E-02 0.  1.
    10030    2    1    2    0    0  0.00000000000E+00  0.00000000000E+00 -0.47154158642E+03  0.37416134951E+04  0.37117812542E+04 0.  0.
        3    1    3    3  502    0 -0.12847735783E+04 -0.12625858151E+04 -0.68608698592E+03  0.19275584169E+04  0.10100000352E+00 0.  1.
       -3    1    3    3    0  502  0.12847735783E+04  0.12625858151E+04  0.21454539949E+03  0.18140550782E+04  0.10100000352E+00 0. -1.
</event>
<event>
 5   0  0.2287500E-07  0.3694998E+04  0.7818609E-02  0.8069071E-01
       -1   -1    0    0    0  501  0.00000000000E+00  0.00000000000E+00  0.10748119899E+04  0.10748119900E+04  0.50400001928E-02 0. -1.
        1   -1    0    0  501    0  0.00000000000E+00  0.00000000000E+00 -0.31756735262E+04  0.31756735262E+04  0.50400001928E-02 0.  1.
    10030    2    1    2    0    0  0.00000000000E+00  0.00000000000E+00 -0.21008615363E+04  0.42504855162E+04  0.36949976899E+04 0.  0.
        4    1    3    3  502    0  0.63743956578E+03  0.67822846502E+03  0.78540000421E+03  0.12178578859E+04  0.12699999809E+01 0. -1.
       -4    1    3    3    0  502 -0.63743956578E+03 -0.67822846502E+03 -0.28862615405E+04  0.30326276302E+04  0.12699999809E+01 0.  1.
</event>
<event>
 5   0  0.7300916E-07  0.3204340E+04  0.7818609E-02  0.8187672E-01
        2   -1    0    0  501    0  0.00000000000E+00  0.00000000000E+00  0.14619649467E+04  0.14619649467E+04  0.25500000920E-02 0.  1.
       -2   -1    0    0    0  501  0.00000000000E+00  0.00000000000E+00 -0.17558210847E+04  0.17558210847E+04  0.25500000920E-02 0. -1.
    10030    2    1    2    0    0  0.00000000000E+00  0.00000000000E+00 -0.29385613799E+03  0.32177860314E+04  0.32043401058E+04 0.  0.
        1    1    3    3  502    0 -0.59194918897E+03  0.11801487228E+04  0.76451149413E+03  0.15256581121E+04  0.50400001928E-02 0.  1.
       -1    1    3    3    0  502  0.59194918897E+03 -0.11801487228E+04 -0.10583676321E+04  0.16921279192E+04  0.50400001928E-02 0. -1.
</event>
<event>
 5   0  0.2287500E-07  0.3727074E+04  0.7818609E-02  0.8061988E-01
        1   -1    0    0  501    0  0.00000000000E+00  0.00000000000E+00  0.15287486958E+04  0.15287486958E+04  0.50400001928E-02 0.  1.
       -1   -1    0    0    0  501  0.00000000000E+00  0.00000000000E+00 -0.22716421068E+04  0.22716421068E+04  0.50400001928E-02 0. -1.
    10030    2    1    2    0    0  0.00000000000E+00  0.00000000000E+00 -0.74289341102E+03  0.38003908026E+04  0.37270738700E+04 0.  0.
        2    1    3    3  502    0 -0.80830785877E+03  0.97634768009E+03 -0.17643916202E+04  0.21724857138E+04  0.25500000920E-02 0. -1.
       -2    1    3    3    0  502  0.80830785877E+03 -0.97634768009E+03  0.10214982092E+04  0.16279050889E+04  0.25500000920E-02 0.  1.
</event>
<event>
 5   0  0.2411746E-07  0.2728830E+04  0.7818609E-02  0.8325711E-01
        1   -1    0    0  501    0  0.00000000000E+00  0.00000000000E+00  0.13084535384E+04  0.13084535384E+04  0.50400001928E-02 0.  1.
       -1   -1    0    0    0  501  0.00000000000E+00  0.00000000000E+00 -0.14227697714E+04  0.14227697715E+04  0.50400001928E-02 0. -1.
    10030    2    1    2    0    0  0.00000000000E+00  0.00000000000E+00 -0.11431623308E+03  0.27312233098E+04  0.27288298897E+04 0.  0.
        1    1    3    3  502    0  0.40130435206E+03  0.63439306233E+02 -0.13608205635E+04  0.14201768674E+04  0.50400001928E-02 0. -1.
       -1    1    3    3    0  502 -0.40130435206E+03 -0.63439306233E+02  0.12465043304E+04  0.13110464425E+04  0.50400001928E-02 0.  1.
</event>
<event>
 5   0  0.2345471E-07  0.3700512E+04  0.7818609E-02  0.8067848E-01
       -1   -1    0    0    0  501  0.00000000000E+00  0.00000000000E+00  0.15594733238E+04  0.15594733238E+04  0.50400001928E-02 0. -1.
        1   -1    0    0  501    0  0.00000000000E+00  0.00000000000E+00 -0.21952581159E+04  0.21952581159E+04  0.50400001928E-02 0.  1.
    10030    2    1    2    0    0  0.00000000000E+00  0.00000000000E+00 -0.63578479210E+03  0.37547314396E+04  0.37005115703E+04 0.  0.
        5    1    3    3  502    0 -0.65161326389E+03 -0.16471015211E+03  0.14312261185E+04  0.15811892904E+04  0.46999998093E+01 0. -1.
       -5    1    3    3    0  502  0.65161326389E+03  0.16471015211E+03 -0.20670109106E+04  0.21735421492E+04  0.46999998093E+01 0.  1.
</event>
<event>
 5   0  0.7124627E-07  0.3565586E+04  0.7818609E-02  0.8098420E-01
        2   -1    0    0  501    0  0.00000000000E+00  0.00000000000E+00  0.23642321326E+04  0.23642321326E+04  0.25500000920E-02 0.  1.
       -2   -1    0    0    0  501  0.00000000000E+00  0.00000000000E+00 -0.13443479043E+04  0.13443479043E+04  0.25500000920E-02 0. -1.
    10030    2    1    2    0    0  0.00000000000E+00  0.00000000000E+00  0.10198842283E+04  0.37085800369E+04  0.35655857935E+04 0.  0.
        2    1    3    3  502    0 -0.11808785735E+04 -0.12729054637E+04  0.93062270084E+03  0.19699799837E+04  0.25500000920E-02 0.  1.
       -2    1    3    3    0  502  0.11808785735E+04  0.12729054637E+04  0.89261527481E+02  0.17386000532E+04  0.25500000920E-02 0. -1.
</event>
<event>
 5   0  0.6939921E-07  0.3656979E+04  0.7818609E-02  0.8077563E-01
        2   -1    0    0  501    0  0.00000000000E+00  0.00000000000E+00  0.12886975967E+04  0.12886975967E+04  0.25500000920E-02 0. -1.
       -2   -1    0    0    0  501  0.00000000000E+00  0.00000000000E+00 -0.25943821908E+04  0.25943821908E+04  0.25500000920E-02 0.  1.
    10030    2    1    2    0    0  0.00000000000E+00  0.00000000000E+00 -0.13056845940E+04  0.38830797875E+04  0.36569791327E+04 0.  0.
        4    1    3    3  502    0 -0.66091095071E+03  0.14923528010E+04 -0.15280947229E+04  0.22358433000E+04  0.12699999809E+01 0.  1.
       -4    1    3    3    0  502  0.66091095071E+03 -0.14923528010E+04  0.22241012883E+03  0.16472364875E+04  0.12699999809E+01 0. -1.
</event>
<event>
 5   0  0.7074157E-07  0.3692052E+04  0.7818609E-02  0.8069726E-01
       -2   -1    0    0    0  501  0.00000000000E+00  0.00000000000E+00  0.18319254734E+04  0.18319254734E+04  0.25500000920E-02 0.  1.
        2   -1    0    0  501    0  0.00000000000E+00  0.00000000000E+00 -0.18602348297E+04  0.18602348297E+04  0.25500000920E-02 0. -1.
    10030    2    1    2    0    0  0.00000000000E+00  0.00000000000E+00 -0.28309356282E+02  0.36921603031E+04  0.36920517716E+04 0.  0.
        3    1    3    3  502    0 -0.79188909626E+03  0.11359017685E+03  0.16495710263E+04  0.18333236622E+04  0.10100000352E+00 0.  1.
       -3    1    3    3    0  502  0.79188909626E+03 -0.11359017685E+03 -0.16778803826E+04  0.18588366409E+04  0.10100000352E+00 0. -1.
</event>
<event>
 5   0  0.6949625E-07  0.3653837E+04  0.7818609E-02  0.8078270E-01
       -2   -1    0    0    0  501  0.00000000000E+00  0.00000000000E+00  0.18013133273E+04  0.18013133273E+04  0.25500000920E-02 0.  1.
        2   -1    0    0  501    0  0.00000000000E+00  0.00000000000E+00 -0.18528872896E+04  0.18528872896E+04  0.25500000920E-02 0. -1.
    10030    2    1    2    0    0  0.00000000000E+00  0.00000000000E+00 -0.51573962260E+02  0.36542006169E+04  0.36538366514E+04 0.  0.
        5    1    3    3  502    0  0.96804857315E+03  0.67410428497E+03 -0.14209434509E+04  0.18467910027E+04  0.46999998093E+01 0. -1.
       -5    1    3    3    0  502 -0.96804857315E+03 -0.67410428497E+03  0.13693694887E+04  0.18074096142E+04  0.46999998093E+01 0.  1.
</event>
<event>
 5   0  0.6939921E-07  0.3637777E+04  0.7818609E-02  0.8081893E-01
       -2   -1    0    0    0  501  0.00000000000E+00  0.00000000000E+00  0.17634790883E+04  0.17634790884E+04  0.25500000920E-02 0. -1.
        2   -1    0    0  501    0  0.00000000000E+00  0.00000000000E+00 -0.18760386482E+04  0.18760386482E+04  0.25500000920E-02 0.  1.
    10030    2    1    2    0    0  0.00000000000E+00  0.00000000000E+00 -0.11255955985E+03  0.36395177366E+04  0.36377767524E+04 0.  0.
        4    1    3    3  502    0 -0.64844941795E+03 -0.28044378332E+02  0.16436744145E+04  0.17671842939E+04  0.12699999809E+01 0. -1.
       -4    1    3    3    0  502  0.64844941795E+03  0.28044378332E+02 -0.17562339744E+04  0.18723334426E+04  0.12699999809E+01 0.  1.
</event>
<event>
 5   0  0.7300916E-07  0.3679037E+04  0.7818609E-02  0.8072623E-01
       -2   -1    0    0    0  501  0.00000000000E+00  0.00000000000E+00  0.13461064292E+04  0.13461064292E+04  0.25500000920E-02 0. -1.
        2   -1    0    0  501    0  0.00000000000E+00  0.00000000000E+00 -0.25137892535E+04  0.25137892535E+04  0.25500000920E-02 0.  1.
    10030    2    1    2    0    0  0.00000000000E+00  0.00000000000E+00 -0.11676828243E+04  0.38598956827E+04  0.36790367629E+04 0.  0.
        1    1    3    3  502    0  0.10176519889E+04  0.45736951543E+03  0.95059683133E+03  0.14657546793E+04  0.50400001928E-02 0. -1.
       -1    1    3    3    0  502 -0.10176519889E+04 -0.45736951543E+03 -0.21182796557E+04  0.23941410033E+04  0.50400001928E-02 0.  1.
</event>
<event>
 5   0  0.2411746E-07  0.3689861E+04  0.7818609E-02  0.8070212E-01
       -1   -1    0    0    0  501  0.00000000000E+00  0.00000000000E+00  0.21558707444E+04  0.21558707444E+04  0.50400001928E-02 0. -1.
        1   -1    0    0  501    0  0.00000000000E+00  0.00000000000E+00 -0.15788374469E+04  0.15788374469E+04  0.50400001928E-02 0.  1.
    10030    2    1    2    0    0  0.00000000000E+00  0.00000000000E+00  0.57703329755E+03  0.37347081914E+04  0.36898614944E+04 0.  0.
        1    1    3    3  502    0  0.42552048507E+03 -0.45011195520E+03 -0.14704489420E+04  0.15955840769E+04  0.50400001928E-02 0.  1.
       -1    1    3    3    0  502 -0.42552048507E+03  0.45011195520E+03  0.20474822396E+04  0.21391241144E+04  0.50400001928E-02 0. -1.
</event>
<event>
 5   0  0.2345471E-07  0.3701625E+04  0.7818609E-02  0.8067602E-01
       -1   -1    0    0    0  501  0.00000000000E+00  0.00000000000E+00  0.14575608500E+04  0.14575608500E+04  0.50400001928E-02 0. -1.
        1   -1    0    0  501    0  0.00000000000E+00  0.00000000000E+00 -0.23501640314E+04  0.23501640314E+04  0.50400001928E-02 0.  1.
    10030    2    1    2    0    0  0.00000000000E+00  0.00000000000E+00 -0.89260318139E+03  0.38077248814E+04  0.37016250935E+04 0.  0.
        5    1    3    3  502    0  0.53294191360E+03 -0.16073091714E+04 -0.12147170994E+04  0.20839936605E+04  0.46999998093E+01 0. -1.
       -5    1    3    3    0  502 -0.53294191360E+03  0.16073091714E+04  0.32211391796E+03  0.17237312209E+04  0.46999998093E+01 0.  1.
</event>
<event>
 5   0  0.6949625E-07  0.3723096E+04  0.7818609E-02  0.8062863E-01
       -2   -1    0    0    0  501  0.00000000000E+00  0.00000000000E+00  0.19522148150E+04  0.19522148150E+04  0.25500000920E-02 0. -1.
        2   -1    0    0  501    0  0.00000000000E+00  0.00000000000E+00 -0.17750916480E+04  0.17750916480E+04  0.25500000920E-02 0.  1.
    10030    2    1    2    0    0  0.00000000000E+00  0.00000000000E+00  0.17712316704E+03  0.37273064630E+04  0.37230956008E+04 0.  0.
        5    1    3    3  502    0  0.16682634834E+04 -0.75491058373E+03 -0.24699668925E+03  0.18477073616E+04  0.46999998093E+01 0.  1.
       -5    1    3    3    0  502 -0.16682634834E+04  0.75491058373E+03  0.42411985629E+03  0.18795991014E+04  0.46999998093E+01 0. -1.
</event>
<event>
 5   0  0.6949625E-07  0.3723866E+04  0.7818609E-02  0.8062693E-01
        2   -1    0    0  501    0  0.00000000000E+00  0.00000000000E+00  0.21693165213E+04  0.21693165213E+04  0.25500000920E-02 0.  1.
       -2   -1    0    0    0  501  0.00000000000E+00  0.00000000000E+00 -0.15981040835E+04  0.15981040835E+04  0.25500000920E-02 0. -1.
    10030    2    1    2    0    0  0.00000000000E+00  0.00000000000E+00  0.57121243776E+03  0.37674206048E+04  0.37238655137E+04 0.  0.
        5    1    3    3  502    0 -0.15420726777E+04 -0.94215772505E+03  0.73931804895E+03  0.19525016235E+04  0.46999998093E+01 0.  1.
       -5    1    3    3    0  502  0.15420726777E+04  0.94215772505E+03 -0.16810561119E+03  0.18149189813E+04  0.46999998093E+01 0. -1.
</event>
<event>
 5   0  0.6949625E-07  0.3850386E+04  0.7818609E-02  0.8035428E-01
        2   -1    0    0  501    0  0.00000000000E+00  0.00000000000E+00  0.15524818537E+04  0.15524818537E+04  0.25500000920E-02 0.  1.
       -2   -1    0    0    0  501  0.00000000000E+00  0.00000000000E+00 -0.23873825212E+04  0.23873825212E+04  0.25500000920E-02 0. -1.
    10030    2    1    2    0    0  0.00000000000E+00  0.00000000000E+00 -0.83490066751E+03  0.39398643750E+04  0.38503859766E+04 0.  0.
        5    1    3    3  502    0  0.83439462219E+03 -0.44298561347E+02  0.13572626865E+04  0.15938509460E+04  0.46999998093E+01 0.  1.
       -5    1    3    3    0  502 -0.83439462219E+03  0.44298561347E+02 -0.21921633540E+04  0.23460134289E+04  0.46999998093E+01 0. -1.
</event>
<event>
 5   0  0.6939921E-07  0.4169322E+04  0.7818609E-02  0.7971234E-01
       -2   -1    0    0    0  501  0.00000000000E+00  0.00000000000E+00  0.26801072209E+04  0.26801072209E+04  0.25500000920E-02 0. -1.
        2   -1    0    0  501    0  0.00000000000E+00  0.00000000000E+00 -0.16215063550E+04  0.16215063550E+04  0.25500000920E-02 0.  1.
    10030    2    1    2    0    0  0.00000000000E+00  0.00000000000E+00  0.10586008659E+04  0.43016135760E+04  0.41693217150E+04 0.  0.
        4    1    3    3  502    0  0.68325937731E+03 -0.48836058885E+03  0.24978425228E+04  0.26352529903E+04  0.12699999809E+01 0. -1.
       -4    1    3    3    0  502 -0.68325937731E+03  0.48836058885E+03 -0.14392416569E+04  0.16663605856E+04  0.12699999809E+01 0.  1.
</event>
<event>
 5   0  0.6939921E-07  0.3675684E+04  0.7818609E-02  0.8073372E-01
        2   -1    0    0  501    0  0.00000000000E+00  0.00000000000E+00  0.19560220295E+04  0.19560220295E+04  0.25500000920E-02 0.  1.
       -2   -1    0    0    0  501  0.00000000000E+00  0.00000000000E+00 -0.17268022972E+04  0.17268022972E+04  0.25500000920E-02 0. -1.
    10030    2    1    2    0    0  0.00000000000E+00  0.00000000000E+00  0.22921973229E+03  0.36828243267E+04  0.36756840636E+04 0.  0.
        4    1    3    3  502    0  0.38412783062E+03 -0.17968183653E+04  0.15407283176E+03  0.18438683463E+04  0.12699999809E+01 0.  1.
       -4    1    3    3    0  502 -0.38412783062E+03  0.17968183653E+04  0.75146900533E+02  0.18389559804E+04  0.12699999809E+01 0. -1.
</event>
<event>
 5   0  0.2345471E-07  0.3695217E+04  0.7818609E-02  0.8069023E-01
       -1   -1    0    0    0  501  0.00000000000E+00  0.00000000000E+00  0.17856051009E+04  0.17856051009E+04  0.50400001928E-02 0.  1.
        1   -1    0    0  501    0  0.00000000000E+00  0.00000000000E+00 -0.19117645578E+04  0.19117645578E+04  0.50400001928E-02 0. -1.
    10030    2    1    2    0    0  0.00000000000E+00  0.00000000000E+00 -0.12615945688E+03  0.36973696587E+04  0.36952166627E+04 0.  0.
        5    1    3    3  502    0 -0.71630984582E+03 -0.17016344264E+04  0.74946205294E+01  0.18462767332E+04  0.46999998093E+01 0. -1.
       -5    1    3    3    0  502  0.71630984582E+03  0.17016344264E+04 -0.13365407741E+03  0.18510929255E+04  0.46999998093E+01 0.  1.
</event>
<event>
 5   0  0.7074157E-07  0.3152968E+04  0.7818609E-02  0.8201350E-01
        2   -1    0    0  501    0  0.00000000000E+00  0.00000000000E+00  0.16446502073E+04  0.16446502073E+04  0.25500000920E-02 0.  1.
       -2   -1    0    0    0  501  0.00000000000E+00  0.00000000000E+00 -0.15111432534E+04  0.15111432534E+04  0.25500000920E-02 0. -1.
    10030    2    1    2    0    0  0.00000000000E+00  0.00000000000E+00  0.13350695389E+03  0.31557934608E+04  0.31529681667E+04 0.  0.
        3    1    3    3  502    0 -0.18810180776E+03 -0.60682787628E+03  0.15108490571E+04  0.16389897026E+04  0.10100000352E+00 0.  1.
       -3    1    3    3    0  502  0.18810180776E+03  0.60682787628E+03 -0.13773421032E+04  0.15168037582E+04  0.10100000352E+00 0. -1.
</event>
<event>
 5   0  0.7124627E-07  0.3593689E+04  0.7818609E-02  0.8091939E-01
       -2   -1    0    0    0  501  0.00000000000E+00  0.00000000000E+00  0.12317797508E+04  0.12317797508E+04  0.25500000920E-02 0. -1.
        2   -1    0    0  501    0  0.00000000000E+00  0.00000000000E+00 -0.26211261714E+04  0.26211261714E+04  0.25500000920E-02 0.  1.
    10030    2    1    2    0    0  0.00000000000E+00  0.00000000000E+00 -0.13893464206E+04  0.38529059221E+04  0.35936889916E+04 0.  0.
        2    1    3    3  502    0 -0.13926397808E+04  0.91805604750E+03  0.21633713837E+02  0.16681548139E+04  0.25500000920E-02 0. -1.
       -2    1    3    3    0  502  0.13926397808E+04 -0.91805604750E+03 -0.14109801344E+04  0.21847511083E+04  0.25500000920E-02 0.  1.
</event>
<event>
 5   0  0.2287500E-07  0.3714692E+04  0.7818609E-02  0.8064714E-01
        1   -1    0    0  501    0  0.00000000000E+00  0.00000000000E+00  0.23044405641E+04  0.23044405641E+04  0.50400001928E-02 0.  1.
       -1   -1    0    0    0  501  0.00000000000E+00  0.00000000000E+00 -0.14969945109E+04  0.14969945109E+04  0.50400001928E-02 0. -1.
    10030    2    1    2    0    0  0.00000000000E+00  0.00000000000E+00  0.80744605328E+03  0.38014350750E+04  0.37146923830E+04 0.  0.
        3    1    3    3  502    0 -0.64522021525E+03  0.15226753983E+04 -0.46152960131E+03  0.17169330441E+04  0.10100000352E+00 0. -1.
       -3    1    3    3    0  502  0.64522021525E+03 -0.15226753983E+04  0.12689756546E+04  0.20845020309E+04  0.10100000352E+00 0.  1.
</event>
<event>
 5   0  0.6949625E-07  0.3731647E+04  0.7818609E-02  0.8060984E-01
        2   -1    0    0  501    0  0.00000000000E+00  0.00000000000E+00  0.28310205077E+04  0.28310205077E+04  0.25500000920E-02 0.  1.
       -2   -1    0    0    0  501  0.00000000000E+00  0.00000000000E+00 -0.12296970688E+04  0.12296970688E+04  0.25500000920E-02 0. -1.
    10030    2    1    2    0    0  0.00000000000E+00  0.00000000000E+00  0.16013234390E+04  0.40607175765E+04  0.37316471537E+04 0.  0.
        5    1    3    3  502    0 -0.70777490506E+03 -0.12547861353E+04  0.20909016106E+04  0.25391583638E+04  0.46999998093E+01 0.  1.
       -5    1    3    3    0  502  0.70777490506E+03  0.12547861353E+04 -0.48957817161E+03  0.15215592127E+04  0.46999998093E+01 0. -1.
</event>
<event>
 5   0  0.7124627E-07  0.3626456E+04  0.7818609E-02  0.8084458E-01
        2   -1    0    0  501    0  0.00000000000E+00  0.00000000000E+00  0.16307541017E+04  0.16307541017E+04  0.25500000920E-02 0.  1.
       -2   -1    0    0    0  501  0.00000000000E+00  0.00000000000E+00 -0.20161200497E+04  0.20161200497E+04  0.25500000920E-02 0. -1.
    10030    2    1    2    0    0  0.00000000000E+00  0.00000000000E+00 -0.38536594797E+03  0.36468741513E+04  0.36264561437E+04 0.  0.
        2    1    3    3  502    0  0.10162814116E+04  0.14153636359E+04 -0.69721873699E+03  0.18767514744E+04  0.25500000920E-02 0. -1.
       -2    1    3    3    0  502 -0.10162814116E+04 -0.14153636359E+04  0.31185278902E+03  0.17701226770E+04  0.25500000920E-02 0.  1.
</event>
<event>
 5   0  0.2411746E-07  0.3642503E+04  0.7818609E-02  0.8080825E-01
        1   -1    0    0  501    0  0.00000000000E+00  0.00000000000E+00  0.17489326527E+04  0.17489326527E+04  0.50400001928E-02 0. -1.
       -1   -1    0    0    0  501  0.00000000000E+00  0.00000000000E+00 -0.18965608558E+04  0.18965608558E+04  0.50400001928E-02 0.  1.
    10030    2    1    2    0    0  0.00000000000E+00  0.00000000000E+00 -0.14762820309E+03  0.36454935085E+04  0.36425031001E+04 0.  0.
        1    1    3    3  502    0  0.40102469513E+03  0.17575389427E+04  0.18561535066E+03  0.18122408780E+04  0.50400001928E-02 0.  1.
       -1    1    3    3    0  502 -0.40102469513E+03 -0.17575389427E+04 -0.33324355374E+03  0.18332526306E+04  0.50400001928E-02 0. -1.
</event>
<event>
 5   0  0.6949625E-07  0.3326888E+04  0.7818609E-02  0.8156087E-01
       -2   -1    0    0    0  501  0.00000000000E+00  0.00000000000E+00  0.15274152756E+04  0.15274152756E+04  0.25500000920E-02 0. -1.
        2   -1    0    0  501    0  0.00000000000E+00  0.00000000000E+00 -0.18115874412E+04  0.18115874412E+04  0.25500000920E-02 0.  1.
    10030    2    1    2    0    0  0.00000000000E+00  0.00000000000E+00 -0.28417216561E+03  0.33390027169E+04  0.33268882343E+04 0.  0.
        5    1    3    3  502    0 -0.41305495592E+02 -0.16039649502E+04  0.29839076906E+03  0.16320137397E+04  0.46999998093E+01 0. -1.
       -5    1    3    3    0  502  0.41305495592E+02  0.16039649502E+04 -0.58256293466E+03  0.17069889772E+04  0.46999998093E+01 0.  1.
</event>
<event>
 5   0  0.6949625E-07  0.3716477E+04  0.7818609E-02  0.8064320E-01
       -2   -1    0    0    0  501  0.00000000000E+00  0.00000000000E+00  0.18307127148E+04  0.18307127148E+04  0.25500000920E-02 0.  1.
        2   -1    0    0  501    0  0.00000000000E+00  0.00000000000E+00 -0.18861779847E+04  0.18861779847E+04  0.25500000920E-02 0. -1.
    10030    2    1    2    0    0  0.00000000000E+00  0.00000000000E+00 -0.55465269879E+02  0.37168906995E+04  0.37164768364E+04 0.  0.
        5    1    3    3  502    0  0.73128625800E+03  0.75962140220E+03  0.15025435247E+04  0.18356098167E+04  0.46999998093E+01 0.  1.
       -5    1    3    3    0  502 -0.73128625800E+03 -0.75962140220E+03 -0.15580087945E+04  0.18812808827E+04  0.46999998093E+01 0. -1.
</event>
<event>
 5   0  0.7074157E-07  0.3800265E+04  0.7818609E-02  0.8046098E-01
        2   -1    0    0  501    0  0.00000000000E+00  0.00000000000E+00  0.18718679141E+04  0.18718679141E+04  0.25500000920E-02 0.  1.
       -2   -1    0    0    0  501  0.00000000000E+00  0.00000000000E+00 -0.19288236639E+04  0.19288236639E+04  0.25500000920E-02 0. -1.
    10030    2    1    2    0    0  0.00000000000E+00  0.00000000000E+00 -0.56955749824E+02  0.38006915780E+04  0.38002647952E+04 0.  0.
        3    1    3    3  502    0 -0.11511496779E+04  0.92601508580E+03 -0.12235403511E+04  0.19182545506E+04  0.10100000352E+00 0. -1.
       -3    1    3    3    0  502  0.11511496779E+04 -0.92601508580E+03  0.11665846013E+04  0.18824370274E+04  0.10100000352E+00 0.  1.
</event>
<event>
 5   0  0.2287500E-07  0.3760354E+04  0.7818609E-02  0.8054717E-01
       -1   -1    0    0    0  501  0.00000000000E+00  0.00000000000E+00  0.17068010391E+04  0.17068010391E+04  0.50400001928E-02 0. -1.
        1   -1    0    0  501    0  0.00000000000E+00  0.00000000000E+00 -0.20711639633E+04  0.20711639633E+04  0.50400001928E-02 0.  1.
    10030    2    1    2    0    0  0.00000000000E+00  0.00000000000E+00 -0.36436292415E+03  0.37779650024E+04  0.37603536029E+04 0.  0.
        2    1    3    3  502    0 -0.43540976785E+03  0.13547909533E+04  0.10524042823E+04  0.17699138302E+04  0.25500000920E-02 0. -1.
       -2    1    3    3    0  502  0.43540976785E+03 -0.13547909533E+04 -0.14167672065E+04  0.20080511722E+04  0.25500000920E-02 0.  1.
</event>
<event>
 5   0  0.2345471E-07  0.3745836E+04  0.7818609E-02  0.8057879E-01
       -1   -1    0    0    0  501  0.00000000000E+00  0.00000000000E+00  0.13106570060E+04  0.13106570060E+04  0.50400001928E-02 0.  1.
        1   -1    0    0  501    0  0.00000000000E+00  0.00000000000E+00 -0.26763847499E+04  0.26763847499E+04  0.50400001928E-02 0. -1.
    10030    2    1    2    0    0  0.00000000000E+00  0.00000000000E+00 -0.13657277439E+04  0.39870417559E+04  0.37458363142E+04 0.  0.
        5    1    3    3  502    0 -0.15328935996E+04  0.64014171834E+03 -0.16035829219E+04  0.23089054733E+04  0.46999998093E+01 0. -1.
       -5    1    3    3    0  502  0.15328935996E+04 -0.64014171834E+03  0.23785517798E+03  0.16781362826E+04  0.46999998093E+01 0.  1.
</event>
<event>
 5   0  0.7124627E-07  0.3747367E+04  0.7818609E-02  0.8057545E-01
        2   -1    0    0  501    0  0.00000000000E+00  0.00000000000E+00  0.16150653920E+04  0.16150653920E+04  0.25500000920E-02 0. -1.
       -2   -1    0    0    0  501  0.00000000000E+00  0.00000000000E+00 -0.21737139958E+04  0.21737139958E+04  0.25500000920E-02 0.  1.
    10030    2    1    2    0    0  0.00000000000E+00  0.00000000000E+00 -0.55864860378E+03  0.37887793878E+04  0.37473672074E+04 0.  0.
        2    1    3    3  502    0 -0.11453413797E+04  0.60009358669E+03  0.10916739331E+04  0.16922385071E+04  0.25500000920E-02 0. -1.
       -2    1    3    3    0  502  0.11453413797E+04 -0.60009358669E+03 -0.16503225368E+04  0.20965408807E+04  0.25500000920E-02 0.  1.
</event>
<event>
 5   0  0.7300916E-07  0.3723661E+04  0.7818609E-02  0.8062738E-01
       -2   -1    0    0    0  501  0.00000000000E+00  0.00000000000E+00  0.16025144201E+04  0.16025144201E+04  0.25500000920E-02 0.  1.
        2   -1    0    0  501    0  0.00000000000E+00  0.00000000000E+00 -0.21631087846E+04  0.21631087846E+04  0.25500000920E-02 0. -1.
    10030    2    1    2    0    0  0.00000000000E+00  0.00000000000E+00 -0.56059436450E+03  0.37656232047E+04  0.37236611121E+04 0.  0.
        1    1    3    3  502    0  0.14579795604E+04 -0.77593148296E+03  0.58882896622E+03  0.17534233990E+04  0.50400001928E-02 0.  1.
       -1    1    3    3    0  502 -0.14579795604E+04  0.77593148296E+03 -0.11494233307E+04  0.20121998057E+04  0.50400001928E-02 0. -1.
</event>
<event>
 5   0  0.2287500E-07  0.3674443E+04  0.7818609E-02  0.8073649E-01
        1   -1    0    0  501    0  0.00000000000E+00  0.00000000000E+00  0.27822042717E+04  0.27822042717E+04  0.50400001928E-02 0. -1.
       -1   -1    0    0    0  501  0.00000000000E+00  0.00000000000E+00 -0.12132045866E+04  0.12132045866E+04  0.50400001928E-02 0.  1.
    10030    2    1    2    0    0  0.00000000000E+00  0.00000000000E+00  0.15689996851E+04  0.39954088583E+04  0.36744430779E+04 0.  0.
        2    1    3    3  502    0 -0.85123299790E+02 -0.30230790322E+03 -0.11837995361E+04  0.12247519693E+04  0.25500000920E-02 0.  1.
       -2    1    3    3    0  502  0.85123299790E+02  0.30230790322E+03  0.27527992212E+04  0.27706568890E+04  0.25500000920E-02 0. -1.
</event>
<event>
 5   0  0.2287500E-07  0.3496120E+04  0.7818609E-02  0.8114710E-01
       -1   -1    0    0    0  501  0.00000000000E+00  0.00000000000E+00  0.17697644240E+04  0.17697644240E+04  0.50400001928E-02 0. -1.
        1   -1    0    0  501    0  0.00000000000E+00  0.00000000000E+00 -0.17266222414E+04  0.17266222414E+04  0.50400001928E-02 0.  1.
    10030    2    1    2    0    0  0.00000000000E+00  0.00000000000E+00  0.43142182581E+02  0.34963866653E+04  0.34961204879E+04 0.  0.
        3    1    3    3  502    0  0.37534654363E+03 -0.55191894779E+03  0.16373100945E+04  0.17681300599E+04  0.10100000352E+00 0. -1.
       -3    1    3    3    0  502 -0.37534654363E+03  0.55191894779E+03 -0.15941679119E+04  0.17282566055E+04  0.10100000352E+00 0.  1.
</event>
<event>
 5   0  0.7124627E-07  0.3677835E+04  0.7818609E-02  0.8072892E-01
       -2   -1    0    0    0  501  0.00000000000E+00  0.00000000000E+00  0.15336714749E+04  0.15336714749E+04  0.25500000920E-02 0.  1.
        2   -1    0    0  501    0  0.00000000000E+00  0.00000000000E+00 -0.22049168541E+04  0.22049168541E+04  0.25500000920E-02 0. -1.
    10030    2    1    2    0    0  0.00000000000E+00  0.00000000000E+00 -0.67124537920E+03  0.37385883289E+04  0.36778352783E+04 0.  0.
        2    1    3    3  502    0  0.16395886389E+04 -0.82881783310E+03 -0.41712301147E+03  0.18839271515E+04  0.25500000920E-02 0. -1.
       -2    1    3    3    0  502 -0.16395886389E+04  0.82881783310E+03 -0.25412236773E+03  0.18546611774E+04  0.25500000920E-02 0.  1.
</event>
<event>
 5   0  0.2411746E-07  0.3536299E+04  0.7818609E-02  0.8105241E-01
        1   -1    0    0  501    0  0.00000000000E+00  0.00000000000E+00  0.12931188791E+04  0.12931188791E+04  0.50400001928E-02 0. -1.
       -1   -1    0    0    0  501  0.00000000000E+00  0.00000000000E+00 -0.24176838423E+04  0.24176838423E+04  0.50400001928E-02 0.  1.
    10030    2    1    2    0    0  0.00000000000E+00  0.00000000000E+00 -0.11245649632E+04  0.37108027214E+04  0.35362989807E+04 0.  0.
        1    1    3    3  502    0  0.11592913338E+04  0.46184571868E+02 -0.19623887466E+04  0.22797059031E+04  0.50400001928E-02 0.  1.
       -1    1    3    3    0  502 -0.11592913338E+04 -0.46184571868E+02  0.83782378347E+03  0.14310968184E+04  0.50400001928E-02 0. -1.
</event>
<event>
 5   0  0.2411746E-07  0.3471324E+04  0.7818609E-02  0.8120620E-01
       -1   -1    0    0    0  501  0.00000000000E+00  0.00000000000E+00  0.95507237031E+03  0.95507237032E+03  0.50400001928E-02 0.  1.
        1   -1    0    0  501    0  0.00000000000E+00  0.00000000000E+00 -0.31542345789E+04  0.31542345789E+04  0.50400001928E-02 0. -1.
    10030    2    1    2    0    0  0.00000000000E+00  0.00000000000E+00 -0.21991622086E+04  0.41093069492E+04  0.34713238373E+04 0.  0.
        1    1    3    3  502    0  0.16947675230E+04  0.37140513575E+03 -0.11568886547E+04  0.20853225390E+04  0.50400001928E-02 0.  1.
       -1    1    3    3    0  502 -0.16947675230E+04 -0.37140513575E+03 -0.10422735539E+04  0.20239844103E+04  0.50400001928E-02 0. -1.
</event>
<event>
 5   0  0.2287500E-07  0.3642660E+04  0.7818609E-02  0.8080789E-01
        1   -1    0    0  501    0  0.00000000000E+00  0.00000000000E+00  0.29929804612E+04  0.29929804612E+04  0.50400001928E-02 0. -1.
       -1   -1    0    0    0  501  0.00000000000E+00  0.00000000000E+00 -0.11083410093E+04  0.11083410093E+04  0.50400001928E-02 0.  1.
    10030    2    1    2    0    0  0.00000000000E+00  0.00000000000E+00  0.18846394519E+04  0.41013214705E+04  0.36426600089E+04 0.  0.
        2    1    3    3  502    0  0.13954845775E+04 -0.33364880553E+03  0.22054246241E+04  0.26310827626E+04  0.25500000920E-02 0. -1.
       -2    1    3    3    0  502 -0.13954845775E+04  0.33364880553E+03 -0.32078517212E+03  0.14702387079E+04  0.25500000920E-02 0.  1.
</event>
<event>
 5   0  0.6939921E-07  0.3715076E+04  0.7818609E-02  0.8064629E-01
        2   -1    0    0  501    0  0.00000000000E+00  0.00000000000E+00  0.28953307681E+04  0.28953307681E+04  0.25500000920E-02 0.  1.
       -2   -1    0    0    0  501  0.00000000000E+00  0.00000000000E+00 -0.11917280207E+04  0.11917280207E+04  0.25500000920E-02 0. -1.
    10030    2    1    2    0    0  0.00000000000E+00  0.00000000000E+00  0.17036027474E+04  0.40870587889E+04  0.37150756685E+04 0.  0.
        4    1    3    3  502    0  0.56762875451E+03 -0.10318670674E+04  0.24321202808E+04  0.27022514170E+04  0.12699999809E+01 0.  1.
       -4    1    3    3    0  502 -0.56762875451E+03  0.10318670674E+04 -0.72851753340E+03  0.13848073718E+04  0.12699999809E+01 0. -1.
</event>
<event>
 5   0  0.6949625E-07  0.3440229E+04  0.7818609E-02  0.8128103E-01
        2   -1    0    0  501    0  0.00000000000E+00  0.00000000000E+00  0.21826895947E+04  0.21826895947E+04  0.25500000920E-02 0. -1.
       -2   -1    0    0    0  501  0.00000000000E+00  0.00000000000E+00 -0.13555724714E+04  0.13555724714E+04  0.25500000920E-02 0.  1.
    10030    2    1    2    0    0  0.00000000000E+00  0.00000000000E+00  0.82711712326E+03  0.35382620661E+04  0.34402290204E+04 0.  0.
        5    1    3    3  502    0  0.12091214252E+04 -0.42753183197E+03 -0.76541100936E+03  0.14935307802E+04  0.46999998093E+01 0.  1.
       -5    1    3    3    0  502 -0.12091214252E+04  0.42753183197E+03  0.15925281326E+04  0.20447312859E+04  0.46999998093E+01 0. -1.
</event>
<event>
 5   0  0.6939921E-07  0.3697407E+04  0.7818609E-02  0.8068537E-01
        2   -1    0    0  501    0  0.00000000000E+00  0.00000000000E+00  0.24028887275E+04  0.24028887275E+04  0.25500000920E-02 0.  1.
       -2   -1    0    0    0  501  0.00000000000E+00  0.00000000000E+00 -0.14223316386E+04  0.14223316386E+04  0.25500000920E-02 0. -1.
    10030    2    1    2    0    0  0.00000000000E+00  0.00000000000E+00  0.98055708890E+03  0.38252203660E+04  0.36974070163E+04 0.  0.
        4    1    3    3  502    0  0.10899285612E+04  0.60972309701E+03  0.19004815859E+04  0.22741016676E+04  0.12699999809E+01 0.  1.
       -4    1    3    3    0  502 -0.10899285612E+04 -0.60972309701E+03 -0.91992449698E+03  0.15511186984E+04  0.12699999809E+01 0. -1.
</event>
<event>
 5   0  0.7300916E-07  0.3714324E+04  0.7818609E-02  0.8064795E-01
        2   -1    0    0  501    0  0.00000000000E+00  0.00000000000E+00  0.20320687541E+04  0.20320687541E+04  0.25500000920E-02 0.  1.
       -2   -1    0    0    0  501  0.00000000000E+00  0.00000000000E+00 -0.16973098950E+04  0.16973098950E+04  0.25500000920E-02 0. -1.
    10030    2    1    2    0    0  0.00000000000E+00  0.00000000000E+00  0.33475885909E+03  0.37293786490E+04  0.37143238435E+04 0.  0.
        1    1    3    3  502    0  0.17740447491E+04 -0.45864023116E+02 -0.38229922059E+03  0.18153487198E+04  0.50400001928E-02 0. -1.
       -1    1    3    3    0  502 -0.17740447491E+04  0.45864023116E+02  0.71705807969E+03  0.19140299292E+04  0.50400001928E-02 0.  1.
</event>
<event>
 5   0  0.6949625E-07  0.3708320E+04  0.7818609E-02  0.8066121E-01
        2   -1    0    0  501    0  0.00000000000E+00  0.00000000000E+00  0.27793805257E+04  0.27793805257E+04  0.25500000920E-02 0. -1.
       -2   -1    0    0    0  501  0.00000000000E+00  0.00000000000E+00 -0.12369333649E+04  0.12369333649E+04  0.25500000920E-02 0.  1.
    10030    2    1    2    0    0  0.00000000000E+00  0.00000000000E+00  0.15424471608E+04  0.40163138905E+04  0.37083195687E+04 0.  0.
        5    1    3    3  502    0 -0.18958612635E+03 -0.13142995930E+04 -0.63030146608E+03  0.14699075983E+04  0.46999998093E+01 0.  1.
       -5    1    3    3    0  502  0.18958612635E+03  0.13142995930E+04  0.21727486269E+04  0.25464062922E+04  0.46999998093E+01 0. -1.
</event>
<event>
 5   0  0.7074157E-07  0.3705601E+04  0.7818609E-02  0.8066722E-01
        2   -1    0    0  501    0  0.00000000000E+00  0.00000000000E+00  0.19788506183E+04  0.19788506183E+04  0.25500000920E-02 0. -1.
       -2   -1    0    0    0  501  0.00000000000E+00  0.00000000000E+00 -0.17347796662E+04  0.17347796662E+04  0.25500000920E-02 0.  1.
    10030    2    1    2    0    0  0.00000000000E+00  0.00000000000E+00  0.24407095208E+03  0.37136302845E+04  0.37056010660E+04 0.  0.
        3    1    3    3  502    0 -0.81423961658E+03 -0.10778558781E+04 -0.11488251564E+04  0.17732903590E+04  0.10100000352E+00 0.  1.
       -3    1    3    3    0  502  0.81423961658E+03  0.10778558781E+04  0.13928961085E+04  0.19403399255E+04  0.10100000352E+00 0. -1.
</event>
<event>
 5   0  0.6939921E-07  0.3691454E+04  0.7818609E-02  0.8069858E-01
        2   -1    0    0  501    0  0.00000000000E+00  0.00000000000E+00  0.16146891372E+04  0.16146891372E+04  0.25500000920E-02 0.  1.
       -2   -1    0    0    0  501  0.00000000000E+00  0.00000000000E+00 -0.21098233921E+04  0.21098233921E+04  0.25500000920E-02 0. -1.
    10030    2    1    2    0    0  0.00000000000E+00  0.00000000000E+00 -0.49513425488E+03  0.37245125293E+04  0.36914544086E+04 0.  0.
        4    1    3    3  502    0  0.57254357184E+03  0.56210143875E+01  0.15228172790E+04  0.16269025218E+04  0.12699999809E+01 0.  1.
       -4    1    3    3    0  502 -0.57254357184E+03 -0.56210143875E+01 -0.20179515339E+04  0.20976100075E+04  0.12699999809E+01 0. -1.
</event>
<event>
 5   0  0.2287500E-07  0.3830366E+04  0.7818609E-02  0.8039670E-01
       -1   -1    0    0    0  501  0.00000000000E+00  0.00000000000E+00  0.17338676112E+04  0.17338676112E+04  0.50400001928E-02 0. -1.
        1   -1    0    0  501    0  0.00000000000E+00  0.00000000000E+00 -0.21154590856E+04  0.21154590856E+04  0.50400001928E-02 0.  1.
    10030    2    1    2    0    0  0.00000000000E+00  0.00000000000E+00 -0.38159147440E+03  0.38493266969E+04  0.38303660355E+04 0.  0.
        3    1    3    3  502    0  0.98094807291E+03 -0.14196394577E+04 -0.10257457882E+04  0.20074336213E+04  0.10100000352E+00 0.  1.
       -3    1    3    3    0  502 -0.98094807291E+03  0.14196394577E+04  0.64415431380E+03  0.18418930756E+04  0.10100000352E+00 0. -1.
</event>
<event>
 5   0  0.2287500E-07  0.3703366E+04  0.7818609E-02  0.8067216E-01
        1   -1    0    0  501    0  0.00000000000E+00  0.00000000000E+00  0.25653097033E+04  0.25653097033E+04  0.50400001928E-02 0.  1.
       -1   -1    0    0    0  501  0.00000000000E+00  0.00000000000E+00 -0.13365756752E+04  0.13365756752E+04  0.50400001928E-02 0. -1.
    10030    2    1    2    0    0  0.00000000000E+00  0.00000000000E+00  0.12287340281E+04  0.39018853785E+04  0.37033663328E+04 0.  0.
        2    1    3    3  502    0  0.98543040916E+03 -0.34876197148E+03  0.22247024441E+04  0.24580498304E+04  0.25500000920E-02 0.  1.
       -2    1    3    3    0  502 -0.98543040916E+03  0.34876197148E+03 -0.99596841606E+03  0.14438355481E+04  0.25500000920E-02 0. -1.
</event>
<event>
 5   0  0.2345471E-07  0.3616553E+04  0.7818609E-02  0.8086711E-01
       -1   -1    0    0    0  501  0.00000000000E+00  0.00000000000E+00  0.21771613951E+04  0.21771613951E+04  0.50400001928E-02 0. -1.
        1   -1    0    0  501    0  0.00000000000E+00  0.00000000000E+00 -0.15018930709E+04  0.15018930709E+04  0.50400001928E-02 0.  1.
    10030    2    1    2    0    0  0.00000000000E+00  0.00000000000E+00  0.67526832421E+03  0.36790544660E+04  0.36165528413E+04 0.  0.
        5    1    3    3  502    0  0.11720157475E+03 -0.38365546935E+03 -0.14560490458E+04  0.15103074660E+04  0.46999998093E+01 0.  1.
       -5    1    3    3    0  502 -0.11720157475E+03  0.38365546935E+03  0.21313173700E+04  0.21687470000E+04  0.46999998093E+01 0. -1.
</event>
<event>
 5   0  0.6939921E-07  0.2782427E+04  0.7818609E-02  0.8308745E-01
        2   -1    0    0  501    0  0.00000000000E+00  0.00000000000E+00  0.15864686489E+04  0.15864686489E+04  0.25500000920E-02 0.  1.
       -2   -1    0    0    0  501  0.00000000000E+00  0.00000000000E+00 -0.12199893939E+04  0.12199893939E+04  0.25500000920E-02 0. -1.
    10030    2    1    2    0    0  0.00000000000E+00  0.00000000000E+00  0.36647925495E+03  0.28064580428E+04  0.27824269445E+04 0.  0.
        4    1    3    3  502    0 -0.13253792139E+04 -0.32271054847E+01  0.60977830417E+03  0.14589282601E+04  0.12699999809E+01 0.  1.
       -4    1    3    3    0  502  0.13253792139E+04  0.32271054847E+01 -0.24329904922E+03  0.13475297827E+04  0.12699999809E+01 0. -1.
</event>
<event>
 5   0  0.2411746E-07  0.3786420E+04  0.7818609E-02  0.8049075E-01
        1   -1    0    0  501    0  0.00000000000E+00  0.00000000000E+00  0.17683151662E+04  0.17683151662E+04  0.50400001928E-02 0. -1.
       -1   -1    0    0    0  501  0.00000000000E+00  0.00000000000E+00 -0.20269264995E+04  0.20269264995E+04  0.50400001928E-02 0.  1.
    10030    2    1    2    0    0  0.00000000000E+00  0.00000000000E+00 -0.25861133333E+03  0.37952416657E+04  0.37864204045E+04 0.  0.
        1    1    3    3  502    0  0.10094493954E+04  0.33544977777E+03 -0.16990737537E+04  0.20045863054E+04  0.50400001928E-02 0.  1.
       -1    1    3    3    0  502 -0.10094493954E+04 -0.33544977777E+03  0.14404624203E+04  0.17906553604E+04  0.50400001928E-02 0. -1.
</event>
<event>
 5   0  0.2345471E-07  0.2694288E+04  0.7818609E-02  0.8336861E-01
        1   -1    0    0  501    0  0.00000000000E+00  0.00000000000E+00  0.13191585822E+04  0.13191585822E+04  0.50400001928E-02 0. -1.
       -1   -1    0    0    0  501  0.00000000000E+00  0.00000000000E+00 -0.13757232828E+04  0.13757232828E+04  0.50400001928E-02 0.  1.
    10030    2    1    2    0    0  0.00000000000E+00  0.00000000000E+00 -0.56564700563E+02  0.26948818651E+04  0.26942881623E+04 0.  0.
        5    1    3    3  502    0 -0.49010079069E+03 -0.11479744099E+04  0.47851564833E+03  0.13368034061E+04  0.46999998093E+01 0. -1.
       -5    1    3    3    0  502  0.49010079069E+03  0.11479744099E+04 -0.53508034889E+03  0.13580784590E+04  0.46999998093E+01 0.  1.
</event>
<event>
 5   0  0.2411746E-07  0.3728300E+04  0.7818609E-02  0.8061719E-01
        1   -1    0    0  501    0  0.00000000000E+00  0.00000000000E+00  0.20426661386E+04  0.20426661386E+04  0.50400001928E-02 0.  1.
       -1   -1    0    0    0  501  0.00000000000E+00  0.00000000000E+00 -0.17012347565E+04  0.17012347565E+04  0.50400001928E-02 0. -1.
    10030    2    1    2    0    0  0.00000000000E+00  0.00000000000E+00  0.34143138214E+03  0.37439008951E+04  0.37282996826E+04 0.  0.
        1    1    3    3  502    0  0.91026520116E+03  0.10992939728E+04  0.13749103490E+04  0.19817690186E+04  0.50400001928E-02 0.  1.
       -1    1    3    3    0  502 -0.91026520116E+03 -0.10992939728E+04 -0.10334789669E+04  0.17621318765E+04  0.50400001928E-02 0. -1.
</event>
<event>
 5   0  0.2287500E-07  0.3708178E+04  0.7818609E-02  0.8066152E-01
        1   -1    0    0  501    0  0.00000000000E+00  0.00000000000E+00  0.17321002455E+04  0.17321002455E+04  0.50400001928E-02 0.  1.
       -1   -1    0    0    0  501  0.00000000000E+00  0.00000000000E+00 -0.19846693989E+04  0.19846693989E+04  0.50400001928E-02 0. -1.
    10030    2    1    2    0    0  0.00000000000E+00  0.00000000000E+00 -0.25256915336E+03  0.37167696444E+04  0.37081781797E+04 0.  0.
        2    1    3    3  502    0 -0.18415394077E+04  0.12861108067E+03 -0.29942202713E+03  0.18701501947E+04  0.25500000920E-02 0. -1.
       -2    1    3    3    0  502  0.18415394077E+04 -0.12861108067E+03  0.46852873767E+02  0.18466194497E+04  0.25500000920E-02 0.  1.
</event>
<event>
 5   0  0.6949625E-07  0.3755643E+04  0.7818609E-02  0.8055741E-01
        2   -1    0    0  501    0  0.00000000000E+00  0.00000000000E+00  0.20616661456E+04  0.20616661456E+04  0.25500000920E-02 0. -1.
       -2   -1    0    0    0  501  0.00000000000E+00  0.00000000000E+00 -0.17103704022E+04  0.17103704022E+04  0.25500000920E-02 0.  1.
    10030    2    1    2    0    0  0.00000000000E+00  0.00000000000E+00  0.35129574336E+03  0.37720365478E+04  0.37556425573E+04 0.  0.
        5    1    3    3  502    0  0.15275208826E+04  0.10104724300E+04 -0.24066855875E+03  0.18472460648E+04  0.46999998093E+01 0.  1.
       -5    1    3    3    0  502 -0.15275208826E+04 -0.10104724300E+04  0.59196430211E+03  0.19247904830E+04  0.46999998093E+01 0. -1.
</event>
<event>
 5   0  0.6939921E-07  0.3713854E+04  0.7818609E-02  0.8064898E-01
        2   -1    0    0  501    0  0.00000000000E+00  0.00000000000E+00  0.13971414738E+04  0.13971414738E+04  0.25500000920E-02 0. -1.
       -2   -1    0    0    0  501  0.00000000000E+00  0.00000000000E+00 -0.24680238447E+04  0.24680238447E+04  0.25500000920E-02 0.  1.
    10030    2    1    2    0    0  0.00000000000E+00  0.00000000000E+00 -0.10708823709E+04  0.38651653185E+04  0.37138543169E+04 0.  0.
        4    1    3    3  502    0  0.22345121403E+03  0.12088445030E+04  0.91300194764E+03  0.15312771293E+04  0.12699999809E+01 0. -1.
       -4    1    3    3    0  502 -0.22345121403E+03 -0.12088445030E+04 -0.19838843186E+04  0.23338881892E+04  0.12699999809E+01 0.  1.
</event>
<event>
 5   0  0.2287500E-07  0.3764073E+04  0.7818609E-02  0.8053909E-01
        1   -1    0    0  501    0  0.00000000000E+00  0.00000000000E+00  0.25103889737E+04  0.25103889737E+04  0.50400001928E-02 0.  1.
       -1   -1    0    0    0  501  0.00000000000E+00  0.00000000000E+00 -0.14109612565E+04  0.14109612565E+04  0.50400001928E-02 0. -1.
    10030    2    1    2    0    0  0.00000000000E+00  0.00000000000E+00  0.10994277172E+04  0.39213502302E+04  0.37640731027E+04 0.  0.
        3    1    3    3  502    0 -0.11153660338E+04 -0.32291512977E+03 -0.99330329492E+03  0.15280598864E+04  0.10100000352E+00 0. -1.
       -3    1    3    3    0  502  0.11153660338E+04  0.32291512977E+03  0.20927310121E+04  0.23932903438E+04  0.10100000352E+00 0.  1.
</event>
<event>
 5   0  0.2287500E-07  0.3695771E+04  0.7818609E-02  0.8068900E-01
       -1   -1    0    0    0  501  0.00000000000E+00  0.00000000000E+00  0.17789043588E+04  0.17789043588E+04  0.50400001928E-02 0. -1.
        1   -1    0    0  501    0  0.00000000000E+00  0.00000000000E+00 -0.19195412015E+04  0.19195412015E+04  0.50400001928E-02 0.  1.
    10030    2    1    2    0    0  0.00000000000E+00  0.00000000000E+00 -0.14063684275E+03  0.36984455603E+04  0.36957706694E+04 0.  0.
        2    1    3    3  502    0  0.78851385431E+03  0.16369729708E+04  0.26644498494E+03  0.18364170375E+04  0.25500000920E-02 0. -1.
       -2    1    3    3    0  502 -0.78851385431E+03 -0.16369729708E+04 -0.40708182769E+03  0.18620285228E+04  0.25500000920E-02 0.  1.
</event>
<event>
 5   0  0.6939921E-07  0.3621072E+04  0.7818609E-02  0.8085682E-01
       -2   -1    0    0    0  501  0.00000000000E+00  0.00000000000E+00  0.12880990622E+04  0.12880990622E+04  0.25500000920E-02 0. -1.
        2   -1    0    0  501    0  0.00000000000E+00  0.00000000000E+00 -0.25448663337E+04  0.25448663337E+04  0.25500000920E-02 0.  1.
    10030    2    1    2    0    0  0.00000000000E+00  0.00000000000E+00 -0.12567672716E+04  0.38329653959E+04  0.36210716303E+04 0.  0.
        4    1    3    3  502    0  0.92344332984E+03  0.15048088026E+04 -0.10529019659E+04  0.20556753826E+04  0.12699999809E+01 0.  1.
       -4    1    3    3    0  502 -0.92344332984E+03 -0.15048088026E+04 -0.20386530570E+03  0.17772900134E+04  0.12699999809E+01 0. -1.
</event>
<event>
 5   0  0.2411746E-07  0.3674347E+04  0.7818609E-02  0.8073671E-01
       -1   -1    0    0    0  501  0.00000000000E+00  0.00000000000E+00  0.13354061760E+04  0.13354061760E+04  0.50400001928E-02 0.  1.
        1   -1    0    0  501    0  0.00000000000E+00  0.00000000000E+00 -0.25274761134E+04  0.25274761134E+04  0.50400001928E-02 0. -1.
    10030    2    1    2    0    0  0.00000000000E+00  0.00000000000E+00 -0.11920699374E+04  0.38628822894E+04  0.36743474041E+04 0.  0.
        1    1    3    3  502    0 -0.17993592846E+04  0.22165230403E+03 -0.90858329836E+03  0.20278923021E+04  0.50400001928E-02 0. -1.
       -1    1    3    3    0  502  0.17993592846E+04 -0.22165230403E+03 -0.28348663904E+03  0.18349899873E+04  0.50400001928E-02 0.  1.
</event>
<event>
 5   0  0.6939921E-07  0.3685542E+04  0.7818609E-02  0.8071174E-01
        2   -1    0    0  501    0  0.00000000000E+00  0.00000000000E+00  0.20276436041E+04  0.20276436041E+04  0.25500000920E-02 0.  1.
       -2   -1    0    0    0  501  0.00000000000E+00  0.00000000000E+00 -0.16747540827E+04  0.16747540827E+04  0.25500000920E-02 0. -1.
    10030    2    1    2    0    0  0.00000000000E+00  0.00000000000E+00  0.35288952138E+03  0.37023976868E+04  0.36855416993E+04 0.  0.
        4    1    3    3  502    0  0.23729723270E+03 -0.43071687060E+03 -0.16076212301E+04  0.16811527687E+04  0.12699999809E+01 0. -1.
       -4    1    3    3    0  502 -0.23729723270E+03  0.43071687060E+03  0.19605107515E+04  0.20212449181E+04  0.12699999809E+01 0.  1.
</event>
<event>
 5   0  0.2411746E-07  0.3827959E+04  0.7818609E-02  0.8040181E-01
       -1   -1    0    0    0  501  0.00000000000E+00  0.00000000000E+00  0.14286741771E+04  0.14286741771E+04  0.50400001928E-02 0. -1.
        1   -1    0    0  501    0  0.00000000000E+00  0.00000000000E+00 -0.25641375197E+04  0.25641375197E+04  0.50400001928E-02 0.  1.
    10030    2    1    2    0    0  0.00000000000E+00  0.00000000000E+00 -0.11354633426E+04  0.39928116968E+04  0.38279587568E+04 0.  0.
        1    1    3    3  502    0 -0.13818122678E+04  0.25320910839E+03  0.78817205695E+03  0.16108181733E+04  0.50400001928E-02 0.  1.
       -1    1    3    3    0  502  0.13818122678E+04 -0.25320910839E+03 -0.19236353995E+04  0.23819935236E+04  0.50400001928E-02 0. -1.
</event>
<event>
 5   0  0.2411746E-07  0.3526619E+04  0.7818609E-02  0.8107510E-01
       -1   -1    0    0    0  501  0.00000000000E+00  0.00000000000E+00  0.16704802937E+04  0.16704802937E+04  0.50400001928E-02 0.  1.
        1   -1    0    0  501    0  0.00000000000E+00  0.00000000000E+00 -0.18612973219E+04  0.18612973219E+04  0.50400001928E-02 0. -1.
    10030    2    1    2    0    0  0.00000000000E+00  0.00000000000E+00 -0.19081702814E+03  0.35317776156E+04  0.35266190591E+04 0.  0.
        1    1    3    3  502    0 -0.79318458069E+03  0.40975866174E+03 -0.16182301998E+04  0.18481647436E+04  0.50400001928E-02 0. -1.
       -1    1    3    3    0  502  0.79318458069E+03 -0.40975866174E+03  0.14274131717E+04  0.16836128720E+04  0.50400001928E-02 0.  1.
</event>
<event>
 5   0  0.7074157E-07  0.3809379E+04  0.7818609E-02  0.8044145E-01
       -2   -1    0    0    0  501  0.00000000000E+00  0.00000000000E+00  0.15441176024E+04  0.15441176024E+04  0.25500000920E-02 0. -1.
        2   -1    0    0  501    0  0.00000000000E+00  0.00000000000E+00 -0.23494598908E+04  0.23494598908E+04  0.25500000920E-02 0.  1.
    10030    2    1    2    0    0  0.00000000000E+00  0.00000000000E+00 -0.80534228840E+03  0.38935774932E+04  0.38093791481E+04 0.  0.
        3    1    3    3  502    0 -0.14386332617E+04 -0.11658153748E+04 -0.85868394869E+03  0.20411098167E+04  0.10100000352E+00 0.  1.
       -3    1    3    3    0  502  0.14386332617E+04  0.11658153748E+04  0.53341660294E+02  0.18524676766E+04  0.10100000352E+00 0. -1.
</event>
<event>
 5   0  0.2345471E-07  0.3139296E+04  0.7818609E-02  0.8205035E-01
       -1   -1    0    0    0  501  0.00000000000E+00  0.00000000000E+00  0.20136270837E+04  0.20136270837E+04  0.50400001928E-02 0.  1.
        1   -1    0    0  501    0  0.00000000000E+00  0.00000000000E+00 -0.12235609411E+04  0.12235609411E+04  0.50400001928E-02 0. -1.
    10030    2    1    2    0    0  0.00000000000E+00  0.00000000000E+00  0.79006614260E+03  0.32371880249E+04  0.31392963859E+04 0.  0.
        5    1    3    3  502    0  0.11454483402E+04 -0.41321046805E+03 -0.62629522618E+03  0.13693292486E+04  0.46999998093E+01 0. -1.
       -5    1    3    3    0  502 -0.11454483402E+04  0.41321046805E+03  0.14163613688E+04  0.18678587762E+04  0.46999998093E+01 0.  1.
</event>
<event>
 5   0  0.7074157E-07  0.3804357E+04  0.7818609E-02  0.8045220E-01
       -2   -1    0    0    0  501  0.00000000000E+00  0.00000000000E+00  0.12178773138E+04  0.12178773138E+04  0.25500000920E-02 0.  1.
        2   -1    0    0  501    0  0.00000000000E+00  0.00000000000E+00 -0.29709757714E+04  0.29709757714E+04  0.25500000920E-02 0. -1.
    10030    2    1    2    0    0  0.00000000000E+00  0.00000000000E+00 -0.17530984576E+04  0.41888530851E+04  0.38043574972E+04 0.  0.
        3    1    3    3  502    0  0.77931551497E+03 -0.51642990646E+03 -0.27005531169E+04  0.28577997948E+04  0.10100000352E+00 0. -1.
       -3    1    3    3    0  502 -0.77931551497E+03  0.51642990646E+03  0.94745465922E+03  0.13310532903E+04  0.10100000352E+00 0.  1.
</event>
<event>
 5   0  0.6939921E-07  0.3741023E+04  0.7818609E-02  0.8058931E-01
       -2   -1    0    0    0  501  0.00000000000E+00  0.00000000000E+00  0.19708845190E+04  0.19708845190E+04  0.25500000920E-02 0. -1.
        2   -1    0    0  501    0  0.00000000000E+00  0.00000000000E+00 -0.17752501681E+04  0.17752501681E+04  0.25500000920E-02 0.  1.
    10030    2    1    2    0    0  0.00000000000E+00  0.00000000000E+00  0.19563435086E+03  0.37461346871E+04  0.37410228941E+04 0.  0.
        4    1    3    3  502    0 -0.38903854231E+03  0.18136383381E+03  0.19209002720E+04  0.19682741922E+04  0.12699999809E+01 0. -1.
       -4    1    3    3    0  502  0.38903854231E+03 -0.18136383381E+03 -0.17252659212E+04  0.17778604949E+04  0.12699999809E+01 0.  1.
</event>
<event>
 5   0  0.7074157E-07  0.3111968E+04  0.7818609E-02  0.8212461E-01
        2   -1    0    0  501    0  0.00000000000E+00  0.00000000000E+00  0.17562272919E+04  0.17562272919E+04  0.25500000920E-02 0. -1.
       -2   -1    0    0    0  501  0.00000000000E+00  0.00000000000E+00 -0.13785724561E+04  0.13785724561E+04  0.25500000920E-02 0.  1.
    10030    2    1    2    0    0  0.00000000000E+00  0.00000000000E+00  0.37765483586E+03  0.31347997480E+04  0.31119682333E+04 0.  0.
        3    1    3    3  502    0  0.90692953772E+03 -0.12635895381E+04  0.23281533174E+03  0.15726991753E+04  0.10100000352E+00 0.  1.
       -3    1    3    3    0  502 -0.90692953772E+03  0.12635895381E+04  0.14483950412E+03  0.15621005727E+04  0.10100000352E+00 0. -1.
</event>
<event>
 5   0  0.7300916E-07  0.3675583E+04  0.7818609E-02  0.8073395E-01
       -2   -1    0    0    0  501  0.00000000000E+00  0.00000000000E+00  0.12127082567E+04  0.12127082567E+04  0.25500000920E-02 0. -1.
        2   -1    0    0  501    0  0.00000000000E+00  0.00000000000E+00 -0.27850702149E+04  0.27850702149E+04  0.25500000920E-02 0.  1.
    10030    2    1    2    0    0  0.00000000000E+00  0.00000000000E+00 -0.15723619582E+04  0.39977784716E+04  0.36755830259E+04 0.  0.
        1    1    3    3  502    0  0.12331398498E+04 -0.90224612797E+02  0.69267571998E+03  0.14172416953E+04  0.50400001928E-02 0. -1.
       -1    1    3    3    0  502 -0.12331398498E+04  0.90224612797E+02 -0.22650376782E+04  0.25805367762E+04  0.50400001928E-02 0.  1.
</event>
<event>
 5   0  0.2287500E-07  0.3677235E+04  0.7818609E-02  0.8073026E-01
        1   -1    0    0  501    0  0.00000000000E+00  0.00000000000E+00  0.19134894227E+04  0.19134894227E+04  0.50400001928E-02 0. -1.
       -1   -1    0    0    0  501  0.00000000000E+00  0.00000000000E+00 -0.17666751259E+04  0.17666751259E+04  0.50400001928E-02 0.  1.
    10030    2    1    2    0    0  0.00000000000E+00  0.00000000000E+00  0.14681429679E+03  0.36801645487E+04  0.36772349214E+04 0.  0.
        2    1    3    3  502    0 -0.76021451571E+03 -0.16372296771E+04  0.42306643810E+03  0.18540313742E+04  0.25500000920E-02 0. -1.
       -2    1    3    3    0  502  0.76021451571E+03  0.16372296771E+04 -0.27625214131E+03  0.18261331745E+04  0.25500000920E-02 0.  1.
</event>
<event>
 5   0  0.2287500E-07  0.3396069E+04  0.7818609E-02  0.8138872E-01
        1   -1    0    0  501    0  0.00000000000E+00  0.00000000000E+00  0.22659538234E+04  0.22659538234E+04  0.50400001928E-02 0. -1.
       -1   -1    0    0    0  501  0.00000000000E+00  0.00000000000E+00 -0.12724538278E+04  0.12724538278E+04  0.50400001928E-02 0.  1.
    10030    2    1    2    0    0  0.00000000000E+00  0.00000000000E+00  0.99349999565E+03  0.35384076512E+04  0.33960692668E+04 0.  0.
        4    1    3    3  502    0  0.32371022818E+03  0.15690533710E+04 -0.89508273574E+02  0.16045965651E+04  0.12699999809E+01 0.  1.
       -4    1    3    3    0  502 -0.32371022818E+03 -0.15690533710E+04  0.10830082692E+04  0.19338110861E+04  0.12699999809E+01 0. -1.
</event>
<event>
 5   0  0.6949625E-07  0.3682119E+04  0.7818609E-02  0.8071936E-01
       -2   -1    0    0    0  501  0.00000000000E+00  0.00000000000E+00  0.15423332661E+04  0.15423332661E+04  0.25500000920E-02 0.  1.
        2   -1    0    0  501    0  0.00000000000E+00  0.00000000000E+00 -0.21976448869E+04  0.21976448869E+04  0.25500000920E-02 0. -1.
    10030    2    1    2    0    0  0.00000000000E+00  0.00000000000E+00 -0.65531162084E+03  0.37399781530E+04  0.36821193985E+04 0.  0.
        5    1    3    3  502    0 -0.34861908285E+02  0.14548531900E+04 -0.14730570653E+04  0.20706840330E+04  0.46999998093E+01 0. -1.
       -5    1    3    3    0  502  0.34861908285E+02 -0.14548531900E+04  0.81774544443E+03  0.16692941200E+04  0.46999998093E+01 0.  1.
</event>
<event>
 5   0  0.2411746E-07  0.3731715E+04  0.7818609E-02  0.8060969E-01
       -1   -1    0    0    0  501  0.00000000000E+00  0.00000000000E+00  0.16490394774E+04  0.16490394774E+04  0.50400001928E-02 0.  1.
        1   -1    0    0  501    0  0.00000000000E+00  0.00000000000E+00 -0.21111832803E+04  0.21111832803E+04  0.50400001928E-02 0. -1.
    10030    2    1    2    0    0  0.00000000000E+00  0.00000000000E+00 -0.46214380292E+03  0.37602227577E+04  0.37317151945E+04 0.  0.
        1    1    3    3  502    0  0.72727610946E+02  0.17826054677E+04 -0.78155383135E+03  0.19477674272E+04  0.50400001928E-02 0. -1.
       -1    1    3    3    0  502 -0.72727610946E+02 -0.17826054677E+04  0.31941002843E+03  0.18124553306E+04  0.50400001928E-02 0.  1.
</event>
<event>
 5   0  0.2287500E-07  0.3696966E+04  0.7818609E-02  0.8068635E-01
       -1   -1    0    0    0  501  0.00000000000E+00  0.00000000000E+00  0.15830468115E+04  0.15830468115E+04  0.50400001928E-02 0.  1.
        1   -1    0    0  501    0  0.00000000000E+00  0.00000000000E+00 -0.21584256534E+04  0.21584256534E+04  0.50400001928E-02 0. -1.
    10030    2    1    2    0    0  0.00000000000E+00  0.00000000000E+00 -0.57537884189E+03  0.37414724649E+04  0.36969657009E+04 0.  0.
        4    1    3    3  502    0 -0.37386525555E+03  0.17512392080E+03  0.15357908315E+04  0.15903140281E+04  0.12699999809E+01 0.  1.
       -4    1    3    3    0  502  0.37386525555E+03 -0.17512392080E+03 -0.21111696734E+04  0.21511584367E+04  0.12699999809E+01 0. -1.
</event>
<event>
 5   0  0.2345471E-07  0.3747880E+04  0.7818609E-02  0.8057433E-01
       -1   -1    0    0    0  501  0.00000000000E+00  0.00000000000E+00  0.13854735854E+04  0.13854735854E+04  0.50400001928E-02 0.  1.
        1   -1    0    0  501    0  0.00000000000E+00  0.00000000000E+00 -0.25346219018E+04  0.25346219018E+04  0.50400001928E-02 0. -1.
    10030    2    1    2    0    0  0.00000000000E+00  0.00000000000E+00 -0.11491483164E+04  0.39200954872E+04  0.37478803043E+04 0.  0.
        5    1    3    3  502    0 -0.13969436233E+04  0.11761190304E+04 -0.10145228493E+04  0.20890155964E+04  0.46999998093E+01 0. -1.
       -5    1    3    3    0  502  0.13969436233E+04 -0.11761190304E+04 -0.13462546707E+03  0.18310798908E+04  0.46999998093E+01 0.  1.
</event>
<event>
 5   0  0.6939921E-07  0.4000333E+04  0.7818609E-02  0.8004479E-01
        2   -1    0    0  501    0  0.00000000000E+00  0.00000000000E+00  0.21711116401E+04  0.21711116401E+04  0.25500000920E-02 0.  1.
       -2   -1    0    0    0  501  0.00000000000E+00  0.00000000000E+00 -0.18426809393E+04  0.18426809393E+04  0.25500000920E-02 0. -1.
    10030    2    1    2    0    0  0.00000000000E+00  0.00000000000E+00  0.32843070085E+03  0.40137925794E+04  0.40003330043E+04 0.  0.
        4    1    3    3  502    0 -0.15399197303E+04 -0.11449265960E+04 -0.40200130143E+03  0.19605653127E+04  0.12699999809E+01 0. -1.
       -4    1    3    3    0  502  0.15399197303E+04  0.11449265960E+04  0.73043200228E+03  0.20532272667E+04  0.12699999809E+01 0.  1.
</event>
<event>
 5   0  0.2411746E-07  0.3703359E+04  0.7818609E-02  0.8067218E-01
       -1   -1    0    0    0  501  0.00000000000E+00  0.00000000000E+00  0.17480766592E+04  0.17480766592E+04  0.50400001928E-02 0.  1.
        1   -1    0    0  501    0  0.00000000000E+00  0.00000000000E+00 -0.19614222542E+04  0.19614222542E+04  0.50400001928E-02 0. -1.
    10030    2    1    2    0    0  0.00000000000E+00  0.00000000000E+00 -0.21334559494E+03  0.37094989134E+04  0.37033587249E+04 0.  0.
        1    1    3    3  502    0  0.14325874601E+03  0.18126746325E+04 -0.45711580218E+03  0.18749045971E+04  0.50400001928E-02 0. -1.
       -1    1    3    3    0  502 -0.14325874601E+03 -0.18126746325E+04  0.24377020724E+03  0.18345943163E+04  0.50400001928E-02 0.  1.
</event>
<event>
 5   0  0.7124627E-07  0.3701766E+04  0.7818609E-02  0.8067571E-01
       -2   -1    0    0    0  501  0.00000000000E+00  0.00000000000E+00  0.17475188243E+04  0.17475188243E+04  0.25500000920E-02 0. -1.
        2   -1    0    0  501    0  0.00000000000E+00  0.00000000000E+00 -0.19603609141E+04  0.19603609141E+04  0.25500000920E-02 0.  1.
    10030    2    1    2    0    0  0.00000000000E+00  0.00000000000E+00 -0.21284208981E+03  0.37078797383E+04  0.37017658487E+04 0.  0.
        2    1    3    3  502    0  0.49162299662E+03 -0.44815386311E+03 -0.18364773969E+04  0.19532496730E+04  0.25500000920E-02 0.  1.
       -2    1    3    3    0  502 -0.49162299662E+03  0.44815386311E+03  0.16236353071E+04  0.17546300653E+04  0.25500000920E-02 0. -1.
</event>
<event>
 5   0  0.6949625E-07  0.3715309E+04  0.7818609E-02  0.8064578E-01
       -2   -1    0    0    0  501  0.00000000000E+00  0.00000000000E+00  0.13446745893E+04  0.13446745893E+04  0.25500000920E-02 0.  1.
        2   -1    0    0  501    0  0.00000000000E+00  0.00000000000E+00 -0.25663307831E+04  0.25663307831E+04  0.25500000920E-02 0. -1.
    10030    2    1    2    0    0  0.00000000000E+00  0.00000000000E+00 -0.12216561938E+04  0.39110053723E+04  0.37153087579E+04 0.  0.
        5    1    3    3  502    0 -0.62579072832E+03 -0.14233766024E+03 -0.24459194272E+04  0.25287186438E+04  0.46999998093E+01 0. -1.
       -5    1    3    3    0  502  0.62579072832E+03  0.14233766024E+03  0.12242632334E+04  0.13822867285E+04  0.46999998093E+01 0.  1.
</event>
<event>
 5   0  0.2287500E-07  0.2821518E+04  0.7818609E-02  0.8296619E-01
       -1   -1    0    0    0  501  0.00000000000E+00  0.00000000000E+00  0.18895606983E+04  0.18895606983E+04  0.50400001928E-02 0.  1.
        1   -1    0    0  501    0  0.00000000000E+00  0.00000000000E+00 -0.10532821566E+04  0.10532821566E+04  0.50400001928E-02 0. -1.
    10030    2    1    2    0    0  0.00000000000E+00  0.00000000000E+00  0.83627854174E+03  0.29428428549E+04  0.28215177244E+04 0.  0.
        3    1    3    3  502    0  0.10112824139E+04  0.16881226329E+03 -0.59257604187E+03  0.11842027177E+04  0.10100000352E+00 0. -1.
       -3    1    3    3    0  502 -0.10112824139E+04 -0.16881226329E+03  0.14288545836E+04  0.17586401372E+04  0.10100000352E+00 0.  1.
</event>
<event>
 5   0  0.2345471E-07  0.3430499E+04  0.7818609E-02  0.8130461E-01
        1   -1    0    0  501    0  0.00000000000E+00  0.00000000000E+00  0.20529348873E+04  0.20529348873E+04  0.50400001928E-02 0.  1.
       -1   -1    0    0    0  501  0.00000000000E+00  0.00000000000E+00 -0.14331100724E+04  0.14331100724E+04  0.50400001928E-02 0. -1.
    10030    2    1    2    0    0  0.00000000000E+00  0.00000000000E+00  0.61982481493E+03  0.34860449597E+04  0.34304994767E+04 0.  0.
        5    1    3    3  502    0 -0.89632120647E+03 -0.91242864373E+03 -0.85145811114E+03  0.15365287957E+04  0.46999998093E+01 0. -1.
       -5    1    3    3    0  502  0.89632120647E+03  0.91242864373E+03  0.14712829261E+04  0.19495161640E+04  0.46999998093E+01 0.  1.
</event>
<event>
 5   0  0.7124627E-07  0.3730138E+04  0.7818609E-02  0.8061316E-01
       -2   -1    0    0    0  501  0.00000000000E+00  0.00000000000E+00  0.16090511828E+04  0.16090511828E+04  0.25500000920E-02 0.  1.
        2   -1    0    0  501    0  0.00000000000E+00  0.00000000000E+00 -0.21618219522E+04  0.21618219522E+04  0.25500000920E-02 0. -1.
    10030    2    1    2    0    0  0.00000000000E+00  0.00000000000E+00 -0.55277076938E+03  0.37708731351E+04  0.37301378898E+04 0.  0.
        2    1    3    3  502    0  0.72631758259E+03 -0.87975128454E+03  0.12151876233E+04  0.16667874829E+04  0.25500000920E-02 0.  1.
       -2    1    3    3    0  502 -0.72631758259E+03  0.87975128454E+03 -0.17679583927E+04  0.21040856521E+04  0.25500000920E-02 0. -1.
</event>
<event>
 5   0  0.2287500E-07  0.3679354E+04  0.7818609E-02  0.8072553E-01
       -1   -1    0    0    0  501  0.00000000000E+00  0.00000000000E+00  0.11821402443E+04  0.11821402443E+04  0.50400001928E-02 0. -1.
        1   -1    0    0  501    0  0.00000000000E+00  0.00000000000E+00 -0.28629522166E+04  0.28629522167E+04  0.50400001928E-02 0.  1.
    10030    2    1    2    0    0  0.00000000000E+00  0.00000000000E+00 -0.16808119724E+04  0.40450924609E+04  0.36793537654E+04 0.  0.
        4    1    3    3  502    0 -0.51917183023E+03 -0.17378087353E+04 -0.50174198990E+03  0.18818249725E+04  0.12699999809E+01 0.  1.
       -4    1    3    3    0  502  0.51917183023E+03  0.17378087353E+04 -0.11790699825E+04  0.21632674884E+04  0.12699999809E+01 0. -1.
</event>
<event>
 5   0  0.7074157E-07  0.3515457E+04  0.7818609E-02  0.8110137E-01
        2   -1    0    0  501    0  0.00000000000E+00  0.00000000000E+00  0.21681752060E+04  0.21681752060E+04  0.25500000920E-02 0.  1.
       -2   -1    0    0    0  501  0.00000000000E+00  0.00000000000E+00 -0.14249815148E+04  0.14249815148E+04  0.25500000920E-02 0. -1.
    10030    2    1    2    0    0  0.00000000000E+00  0.00000000000E+00  0.74319369127E+03  0.35931567208E+04  0.35154570624E+04 0.  0.
        3    1    3    3  502    0 -0.71042725502E+03 -0.85599125135E+03 -0.10194320556E+04  0.15088636894E+04  0.10100000352E+00 0. -1.
       -3    1    3    3    0  502  0.71042725502E+03  0.85599125135E+03  0.17626257469E+04  0.20842930314E+04  0.10100000352E+00 0.  1.
</event>
<event>
 5   0  0.6949625E-07  0.3686655E+04  0.7818609E-02  0.8070926E-01
        2   -1    0    0  501    0  0.00000000000E+00  0.00000000000E+00  0.20731954212E+04  0.20731954212E+04  0.25500000920E-02 0.  1.
       -2   -1    0    0    0  501  0.00000000000E+00  0.00000000000E+00 -0.16389463056E+04  0.16389463056E+04  0.25500000920E-02 0. -1.
    10030    2    1    2    0    0  0.00000000000E+00  0.00000000000E+00  0.43424911557E+03  0.37121417267E+04  0.36866548394E+04 0.  0.
        5    1    3    3  502    0 -0.66975276834E+03  0.27599314375E+03 -0.14896136244E+04  0.16564153543E+04  0.46999998093E+01 0. -1.
       -5    1    3    3    0  502  0.66975276834E+03 -0.27599314375E+03  0.19238627400E+04  0.20557263724E+04  0.46999998093E+01 0.  1.
</event>
<event>
 5   0  0.6939921E-07  0.3687406E+04  0.7818609E-02  0.8070758E-01
       -2   -1    0    0    0  501  0.00000000000E+00  0.00000000000E+00  0.16021827869E+04  0.16021827869E+04  0.25500000920E-02 0. -1.
        2   -1    0    0  501    0  0.00000000000E+00  0.00000000000E+00 -0.21216315829E+04  0.21216315829E+04  0.25500000920E-02 0.  1.
    10030    2    1    2    0    0  0.00000000000E+00  0.00000000000E+00 -0.51944879606E+03  0.37238143698E+04  0.36874064610E+04 0.  0.
        4    1    3    3  502    0 -0.17194681914E+04 -0.66533047389E+03 -0.25758481653E+03  0.18616087267E+04  0.12699999809E+01 0.  1.
       -4    1    3    3    0  502  0.17194681914E+04  0.66533047389E+03 -0.26186397953E+03  0.18622056431E+04  0.12699999809E+01 0. -1.
</event>
<event>
 5   0  0.2287500E-07  0.3709472E+04  0.7818609E-02  0.8065866E-01
        1   -1    0    0  501    0  0.00000000000E+00  0.00000000000E+00  0.20691708743E+04  0.20691708744E+04  0.50400001928E-02 0.  1.
       -1   -1    0    0    0  501  0.00000000000E+00  0.00000000000E+00 -0.16625240895E+04  0.16625240895E+04  0.50400001928E-02 0. -1.
    10030    2    1    2    0    0  0.00000000000E+00  0.00000000000E+00  0.40664678480E+03  0.37316949639E+04  0.37094724283E+04 0.  0.
        4    1    3    3  502    0  0.63694012999E+03 -0.68185339494E+03  0.18158697840E+04  0.20415683841E+04  0.12699999809E+01 0.  1.
       -4    1    3    3    0  502 -0.63694012999E+03  0.68185339494E+03 -0.14092229992E+04  0.16901265798E+04  0.12699999809E+01 0. -1.
</event>
<event>
 5   0  0.7300916E-07  0.3811130E+04  0.7818609E-02  0.8043771E-01
       -2   -1    0    0    0  501  0.00000000000E+00  0.00000000000E+00  0.15933114871E+04  0.15933114871E+04  0.25500000920E-02 0. -1.
        2   -1    0    0  501    0  0.00000000000E+00  0.00000000000E+00 -0.22790127416E+04  0.22790127416E+04  0.25500000920E-02 0.  1.
    10030    2    1    2    0    0  0.00000000000E+00  0.00000000000E+00 -0.68570125457E+03  0.38723242287E+04  0.38111295861E+04 0.  0.
        1    1    3    3  502    0  0.91152163210E+03 -0.50570800404E+03  0.12779319684E+04  0.16491580843E+04  0.50400001928E-02 0. -1.
       -1    1    3    3    0  502 -0.91152163210E+03  0.50570800404E+03 -0.19636332230E+04  0.22231661444E+04  0.50400001928E-02 0.  1.
</event>
<event>
 5   0  0.2287500E-07  0.3529829E+04  0.7818609E-02  0.8106757E-01
        1   -1    0    0  501    0  0.00000000000E+00  0.00000000000E+00  0.12315618328E+04  0.12315618328E+04  0.50400001928E-02 0.  1.
       -1   -1    0    0    0  501  0.00000000000E+00  0.00000000000E+00 -0.25292467222E+04  0.25292467222E+04  0.50400001928E-02 0. -1.
    10030    2    1    2    0    0  0.00000000000E+00  0.00000000000E+00 -0.12976848894E+04  0.37608085550E+04  0.35298293040E+04 0.  0.
        4    1    3    3  502    0  0.50375693727E+03 -0.71631255706E+03  0.98376190917E+03  0.13170663757E+04  0.12699999809E+01 0.  1.
       -4    1    3    3    0  502 -0.50375693727E+03  0.71631255706E+03 -0.22814467986E+04  0.24437421793E+04  0.12699999809E+01 0. -1.
</event>
<event>
 5   0  0.6939921E-07  0.3550922E+04  0.7818609E-02  0.8101827E-01
       -2   -1    0    0    0  501  0.00000000000E+00  0.00000000000E+00  0.16300693294E+04  0.16300693294E+04  0.25500000920E-02 0.  1.
        2   -1    0    0  501    0  0.00000000000E+00  0.00000000000E+00 -0.19338210488E+04  0.19338210488E+04  0.25500000920E-02 0. -1.
    10030    2    1    2    0    0  0.00000000000E+00  0.00000000000E+00 -0.30375171942E+03  0.35638903782E+04  0.35509223479E+04 0.  0.
        4    1    3    3  502    0  0.15181133699E+04  0.82276252272E+03 -0.56648789071E+03  0.18172827287E+04  0.12699999809E+01 0. -1.
       -4    1    3    3    0  502 -0.15181133699E+04 -0.82276252272E+03  0.26273617129E+03  0.17466076495E+04  0.12699999809E+01 0.  1.
</event>
<event>
 5   0  0.2411746E-07  0.3951770E+04  0.7818609E-02  0.8014347E-01
       -1   -1    0    0    0  501  0.00000000000E+00  0.00000000000E+00  0.29957599343E+04  0.29957599343E+04  0.50400001928E-02 0. -1.
        1   -1    0    0  501    0  0.00000000000E+00  0.00000000000E+00 -0.13032158984E+04  0.13032158984E+04  0.50400001928E-02 0.  1.
    10030    2    1    2    0    0  0.00000000000E+00  0.00000000000E+00  0.16925440359E+04  0.42989758328E+04  0.39517702232E+04 0.  0.
        1    1    3    3  502    0 -0.16134225207E+04 -0.24991815009E+03  0.20569445819E+04  0.26261401953E+04  0.50400001928E-02 0. -1.
       -1    1    3    3    0  502  0.16134225207E+04  0.24991815009E+03 -0.36440054601E+03  0.16728356375E+04  0.50400001928E-02 0.  1.
</event>
<event>
 5   0  0.6949625E-07  0.3702190E+04  0.7818609E-02  0.8067477E-01
       -2   -1    0    0    0  501  0.00000000000E+00  0.00000000000E+00  0.15830301294E+04  0.15830301294E+04  0.25500000920E-02 0.  1.
        2   -1    0    0  501    0  0.00000000000E+00  0.00000000000E+00 -0.21645526266E+04  0.21645526266E+04  0.25500000920E-02 0. -1.
    10030    2    1    2    0    0  0.00000000000E+00  0.00000000000E+00 -0.58152249718E+03  0.37475827559E+04  0.37021896356E+04 0.  0.
        5    1    3    3  502    0  0.12773880340E+04 -0.12492356400E+04 -0.78065806374E+03  0.19498099846E+04  0.46999998093E+01 0.  1.
       -5    1    3    3    0  502 -0.12773880340E+04  0.12492356400E+04  0.19913556656E+03  0.17977727713E+04  0.46999998093E+01 0. -1.
</event>
<event>
 5   0  0.6949625E-07  0.3672872E+04  0.7818609E-02  0.8074000E-01
       -2   -1    0    0    0  501  0.00000000000E+00  0.00000000000E+00  0.14293391299E+04  0.14293391299E+04  0.25500000920E-02 0. -1.
        2   -1    0    0  501    0  0.00000000000E+00  0.00000000000E+00 -0.23594799859E+04  0.23594799859E+04  0.25500000920E-02 0.  1.
    10030    2    1    2    0    0  0.00000000000E+00  0.00000000000E+00 -0.93014085598E+03  0.37888191158E+04  0.36728719390E+04 0.  0.
        5    1    3    3  502    0 -0.46822392781E+02 -0.42991695975E+03  0.13760566195E+04  0.14424197860E+04  0.46999998093E+01 0. -1.
       -5    1    3    3    0  502  0.46822392781E+02  0.42991695975E+03 -0.23061974755E+04  0.23463993298E+04  0.46999998093E+01 0.  1.
</event>
<event>
 5   0  0.7124627E-07  0.3926360E+04  0.7818609E-02  0.8019569E-01
        2   -1    0    0  501    0  0.00000000000E+00  0.00000000000E+00  0.24611868825E+04  0.24611868825E+04  0.25500000920E-02 0.  1.
       -2   -1    0    0    0  501  0.00000000000E+00  0.00000000000E+00 -0.15659422473E+04  0.15659422473E+04  0.25500000920E-02 0. -1.
    10030    2    1    2    0    0  0.00000000000E+00  0.00000000000E+00  0.89524463521E+03  0.40271291299E+04  0.39263604103E+04 0.  0.
        2    1    3    3  502    0 -0.58981365819E+01  0.18877236627E+04 -0.10523006310E+03  0.18906635821E+04  0.25500000920E-02 0.  1.
       -2    1    3    3    0  502  0.58981365819E+01 -0.18877236627E+04  0.10004746983E+04  0.21364655477E+04  0.25500000920E-02 0. -1.
</event>
<event>
 5   0  0.7124627E-07  0.3729450E+04  0.7818609E-02  0.8061467E-01
        2   -1    0    0  501    0  0.00000000000E+00  0.00000000000E+00  0.26947993040E+04  0.26947993040E+04  0.25500000920E-02 0.  1.
       -2   -1    0    0    0  501  0.00000000000E+00  0.00000000000E+00 -0.12903368080E+04  0.12903368080E+04  0.25500000920E-02 0. -1.
    10030    2    1    2    0    0  0.00000000000E+00  0.00000000000E+00  0.14044624960E+04  0.39851361121E+04  0.37294496818E+04 0.  0.
        2    1    3    3  502    0 -0.18533234398E+04  0.14992346547E+03  0.85302269996E+03  0.20457107676E+04  0.25500000920E-02 0. -1.
       -2    1    3    3    0  502  0.18533234398E+04 -0.14992346547E+03  0.55143979607E+03  0.19394253445E+04  0.25500000920E-02 0.  1.
</event>
<event>
 5   0  0.7300916E-07  0.3677780E+04  0.7818609E-02  0.8072904E-01
       -2   -1    0    0    0  501  0.00000000000E+00  0.00000000000E+00  0.12988269485E+04  0.12988269485E+04  0.25500000920E-02 0.  1.
        2   -1    0    0  501    0  0.00000000000E+00  0.00000000000E+00 -0.26035150701E+04  0.26035150701E+04  0.25500000920E-02 0. -1.
    10030    2    1    2    0    0  0.00000000000E+00  0.00000000000E+00 -0.13046881216E+04  0.39023420186E+04  0.36777795115E+04 0.  0.
        1    1    3    3  502    0  0.12165043417E+04  0.33844765204E+03  0.76610046704E+03  0.14769358659E+04  0.50400001928E-02 0.  1.
       -1    1    3    3    0  502 -0.12165043417E+04 -0.33844765204E+03 -0.20707885886E+04  0.24254061527E+04  0.50400001928E-02 0. -1.
</event>
<event>
 5   0  0.2345471E-07  0.3693761E+04  0.7818609E-02  0.8069346E-01
        1   -1    0    0  501    0  0.00000000000E+00  0.00000000000E+00  0.24569867397E+04  0.24569867397E+04  0.50400001928E-02 0.  1.
       -1   -1    0    0    0  501  0.00000000000E+00  0.00000000000E+00 -0.13882726257E+04  0.13882726257E+04  0.50400001928E-02 0. -1.
    10030    2    1    2    0    0  0.00000000000E+00  0.00000000000E+00  0.10687141140E+04  0.38452593654E+04  0.36937609194E+04 0.  0.
        5    1    3    3  502    0  0.13647172604E+04 -0.11510315043E+04  0.10266355197E+04  0.20594487867E+04  0.46999998093E+01 0.  1.
       -5    1    3    3    0  502 -0.13647172604E+04  0.11510315043E+04  0.42078594266E+02  0.17858105787E+04  0.46999998093E+01 0. -1.
</event>
<event>
 5   0  0.2287500E-07  0.3382362E+04  0.7818609E-02  0.8142249E-01
        1   -1    0    0  501    0  0.00000000000E+00  0.00000000000E+00  0.26684943769E+04  0.26684943769E+04  0.50400001928E-02 0.  1.
       -1   -1    0    0    0  501  0.00000000000E+00  0.00000000000E+00 -0.10718003948E+04  0.10718003949E+04  0.50400001928E-02 0. -1.
    10030    2    1    2    0    0  0.00000000000E+00  0.00000000000E+00  0.15966939820E+04  0.37402947718E+04  0.33823620899E+04 0.  0.
        3    1    3    3  502    0 -0.13021436209E+04  0.10789716360E+04  0.81860245591E+03  0.18787942388E+04  0.10100000352E+00 0.  1.
       -3    1    3    3    0  502  0.13021436209E+04 -0.10789716360E+04  0.77809152614E+03  0.18615005329E+04  0.10100000352E+00 0. -1.
</event>
<event>
 5   0  0.7074157E-07  0.3685850E+04  0.7818609E-02  0.8071105E-01
        2   -1    0    0  501    0  0.00000000000E+00  0.00000000000E+00  0.24166115405E+04  0.24166115405E+04  0.25500000920E-02 0.  1.
       -2   -1    0    0    0  501  0.00000000000E+00  0.00000000000E+00 -0.14054278482E+04  0.14054278482E+04  0.25500000920E-02 0. -1.
    10030    2    1    2    0    0  0.00000000000E+00  0.00000000000E+00  0.10111836923E+04  0.38220393887E+04  0.36858503265E+04 0.  0.
        3    1    3    3  502    0 -0.17173239181E+04 -0.66848550420E+03  0.52351752619E+03  0.19157622293E+04  0.10100000352E+00 0.  1.
       -3    1    3    3    0  502  0.17173239181E+04  0.66848550420E+03  0.48766616606E+03  0.19062771594E+04  0.10100000352E+00 0. -1.
</event>
<event>
 5   0  0.2411746E-07  0.3623543E+04  0.7818609E-02  0.8085120E-01
        1   -1    0    0  501    0  0.00000000000E+00  0.00000000000E+00  0.27738307056E+04  0.27738307056E+04  0.50400001928E-02 0. -1.
       -1   -1    0    0    0  501  0.00000000000E+00  0.00000000000E+00 -0.11833875170E+04  0.11833875170E+04  0.50400001928E-02 0.  1.
    10030    2    1    2    0    0  0.00000000000E+00  0.00000000000E+00  0.15904431886E+04  0.39572182227E+04  0.36235433660E+04 0.  0.
        1    1    3    3  502    0  0.16319926234E+04 -0.37435664169E+03  0.15510312262E+04  0.22823761045E+04  0.50400001928E-02 0. -1.
       -1    1    3    3    0  502 -0.16319926234E+04  0.37435664169E+03  0.39411962465E+02  0.16748421181E+04  0.50400001928E-02 0.  1.
</event>
<event>
 5   0  0.7124627E-07  0.3614075E+04  0.7818609E-02  0.8087275E-01
        2   -1    0    0  501    0  0.00000000000E+00  0.00000000000E+00  0.20892632744E+04  0.20892632744E+04  0.25500000920E-02 0. -1.
       -2   -1    0    0    0  501  0.00000000000E+00  0.00000000000E+00 -0.15629358350E+04  0.15629358350E+04  0.25500000920E-02 0.  1.
    10030    2    1    2    0    0  0.00000000000E+00  0.00000000000E+00  0.52632743937E+03  0.36521991094E+04  0.36140749523E+04 0.  0.
        2    1    3    3  502    0 -0.79301796966E+03 -0.19347039939E+03  0.18923351766E+04  0.20608834795E+04  0.25500000920E-02 0. -1.
       -2    1    3    3    0  502  0.79301796966E+03  0.19347039939E+03 -0.13660077372E+04  0.15913156298E+04  0.25500000920E-02 0.  1.
</event>
<event>
 5   0  0.2287500E-07  0.3701739E+04  0.7818609E-02  0.8067576E-01
        1   -1    0    0  501    0  0.00000000000E+00  0.00000000000E+00  0.22296225165E+04  0.22296225165E+04  0.50400001928E-02 0. -1.
       -1   -1    0    0    0  501  0.00000000000E+00  0.00000000000E+00 -0.15364568548E+04  0.15364568548E+04  0.50400001928E-02 0.  1.
    10030    2    1    2    0    0  0.00000000000E+00  0.00000000000E+00  0.69316566175E+03  0.37660793713E+04  0.37017394825E+04 0.  0.
        4    1    3    3  502    0 -0.17097558810E+04  0.65683351764E+03  0.75451764072E+02  0.18331366627E+04  0.12699999809E+01 0.  1.
       -4    1    3    3    0  502  0.17097558810E+04 -0.65683351764E+03  0.61771389768E+03  0.19329427086E+04  0.12699999809E+01 0. -1.
</event>
<event>
 5   0  0.2411746E-07  0.3393215E+04  0.7818609E-02  0.8139574E-01
       -1   -1    0    0    0  501  0.00000000000E+00  0.00000000000E+00  0.16721387282E+04  0.16721387282E+04  0.50400001928E-02 0.  1.
        1   -1    0    0  501    0  0.00000000000E+00  0.00000000000E+00 -0.17214342877E+04  0.17214342877E+04  0.50400001928E-02 0. -1.
    10030    2    1    2    0    0  0.00000000000E+00  0.00000000000E+00 -0.49295559442E+02  0.33935730159E+04  0.33932149596E+04 0.  0.
        1    1    3    3  502    0  0.98297753179E+03 -0.12607102938E+04  0.54360375310E+03  0.16885319995E+04  0.50400001928E-02 0.  1.
       -1    1    3    3    0  502 -0.98297753179E+03  0.12607102938E+04 -0.59289931254E+03  0.17050410164E+04  0.50400001928E-02 0. -1.
</event>
<event>
 5   0  0.2287500E-07  0.3641574E+04  0.7818609E-02  0.8081035E-01
        1   -1    0    0  501    0  0.00000000000E+00  0.00000000000E+00  0.29874255674E+04  0.29874255674E+04  0.50400001928E-02 0. -1.
       -1   -1    0    0    0  501  0.00000000000E+00  0.00000000000E+00 -0.11097396392E+04  0.11097396392E+04  0.50400001928E-02 0.  1.
    10030    2    1    2    0    0  0.00000000000E+00  0.00000000000E+00  0.18776859283E+04  0.40971652066E+04  0.36415736001E+04 0.  0.
        2    1    3    3  502    0  0.17074167726E+04 -0.44013126278E+03  0.42784426438E+03  0.18143974974E+04  0.25500000920E-02 0. -1.
       -2    1    3    3    0  502 -0.17074167726E+04  0.44013126278E+03  0.14498416639E+04  0.22827677092E+04  0.25500000920E-02 0.  1.
</event>
<event>
 5   0  0.2287500E-07  0.3655075E+04  0.7818609E-02  0.8077991E-01
        1   -1    0    0  501    0  0.00000000000E+00  0.00000000000E+00  0.24475605466E+04  0.24475605466E+04  0.50400001928E-02 0. -1.
       -1   -1    0    0    0  501  0.00000000000E+00  0.00000000000E+00 -0.13645806788E+04  0.13645806788E+04  0.50400001928E-02 0.  1.
    10030    2    1    2    0    0  0.00000000000E+00  0.00000000000E+00  0.10829798678E+04  0.38121412254E+04  0.36550752836E+04 0.  0.
        3    1    3    3  502    0  0.16656116062E+04 -0.75183384058E+03  0.56175891693E+03  0.19118287678E+04  0.10100000352E+00 0. -1.
       -3    1    3    3    0  502 -0.16656116062E+04  0.75183384058E+03  0.52122095086E+03  0.19003124576E+04  0.10100000352E+00 0.  1.
</event>
<event>
 5   0  0.6939921E-07  0.3759755E+04  0.7818609E-02  0.8054847E-01
       -2   -1    0    0    0  501  0.00000000000E+00  0.00000000000E+00  0.11328688110E+04  0.11328688110E+04  0.25500000920E-02 0. -1.
        2   -1    0    0  501    0  0.00000000000E+00  0.00000000000E+00 -0.31194600142E+04  0.31194600142E+04  0.25500000920E-02 0.  1.
    10030    2    1    2    0    0  0.00000000000E+00  0.00000000000E+00 -0.19865912032E+04  0.42523288252E+04  0.37597547565E+04 0.  0.
        4    1    3    3  502    0  0.16756113748E+04  0.41798741839E+03 -0.18332581417E+04  0.25185757857E+04  0.12699999809E+01 0.  1.
       -4    1    3    3    0  502 -0.16756113748E+04 -0.41798741839E+03 -0.15333306158E+03  0.17337530395E+04  0.12699999809E+01 0. -1.
</event>
<event>
 5   0  0.6939921E-07  0.3684420E+04  0.7818609E-02  0.8071423E-01
        2   -1    0    0  501    0  0.00000000000E+00  0.00000000000E+00  0.16265579253E+04  0.16265579253E+04  0.25500000920E-02 0.  1.
       -2   -1    0    0    0  501  0.00000000000E+00  0.00000000000E+00 -0.20864532479E+04  0.20864532479E+04  0.25500000920E-02 0. -1.
    10030    2    1    2    0    0  0.00000000000E+00  0.00000000000E+00 -0.45989532267E+03  0.37130111732E+04  0.36844196645E+04 0.  0.
        4    1    3    3  502    0  0.16833864463E+04  0.74770337193E+03 -0.19996458681E+03  0.18527918688E+04  0.12699999809E+01 0. -1.
       -4    1    3    3    0  502 -0.16833864463E+04 -0.74770337193E+03 -0.25993073585E+03  0.18602193044E+04  0.12699999809E+01 0.  1.
</event>
<event>
 5   0  0.2287500E-07  0.3650959E+04  0.7818609E-02  0.8078918E-01
       -1   -1    0    0    0  501  0.00000000000E+00  0.00000000000E+00  0.14157673137E+04  0.14157673137E+04  0.50400001928E-02 0. -1.
        1   -1    0    0  501    0  0.00000000000E+00  0.00000000000E+00 -0.23537587191E+04  0.23537587191E+04  0.50400001928E-02 0.  1.
    10030    2    1    2    0    0  0.00000000000E+00  0.00000000000E+00 -0.93799140541E+03  0.37695260327E+04  0.36509585912E+04 0.  0.
        2    1    3    3  502    0  0.12265225302E+04  0.50122139018E+03  0.82748887438E+03  0.15621517968E+04  0.25500000920E-02 0. -1.
       -2    1    3    3    0  502 -0.12265225302E+04 -0.50122139018E+03 -0.17654802798E+04  0.22073742359E+04  0.25500000920E-02 0.  1.
</event>
<event>
 5   0  0.6939921E-07  0.3649321E+04  0.7818609E-02  0.8079287E-01
       -2   -1    0    0    0  501  0.00000000000E+00  0.00000000000E+00  0.19653020326E+04  0.19653020326E+04  0.25500000920E-02 0. -1.
        2   -1    0    0  501    0  0.00000000000E+00  0.00000000000E+00 -0.16940833181E+04  0.16940833181E+04  0.25500000920E-02 0.  1.
    10030    2    1    2    0    0  0.00000000000E+00  0.00000000000E+00  0.27121871449E+03  0.36593853507E+04  0.36493206976E+04 0.  0.
        4    1    3    3  502    0 -0.27904625617E+03  0.65954748557E+03  0.18184852065E+04  0.19544205684E+04  0.12699999809E+01 0. -1.
       -4    1    3    3    0  502  0.27904625617E+03 -0.65954748557E+03 -0.15472664920E+04  0.17049647824E+04  0.12699999809E+01 0.  1.
</event>
<event>
 5   0  0.7300916E-07  0.3731452E+04  0.7818609E-02  0.8061027E-01
       -2   -1    0    0    0  501  0.00000000000E+00  0.00000000000E+00  0.13417652018E+04  0.13417652018E+04  0.25500000920E-02 0.  1.
        2   -1    0    0  501    0  0.00000000000E+00  0.00000000000E+00 -0.25942943016E+04  0.25942943016E+04  0.25500000920E-02 0. -1.
    10030    2    1    2    0    0  0.00000000000E+00  0.00000000000E+00 -0.12525290998E+04  0.39360595034E+04  0.37314521662E+04 0.  0.
        1    1    3    3  502    0  0.26995256197E+03  0.16765742903E+04  0.18886837071E+03  0.17086389314E+04  0.50400001928E-02 0.  1.
       -1    1    3    3    0  502 -0.26995256197E+03 -0.16765742903E+04 -0.14413974705E+04  0.22274205720E+04  0.50400001928E-02 0. -1.
</event>
<event>
 5   0  0.6939921E-07  0.3685197E+04  0.7818609E-02  0.8071250E-01
       -2   -1    0    0    0  501  0.00000000000E+00  0.00000000000E+00  0.12867618338E+04  0.12867618338E+04  0.25500000920E-02 0. -1.
        2   -1    0    0  501    0  0.00000000000E+00  0.00000000000E+00 -0.26385370689E+04  0.26385370689E+04  0.25500000920E-02 0.  1.
    10030    2    1    2    0    0  0.00000000000E+00  0.00000000000E+00 -0.13517752351E+04  0.39252989027E+04  0.36851967639E+04 0.  0.
        4    1    3    3  502    0 -0.47332629723E+03 -0.13705085491E+01 -0.25726761058E+04  0.26158561926E+04  0.12699999809E+01 0.  1.
       -4    1    3    3    0  502  0.47332629723E+03  0.13705085491E+01  0.12209008707E+04  0.13094427101E+04  0.12699999809E+01 0. -1.
</event>
<event>
 5   0  0.2345471E-07  0.3718915E+04  0.7818609E-02  0.8063783E-01
       -1   -1    0    0    0  501  0.00000000000E+00  0.00000000000E+00  0.17662603291E+04  0.17662603291E+04  0.50400001928E-02 0. -1.
        1   -1    0    0  501    0  0.00000000000E+00  0.00000000000E+00 -0.19575725741E+04  0.19575725741E+04  0.50400001928E-02 0.  1.
    10030    2    1    2    0    0  0.00000000000E+00  0.00000000000E+00 -0.19131224500E+03  0.37238329031E+04  0.37189153144E+04 0.  0.
        5    1    3    3  502    0  0.18343197142E+04  0.10614922388E+03  0.19031602233E+03  0.18472246073E+04  0.46999998093E+01 0. -1.
       -5    1    3    3    0  502 -0.18343197142E+04 -0.10614922388E+03 -0.38162826733E+03  0.18766082958E+04  0.46999998093E+01 0.  1.
</event>
<event>
 5   0  0.6949625E-07  0.3629850E+04  0.7818609E-02  0.8083688E-01
        2   -1    0    0  501    0  0.00000000000E+00  0.00000000000E+00  0.17163404431E+04  0.17163404431E+04  0.25500000920E-02 0.  1.
       -2   -1    0    0    0  501  0.00000000000E+00  0.00000000000E+00 -0.19191725014E+04  0.19191725014E+04  0.25500000920E-02 0. -1.
    10030    2    1    2    0    0  0.00000000000E+00  0.00000000000E+00 -0.20283205833E+03  0.36355129445E+04  0.36298503448E+04 0.  0.
        5    1    3    3  502    0  0.56713568183E+03 -0.15106228007E+04 -0.93355941502E+03  0.18641833062E+04  0.46999998093E+01 0. -1.
       -5    1    3    3    0  502 -0.56713568183E+03  0.15106228007E+04  0.73072735670E+03  0.17713296383E+04  0.46999998093E+01 0.  1.
</event>
<event>
 5   0  0.2345471E-07  0.3625333E+04  0.7818609E-02  0.8084713E-01
        1   -1    0    0  501    0  0.00000000000E+00  0.00000000000E+00  0.20665577854E+04  0.20665577854E+04  0.50400001928E-02 0. -1.
       -1   -1    0    0    0  501  0.00000000000E+00  0.00000000000E+00 -0.15899679193E+04  0.15899679193E+04  0.50400001928E-02 0.  1.
    10030    2    1    2    0    0  0.00000000000E+00  0.00000000000E+00  0.47658986611E+03  0.36565257047E+04  0.36253334093E+04 0.  0.
        5    1    3    3  502    0 -0.54926572769E+03  0.43993895596E+03  0.19231464827E+04  0.20478656227E+04  0.46999998093E+01 0. -1.
       -5    1    3    3    0  502  0.54926572769E+03 -0.43993895596E+03 -0.14465566166E+04  0.16086600821E+04  0.46999998093E+01 0.  1.
</event>
<event>
 5   0  0.2287500E-07  0.2914605E+04  0.7818609E-02  0.8268545E-01
        1   -1    0    0  501    0  0.00000000000E+00  0.00000000000E+00  0.13695350651E+04  0.13695350651E+04  0.50400001928E-02 0. -1.
       -1   -1    0    0    0  501  0.00000000000E+00  0.00000000000E+00 -0.15506949417E+04  0.15506949417E+04  0.50400001928E-02 0.  1.
    10030    2    1    2    0    0  0.00000000000E+00  0.00000000000E+00 -0.18115987658E+03  0.29202300068E+04  0.29146053578E+04 0.  0.
        3    1    3    3  502    0  0.24477208732E+03 -0.64364139017E+03  0.11962441539E+04  0.13802853690E+04  0.10100000352E+00 0. -1.
       -3    1    3    3    0  502 -0.24477208732E+03  0.64364139017E+03 -0.13774040305E+04  0.15399446378E+04  0.10100000352E+00 0.  1.
</event>
<event>
 5   0  0.7074157E-07  0.3618334E+04  0.7818609E-02  0.8086305E-01
        2   -1    0    0  501    0  0.00000000000E+00  0.00000000000E+00  0.20569965932E+04  0.20569965932E+04  0.25500000920E-02 0.  1.
       -2   -1    0    0    0  501  0.00000000000E+00  0.00000000000E+00 -0.15911961405E+04  0.15911961405E+04  0.25500000920E-02 0. -1.
    10030    2    1    2    0    0  0.00000000000E+00  0.00000000000E+00  0.46580045270E+03  0.36481927336E+04  0.36183338928E+04 0.  0.
        3    1    3    3  502    0 -0.11620809302E+04 -0.10899502922E+04  0.10970971496E+04  0.19344368415E+04  0.10100000352E+00 0.  1.
       -3    1    3    3    0  502  0.11620809302E+04  0.10899502922E+04 -0.63129669693E+03  0.17137558921E+04  0.10100000352E+00 0. -1.
</event>
<event>
 5   0  0.2411746E-07  0.3764825E+04  0.7818609E-02  0.8053746E-01
        1   -1    0    0  501    0  0.00000000000E+00  0.00000000000E+00  0.17355811083E+04  0.17355811083E+04  0.50400001928E-02 0. -1.
       -1   -1    0    0    0  501  0.00000000000E+00  0.00000000000E+00 -0.20416656449E+04  0.20416656450E+04  0.50400001928E-02 0.  1.
    10030    2    1    2    0    0  0.00000000000E+00  0.00000000000E+00 -0.30608453662E+03  0.37772467533E+04  0.37648247358E+04 0.  0.
        1    1    3    3  502    0 -0.50525085961E+03 -0.37784759762E+03 -0.19324297972E+04  0.20328138526E+04  0.50400001928E-02 0.  1.
       -1    1    3    3    0  502  0.50525085961E+03  0.37784759762E+03  0.16263452606E+04  0.17444329007E+04  0.50400001928E-02 0. -1.
</event>
<event>
 5   0  0.2287500E-07  0.3659379E+04  0.7818609E-02  0.8077024E-01
       -1   -1    0    0    0  501  0.00000000000E+00  0.00000000000E+00  0.20145844549E+04  0.20145844550E+04  0.50400001928E-02 0. -1.
        1   -1    0    0  501    0  0.00000000000E+00  0.00000000000E+00 -0.16617635721E+04  0.16617635721E+04  0.50400001928E-02 0.  1.
    10030    2    1    2    0    0  0.00000000000E+00  0.00000000000E+00  0.35282088288E+03  0.36763480270E+04  0.36593786686E+04 0.  0.
        4    1    3    3  502    0  0.10609014434E+04 -0.88306154386E+02  0.16714144658E+04  0.19816502666E+04  0.12699999809E+01 0. -1.
       -4    1    3    3    0  502 -0.10609014434E+04  0.88306154386E+02 -0.13185935830E+04  0.16946977605E+04  0.12699999809E+01 0.  1.
</event>
<event>
 5   0  0.2345471E-07  0.3686274E+04  0.7818609E-02  0.8071010E-01
       -1   -1    0    0    0  501  0.00000000000E+00  0.00000000000E+00  0.14770258217E+04  0.14770258217E+04  0.50400001928E-02 0.  1.
        1   -1    0    0  501    0  0.00000000000E+00  0.00000000000E+00 -0.22999963634E+04  0.22999963634E+04  0.50400001928E-02 0. -1.
    10030    2    1    2    0    0  0.00000000000E+00  0.00000000000E+00 -0.82297054170E+03  0.37770221851E+04  0.36862740097E+04 0.  0.
        5    1    3    3  502    0  0.45244042956E+03  0.25789736997E+03  0.14000664970E+04  0.14937943907E+04  0.46999998093E+01 0.  1.
       -5    1    3    3    0  502 -0.45244042956E+03 -0.25789736997E+03 -0.22230370387E+04  0.22832277944E+04  0.46999998093E+01 0. -1.
</event>
<event>
 5   0  0.2287500E-07  0.3149942E+04  0.7818609E-02  0.8202164E-01
        1   -1    0    0  501    0  0.00000000000E+00  0.00000000000E+00  0.13749968526E+04  0.13749968526E+04  0.50400001928E-02 0. -1.
       -1   -1    0    0    0  501  0.00000000000E+00  0.00000000000E+00 -0.18040289269E+04  0.18040289269E+04  0.50400001928E-02 0.  1.
    10030    2    1    2    0    0  0.00000000000E+00  0.00000000000E+00 -0.42903207429E+03  0.31790257795E+04  0.31499422830E+04 0.  0.
        4    1    3    3  502    0 -0.56381026239E+03  0.11539490297E+04  0.70552157337E+03  0.14653472894E+04  0.12699999809E+01 0.  1.
       -4    1    3    3    0  502  0.56381026239E+03 -0.11539490297E+04 -0.11345536477E+04  0.17136784901E+04  0.12699999809E+01 0. -1.
</event>
<event>
 5   0  0.2411746E-07  0.3340754E+04  0.7818609E-02  0.8152602E-01
       -1   -1    0    0    0  501  0.00000000000E+00  0.00000000000E+00  0.19224046997E+04  0.19224046997E+04  0.50400001928E-02 0. -1.
        1   -1    0    0  501    0  0.00000000000E+00  0.00000000000E+00 -0.14513902131E+04  0.14513902131E+04  0.50400001928E-02 0.  1.
    10030    2    1    2    0    0  0.00000000000E+00  0.00000000000E+00  0.47101448658E+03  0.33737949128E+04  0.33407540267E+04 0.  0.
        1    1    3    3  502    0  0.10400146852E+04 -0.12660992470E+02  0.15554799722E+04  0.18711784495E+04  0.50400001928E-02 0. -1.
       -1    1    3    3    0  502 -0.10400146852E+04  0.12660992470E+02 -0.10844654856E+04  0.15026164633E+04  0.50400001928E-02 0.  1.
</event>
<event>
 5   0  0.6939921E-07  0.3651906E+04  0.7818609E-02  0.8078704E-01
        2   -1    0    0  501    0  0.00000000000E+00  0.00000000000E+00  0.25054245045E+04  0.25054245045E+04  0.25500000920E-02 0. -1.
       -2   -1    0    0    0  501  0.00000000000E+00  0.00000000000E+00 -0.13307541456E+04  0.13307541456E+04  0.25500000920E-02 0.  1.
    10030    2    1    2    0    0  0.00000000000E+00  0.00000000000E+00  0.11746703590E+04  0.38361786501E+04  0.36519058289E+04 0.  0.
        4    1    3    3  502    0  0.16502828348E+04  0.69857140760E+03  0.95524645839E+03  0.20307468714E+04  0.12699999809E+01 0. -1.
       -4    1    3    3    0  502 -0.16502828348E+04 -0.69857140760E+03  0.21942390057E+03  0.18054317787E+04  0.12699999809E+01 0.  1.
</event>
<event>
 5   0  0.2287500E-07  0.3743459E+04  0.7818609E-02  0.8058398E-01
        1   -1    0    0  501    0  0.00000000000E+00  0.00000000000E+00  0.19408956362E+04  0.19408956362E+04  0.50400001928E-02 0.  1.
       -1   -1    0    0    0  501  0.00000000000E+00  0.00000000000E+00 -0.18050283225E+04  0.18050283225E+04  0.50400001928E-02 0. -1.
    10030    2    1    2    0    0  0.00000000000E+00  0.00000000000E+00  0.13586731366E+03  0.37459239587E+04  0.37434591459E+04 0.  0.
        4    1    3    3  502    0 -0.79908152718E+03  0.14533567496E+04  0.93602595677E+03  0.19044483016E+04  0.12699999809E+01 0.  1.
       -4    1    3    3    0  502  0.79908152718E+03 -0.14533567496E+04 -0.80015864310E+03  0.18414756571E+04  0.12699999809E+01 0. -1.
</event>
<event>
 5   0  0.2411746E-07  0.3972646E+04  0.7818609E-02  0.8010088E-01
        1   -1    0    0  501    0  0.00000000000E+00  0.00000000000E+00  0.13682510960E+04  0.13682510960E+04  0.50400001928E-02 0.  1.
       -1   -1    0    0    0  501  0.00000000000E+00  0.00000000000E+00 -0.28835931762E+04  0.28835931762E+04  0.50400001928E-02 0. -1.
    10030    2    1    2    0    0  0.00000000000E+00  0.00000000000E+00 -0.15153420801E+04  0.42518442722E+04  0.39726462333E+04 0.  0.
        1    1    3    3  502    0  0.31821262486E+03  0.12687477324E+04  0.84220959689E+03  0.15557304035E+04  0.50400001928E-02 0.  1.
       -1    1    3    3    0  502 -0.31821262486E+03 -0.12687477324E+04 -0.23575516770E+04  0.26961138687E+04  0.50400001928E-02 0. -1.
</event>
<event>
 5   0  0.2287500E-07  0.3668678E+04  0.7818609E-02  0.8074939E-01
        1   -1    0    0  501    0  0.00000000000E+00  0.00000000000E+00  0.13804787489E+04  0.13804787489E+04  0.50400001928E-02 0. -1.
       -1   -1    0    0    0  501  0.00000000000E+00  0.00000000000E+00 -0.24374146699E+04  0.24374146700E+04  0.50400001928E-02 0.  1.
    10030    2    1    2    0    0  0.00000000000E+00  0.00000000000E+00 -0.10569359210E+04  0.38178934189E+04  0.36686777750E+04 0.  0.
        3    1    3    3  502    0  0.12067305068E+04  0.28703944737E+03 -0.19348051745E+04  0.22982735333E+04  0.10100000352E+00 0.  1.
       -3    1    3    3    0  502 -0.12067305068E+04 -0.28703944737E+03  0.87786925344E+03  0.15196198856E+04  0.10100000352E+00 0. -1.
</event>
<event>
 5   0  0.2287500E-07  0.3747831E+04  0.7818609E-02  0.8057444E-01
       -1   -1    0    0    0  501  0.00000000000E+00  0.00000000000E+00  0.12836095670E+04  0.12836095671E+04  0.50400001928E-02 0.  1.
        1   -1    0    0  501    0  0.00000000000E+00  0.00000000000E+00 -0.27356913388E+04  0.27356913388E+04  0.50400001928E-02 0. -1.
    10030    2    1    2    0    0  0.00000000000E+00  0.00000000000E+00 -0.14520817717E+04  0.40193009058E+04  0.37478311461E+04 0.  0.
        3    1    3    3  502    0 -0.54046836933E+03 -0.16401650321E+04 -0.15062777150E+04  0.22915322288E+04  0.10100000352E+00 0. -1.
       -3    1    3    3    0  502  0.54046836933E+03  0.16401650321E+04  0.54195943300E+02  0.17277686770E+04  0.10100000352E+00 0.  1.
</event>
<event>
 5   0  0.6939921E-07  0.3670663E+04  0.7818609E-02  0.8074494E-01
       -2   -1    0    0    0  501  0.00000000000E+00  0.00000000000E+00  0.15340711377E+04  0.15340711377E+04  0.25500000920E-02 0.  1.
        2   -1    0    0  501    0  0.00000000000E+00  0.00000000000E+00 -0.21957537916E+04  0.21957537916E+04  0.25500000920E-02 0. -1.
    10030    2    1    2    0    0  0.00000000000E+00  0.00000000000E+00 -0.66168265398E+03  0.37298249293E+04  0.36706634371E+04 0.  0.
        4    1    3    3  502    0 -0.60158124474E+03 -0.17330131627E+04 -0.27330460078E+03  0.18547052688E+04  0.12699999809E+01 0. -1.
       -4    1    3    3    0  502  0.60158124474E+03  0.17330131627E+04 -0.38837805320E+03  0.18751196605E+04  0.12699999809E+01 0.  1.
</event>
<event>
 5   0  0.2287500E-07  0.3179343E+04  0.7818609E-02  0.8194294E-01
       -1   -1    0    0    0  501  0.00000000000E+00  0.00000000000E+00  0.22118123986E+04  0.22118123986E+04  0.50400001928E-02 0. -1.
        1   -1    0    0  501    0  0.00000000000E+00  0.00000000000E+00 -0.11425273009E+04  0.11425273009E+04  0.50400001928E-02 0.  1.
    10030    2    1    2    0    0  0.00000000000E+00  0.00000000000E+00  0.10692850977E+04  0.33543396995E+04  0.31793433598E+04 0.  0.
        2    1    3    3  502    0 -0.10331054767E+04 -0.59918197911E+02 -0.73849110595E+03  0.12713245966E+04  0.25500000920E-02 0.  1.
       -2    1    3    3    0  502  0.10331054767E+04  0.59918197911E+02  0.18077762037E+04  0.20830151029E+04  0.25500000920E-02 0. -1.
</event>
<event>
 5   0  0.2287500E-07  0.3004130E+04  0.7818609E-02  0.8242552E-01
        1   -1    0    0  501    0  0.00000000000E+00  0.00000000000E+00  0.18415739008E+04  0.18415739008E+04  0.50400001928E-02 0. -1.
       -1   -1    0    0    0  501  0.00000000000E+00  0.00000000000E+00 -0.12251474920E+04  0.12251474920E+04  0.50400001928E-02 0.  1.
    10030    2    1    2    0    0  0.00000000000E+00  0.00000000000E+00  0.61642640878E+03  0.30667213929E+04  0.30041302542E+04 0.  0.
        4    1    3    3  502    0 -0.27414905877E+03 -0.10581468882E+04 -0.74347752321E+03  0.13219655759E+04  0.12699999809E+01 0.  1.
       -4    1    3    3    0  502  0.27414905877E+03  0.10581468882E+04  0.13599039320E+04  0.17447558169E+04  0.12699999809E+01 0. -1.
</event>
<event>
 5   0  0.6939921E-07  0.3017149E+04  0.7818609E-02  0.8238851E-01
       -2   -1    0    0    0  501  0.00000000000E+00  0.00000000000E+00  0.11212837317E+04  0.11212837317E+04  0.25500000920E-02 0. -1.
        2   -1    0    0  501    0  0.00000000000E+00  0.00000000000E+00 -0.20296357451E+04  0.20296357451E+04  0.25500000920E-02 0.  1.
    10030    2    1    2    0    0  0.00000000000E+00  0.00000000000E+00 -0.90835201339E+03  0.31509194769E+04  0.30171493449E+04 0.  0.
        4    1    3    3  502    0  0.97374929760E+03 -0.32256999130E+03 -0.16093637460E+04  0.19084790734E+04  0.12699999809E+01 0.  1.
       -4    1    3    3    0  502 -0.97374929760E+03  0.32256999130E+03  0.70101173264E+03  0.12424404034E+04  0.12699999809E+01 0. -1.
</event>
<event>
 5   0  0.6949625E-07  0.3730109E+04  0.7818609E-02  0.8061322E-01
       -2   -1    0    0    0  501  0.00000000000E+00  0.00000000000E+00  0.15528597601E+04  0.15528597602E+04  0.25500000920E-02 0.  1.
        2   -1    0    0  501    0  0.00000000000E+00  0.00000000000E+00 -0.22400147302E+04  0.22400147302E+04  0.25500000920E-02 0. -1.
    10030    2    1    2    0    0  0.00000000000E+00  0.00000000000E+00 -0.68715497007E+03  0.37928744904E+04  0.37301092406E+04 0.  0.
        5    1    3    3  502    0 -0.47345286733E+03  0.86076816849E+03  0.12684462638E+04  0.16043869457E+04  0.46999998093E+01 0.  1.
       -5    1    3    3    0  502  0.47345286733E+03 -0.86076816849E+03 -0.19556012338E+04  0.21884875447E+04  0.46999998093E+01 0. -1.
</event>
<event>
 5   0  0.2287500E-07  0.3685218E+04  0.7818609E-02  0.8071246E-01
       -1   -1    0    0    0  501  0.00000000000E+00  0.00000000000E+00  0.13975419750E+04  0.13975419750E+04  0.50400001928E-02 0. -1.
        1   -1    0    0  501    0  0.00000000000E+00  0.00000000000E+00 -0.24294142504E+04  0.24294142504E+04  0.50400001928E-02 0.  1.
    10030    2    1    2    0    0  0.00000000000E+00  0.00000000000E+00 -0.10318722754E+04  0.38269562254E+04  0.36852182511E+04 0.  0.
        4    1    3    3  502    0  0.83519231617E+03  0.16147168535E+04 -0.20379249702E+03  0.18293140016E+04  0.12699999809E+01 0. -1.
       -4    1    3    3    0  502 -0.83519231617E+03 -0.16147168535E+04 -0.82807977837E+03  0.19976422237E+04  0.12699999809E+01 0.  1.
</event>
<event>
 5   0  0.6939921E-07  0.3622925E+04  0.7818609E-02  0.8085261E-01
        2   -1    0    0  501    0  0.00000000000E+00  0.00000000000E+00  0.97577286397E+03  0.97577286398E+03  0.25500000920E-02 0. -1.
       -2   -1    0    0    0  501  0.00000000000E+00  0.00000000000E+00 -0.33628684500E+04  0.33628684500E+04  0.25500000920E-02 0.  1.
    10030    2    1    2    0    0  0.00000000000E+00  0.00000000000E+00 -0.23870955860E+04  0.43386413140E+04  0.36229246631E+04 0.  0.
        4    1    3    3  502    0 -0.10685932704E+03  0.95973329255E+03  0.64183024284E+03  0.11595061803E+04  0.12699999809E+01 0. -1.
       -4    1    3    3    0  502  0.10685932704E+03 -0.95973329255E+03 -0.30289258289E+04  0.31791351337E+04  0.12699999809E+01 0.  1.
</event>
<event>
 5   0  0.7074157E-07  0.3671103E+04  0.7818609E-02  0.8074396E-01
        2   -1    0    0  501    0  0.00000000000E+00  0.00000000000E+00  0.17758250724E+04  0.17758250724E+04  0.25500000920E-02 0.  1.
       -2   -1    0    0    0  501  0.00000000000E+00  0.00000000000E+00 -0.18972865980E+04  0.18972865980E+04  0.25500000920E-02 0. -1.
    10030    2    1    2    0    0  0.00000000000E+00  0.00000000000E+00 -0.12146152564E+03  0.36731116704E+04  0.36711028916E+04 0.  0.
        3    1    3    3  502    0  0.17542656307E+04  0.41360076855E+03 -0.40839118241E+03  0.18480521818E+04  0.10100000352E+00 0.  1.
       -3    1    3    3    0  502 -0.17542656307E+04 -0.41360076855E+03  0.28692965677E+03  0.18250594886E+04  0.10100000352E+00 0. -1.
</event>
<event>
 5   0  0.2345471E-07  0.3704822E+04  0.7818609E-02  0.8066894E-01
       -1   -1    0    0    0  501  0.00000000000E+00  0.00000000000E+00  0.20525549862E+04  0.20525549862E+04  0.50400001928E-02 0. -1.
        1   -1    0    0  501    0  0.00000000000E+00  0.00000000000E+00 -0.16717826181E+04  0.16717826181E+04  0.50400001928E-02 0.  1.
    10030    2    1    2    0    0  0.00000000000E+00  0.00000000000E+00  0.38077236813E+03  0.37243376044E+04  0.37048215875E+04 0.  0.
        5    1    3    3  502    0 -0.17155269943E+04  0.69704381760E+03  0.24065667658E+03  0.18673084046E+04  0.46999998093E+01 0.  1.
       -5    1    3    3    0  502  0.17155269943E+04 -0.69704381760E+03  0.14011569155E+03  0.18570291998E+04  0.46999998093E+01 0. -1.
</event>
<event>
 5   0  0.7124627E-07  0.2818800E+04  0.7818609E-02  0.8297455E-01
       -2   -1    0    0    0  501  0.00000000000E+00  0.00000000000E+00  0.12495853606E+04  0.12495853606E+04  0.25500000920E-02 0. -1.
        2   -1    0    0  501    0  0.00000000000E+00  0.00000000000E+00 -0.15896538124E+04  0.15896538124E+04  0.25500000920E-02 0.  1.
    10030    2    1    2    0    0  0.00000000000E+00  0.00000000000E+00 -0.34006845179E+03  0.28392391731E+04  0.28187998386E+04 0.  0.
        2    1    3    3  502    0  0.32633363262E+03 -0.13005695771E+04 -0.60727084772E+03  0.14719893842E+04  0.25500000920E-02 0.  1.
       -2    1    3    3    0  502 -0.32633363262E+03  0.13005695771E+04  0.26720239593E+03  0.13672497889E+04  0.25500000920E-02 0. -1.
</event>
<event>
 5   0  0.2287500E-07  0.3699301E+04  0.7818609E-02  0.8068117E-01
        3   -1    0    0  501    0  0.00000000000E+00  0.00000000000E+00  0.14876645154E+04  0.14876645188E+04  0.10100000352E+00 0. -1.
       -3   -1    0    0    0  501  0.00000000000E+00  0.00000000000E+00 -0.22997161243E+04  0.22997161265E+04  0.10100000352E+00 0.  1.
    10030    2    1    2    0    0  0.00000000000E+00  0.00000000000E+00 -0.81205160887E+03  0.37873806453E+04  0.36993005200E+04 0.  0.
        4    1    3    3  502    0 -0.37587837687E+03  0.82575812437E+03  0.12441968538E+04  0.15398663767E+04  0.12699999809E+01 0. -1.
       -4    1    3    3    0  502  0.37587837687E+03 -0.82575812437E+03 -0.20562484627E+04  0.22475142686E+04  0.12699999809E+01 0.  1.
</event>
<event>
 5   0  0.7124627E-07  0.3752944E+04  0.7818609E-02  0.8056329E-01
        2   -1    0    0  501    0  0.00000000000E+00  0.00000000000E+00  0.20957896170E+04  0.20957896170E+04  0.25500000920E-02 0.  1.
       -2   -1    0    0    0  501  0.00000000000E+00  0.00000000000E+00 -0.16801053614E+04  0.16801053614E+04  0.25500000920E-02 0. -1.
    10030    2    1    2    0    0  0.00000000000E+00  0.00000000000E+00  0.41568425560E+03  0.37758949784E+04  0.37529441093E+04 0.  0.
        2    1    3    3  502    0 -0.66351517439E+03  0.46154366105E+03  0.19116778704E+04  0.20755209509E+04  0.25500000920E-02 0.  1.
       -2    1    3    3    0  502  0.66351517439E+03 -0.46154366105E+03 -0.14959936148E+04  0.17003740274E+04  0.25500000920E-02 0. -1.
</event>
<event>
 5   0  0.2287500E-07  0.3682973E+04  0.7818609E-02  0.8071746E-01
        1   -1    0    0  501    0  0.00000000000E+00  0.00000000000E+00  0.19662917139E+04  0.19662917139E+04  0.50400001928E-02 0. -1.
       -1   -1    0    0    0  501  0.00000000000E+00  0.00000000000E+00 -0.17246032195E+04  0.17246032195E+04  0.50400001928E-02 0.  1.
    10030    2    1    2    0    0  0.00000000000E+00  0.00000000000E+00  0.24168849443E+03  0.36908949334E+04  0.36829732665E+04 0.  0.
        3    1    3    3  502    0  0.98535569430E+03  0.15298188036E+04 -0.16225512058E+03  0.18269094533E+04  0.10100000352E+00 0.  1.
       -3    1    3    3    0  502 -0.98535569430E+03 -0.15298188036E+04  0.40394361501E+03  0.18639854802E+04  0.10100000352E+00 0. -1.
</event>
<event>
 5   0  0.7074157E-07  0.3018589E+04  0.7818609E-02  0.8238443E-01
        2   -1    0    0  501    0  0.00000000000E+00  0.00000000000E+00  0.14561654045E+04  0.14561654045E+04  0.25500000920E-02 0.  1.
       -2   -1    0    0    0  501  0.00000000000E+00  0.00000000000E+00 -0.15643617610E+04  0.15643617610E+04  0.25500000920E-02 0. -1.
    10030    2    1    2    0    0  0.00000000000E+00  0.00000000000E+00 -0.10819635647E+03  0.30205271656E+04  0.30185887276E+04 0.  0.
        3    1    3    3  502    0  0.88078223486E+02  0.93398450622E+03  0.11289827836E+04  0.14678852023E+04  0.10100000352E+00 0.  1.
       -3    1    3    3    0  502 -0.88078223486E+02 -0.93398450622E+03 -0.12371791400E+04  0.15526419633E+04  0.10100000352E+00 0. -1.
</event>
<event>
 5   0  0.2287500E-07  0.3684561E+04  0.7818609E-02  0.8071392E-01
        1   -1    0    0  501    0  0.00000000000E+00  0.00000000000E+00  0.18815806199E+04  0.18815806200E+04  0.50400001928E-02 0.  1.
       -1   -1    0    0    0  501  0.00000000000E+00  0.00000000000E+00 -0.18038017211E+04  0.18038017211E+04  0.50400001928E-02 0. -1.
    10030    2    1    2    0    0  0.00000000000E+00  0.00000000000E+00  0.77778898822E+02  0.36853823411E+04  0.36845614994E+04 0.  0.
        2    1    3    3  502    0 -0.65210115168E+03  0.33250563741E+03 -0.16521090972E+04  0.18070031489E+04  0.25500000920E-02 0. -1.
       -2    1    3    3    0  502  0.65210115168E+03 -0.33250563741E+03  0.17298879960E+04  0.18783791922E+04  0.25500000920E-02 0.  1.
</event>
<event>
 5   0  0.2411746E-07  0.3701789E+04  0.7818609E-02  0.8067566E-01
        1   -1    0    0  501    0  0.00000000000E+00  0.00000000000E+00  0.17274067281E+04  0.17274067281E+04  0.50400001928E-02 0. -1.
       -1   -1    0    0    0  501  0.00000000000E+00  0.00000000000E+00 -0.19832098490E+04  0.19832098490E+04  0.50400001928E-02 0.  1.
    10030    2    1    2    0    0  0.00000000000E+00  0.00000000000E+00 -0.25580312096E+03  0.37106165771E+04  0.37017887765E+04 0.  0.
        1    1    3    3  502    0  0.10160274064E+04  0.11803530815E+04 -0.11304190812E+04  0.19244200131E+04  0.50400001928E-02 0.  1.
       -1    1    3    3    0  502 -0.10160274064E+04 -0.11803530815E+04  0.87461596024E+03  0.17861965641E+04  0.50400001928E-02 0. -1.
</event>
<event>
 5   0  0.7124627E-07  0.2654338E+04  0.7818609E-02  0.8349974E-01
       -2   -1    0    0    0  501  0.00000000000E+00  0.00000000000E+00  0.10682665104E+04  0.10682665104E+04  0.25500000920E-02 0.  1.
        2   -1    0    0  501    0  0.00000000000E+00  0.00000000000E+00 -0.16488188505E+04  0.16488188505E+04  0.25500000920E-02 0. -1.
    10030    2    1    2    0    0  0.00000000000E+00  0.00000000000E+00 -0.58055234011E+03  0.27170853609E+04  0.26543383053E+04 0.  0.
        2    1    3    3  502    0 -0.52062856300E+03 -0.63082823514E+03  0.77960069888E+03  0.11299449600E+04  0.25500000920E-02 0.  1.
       -2    1    3    3    0  502  0.52062856300E+03  0.63082823514E+03 -0.13601530390E+04  0.15871404010E+04  0.25500000920E-02 0. -1.
</event>
<event>
 5   0  0.2287500E-07  0.3689585E+04  0.7818609E-02  0.8070274E-01
       -1   -1    0    0    0  501  0.00000000000E+00  0.00000000000E+00  0.16135151759E+04  0.16135151759E+04  0.50400001928E-02 0. -1.
        1   -1    0    0  501    0  0.00000000000E+00  0.00000000000E+00 -0.21092205240E+04  0.21092205240E+04  0.50400001928E-02 0.  1.
    10030    2    1    2    0    0  0.00000000000E+00  0.00000000000E+00 -0.49570534807E+03  0.37227356999E+04  0.36895849766E+04 0.  0.
        3    1    3    3  502    0 -0.17321504633E+04  0.38757732906E+03 -0.75505998402E+03  0.19289056492E+04  0.10100000352E+00 0.  1.
       -3    1    3    3    0  502  0.17321504633E+04 -0.38757732906E+03  0.25935463594E+03  0.17938300508E+04  0.10100000352E+00 0. -1.
</event>
<event>
 5   0  0.6939921E-07  0.3692482E+04  0.7818609E-02  0.8069630E-01
        2   -1    0    0  501    0  0.00000000000E+00  0.00000000000E+00  0.11256201819E+04  0.11256201819E+04  0.25500000920E-02 0.  1.
       -2   -1    0    0    0  501  0.00000000000E+00  0.00000000000E+00 -0.30282032892E+04  0.30282032892E+04  0.25500000920E-02 0. -1.
    10030    2    1    2    0    0  0.00000000000E+00  0.00000000000E+00 -0.19025831073E+04  0.41538234711E+04  0.36924824914E+04 0.  0.
        4    1    3    3  502    0 -0.12978246773E+04 -0.57492817773E+03 -0.22793475737E+04  0.26852035820E+04  0.12699999809E+01 0. -1.
       -4    1    3    3    0  502  0.12978246773E+04  0.57492817773E+03  0.37676446640E+03  0.14686198891E+04  0.12699999809E+01 0.  1.
</event>
<event>
 5   0  0.7074157E-07  0.3653477E+04  0.7818609E-02  0.8078351E-01
       -2   -1    0    0    0  501  0.00000000000E+00  0.00000000000E+00  0.17106379805E+04  0.17106379805E+04  0.25500000920E-02 0.  1.
        2   -1    0    0  501    0  0.00000000000E+00  0.00000000000E+00 -0.19507189463E+04  0.19507189463E+04  0.25500000920E-02 0. -1.
    10030    2    1    2    0    0  0.00000000000E+00  0.00000000000E+00 -0.24008096580E+03  0.36613569268E+04  0.36534772033E+04 0.  0.
        3    1    3    3  502    0  0.89795209815E+03 -0.10317194528E+03 -0.17109186677E+04  0.19349948627E+04  0.10100000352E+00 0. -1.
       -3    1    3    3    0  502 -0.89795209815E+03  0.10317194528E+03  0.14708377019E+04  0.17263620641E+04  0.10100000352E+00 0.  1.
</event>
<event>
 5   0  0.6949625E-07  0.3686873E+04  0.7818609E-02  0.8070877E-01
        2   -1    0    0  501    0  0.00000000000E+00  0.00000000000E+00  0.20654675875E+04  0.20654675875E+04  0.25500000920E-02 0.  1.
       -2   -1    0    0    0  501  0.00000000000E+00  0.00000000000E+00 -0.16452733795E+04  0.16452733795E+04  0.25500000920E-02 0. -1.
    10030    2    1    2    0    0  0.00000000000E+00  0.00000000000E+00  0.42019420795E+03  0.37107409670E+04  0.36868733842E+04 0.  0.
        5    1    3    3  502    0 -0.36812122274E+03 -0.34368200981E+03  0.19948806281E+04  0.20574745123E+04  0.46999998093E+01 0.  1.
       -5    1    3    3    0  502  0.36812122274E+03  0.34368200981E+03 -0.15746864201E+04  0.16532664547E+04  0.46999998093E+01 0. -1.
</event>
<event>
 5   0  0.2287500E-07  0.3136732E+04  0.7818609E-02  0.8205729E-01
        1   -1    0    0  501    0  0.00000000000E+00  0.00000000000E+00  0.15976860241E+04  0.15976860241E+04  0.50400001928E-02 0.  1.
       -1   -1    0    0    0  501  0.00000000000E+00  0.00000000000E+00 -0.15395841375E+04  0.15395841375E+04  0.50400001928E-02 0. -1.
    10030    2    1    2    0    0  0.00000000000E+00  0.00000000000E+00  0.58101886651E+02  0.31372701616E+04  0.31367320953E+04 0.  0.
        4    1    3    3  502    0 -0.49777002967E+03 -0.12967128813E+04  0.75755157810E+03  0.15821268297E+04  0.12699999809E+01 0.  1.
       -4    1    3    3    0  502  0.49777002967E+03  0.12967128813E+04 -0.69944969145E+03  0.15551433319E+04  0.12699999809E+01 0. -1.
</event>
<event>
 5   0  0.2287500E-07  0.3306309E+04  0.7818609E-02  0.8161292E-01
        1   -1    0    0  501    0  0.00000000000E+00  0.00000000000E+00  0.13073635793E+04  0.13073635794E+04  0.50400001928E-02 0.  1.
       -1   -1    0    0    0  501  0.00000000000E+00  0.00000000000E+00 -0.20904056125E+04  0.20904056125E+04  0.50400001928E-02 0. -1.
    10030    2    1    2    0    0  0.00000000000E+00  0.00000000000E+00 -0.78304203319E+03  0.33977691919E+04  0.33063092196E+04 0.  0.
        3    1    3    3  502    0  0.43320754866E+03 -0.92353516076E+03 -0.17284042269E+04  0.20069796101E+04  0.10100000352E+00 0. -1.
       -3    1    3    3    0  502 -0.43320754866E+03  0.92353516076E+03  0.94536219374E+03  0.13907895818E+04  0.10100000352E+00 0.  1.
</event>
<event>
 5   0  0.2345471E-07  0.2845020E+04  0.7818609E-02  0.8289426E-01
        1   -1    0    0  501    0  0.00000000000E+00  0.00000000000E+00  0.14774507054E+04  0.14774507055E+04  0.50400001928E-02 0. -1.
       -1   -1    0    0    0  501  0.00000000000E+00  0.00000000000E+00 -0.13696120656E+04  0.13696120656E+04  0.50400001928E-02 0.  1.
    10030    2    1    2    0    0  0.00000000000E+00  0.00000000000E+00  0.10783863988E+03  0.28470627710E+04  0.28450197275E+04 0.  0.
        5    1    3    3  502    0 -0.59111156611E+03 -0.10053150869E+03  0.13448040863E+04  0.14724264288E+04  0.46999998093E+01 0. -1.
       -5    1    3    3    0  502  0.59111156611E+03  0.10053150869E+03 -0.12369654464E+04  0.13746363422E+04  0.46999998093E+01 0.  1.
</event>
<event>
 5   0  0.6939921E-07  0.3709335E+04  0.7818609E-02  0.8065896E-01
        2   -1    0    0  501    0  0.00000000000E+00  0.00000000000E+00  0.27119525626E+04  0.27119525626E+04  0.25500000920E-02 0.  1.
       -2   -1    0    0    0  501  0.00000000000E+00  0.00000000000E+00 -0.12683819267E+04  0.12683819267E+04  0.25500000920E-02 0. -1.
    10030    2    1    2    0    0  0.00000000000E+00  0.00000000000E+00  0.14435706359E+04  0.39803344893E+04  0.37093350436E+04 0.  0.
        4    1    3    3  502    0 -0.19825335922E+03 -0.44256677142E+03  0.26427164468E+04  0.26868423052E+04  0.12699999809E+01 0.  1.
       -4    1    3    3    0  502  0.19825335922E+03  0.44256677142E+03 -0.11991458109E+04  0.12934921841E+04  0.12699999809E+01 0. -1.
</event>
<event>
 5   0  0.6939921E-07  0.3629908E+04  0.7818609E-02  0.8083675E-01
        2   -1    0    0  501    0  0.00000000000E+00  0.00000000000E+00  0.21907569410E+04  0.21907569410E+04  0.25500000920E-02 0.  1.
       -2   -1    0    0    0  501  0.00000000000E+00  0.00000000000E+00 -0.15036166814E+04  0.15036166814E+04  0.25500000920E-02 0. -1.
    10030    2    1    2    0    0  0.00000000000E+00  0.00000000000E+00  0.68714025959E+03  0.36943736223E+04  0.36299083632E+04 0.  0.
        4    1    3    3  502    0 -0.13154363939E+04 -0.12088052826E+04  0.66937073995E+03  0.19077845576E+04  0.12699999809E+01 0.  1.
       -4    1    3    3    0  502  0.13154363939E+04  0.12088052826E+04  0.17769519643E+02  0.17865890648E+04  0.12699999809E+01 0. -1.
</event>
<event>
 5   0  0.6949625E-07  0.3716601E+04  0.7818609E-02  0.8064293E-01
        2   -1    0    0  501    0  0.00000000000E+00  0.00000000000E+00  0.11454941297E+04  0.11454941297E+04  0.25500000920E-02 0.  1.
       -2   -1    0    0    0  501  0.00000000000E+00  0.00000000000E+00 -0.30146654910E+04  0.30146654910E+04  0.25500000920E-02 0. -1.
    10030    2    1    2    0    0  0.00000000000E+00  0.00000000000E+00 -0.18691713613E+04  0.41601596207E+04  0.37166014707E+04 0.  0.
        5    1    3    3  502    0  0.91069608060E+03  0.79427041398E+03 -0.25148166084E+04  0.27900819891E+04  0.46999998093E+01 0. -1.
       -5    1    3    3    0  502 -0.91069608060E+03 -0.79427041398E+03  0.64564524710E+03  0.13700776317E+04  0.46999998093E+01 0.  1.
</event>
<event>
 5   0  0.6939921E-07  0.3696846E+04  0.7818609E-02  0.8068661E-01
        2   -1    0    0  501    0  0.00000000000E+00  0.00000000000E+00  0.21381944691E+04  0.21381944691E+04  0.25500000920E-02 0. -1.
       -2   -1    0    0    0  501  0.00000000000E+00  0.00000000000E+00 -0.15979214611E+04  0.15979214611E+04  0.25500000920E-02 0.  1.
    10030    2    1    2    0    0  0.00000000000E+00  0.00000000000E+00  0.54027300803E+03  0.37361159302E+04  0.36968455906E+04 0.  0.
        4    1    3    3  502    0  0.12528872074E+04  0.18684819791E+03 -0.10902782031E+04  0.16713308400E+04  0.12699999809E+01 0.  1.
       -4    1    3    3    0  502 -0.12528872074E+04 -0.18684819791E+03  0.16305512112E+04  0.20647850902E+04  0.12699999809E+01 0. -1.
</event>
<event>
 5   0  0.7124627E-07  0.3648561E+04  0.7818609E-02  0.8079458E-01
       -2   -1    0    0    0  501  0.00000000000E+00  0.00000000000E+00  0.98925480807E+03  0.98925480807E+03  0.25500000920E-02 0. -1.
        2   -1    0    0  501    0  0.00000000000E+00  0.00000000000E+00 -0.33641475167E+04  0.33641475167E+04  0.25500000920E-02 0.  1.
    10030    2    1    2    0    0  0.00000000000E+00  0.00000000000E+00 -0.23748927087E+04  0.43534023248E+04  0.36485608703E+04 0.  0.
        2    1    3    3  502    0 -0.53432965770E+03 -0.14047066717E+04  0.46382662119E+02  0.15036157648E+04  0.25500000920E-02 0. -1.
       -2    1    3    3    0  502  0.53432965770E+03  0.14047066717E+04 -0.24212753708E+04  0.28497865601E+04  0.25500000920E-02 0.  1.
</event>
<event>
 5   0  0.6949625E-07  0.3684386E+04  0.7818609E-02  0.8071431E-01
       -2   -1    0    0    0  501  0.00000000000E+00  0.00000000000E+00  0.12052000964E+04  0.12052000964E+04  0.25500000920E-02 0. -1.
        2   -1    0    0  501    0  0.00000000000E+00  0.00000000000E+00 -0.28158607368E+04  0.28158607368E+04  0.25500000920E-02 0.  1.
    10030    2    1    2    0    0  0.00000000000E+00  0.00000000000E+00 -0.16106606404E+04  0.40210608332E+04  0.36843863160E+04 0.  0.
        5    1    3    3  502    0 -0.93567776326E+01 -0.16924519921E+04 -0.15992453288E+04  0.23285379547E+04  0.46999998093E+01 0. -1.
       -5    1    3    3    0  502  0.93567776326E+01  0.16924519921E+04 -0.11415311613E+02  0.16925228785E+04  0.46999998093E+01 0.  1.
</event>
<event>
 5   0  0.6949625E-07  0.3674320E+04  0.7818609E-02  0.8073677E-01
        2   -1    0    0  501    0  0.00000000000E+00  0.00000000000E+00  0.34726967324E+04  0.34726967324E+04  0.25500000920E-02 0. -1.
       -2   -1    0    0    0  501  0.00000000000E+00  0.00000000000E+00 -0.97191211242E+03  0.97191211243E+03  0.25500000920E-02 0.  1.
    10030    2    1    2    0    0  0.00000000000E+00  0.00000000000E+00  0.25007846200E+04  0.44446088448E+04  0.36743195381E+04 0.  0.
        5    1    3    3  502    0  0.25231114929E+03  0.91533099192E+03  0.31528940537E+04  0.32927579238E+04  0.46999998093E+01 0. -1.
       -5    1    3    3    0  502 -0.25231114929E+03 -0.91533099192E+03 -0.65210943370E+03  0.11518509211E+04  0.46999998093E+01 0.  1.
</event>
<event>
 5   0  0.2287500E-07  0.3620326E+04  0.7818609E-02  0.8085852E-01
        1   -1    0    0  501    0  0.00000000000E+00  0.00000000000E+00  0.11525891835E+04  0.11525891835E+04  0.50400001928E-02 0.  1.
       -1   -1    0    0    0  501  0.00000000000E+00  0.00000000000E+00 -0.28428950499E+04  0.28428950499E+04  0.50400001928E-02 0. -1.
    10030    2    1    2    0    0  0.00000000000E+00  0.00000000000E+00 -0.16903058664E+04  0.39954842334E+04  0.36203259988E+04 0.  0.
        2    1    3    3  502    0 -0.12006754845E+04  0.10700541393E+03  0.64519858307E+03  0.13672428421E+04  0.25500000920E-02 0.  1.
       -2    1    3    3    0  502  0.12006754845E+04 -0.10700541393E+03 -0.23355044494E+04  0.26282413913E+04  0.25500000920E-02 0. -1.
</event>
<event>
 5   0  0.2287500E-07  0.3601320E+04  0.7818609E-02  0.8090189E-01
        1   -1    0    0  501    0  0.00000000000E+00  0.00000000000E+00  0.13177287300E+04  0.13177287300E+04  0.50400001928E-02 0. -1.
       -1   -1    0    0    0  501  0.00000000000E+00  0.00000000000E+00 -0.24605796220E+04  0.24605796220E+04  0.50400001928E-02 0.  1.
    10030    2    1    2    0    0  0.00000000000E+00  0.00000000000E+00 -0.11428508920E+04  0.37783083520E+04  0.36013200137E+04 0.  0.
        2    1    3    3  502    0 -0.15839393441E+04  0.14584601106E+03  0.31399457549E+03  0.16213350974E+04  0.25500000920E-02 0.  1.
       -2    1    3    3    0  502  0.15839393441E+04 -0.14584601106E+03 -0.14568454675E+04  0.21569732546E+04  0.25500000920E-02 0. -1.
</event>
<event>
 5   0  0.6949625E-07  0.3581703E+04  0.7818609E-02  0.8094696E-01
        2   -1    0    0  501    0  0.00000000000E+00  0.00000000000E+00  0.22396858279E+04  0.22396858279E+04  0.25500000920E-02 0. -1.
       -2   -1    0    0    0  501  0.00000000000E+00  0.00000000000E+00 -0.14319635442E+04  0.14319635442E+04  0.25500000920E-02 0.  1.
    10030    2    1    2    0    0  0.00000000000E+00  0.00000000000E+00  0.80772228365E+03  0.36716493721E+04  0.35817026432E+04 0.  0.
        5    1    3    3  502    0  0.16939132820E+04 -0.38454880279E+03 -0.42865083105E+02  0.17375498537E+04  0.46999998093E+01 0.  1.
       -5    1    3    3    0  502 -0.16939132820E+04  0.38454880279E+03  0.85058736675E+03  0.19340995184E+04  0.46999998093E+01 0. -1.
</event>
<event>
 5   0  0.2345471E-07  0.3714174E+04  0.7818609E-02  0.8064828E-01
       -1   -1    0    0    0  501  0.00000000000E+00  0.00000000000E+00  0.15903212810E+04  0.15903212810E+04  0.50400001928E-02 0. -1.
        1   -1    0    0  501    0  0.00000000000E+00  0.00000000000E+00 -0.21686008265E+04  0.21686008265E+04  0.50400001928E-02 0.  1.
    10030    2    1    2    0    0  0.00000000000E+00  0.00000000000E+00 -0.57827954549E+03  0.37589221075E+04  0.37141739563E+04 0.  0.
        5    1    3    3  502    0  0.13547718170E+04  0.11573189605E+04 -0.81885392381E+03  0.19609532608E+04  0.46999998093E+01 0.  1.
       -5    1    3    3    0  502 -0.13547718170E+04 -0.11573189605E+04  0.24057437832E+03  0.17979688467E+04  0.46999998093E+01 0. -1.
</event>
<event>
 5   0  0.7074157E-07  0.3740693E+04  0.7818609E-02  0.8059003E-01
        2   -1    0    0  501    0  0.00000000000E+00  0.00000000000E+00  0.11682480353E+04  0.11682480353E+04  0.25500000920E-02 0. -1.
       -2   -1    0    0    0  501  0.00000000000E+00  0.00000000000E+00 -0.29943945750E+04  0.29943945750E+04  0.25500000920E-02 0.  1.
    10030    2    1    2    0    0  0.00000000000E+00  0.00000000000E+00 -0.18261465396E+04  0.41626426103E+04  0.37406927590E+04 0.  0.
        3    1    3    3  502    0  0.87798812648E+03  0.81795498258E+03  0.68342896741E+03  0.13809376045E+04  0.10100000352E+00 0. -1.
       -3    1    3    3    0  502 -0.87798812648E+03 -0.81795498258E+03 -0.25095755070E+04  0.27817050058E+04  0.10100000352E+00 0.  1.
</event>
<event>
 5   0  0.2411746E-07  0.3697425E+04  0.7818609E-02  0.8068533E-01
       -1   -1    0    0    0  501  0.00000000000E+00  0.00000000000E+00  0.11475960931E+04  0.11475960931E+04  0.50400001928E-02 0. -1.
        1   -1    0    0  501    0  0.00000000000E+00  0.00000000000E+00 -0.29781722007E+04  0.29781722007E+04  0.50400001928E-02 0.  1.
    10030    2    1    2    0    0  0.00000000000E+00  0.00000000000E+00 -0.18305761076E+04  0.41257682938E+04  0.36974254730E+04 0.  0.
        1    1    3    3  502    0  0.88971790110E+03  0.15719439456E+04 -0.47578934949E+03  0.18678814783E+04  0.50400001928E-02 0. -1.
       -1    1    3    3    0  502 -0.88971790110E+03 -0.15719439456E+04 -0.13547867581E+04  0.22578868155E+04  0.50400001928E-02 0.  1.
</event>
<event>
 5   0  0.2287500E-07  0.3577348E+04  0.7818609E-02  0.8095700E-01
        1   -1    0    0  501    0  0.00000000000E+00  0.00000000000E+00  0.14590849782E+04  0.14590849782E+04  0.50400001928E-02 0. -1.
       -1   -1    0    0    0  501  0.00000000000E+00  0.00000000000E+00 -0.21927126830E+04  0.21927126830E+04  0.50400001928E-02 0.  1.
    10030    2    1    2    0    0  0.00000000000E+00  0.00000000000E+00 -0.73362770478E+03  0.36517976612E+04  0.35773476976E+04 0.  0.
        2    1    3    3  502    0 -0.11364914443E+04 -0.13249931036E+04  0.31347924132E+02  0.17459101408E+04  0.25500000920E-02 0. -1.
       -2    1    3    3    0  502  0.11364914443E+04  0.13249931036E+04 -0.76497562891E+03  0.19058875204E+04  0.25500000920E-02 0.  1.
</event>
<event>
 5   0  0.2345471E-07  0.2730786E+04  0.7818609E-02  0.8325085E-01
        1   -1    0    0  501    0  0.00000000000E+00  0.00000000000E+00  0.20374775207E+04  0.20374775207E+04  0.50400001928E-02 0.  1.
       -1   -1    0    0    0  501  0.00000000000E+00  0.00000000000E+00 -0.91500282581E+03  0.91500282582E+03  0.50400001928E-02 0. -1.
    10030    2    1    2    0    0  0.00000000000E+00  0.00000000000E+00  0.11224746949E+04  0.29524803465E+04  0.27307857397E+04 0.  0.
        5    1    3    3  502    0  0.93646639374E+03 -0.86442562744E+03  0.31485450504E+02  0.12748389685E+04  0.46999998093E+01 0.  1.
       -5    1    3    3    0  502 -0.93646639374E+03  0.86442562744E+03  0.10909892444E+04  0.16776413781E+04  0.46999998093E+01 0. -1.
</event>
<event>
 5   0  0.7124627E-07  0.3677166E+04  0.7818609E-02  0.8073041E-01
        2   -1    0    0  501    0  0.00000000000E+00  0.00000000000E+00  0.18635899242E+04  0.18635899242E+04  0.25500000920E-02 0.  1.
       -2   -1    0    0    0  501  0.00000000000E+00  0.00000000000E+00 -0.18139116705E+04  0.18139116705E+04  0.25500000920E-02 0. -1.
    10030    2    1    2    0    0  0.00000000000E+00  0.00000000000E+00  0.49678253692E+02  0.36775015947E+04  0.36771660351E+04 0.  0.
        2    1    3    3  502    0 -0.16052608891E+04  0.26742669011E+03  0.88049183703E+03  0.18503095503E+04  0.25500000920E-02 0.  1.
       -2    1    3    3    0  502  0.16052608891E+04 -0.26742669011E+03 -0.83081358334E+03  0.18271920444E+04  0.25500000920E-02 0. -1.
</event>
<event>
 5   0  0.6939921E-07  0.3753242E+04  0.7818609E-02  0.8056264E-01
        2   -1    0    0  501    0  0.00000000000E+00  0.00000000000E+00  0.16837044602E+04  0.16837044602E+04  0.25500000920E-02 0. -1.
       -2   -1    0    0    0  501  0.00000000000E+00  0.00000000000E+00 -0.20916411321E+04  0.20916411321E+04  0.25500000920E-02 0.  1.
    10030    2    1    2    0    0  0.00000000000E+00  0.00000000000E+00 -0.40793667182E+03  0.37753455923E+04  0.37532415341E+04 0.  0.
        4    1    3    3  502    0 -0.78939255917E+03 -0.14468943763E+04  0.69856719442E+03  0.17901513027E+04  0.12699999809E+01 0. -1.
       -4    1    3    3    0  502  0.78939255917E+03  0.14468943763E+04 -0.11065038662E+04  0.19851942896E+04  0.12699999809E+01 0.  1.
</event>
<event>
 5   0  0.2287500E-07  0.2767439E+04  0.7818609E-02  0.8313449E-01
        1   -1    0    0  501    0  0.00000000000E+00  0.00000000000E+00  0.18670265157E+04  0.18670265157E+04  0.50400001928E-02 0.  1.
       -1   -1    0    0    0  501  0.00000000000E+00  0.00000000000E+00 -0.10255238319E+04  0.10255238319E+04  0.50400001928E-02 0. -1.
    10030    2    1    2    0    0  0.00000000000E+00  0.00000000000E+00  0.84150268379E+03  0.28925503477E+04  0.27674393845E+04 0.  0.
        3    1    3    3  502    0  0.27535329465E+03 -0.26506022139E+03 -0.96925918391E+03  0.10418923810E+04  0.10100000352E+00 0. -1.
       -3    1    3    3    0  502 -0.27535329465E+03  0.26506022139E+03  0.18107618677E+04  0.18506579667E+04  0.10100000352E+00 0.  1.
</event>
<event>
 5   0  0.7124627E-07  0.3734054E+04  0.7818609E-02  0.8060457E-01
        2   -1    0    0  501    0  0.00000000000E+00  0.00000000000E+00  0.15349423680E+04  0.15349423680E+04  0.25500000920E-02 0. -1.
       -2   -1    0    0    0  501  0.00000000000E+00  0.00000000000E+00 -0.22709581168E+04  0.22709581168E+04  0.25500000920E-02 0.  1.
    10030    2    1    2    0    0  0.00000000000E+00  0.00000000000E+00 -0.73601574880E+03  0.38059004848E+04  0.37340540058E+04 0.  0.
        2    1    3    3  502    0 -0.15870038503E+04 -0.86457298042E+03  0.10975651214E+03  0.18105563099E+04  0.25500000920E-02 0. -1.
       -2    1    3    3    0  502  0.15870038503E+04  0.86457298042E+03 -0.84577226094E+03  0.19953441750E+04  0.25500000920E-02 0.  1.
</event>
<event>
 5   0  0.2345471E-07  0.3727653E+04  0.7818609E-02  0.8061861E-01
       -1   -1    0    0    0  501  0.00000000000E+00  0.00000000000E+00  0.98633021248E+03  0.98633021250E+03  0.50400001928E-02 0. -1.
        1   -1    0    0  501    0  0.00000000000E+00  0.00000000000E+00 -0.35219940592E+04  0.35219940592E+04  0.50400001928E-02 0.  1.
    10030    2    1    2    0    0  0.00000000000E+00  0.00000000000E+00 -0.25356638467E+04  0.45083242717E+04  0.37276529607E+04 0.  0.
        5    1    3    3  502    0 -0.15153977721E+04  0.90336367004E+03 -0.54083575388E+03  0.18452700969E+04  0.46999998093E+01 0. -1.
       -5    1    3    3    0  502  0.15153977721E+04 -0.90336367004E+03 -0.19948280929E+04  0.26630541748E+04  0.46999998093E+01 0.  1.
</event>
<event>
 5   0  0.2287500E-07  0.3664350E+04  0.7818609E-02  0.8075909E-01
       -1   -1    0    0    0  501  0.00000000000E+00  0.00000000000E+00  0.15622293994E+04  0.15622293994E+04  0.50400001928E-02 0. -1.
        1   -1    0    0  501    0  0.00000000000E+00  0.00000000000E+00 -0.21487654628E+04  0.21487654628E+04  0.50400001928E-02 0.  1.
    10030    2    1    2    0    0  0.00000000000E+00  0.00000000000E+00 -0.58653606339E+03  0.37109948622E+04  0.36643496440E+04 0.  0.
        4    1    3    3  502    0  0.80754152736E+03  0.15621580380E+04  0.22747772736E+03  0.17731916940E+04  0.12699999809E+01 0.  1.
       -4    1    3    3    0  502 -0.80754152736E+03 -0.15621580380E+04 -0.81401379075E+03  0.19378031682E+04  0.12699999809E+01 0. -1.
</event>
<event>
 5   0  0.2287500E-07  0.3597128E+04  0.7818609E-02  0.8091150E-01
       -1   -1    0    0    0  501  0.00000000000E+00  0.00000000000E+00  0.27863809409E+04  0.27863809409E+04  0.50400001928E-02 0.  1.
        1   -1    0    0  501    0  0.00000000000E+00  0.00000000000E+00 -0.11609438082E+04  0.11609438083E+04  0.50400001928E-02 0. -1.
    10030    2    1    2    0    0  0.00000000000E+00  0.00000000000E+00  0.16254371326E+04  0.39473247491E+04  0.35971275767E+04 0.  0.
        2    1    3    3  502    0 -0.16371358455E+04  0.87240547975E+01  0.16298918629E+04  0.23101595985E+04  0.25500000920E-02 0.  1.
       -2    1    3    3    0  502  0.16371358455E+04 -0.87240547975E+01 -0.44547302417E+01  0.16371651506E+04  0.25500000920E-02 0. -1.
</event>
<event>
 5   0  0.2345471E-07  0.3679352E+04  0.7818609E-02  0.8072553E-01
        1   -1    0    0  501    0  0.00000000000E+00  0.00000000000E+00  0.26709824111E+04  0.26709824111E+04  0.50400001928E-02 0.  1.
       -1   -1    0    0    0  501  0.00000000000E+00  0.00000000000E+00 -0.12671022735E+04  0.12671022735E+04  0.50400001928E-02 0. -1.
    10030    2    1    2    0    0  0.00000000000E+00  0.00000000000E+00  0.14038801376E+04  0.39380846847E+04  0.36793520548E+04 0.  0.
        5    1    3    3  502    0 -0.47021381475E+03 -0.15431648748E+04 -0.24450800675E+03  0.16316449116E+04  0.46999998093E+01 0. -1.
       -5    1    3    3    0  502  0.47021381475E+03  0.15431648748E+04  0.16483881444E+04  0.23064397730E+04  0.46999998093E+01 0.  1.
</event>
<event>
 5   0  0.2411746E-07  0.3691816E+04  0.7818609E-02  0.8069778E-01
       -1   -1    0    0    0  501  0.00000000000E+00  0.00000000000E+00  0.15678381072E+04  0.15678381072E+04  0.50400001928E-02 0. -1.
        1   -1    0    0  501    0  0.00000000000E+00  0.00000000000E+00 -0.21732960572E+04  0.21732960572E+04  0.50400001928E-02 0.  1.
    10030    2    1    2    0    0  0.00000000000E+00  0.00000000000E+00 -0.60545795000E+03  0.37411341643E+04  0.36918160174E+04 0.  0.
        1    1    3    3  502    0 -0.50376407027E+03 -0.16665080389E+04 -0.92439720142E+03  0.19711766710E+04  0.50400001928E-02 0.  1.
       -1    1    3    3    0  502  0.50376407027E+03  0.16665080389E+04  0.31893925142E+03  0.17699574934E+04  0.50400001928E-02 0. -1.
</event>
<event>
 5   0  0.7074157E-07  0.3638053E+04  0.7818609E-02  0.8081830E-01
       -2   -1    0    0    0  501  0.00000000000E+00  0.00000000000E+00  0.16263975117E+04  0.16263975117E+04  0.25500000920E-02 0. -1.
        2   -1    0    0  501    0  0.00000000000E+00  0.00000000000E+00 -0.20344701820E+04  0.20344701820E+04  0.25500000920E-02 0.  1.
    10030    2    1    2    0    0  0.00000000000E+00  0.00000000000E+00 -0.40807267026E+03  0.36608676937E+04  0.36380529087E+04 0.  0.
        3    1    3    3  502    0 -0.26062666178E+02 -0.30630738735E+03 -0.20081415347E+04  0.20315353582E+04  0.10100000352E+00 0.  1.
       -3    1    3    3    0  502  0.26062666178E+02  0.30630738735E+03  0.16000688645E+04  0.16293323354E+04  0.10100000352E+00 0. -1.
</event>
<event>
 5   0  0.7074157E-07  0.3718311E+04  0.7818609E-02  0.8063916E-01
       -2   -1    0    0    0  501  0.00000000000E+00  0.00000000000E+00  0.12954596008E+04  0.12954596008E+04  0.25500000920E-02 0.  1.
        2   -1    0    0  501    0  0.00000000000E+00  0.00000000000E+00 -0.26681340686E+04  0.26681340686E+04  0.25500000920E-02 0. -1.
    10030    2    1    2    0    0  0.00000000000E+00  0.00000000000E+00 -0.13726744678E+04  0.39635936695E+04  0.37183113885E+04 0.  0.
        3    1    3    3  502    0 -0.15450610953E+04  0.44198179930E+03 -0.16828291692E+04  0.23269026026E+04  0.10100000352E+00 0. -1.
       -3    1    3    3    0  502  0.15450610953E+04 -0.44198179930E+03  0.31015470141E+03  0.16366910668E+04  0.10100000352E+00 0.  1.
</event>
<event>
 5   0  0.2345471E-07  0.3632054E+04  0.7818609E-02  0.8083189E-01
        1   -1    0    0  501    0  0.00000000000E+00  0.00000000000E+00  0.21473019277E+04  0.21473019278E+04  0.50400001928E-02 0.  1.
       -1   -1    0    0    0  501  0.00000000000E+00  0.00000000000E+00 -0.15358592051E+04  0.15358592051E+04  0.50400001928E-02 0. -1.
    10030    2    1    2    0    0  0.00000000000E+00  0.00000000000E+00  0.61144272268E+03  0.36831611328E+04  0.36320536515E+04 0.  0.
        5    1    3    3  502    0  0.10319162634E+04 -0.14942698497E+04  0.32135857243E+03  0.18441765047E+04  0.46999998093E+01 0.  1.
       -5    1    3    3    0  502 -0.10319162634E+04  0.14942698497E+04  0.29008415025E+03  0.18389846282E+04  0.46999998093E+01 0. -1.
</event>
<event>
 5   0  0.2287500E-07  0.3841911E+04  0.7818609E-02  0.8037220E-01
        1   -1    0    0  501    0  0.00000000000E+00  0.00000000000E+00  0.25840860476E+04  0.25840860476E+04  0.50400001928E-02 0. -1.
       -1   -1    0    0    0  501  0.00000000000E+00  0.00000000000E+00 -0.14279982416E+04  0.14279982416E+04  0.50400001928E-02 0.  1.
    10030    2    1    2    0    0  0.00000000000E+00  0.00000000000E+00  0.11560878060E+04  0.40120842892E+04  0.38419111558E+04 0.  0.
        3    1    3    3  502    0 -0.30798889148E+03 -0.74482991931E+03 -0.12428769136E+04  0.14813412161E+04  0.10100000352E+00 0.  1.
       -3    1    3    3    0  502  0.30798889148E+03  0.74482991931E+03  0.23989647196E+04  0.25307430731E+04  0.10100000352E+00 0. -1.
</event>
<event>
 5   0  0.2287500E-07  0.3728230E+04  0.7818609E-02  0.8061734E-01
        1   -1    0    0  501    0  0.00000000000E+00  0.00000000000E+00  0.14905855618E+04  0.14905855618E+04  0.50400001928E-02 0.  1.
       -1   -1    0    0    0  501  0.00000000000E+00  0.00000000000E+00 -0.23312478502E+04  0.23312478502E+04  0.50400001928E-02 0. -1.
    10030    2    1    2    0    0  0.00000000000E+00  0.00000000000E+00 -0.84066228845E+03  0.38218334120E+04  0.37282298140E+04 0.  0.
        3    1    3    3  502    0  0.15681519712E+04  0.99619432340E+03 -0.26345082297E+03  0.18764088257E+04  0.10100000352E+00 0. -1.
       -3    1    3    3    0  502 -0.15681519712E+04 -0.99619432340E+03 -0.57721146548E+03  0.19454245863E+04  0.10100000352E+00 0.  1.
</event>
<event>
 5   0  0.7124627E-07  0.3700033E+04  0.7818609E-02  0.8067954E-01
        2   -1    0    0  501    0  0.00000000000E+00  0.00000000000E+00  0.19897268052E+04  0.19897268052E+04  0.25500000920E-02 0. -1.
       -2   -1    0    0    0  501  0.00000000000E+00  0.00000000000E+00 -0.17201164020E+04  0.17201164020E+04  0.25500000920E-02 0.  1.
    10030    2    1    2    0    0  0.00000000000E+00  0.00000000000E+00  0.26961040316E+03  0.37098432072E+04  0.37000333583E+04 0.  0.
        2    1    3    3  502    0 -0.17468460919E+03 -0.18369709247E+04  0.26776455874E+03  0.18645843370E+04  0.25500000920E-02 0. -1.
       -2    1    3    3    0  502  0.17468460919E+03  0.18369709247E+04  0.18458444213E+01  0.18452588702E+04  0.25500000920E-02 0.  1.
</event>
<event>
 5   0  0.7124627E-07  0.3704583E+04  0.7818609E-02  0.8066947E-01
        2   -1    0    0  501    0  0.00000000000E+00  0.00000000000E+00  0.27932669625E+04  0.27932669625E+04  0.25500000920E-02 0.  1.
       -2   -1    0    0    0  501  0.00000000000E+00  0.00000000000E+00 -0.12283049009E+04  0.12283049009E+04  0.25500000920E-02 0. -1.
    10030    2    1    2    0    0  0.00000000000E+00  0.00000000000E+00  0.15649620616E+04  0.40215718635E+04  0.37045828373E+04 0.  0.
        2    1    3    3  502    0 -0.93620033170E+03  0.15926540710E+04  0.63697682093E+03  0.19541641490E+04  0.25500000920E-02 0. -1.
       -2    1    3    3    0  502  0.93620033170E+03 -0.15926540710E+04  0.92798524065E+03  0.20674077144E+04  0.25500000920E-02 0.  1.
</event>
<event>
 5   0  0.2287500E-07  0.3538579E+04  0.7818609E-02  0.8104708E-01
       -1   -1    0    0    0  501  0.00000000000E+00  0.00000000000E+00  0.13304108704E+04  0.13304108704E+04  0.50400001928E-02 0. -1.
        1   -1    0    0  501    0  0.00000000000E+00  0.00000000000E+00 -0.23529468755E+04  0.23529468755E+04  0.50400001928E-02 0.  1.
    10030    2    1    2    0    0  0.00000000000E+00  0.00000000000E+00 -0.10225360051E+04  0.36833577459E+04  0.35385794328E+04 0.  0.
        4    1    3    3  502    0  0.12379720977E+04 -0.58019351794E+03 -0.16802406804E+04  0.21661970801E+04  0.12699999809E+01 0.  1.
       -4    1    3    3    0  502 -0.12379720977E+04  0.58019351794E+03  0.65770467529E+03  0.15171606658E+04  0.12699999809E+01 0. -1.
</event>
<event>
 5   0  0.7300916E-07  0.3728688E+04  0.7818609E-02  0.8061634E-01
       -2   -1    0    0    0  501  0.00000000000E+00  0.00000000000E+00  0.24350533438E+04  0.24350533438E+04  0.25500000920E-02 0.  1.
        2   -1    0    0  501    0  0.00000000000E+00  0.00000000000E+00 -0.14273935179E+04  0.14273935179E+04  0.25500000920E-02 0. -1.
    10030    2    1    2    0    0  0.00000000000E+00  0.00000000000E+00  0.10076598259E+04  0.38624468617E+04  0.37286884336E+04 0.  0.
        1    1    3    3  502    0 -0.10206770846E+03 -0.84837301037E+03  0.22202635415E+04  0.23790176073E+04  0.50400001928E-02 0.  1.
       -1    1    3    3    0  502  0.10206770846E+03  0.84837301037E+03 -0.12126037156E+04  0.14834292544E+04  0.50400001928E-02 0. -1.
</event>
<event>
 5   0  0.6949625E-07  0.3761366E+04  0.7818609E-02  0.8054497E-01
       -2   -1    0    0    0  501  0.00000000000E+00  0.00000000000E+00  0.16961964075E+04  0.16961964075E+04  0.25500000920E-02 0. -1.
        2   -1    0    0  501    0  0.00000000000E+00  0.00000000000E+00 -0.20852356008E+04  0.20852356008E+04  0.25500000920E-02 0.  1.
    10030    2    1    2    0    0  0.00000000000E+00  0.00000000000E+00 -0.38903919325E+03  0.37814320083E+04  0.37613663128E+04 0.  0.
        5    1    3    3  502    0 -0.35174430214E+03  0.90773186881E+03  0.14231778848E+04  0.17242849479E+04  0.46999998093E+01 0. -1.
       -5    1    3    3    0  502  0.35174430214E+03 -0.90773186881E+03 -0.18122170781E+04  0.20571470603E+04  0.46999998093E+01 0.  1.
</event>
<event>
 5   0  0.6949625E-07  0.2692262E+04  0.7818609E-02  0.8337520E-01
       -2   -1    0    0    0  501  0.00000000000E+00  0.00000000000E+00  0.88474035236E+03  0.88474035236E+03  0.25500000920E-02 0. -1.
        2   -1    0    0  501    0  0.00000000000E+00  0.00000000000E+00 -0.20481366561E+04  0.20481366561E+04  0.25500000920E-02 0.  1.
    10030    2    1    2    0    0  0.00000000000E+00  0.00000000000E+00 -0.11633963037E+04  0.29328770084E+04  0.26922623548E+04 0.  0.
        5    1    3    3  502    0  0.17053850647E+01 -0.93041164873E+02  0.88122326774E+03  0.88613548869E+03  0.46999998093E+01 0. -1.
       -5    1    3    3    0  502 -0.17053850647E+01  0.93041164873E+02 -0.20446195714E+04  0.20467415197E+04  0.46999998093E+01 0.  1.
</event>
<event>
 5   0  0.7124627E-07  0.3635378E+04  0.7818609E-02  0.8082436E-01
        2   -1    0    0  501    0  0.00000000000E+00  0.00000000000E+00  0.16724356343E+04  0.16724356343E+04  0.25500000920E-02 0. -1.
       -2   -1    0    0    0  501  0.00000000000E+00  0.00000000000E+00 -0.19755575288E+04  0.19755575288E+04  0.25500000920E-02 0.  1.
    10030    2    1    2    0    0  0.00000000000E+00  0.00000000000E+00 -0.30312189456E+03  0.36479931631E+04  0.36353777293E+04 0.  0.
        2    1    3    3  502    0  0.33781016494E+03 -0.17526766012E+04 -0.49626695250E+03  0.18526391619E+04  0.25500000920E-02 0. -1.
       -2    1    3    3    0  502 -0.33781016494E+03  0.17526766012E+04  0.19314505794E+03  0.17953540012E+04  0.25500000920E-02 0.  1.
</event>
<event>
 5   0  0.2345471E-07  0.3703156E+04  0.7818609E-02  0.8067263E-01
       -1   -1    0    0    0  501  0.00000000000E+00  0.00000000000E+00  0.19058124747E+04  0.19058124747E+04  0.50400001928E-02 0.  1.
        1   -1    0    0  501    0  0.00000000000E+00  0.00000000000E+00 -0.17988872195E+04  0.17988872195E+04  0.50400001928E-02 0. -1.
    10030    2    1    2    0    0  0.00000000000E+00  0.00000000000E+00  0.10692525522E+03  0.37046996942E+04  0.37031563312E+04 0.  0.
        5    1    3    3  502    0  0.64769852803E+03 -0.16701352424E+04  0.52211757983E+03  0.18658761932E+04  0.46999998093E+01 0. -1.
       -5    1    3    3    0  502 -0.64769852803E+03  0.16701352424E+04 -0.41519232461E+03  0.18388235009E+04  0.46999998093E+01 0.  1.
</event>
<event>
 5   0  0.7074157E-07  0.3743722E+04  0.7818609E-02  0.8058341E-01
       -2   -1    0    0    0  501  0.00000000000E+00  0.00000000000E+00  0.17738811820E+04  0.17738811820E+04  0.25500000920E-02 0.  1.
        2   -1    0    0  501    0  0.00000000000E+00  0.00000000000E+00 -0.19752529022E+04  0.19752529022E+04  0.25500000920E-02 0. -1.
    10030    2    1    2    0    0  0.00000000000E+00  0.00000000000E+00 -0.20137172012E+03  0.37491340842E+04  0.37437221867E+04 0.  0.
        3    1    3    3  502    0 -0.13670132513E+03  0.77424406926E+03  0.16005113659E+04  0.17831931398E+04  0.10100000352E+00 0.  1.
       -3    1    3    3    0  502  0.13670132513E+03 -0.77424406926E+03 -0.18018830860E+04  0.19659409444E+04  0.10100000352E+00 0. -1.
</event>
<event>
 5   0  0.2287500E-07  0.3665705E+04  0.7818609E-02  0.8075605E-01
       -1   -1    0    0    0  501  0.00000000000E+00  0.00000000000E+00  0.21732848700E+04  0.21732848700E+04  0.50400001928E-02 0.  1.
        1   -1    0    0  501    0  0.00000000000E+00  0.00000000000E+00 -0.15457470520E+04  0.15457470521E+04  0.50400001928E-02 0. -1.
    10030    2    1    2    0    0  0.00000000000E+00  0.00000000000E+00  0.62753781798E+03  0.37190319221E+04  0.36657052152E+04 0.  0.
        3    1    3    3  502    0  0.14590525950E+04  0.87323091133E+03 -0.38027497262E+03  0.17424051666E+04  0.10100000352E+00 0.  1.
       -3    1    3    3    0  502 -0.14590525950E+04 -0.87323091133E+03  0.10078127906E+04  0.19766267555E+04  0.10100000352E+00 0. -1.
</event>
<event>
 5   0  0.6939921E-07  0.3636136E+04  0.7818609E-02  0.8082264E-01
       -2   -1    0    0    0  501  0.00000000000E+00  0.00000000000E+00  0.16864077269E+04  0.16864077269E+04  0.25500000920E-02 0.  1.
        2   -1    0    0  501    0  0.00000000000E+00  0.00000000000E+00 -0.19600074889E+04  0.19600074889E+04  0.25500000920E-02 0. -1.
    10030    2    1    2    0    0  0.00000000000E+00  0.00000000000E+00 -0.27359976208E+03  0.36464152158E+04  0.36361362868E+04 0.  0.
        4    1    3    3  502    0 -0.95360191587E+03  0.19756431271E+03 -0.16763863662E+04  0.19387266783E+04  0.12699999809E+01 0. -1.
       -4    1    3    3    0  502  0.95360191587E+03 -0.19756431271E+03  0.14027866041E+04  0.17076885375E+04  0.12699999809E+01 0.  1.
</event>
<event>
 5   0  0.2287500E-07  0.3710953E+04  0.7818609E-02  0.8065539E-01
        1   -1    0    0  501    0  0.00000000000E+00  0.00000000000E+00  0.15939939446E+04  0.15939939446E+04  0.50400001928E-02 0. -1.
       -1   -1    0    0    0  501  0.00000000000E+00  0.00000000000E+00 -0.21598528145E+04  0.21598528145E+04  0.50400001928E-02 0.  1.
    10030    2    1    2    0    0  0.00000000000E+00  0.00000000000E+00 -0.56585886983E+03  0.37538467591E+04  0.37109526042E+04 0.  0.
        2    1    3    3  502    0 -0.86792412404E+03  0.10005712533E+03  0.13729056804E+04  0.16273210257E+04  0.25500000920E-02 0. -1.
       -2    1    3    3    0  502  0.86792412404E+03 -0.10005712533E+03 -0.19387645503E+04  0.21265257334E+04  0.25500000920E-02 0.  1.
</event>
<event>
 5   0  0.2411746E-07  0.3823067E+04  0.7818609E-02  0.8041223E-01
        1   -1    0    0  501    0  0.00000000000E+00  0.00000000000E+00  0.15045726615E+04  0.15045726615E+04  0.50400001928E-02 0. -1.
       -1   -1    0    0    0  501  0.00000000000E+00  0.00000000000E+00 -0.24285697613E+04  0.24285697613E+04  0.50400001928E-02 0.  1.
    10030    2    1    2    0    0  0.00000000000E+00  0.00000000000E+00 -0.92399709978E+03  0.39331424227E+04  0.38230666587E+04 0.  0.
        1    1    3    3  502    0  0.13600020378E+03 -0.17042233932E+04 -0.13416530067E+04  0.21732248434E+04  0.50400001928E-02 0.  1.
       -1    1    3    3    0  502 -0.13600020378E+03  0.17042233932E+04  0.41765590692E+03  0.17599175793E+04  0.50400001928E-02 0. -1.
</event>
<event>
 5   0  0.6949625E-07  0.3699080E+04  0.7818609E-02  0.8068166E-01
        2   -1    0    0  501    0  0.00000000000E+00  0.00000000000E+00  0.16691213699E+04  0.16691213699E+04  0.25500000920E-02 0.  1.
       -2   -1    0    0    0  501  0.00000000000E+00  0.00000000000E+00 -0.20494598987E+04  0.20494598987E+04  0.25500000920E-02 0. -1.
    10030    2    1    2    0    0  0.00000000000E+00  0.00000000000E+00 -0.38033852886E+03  0.37185812686E+04  0.36990795145E+04 0.  0.
        5    1    3    3  502    0  0.15676735955E+04  0.94050861714E+03  0.91698448323E+02  0.18304610503E+04  0.46999998093E+01 0. -1.
       -5    1    3    3    0  502 -0.15676735955E+04 -0.94050861714E+03 -0.47203697718E+03  0.18881202183E+04  0.46999998093E+01 0.  1.
</event>
<event>
 5   0  0.2345471E-07  0.3800217E+04  0.7818609E-02  0.8046108E-01
        1   -1    0    0  501    0  0.00000000000E+00  0.00000000000E+00  0.11240079976E+04  0.11240079976E+04  0.50400001928E-02 0. -1.
       -1   -1    0    0    0  501  0.00000000000E+00  0.00000000000E+00 -0.32120874416E+04  0.32120874416E+04  0.50400001928E-02 0.  1.
    10030    2    1    2    0    0  0.00000000000E+00  0.00000000000E+00 -0.20880794440E+04  0.43360954392E+04  0.38002168220E+04 0.  0.
        5    1    3    3  502    0  0.12142778028E+04 -0.14477528737E+04 -0.12720451060E+04  0.22778454310E+04  0.46999998093E+01 0. -1.
       -5    1    3    3    0  502 -0.12142778028E+04  0.14477528737E+04 -0.81603433796E+03  0.20582500083E+04  0.46999998093E+01 0.  1.
</event>
<event>
 5   0  0.7074157E-07  0.3687874E+04  0.7818609E-02  0.8070654E-01
       -2   -1    0    0    0  501  0.00000000000E+00  0.00000000000E+00  0.28189704897E+04  0.28189704897E+04  0.25500000920E-02 0. -1.
        2   -1    0    0  501    0  0.00000000000E+00  0.00000000000E+00 -0.12061508016E+04  0.12061508016E+04  0.25500000920E-02 0.  1.
    10030    2    1    2    0    0  0.00000000000E+00  0.00000000000E+00  0.16128196880E+04  0.40251212913E+04  0.36878739219E+04 0.  0.
        3    1    3    3  502    0 -0.45804439573E+03  0.59196215435E+03  0.26457111274E+04  0.27495474611E+04  0.10100000352E+00 0. -1.
       -3    1    3    3    0  502  0.45804439573E+03 -0.59196215435E+03 -0.10328914394E+04  0.12755738303E+04  0.10100000352E+00 0.  1.
</event>
<event>
 5   0  0.7300916E-07  0.3412844E+04  0.7818609E-02  0.8134761E-01
       -2   -1    0    0    0  501  0.00000000000E+00  0.00000000000E+00  0.21148658126E+04  0.21148658126E+04  0.25500000920E-02 0.  1.
        2   -1    0    0  501    0  0.00000000000E+00  0.00000000000E+00 -0.13768611948E+04  0.13768611948E+04  0.25500000920E-02 0. -1.
    10030    2    1    2    0    0  0.00000000000E+00  0.00000000000E+00  0.73800461779E+03  0.34917270074E+04  0.34128443677E+04 0.  0.
        1    1    3    3  502    0  0.11435467583E+04 -0.29369374649E+03 -0.89151394204E+03  0.14794432446E+04  0.50400001928E-02 0. -1.
       -1    1    3    3    0  502 -0.11435467583E+04  0.29369374649E+03  0.16295185598E+04  0.20122837628E+04  0.50400001928E-02 0.  1.
</event>
<event>
 5   0  0.2287500E-07  0.3676206E+04  0.7818609E-02  0.8073255E-01
       -1   -1    0    0    0  501  0.00000000000E+00  0.00000000000E+00  0.23189850929E+04  0.23189850929E+04  0.50400001928E-02 0.  1.
        1   -1    0    0  501    0  0.00000000000E+00  0.00000000000E+00 -0.14569404337E+04  0.14569404337E+04  0.50400001928E-02 0. -1.
    10030    2    1    2    0    0  0.00000000000E+00  0.00000000000E+00  0.86204465923E+03  0.37759255267E+04  0.36762062766E+04 0.  0.
        2    1    3    3  502    0  0.76740786478E+03 -0.13383605990E+03  0.21410541715E+04  0.22783634230E+04  0.25500000920E-02 0.  1.
       -2    1    3    3    0  502 -0.76740786478E+03  0.13383605990E+03 -0.12790095123E+04  0.14975621037E+04  0.25500000920E-02 0. -1.
</event>
<event>
 5   0  0.2287500E-07  0.3639442E+04  0.7818609E-02  0.8081516E-01
       -1   -1    0    0    0  501  0.00000000000E+00  0.00000000000E+00  0.10381798511E+04  0.10381798511E+04  0.50400001928E-02 0.  1.
        1   -1    0    0  501    0  0.00000000000E+00  0.00000000000E+00 -0.31896052698E+04  0.31896052698E+04  0.50400001928E-02 0. -1.
    10030    2    1    2    0    0  0.00000000000E+00  0.00000000000E+00 -0.21514254187E+04  0.42277851209E+04  0.36394416737E+04 0.  0.
        2    1    3    3  502    0 -0.36600668874E+03  0.17398258399E+04 -0.15262637883E+04  0.23431679413E+04  0.25500000920E-02 0. -1.
       -2    1    3    3    0  502  0.36600668874E+03 -0.17398258399E+04 -0.62516163031E+03  0.18846171796E+04  0.25500000920E-02 0.  1.
</event>
<event>
 5   0  0.7074157E-07  0.3701683E+04  0.7818609E-02  0.8067589E-01
        2   -1    0    0  501    0  0.00000000000E+00  0.00000000000E+00  0.23250135966E+04  0.23250135966E+04  0.25500000920E-02 0.  1.
       -2   -1    0    0    0  501  0.00000000000E+00  0.00000000000E+00 -0.14733742137E+04  0.14733742137E+04  0.25500000920E-02 0. -1.
    10030    2    1    2    0    0  0.00000000000E+00  0.00000000000E+00  0.85163938293E+03  0.37983878103E+04  0.37016834439E+04 0.  0.
        3    1    3    3  502    0 -0.56627451560E+03  0.17506005122E+04  0.63193049131E+03  0.19454061623E+04  0.10100000352E+00 0. -1.
       -3    1    3    3    0  502  0.56627451560E+03 -0.17506005122E+04  0.21970889163E+03  0.18529816480E+04  0.10100000352E+00 0.  1.
</event>
<event>
 5   0  0.7074157E-07  0.3706092E+04  0.7818609E-02  0.8066613E-01
       -2   -1    0    0    0  501  0.00000000000E+00  0.00000000000E+00  0.25500645494E+04  0.25500645494E+04  0.25500000920E-02 0. -1.
        2   -1    0    0  501    0  0.00000000000E+00  0.00000000000E+00 -0.13465461015E+04  0.13465461015E+04  0.25500000920E-02 0.  1.
    10030    2    1    2    0    0  0.00000000000E+00  0.00000000000E+00  0.12035184479E+04  0.38966106508E+04  0.37060919996E+04 0.  0.
        3    1    3    3  502    0 -0.52250896668E+02 -0.83156568825E+03  0.23420036839E+04  0.24858022680E+04  0.10100000352E+00 0. -1.
       -3    1    3    3    0  502  0.52250896668E+02  0.83156568825E+03 -0.11384852360E+04  0.14108083828E+04  0.10100000352E+00 0.  1.
</event>
<event>
 5   0  0.2287500E-07  0.2847442E+04  0.7818609E-02  0.8288689E-01
        1   -1    0    0  501    0  0.00000000000E+00  0.00000000000E+00  0.12203411438E+04  0.12203411438E+04  0.50400001928E-02 0. -1.
       -1   -1    0    0    0  501  0.00000000000E+00  0.00000000000E+00 -0.16609952124E+04  0.16609952124E+04  0.50400001928E-02 0.  1.
    10030    2    1    2    0    0  0.00000000000E+00  0.00000000000E+00 -0.44065406859E+03  0.28813363563E+04  0.28474415165E+04 0.  0.
        4    1    3    3  502    0 -0.56207633074E+03  0.12926068570E+04 -0.17398358350E+02  0.14096334999E+04  0.12699999809E+01 0. -1.
       -4    1    3    3    0  502  0.56207633074E+03 -0.12926068570E+04 -0.42325571024E+03  0.14717028564E+04  0.12699999809E+01 0.  1.
</event>
<event>
 5   0  0.2287500E-07  0.3679735E+04  0.7818609E-02  0.8072468E-01
        1   -1    0    0  501    0  0.00000000000E+00  0.00000000000E+00  0.10784298031E+04  0.10784298031E+04  0.50400001928E-02 0.  1.
       -1   -1    0    0    0  501  0.00000000000E+00  0.00000000000E+00 -0.31389262793E+04  0.31389262793E+04  0.50400001928E-02 0. -1.
    10030    2    1    2    0    0  0.00000000000E+00  0.00000000000E+00 -0.20604964762E+04  0.42173560825E+04  0.36797345825E+04 0.  0.
        4    1    3    3  502    0  0.13758825245E+04  0.11703200625E+04 -0.14312341836E+04  0.23045899139E+04  0.12699999809E+01 0.  1.
       -4    1    3    3    0  502 -0.13758825245E+04 -0.11703200625E+04 -0.62926229257E+03  0.19127661686E+04  0.12699999809E+01 0. -1.
</event>
<event>
 5   0  0.2411746E-07  0.3664450E+04  0.7818609E-02  0.8075886E-01
       -1   -1    0    0    0  501  0.00000000000E+00  0.00000000000E+00  0.11469728993E+04  0.11469728993E+04  0.50400001928E-02 0.  1.
        1   -1    0    0  501    0  0.00000000000E+00  0.00000000000E+00 -0.29268768011E+04  0.29268768011E+04  0.50400001928E-02 0. -1.
    10030    2    1    2    0    0  0.00000000000E+00  0.00000000000E+00 -0.17799039018E+04  0.40738497004E+04  0.36644499562E+04 0.  0.
        1    1    3    3  502    0  0.10723981018E+03  0.16100320365E+04  0.74972062692E+02  0.16153403188E+04  0.50400001928E-02 0.  1.
       -1    1    3    3    0  502 -0.10723981018E+03 -0.16100320365E+04 -0.18548759645E+04  0.24585093816E+04  0.50400001928E-02 0. -1.
</event>
<event>
 5   0  0.2411746E-07  0.3667858E+04  0.7818609E-02  0.8075123E-01
        1   -1    0    0  501    0  0.00000000000E+00  0.00000000000E+00  0.20497397989E+04  0.20497397989E+04  0.50400001928E-02 0. -1.
       -1   -1    0    0    0  501  0.00000000000E+00  0.00000000000E+00 -0.16408399593E+04  0.16408399593E+04  0.50400001928E-02 0.  1.
    10030    2    1    2    0    0  0.00000000000E+00  0.00000000000E+00  0.40889983963E+03  0.36905797583E+04  0.36678576681E+04 0.  0.
        1    1    3    3  502    0 -0.13778733691E+04 -0.11663133882E+04  0.52967513591E+03  0.18813233881E+04  0.50400001928E-02 0. -1.
       -1    1    3    3    0  502  0.13778733691E+04  0.11663133882E+04 -0.12077529628E+03  0.18092563702E+04  0.50400001928E-02 0.  1.
</event>
<event>
 5   0  0.2287500E-07  0.2655908E+04  0.7818609E-02  0.8349455E-01
       -1   -1    0    0    0  501  0.00000000000E+00  0.00000000000E+00  0.12280184391E+04  0.12280184391E+04  0.50400001928E-02 0.  1.
        1   -1    0    0  501    0  0.00000000000E+00  0.00000000000E+00 -0.14360225921E+04  0.14360225921E+04  0.50400001928E-02 0. -1.
    10030    2    1    2    0    0  0.00000000000E+00  0.00000000000E+00 -0.20800415303E+03  0.26640410312E+04  0.26559082981E+04 0.  0.
        2    1    3    3  502    0  0.10066747717E+04  0.84844072396E+03  0.70359044804E+02  0.13184066722E+04  0.25500000920E-02 0. -1.
       -2    1    3    3    0  502 -0.10066747717E+04 -0.84844072396E+03 -0.27836319783E+03  0.13456343590E+04  0.25500000920E-02 0.  1.
</event>
<event>
 5   0  0.2345471E-07  0.3712467E+04  0.7818609E-02  0.8065205E-01
        1   -1    0    0  501    0  0.00000000000E+00  0.00000000000E+00  0.26114057060E+04  0.26114057060E+04  0.50400001928E-02 0.  1.
       -1   -1    0    0    0  501  0.00000000000E+00  0.00000000000E+00 -0.13194439206E+04  0.13194439206E+04  0.50400001928E-02 0. -1.
    10030    2    1    2    0    0  0.00000000000E+00  0.00000000000E+00  0.12919617854E+04  0.39308496266E+04  0.37124673105E+04 0.  0.
        5    1    3    3  502    0 -0.68590496566E+03  0.16566311694E+04  0.13742688116E+03  0.17982771452E+04  0.46999998093E+01 0. -1.
       -5    1    3    3    0  502  0.68590496566E+03 -0.16566311694E+04  0.11545349043E+04  0.21325724814E+04  0.46999998093E+01 0.  1.
</event>
<event>
 5   0  0.2287500E-07  0.2876044E+04  0.7818609E-02  0.8280041E-01
       -1   -1    0    0    0  501  0.00000000000E+00  0.00000000000E+00  0.13362998490E+04  0.13362998490E+04  0.50400001928E-02 0.  1.
        1   -1    0    0  501    0  0.00000000000E+00  0.00000000000E+00 -0.15474873861E+04  0.15474873862E+04  0.50400001928E-02 0. -1.
    10030    2    1    2    0    0  0.00000000000E+00  0.00000000000E+00 -0.21118753712E+03  0.28837872352E+04  0.28760439221E+04 0.  0.
        2    1    3    3  502    0  0.74503937013E+03  0.18767392574E+03 -0.13244330301E+04  0.15311525125E+04  0.25500000920E-02 0. -1.
       -2    1    3    3    0  502 -0.74503937013E+03 -0.18767392574E+03  0.11132454929E+04  0.13526347227E+04  0.25500000920E-02 0.  1.
</event>
<event>
 5   0  0.7300916E-07  0.3635538E+04  0.7818609E-02  0.8082400E-01
       -2   -1    0    0    0  501  0.00000000000E+00  0.00000000000E+00  0.25703699656E+04  0.25703699656E+04  0.25500000920E-02 0. -1.
        2   -1    0    0  501    0  0.00000000000E+00  0.00000000000E+00 -0.12855284480E+04  0.12855284480E+04  0.25500000920E-02 0.  1.
    10030    2    1    2    0    0  0.00000000000E+00  0.00000000000E+00  0.12848415176E+04  0.38558984136E+04  0.36355377663E+04 0.  0.
        1    1    3    3  502    0 -0.38399042357E+03 -0.38672013946E+03  0.24816846463E+04  0.25408187254E+04  0.50400001928E-02 0. -1.
       -1    1    3    3    0  502  0.38399042357E+03  0.38672013946E+03 -0.11968431287E+04  0.13150796882E+04  0.50400001928E-02 0.  1.
</event>
<event>
 5   0  0.7300916E-07  0.3736295E+04  0.7818609E-02  0.8059966E-01
       -2   -1    0    0    0  501  0.00000000000E+00  0.00000000000E+00  0.20694819788E+04  0.20694819788E+04  0.25500000920E-02 0.  1.
        2   -1    0    0  501    0  0.00000000000E+00  0.00000000000E+00 -0.16864003411E+04  0.16864003411E+04  0.25500000920E-02 0. -1.
    10030    2    1    2    0    0  0.00000000000E+00  0.00000000000E+00  0.38308163764E+03  0.37558823199E+04  0.37362950178E+04 0.  0.
        1    1    3    3  502    0 -0.18662025702E+04  0.81855607477E+02  0.16769428028E+03  0.18755089296E+04  0.50400001928E-02 0. -1.
       -1    1    3    3    0  502  0.18662025702E+04 -0.81855607477E+02  0.21538735736E+03  0.18803733903E+04  0.50400001928E-02 0.  1.
</event>
<event>
 5   0  0.7124627E-07  0.3716100E+04  0.7818609E-02  0.8064403E-01
       -2   -1    0    0    0  501  0.00000000000E+00  0.00000000000E+00  0.18722187190E+04  0.18722187190E+04  0.25500000920E-02 0.  1.
        2   -1    0    0  501    0  0.00000000000E+00  0.00000000000E+00 -0.18439890038E+04  0.18439890038E+04  0.25500000920E-02 0. -1.
    10030    2    1    2    0    0  0.00000000000E+00  0.00000000000E+00  0.28229715233E+02  0.37162077227E+04  0.37161004994E+04 0.  0.
        2    1    3    3  502    0  0.34204164858E+03  0.17375520036E+03 -0.18039495271E+04  0.18442931587E+04  0.25500000920E-02 0. -1.
       -2    1    3    3    0  502 -0.34204164858E+03 -0.17375520036E+03  0.18321792423E+04  0.18719145640E+04  0.25500000920E-02 0.  1.
</event>
<event>
 5   0  0.2287500E-07  0.3676222E+04  0.7818609E-02  0.8073252E-01
        1   -1    0    0  501    0  0.00000000000E+00  0.00000000000E+00  0.12609028494E+04  0.12609028494E+04  0.50400001928E-02 0.  1.
       -1   -1    0    0    0  501  0.00000000000E+00  0.00000000000E+00 -0.26795496017E+04  0.26795496017E+04  0.50400001928E-02 0. -1.
    10030    2    1    2    0    0  0.00000000000E+00  0.00000000000E+00 -0.14186467522E+04  0.39404524511E+04  0.36762218257E+04 0.  0.
        4    1    3    3  502    0  0.12650389968E+04  0.11704618426E+04 -0.24374301458E+02  0.17236299800E+04  0.12699999809E+01 0.  1.
       -4    1    3    3    0  502 -0.12650389968E+04 -0.11704618426E+04 -0.13942724508E+04  0.22168224711E+04  0.12699999809E+01 0. -1.
</event>
<event>
 5   0  0.2287500E-07  0.3711821E+04  0.7818609E-02  0.8065347E-01
       -1   -1    0    0    0  501  0.00000000000E+00  0.00000000000E+00  0.14889449319E+04  0.14889449320E+04  0.50400001928E-02 0. -1.
        1   -1    0    0  501    0  0.00000000000E+00  0.00000000000E+00 -0.23133181459E+04  0.23133181459E+04  0.50400001928E-02 0.  1.
    10030    2    1    2    0    0  0.00000000000E+00  0.00000000000E+00 -0.82437321398E+03  0.38022630779E+04  0.37118207550E+04 0.  0.
        4    1    3    3  502    0  0.16619922955E+04 -0.69848050951E+03 -0.86373140872E+03  0.19990315085E+04  0.12699999809E+01 0.  1.
       -4    1    3    3    0  502 -0.16619922955E+04  0.69848050951E+03  0.39358194736E+02  0.18032315694E+04  0.12699999809E+01 0. -1.
</event>
<event>
 5   0  0.2411746E-07  0.3495111E+04  0.7818609E-02  0.8114950E-01
        1   -1    0    0  501    0  0.00000000000E+00  0.00000000000E+00  0.18429642439E+04  0.18429642439E+04  0.50400001928E-02 0.  1.
       -1   -1    0    0    0  501  0.00000000000E+00  0.00000000000E+00 -0.16570857542E+04  0.16570857542E+04  0.50400001928E-02 0. -1.
    10030    2    1    2    0    0  0.00000000000E+00  0.00000000000E+00  0.18587848970E+03  0.35000499982E+04  0.34951107531E+04 0.  0.
        1    1    3    3  502    0 -0.81680272551E+03 -0.12998229948E+04  0.92913021986E+03  0.17944329120E+04  0.50400001928E-02 0.  1.
       -1    1    3    3    0  502  0.81680272551E+03  0.12998229948E+04 -0.74325173017E+03  0.17056170862E+04  0.50400001928E-02 0. -1.
</event>
<event>
 5   0  0.2287500E-07  0.3679994E+04  0.7818609E-02  0.8072410E-01
       -1   -1    0    0    0  501  0.00000000000E+00  0.00000000000E+00  0.11384272840E+04  0.11384272840E+04  0.50400001928E-02 0. -1.
        1   -1    0    0  501    0  0.00000000000E+00  0.00000000000E+00 -0.29739170934E+04  0.29739170934E+04  0.50400001928E-02 0.  1.
    10030    2    1    2    0    0  0.00000000000E+00  0.00000000000E+00 -0.18354898094E+04  0.41123443774E+04  0.36799936736E+04 0.  0.
        2    1    3    3  502    0 -0.22631768026E+02 -0.13497669883E+04 -0.23149186154E+04  0.26797819530E+04  0.25500000920E-02 0.  1.
       -2    1    3    3    0  502  0.22631768026E+02  0.13497669883E+04  0.47942880597E+03  0.14325624244E+04  0.25500000920E-02 0. -1.
</event>
<event>
 5   0  0.2287500E-07  0.3700238E+04  0.7818609E-02  0.8067909E-01
       -1   -1    0    0    0  501  0.00000000000E+00  0.00000000000E+00  0.16128074900E+04  0.16128074900E+04  0.50400001928E-02 0.  1.
        1   -1    0    0  501    0  0.00000000000E+00  0.00000000000E+00 -0.21223485456E+04  0.21223485456E+04  0.50400001928E-02 0. -1.
    10030    2    1    2    0    0  0.00000000000E+00  0.00000000000E+00 -0.50954105557E+03  0.37351560356E+04  0.37002376306E+04 0.  0.
        2    1    3    3  502    0  0.16285554860E+04 -0.86709022816E+03 -0.11599152120E+03  0.18486461175E+04  0.25500000920E-02 0. -1.
       -2    1    3    3    0  502 -0.16285554860E+04  0.86709022816E+03 -0.39354953438E+03  0.18865099181E+04  0.25500000920E-02 0.  1.
</event>
<event>
 5   0  0.7074157E-07  0.3540456E+04  0.7818609E-02  0.8104269E-01
        2   -1    0    0  501    0  0.00000000000E+00  0.00000000000E+00  0.26111470087E+04  0.26111470087E+04  0.25500000920E-02 0.  1.
       -2   -1    0    0    0  501  0.00000000000E+00  0.00000000000E+00 -0.12001266697E+04  0.12001266697E+04  0.25500000920E-02 0. -1.
    10030    2    1    2    0    0  0.00000000000E+00  0.00000000000E+00  0.14110203390E+04  0.38112736784E+04  0.35404559953E+04 0.  0.
        3    1    3    3  502    0 -0.13457563128E+04  0.60426361925E+02  0.19418351190E+04  0.23633524998E+04  0.10100000352E+00 0.  1.
       -3    1    3    3    0  502  0.13457563128E+04 -0.60426361925E+02 -0.53081478003E+03  0.14479211786E+04  0.10100000352E+00 0. -1.
</event>
<event>
 5   0  0.7300916E-07  0.3738614E+04  0.7818609E-02  0.8059458E-01
       -2   -1    0    0    0  501  0.00000000000E+00  0.00000000000E+00  0.21402450421E+04  0.21402450421E+04  0.25500000920E-02 0.  1.
        2   -1    0    0  501    0  0.00000000000E+00  0.00000000000E+00 -0.16326675247E+04  0.16326675247E+04  0.25500000920E-02 0. -1.
    10030    2    1    2    0    0  0.00000000000E+00  0.00000000000E+00  0.50757751744E+03  0.37729125668E+04  0.37386139545E+04 0.  0.
        1    1    3    3  502    0  0.33497509811E+03 -0.18011107073E+04  0.62881677322E+03  0.19369095566E+04  0.50400001928E-02 0.  1.
       -1    1    3    3    0  502 -0.33497509811E+03  0.18011107073E+04 -0.12123925578E+03  0.18360030102E+04  0.50400001928E-02 0. -1.
</event>
<event>
 5   0  0.7074157E-07  0.3776455E+04  0.7818609E-02  0.8051226E-01
        2   -1    0    0  501    0  0.00000000000E+00  0.00000000000E+00  0.23997270427E+04  0.23997270427E+04  0.25500000920E-02 0.  1.
       -2   -1    0    0    0  501  0.00000000000E+00  0.00000000000E+00 -0.14857539689E+04  0.14857539689E+04  0.25500000920E-02 0. -1.
    10030    2    1    2    0    0  0.00000000000E+00  0.00000000000E+00  0.91397307380E+03  0.38854810116E+04  0.37764554693E+04 0.  0.
        3    1    3    3  502    0  0.27205541360E+03  0.42525786445E+03 -0.14150322721E+04  0.15023896767E+04  0.10100000352E+00 0. -1.
       -3    1    3    3    0  502 -0.27205541360E+03 -0.42525786445E+03  0.23290053459E+04  0.23830913349E+04  0.10100000352E+00 0.  1.
</event>
<event>
 5   0  0.2411746E-07  0.2703280E+04  0.7818609E-02  0.8333942E-01
        1   -1    0    0  501    0  0.00000000000E+00  0.00000000000E+00  0.89987010673E+03  0.89987010674E+03  0.50400001928E-02 0.  1.
       -1   -1    0    0    0  501  0.00000000000E+00  0.00000000000E+00 -0.20302155491E+04  0.20302155491E+04  0.50400001928E-02 0. -1.
    10030    2    1    2    0    0  0.00000000000E+00  0.00000000000E+00 -0.11303454424E+04  0.29300856559E+04  0.27032796991E+04 0.  0.
        1    1    3    3  502    0  0.88326487402E+03 -0.85382638266E+03  0.45818281182E+02  0.12293395155E+04  0.50400001928E-02 0.  1.
       -1    1    3    3    0  502 -0.88326487402E+03  0.85382638266E+03 -0.11761637236E+04  0.17007461404E+04  0.50400001928E-02 0. -1.
</event>
<event>
 5   0  0.7124627E-07  0.3694548E+04  0.7818609E-02  0.8069171E-01
        2   -1    0    0  501    0  0.00000000000E+00  0.00000000000E+00  0.18884273994E+04  0.18884273994E+04  0.25500000920E-02 0.  1.
       -2   -1    0    0    0  501  0.00000000000E+00  0.00000000000E+00 -0.18070171164E+04  0.18070171164E+04  0.25500000920E-02 0. -1.
    10030    2    1    2    0    0  0.00000000000E+00  0.00000000000E+00  0.81410283072E+02  0.36954445158E+04  0.36945476767E+04 0.  0.
        2    1    3    3  502    0  0.11347885681E+04  0.12444501885E+04  0.79984870848E+03  0.18644461168E+04  0.25500000920E-02 0. -1.
       -2    1    3    3    0  502 -0.11347885681E+04 -0.12444501885E+04 -0.71843842541E+03  0.18309983990E+04  0.25500000920E-02 0.  1.
</event>
<event>
 5   0  0.7124627E-07  0.3701849E+04  0.7818609E-02  0.8067552E-01
       -2   -1    0    0    0  501  0.00000000000E+00  0.00000000000E+00  0.13805752329E+04  0.13805752329E+04  0.25500000920E-02 0.  1.
        2   -1    0    0  501    0  0.00000000000E+00  0.00000000000E+00 -0.24815173476E+04  0.24815173476E+04  0.25500000920E-02 0. -1.
    10030    2    1    2    0    0  0.00000000000E+00  0.00000000000E+00 -0.11009421147E+04  0.38620925805E+04  0.37018489381E+04 0.  0.
        2    1    3    3  502    0 -0.22714240663E+03  0.10447799649E+04  0.10258125410E+04  0.14817051722E+04  0.25500000920E-02 0.  1.
       -2    1    3    3    0  502  0.22714240663E+03 -0.10447799649E+04 -0.21267546558E+04  0.23803874083E+04  0.25500000920E-02 0. -1.
</event>
<event>
 5   0  0.2411746E-07  0.3686891E+04  0.7818609E-02  0.8070873E-01
       -1   -1    0    0    0  501  0.00000000000E+00  0.00000000000E+00  0.15414344855E+04  0.15414344855E+04  0.50400001928E-02 0.  1.
        1   -1    0    0  501    0  0.00000000000E+00  0.00000000000E+00 -0.22046288207E+04  0.22046288208E+04  0.50400001928E-02 0. -1.
    10030    2    1    2    0    0  0.00000000000E+00  0.00000000000E+00 -0.66319433523E+03  0.37460633063E+04  0.36868907725E+04 0.  0.
        1    1    3    3  502    0 -0.10230177316E+04  0.13856998387E+04 -0.99907404145E+03  0.19912002065E+04  0.50400001928E-02 0. -1.
       -1    1    3    3    0  502  0.10230177316E+04 -0.13856998387E+04  0.33587970621E+03  0.17548630998E+04  0.50400001928E-02 0.  1.
</event>
<event>
 5   0  0.2287500E-07  0.3651047E+04  0.7818609E-02  0.8078898E-01
       -1   -1    0    0    0  501  0.00000000000E+00  0.00000000000E+00  0.31141907431E+04  0.31141907431E+04  0.50400001928E-02 0.  1.
        1   -1    0    0  501    0  0.00000000000E+00  0.00000000000E+00 -0.10701130548E+04  0.10701130548E+04  0.50400001928E-02 0. -1.
    10030    2    1    2    0    0  0.00000000000E+00  0.00000000000E+00  0.20440776882E+04  0.41843037979E+04  0.36510470659E+04 0.  0.
        4    1    3    3  502    0 -0.13155666178E+04 -0.57741329442E+03  0.23127709274E+04  0.27226884900E+04  0.12699999809E+01 0.  1.
       -4    1    3    3    0  502  0.13155666178E+04  0.57741329442E+03 -0.26869323912E+03  0.14616153078E+04  0.12699999809E+01 0. -1.
</event>
<event>
 5   0  0.2345471E-07  0.3669549E+04  0.7818609E-02  0.8074744E-01
       -1   -1    0    0    0  501  0.00000000000E+00  0.00000000000E+00  0.15787478150E+04  0.15787478150E+04  0.50400001928E-02 0.  1.
        1   -1    0    0  501    0  0.00000000000E+00  0.00000000000E+00 -0.21323217177E+04  0.21323217178E+04  0.50400001928E-02 0. -1.
    10030    2    1    2    0    0  0.00000000000E+00  0.00000000000E+00 -0.55357390273E+03  0.37110695328E+04  0.36695494289E+04 0.  0.
        5    1    3    3  502    0  0.14950524481E+04 -0.54936353968E+02  0.79738755958E+03  0.16953019896E+04  0.46999998093E+01 0. -1.
       -5    1    3    3    0  502 -0.14950524481E+04  0.54936353968E+02 -0.13509614623E+04  0.20157675432E+04  0.46999998093E+01 0.  1.
</event>
<event>
 5   0  0.6939921E-07  0.2704917E+04  0.7818609E-02  0.8333411E-01
        2   -1    0    0  501    0  0.00000000000E+00  0.00000000000E+00  0.14765111333E+04  0.14765111333E+04  0.25500000920E-02 0. -1.
       -2   -1    0    0    0  501  0.00000000000E+00  0.00000000000E+00 -0.12388280572E+04  0.12388280572E+04  0.25500000920E-02 0.  1.
    10030    2    1    2    0    0  0.00000000000E+00  0.00000000000E+00  0.23768307602E+03  0.27153391905E+04  0.27049165745E+04 0.  0.
        4    1    3    3  502    0  0.12486005474E+04  0.50887185514E+03  0.22502203893E+03  0.13669639435E+04  0.12699999809E+01 0. -1.
       -4    1    3    3    0  502 -0.12486005474E+04 -0.50887185514E+03  0.12661037095E+02  0.13483752470E+04  0.12699999809E+01 0.  1.
</event>
<event>
 5   0  0.2345471E-07  0.3764416E+04  0.7818609E-02  0.8053835E-01
       -1   -1    0    0    0  501  0.00000000000E+00  0.00000000000E+00  0.19809597729E+04  0.19809597729E+04  0.50400001928E-02 0.  1.
        1   -1    0    0  501    0  0.00000000000E+00  0.00000000000E+00 -0.17883786226E+04  0.17883786226E+04  0.50400001928E-02 0. -1.
    10030    2    1    2    0    0  0.00000000000E+00  0.00000000000E+00  0.19258115035E+03  0.37693383955E+04  0.37644155509E+04 0.  0.
        5    1    3    3  502    0  0.15032760618E+04 -0.26147164730E+03  0.11997651684E+04  0.19410473692E+04  0.46999998093E+01 0.  1.
       -5    1    3    3    0  502 -0.15032760618E+04  0.26147164730E+03 -0.10071840181E+04  0.18282910262E+04  0.46999998093E+01 0. -1.
</event>
<event>
 5   0  0.7300916E-07  0.3698919E+04  0.7818609E-02  0.8068201E-01
       -2   -1    0    0    0  501  0.00000000000E+00  0.00000000000E+00  0.18634389981E+04  0.18634389981E+04  0.25500000920E-02 0.  1.
        2   -1    0    0  501    0  0.00000000000E+00  0.00000000000E+00 -0.18355848820E+04  0.18355848820E+04  0.25500000920E-02 0. -1.
    10030    2    1    2    0    0  0.00000000000E+00  0.00000000000E+00  0.27854116107E+02  0.36990238802E+04  0.36989190062E+04 0.  0.
        1    1    3    3  502    0 -0.98488618970E+03 -0.79010720898E+03  0.13653462393E+04  0.18596882969E+04  0.50400001928E-02 0.  1.
       -1    1    3    3    0  502  0.98488618970E+03  0.79010720898E+03 -0.13374921232E+04  0.18393355833E+04  0.50400001928E-02 0. -1.
</event>
<event>
 5   0  0.2345471E-07  0.3658563E+04  0.7818609E-02  0.8077207E-01
       -1   -1    0    0    0  501  0.00000000000E+00  0.00000000000E+00  0.22003144441E+04  0.22003144441E+04  0.50400001928E-02 0.  1.
        1   -1    0    0  501    0  0.00000000000E+00  0.00000000000E+00 -0.15208147467E+04  0.15208147467E+04  0.50400001928E-02 0. -1.
    10030    2    1    2    0    0  0.00000000000E+00  0.00000000000E+00  0.67949969740E+03  0.37211291909E+04  0.36585629168E+04 0.  0.
        5    1    3    3  502    0 -0.56335710530E+03 -0.12208129730E+04  0.16013216858E+04  0.20909349044E+04  0.46999998093E+01 0.  1.
       -5    1    3    3    0  502  0.56335710530E+03  0.12208129730E+04 -0.92182198845E+03  0.16301942864E+04  0.46999998093E+01 0. -1.
</event>
<event>
 5   0  0.2287500E-07  0.3546086E+04  0.7818609E-02  0.8102954E-01
        1   -1    0    0  501    0  0.00000000000E+00  0.00000000000E+00  0.25361597306E+04  0.25361597306E+04  0.50400001928E-02 0. -1.
       -1   -1    0    0    0  501  0.00000000000E+00  0.00000000000E+00 -0.12395437098E+04  0.12395437098E+04  0.50400001928E-02 0.  1.
    10030    2    1    2    0    0  0.00000000000E+00  0.00000000000E+00  0.12966160208E+04  0.37757034403E+04  0.35460856397E+04 0.  0.
        3    1    3    3  502    0  0.96761195113E+03  0.88320423234E+03  0.19203901267E+04  0.23246980133E+04  0.10100000352E+00 0. -1.
       -3    1    3    3    0  502 -0.96761195113E+03 -0.88320423234E+03 -0.62377410587E+03  0.14510054271E+04  0.10100000352E+00 0.  1.
</event>
<event>
 5   0  0.2287500E-07  0.3616461E+04  0.7818609E-02  0.8086732E-01
       -1   -1    0    0    0  501  0.00000000000E+00  0.00000000000E+00  0.14620337794E+04  0.14620337795E+04  0.50400001928E-02 0.  1.
        1   -1    0    0  501    0  0.00000000000E+00  0.00000000000E+00 -0.22364032519E+04  0.22364032519E+04  0.50400001928E-02 0. -1.
    10030    2    1    2    0    0  0.00000000000E+00  0.00000000000E+00 -0.77436947249E+03  0.36984370314E+04  0.36164607554E+04 0.  0.
        3    1    3    3  502    0 -0.99769573727E+02 -0.87760860901E+03 -0.20007798561E+04  0.21870690161E+04  0.10100000352E+00 0. -1.
       -3    1    3    3    0  502  0.99769573727E+02  0.87760860901E+03  0.12264103836E+04  0.15113680153E+04  0.10100000352E+00 0.  1.
</event>
<event>
 5   0  0.2345471E-07  0.3598514E+04  0.7818609E-02  0.8090832E-01
       -1   -1    0    0    0  501  0.00000000000E+00  0.00000000000E+00  0.14610091143E+04  0.14610091143E+04  0.50400001928E-02 0. -1.
        1   -1    0    0  501    0  0.00000000000E+00  0.00000000000E+00 -0.22158144776E+04  0.22158144776E+04  0.50400001928E-02 0.  1.
    10030    2    1    2    0    0  0.00000000000E+00  0.00000000000E+00 -0.75480536337E+03  0.36768235919E+04  0.35985136639E+04 0.  0.
        5    1    3    3  502    0 -0.95184852099E+03 -0.14684024188E+04 -0.80493615481E+03  0.19261790087E+04  0.46999998093E+01 0.  1.
       -5    1    3    3    0  502  0.95184852099E+03  0.14684024188E+04  0.50130791437E+02  0.17506445832E+04  0.46999998093E+01 0. -1.
</event>
<event>
 5   0  0.6939921E-07  0.3702029E+04  0.7818609E-02  0.8067512E-01
        2   -1    0    0  501    0  0.00000000000E+00  0.00000000000E+00  0.23514506988E+04  0.23514506988E+04  0.25500000920E-02 0.  1.
       -2   -1    0    0    0  501  0.00000000000E+00  0.00000000000E+00 -0.14570814992E+04  0.14570814993E+04  0.25500000920E-02 0. -1.
    10030    2    1    2    0    0  0.00000000000E+00  0.00000000000E+00  0.89436919959E+03  0.38085321981E+04  0.37020293406E+04 0.  0.
        4    1    3    3  502    0 -0.98799595058E+03 -0.15522392907E+04  0.23971256081E+03  0.18555448091E+04  0.12699999809E+01 0. -1.
       -4    1    3    3    0  502  0.98799595058E+03  0.15522392907E+04  0.65465663879E+03  0.19529873890E+04  0.12699999809E+01 0.  1.
</event>
<event>
 5   0  0.7074157E-07  0.3684369E+04  0.7818609E-02  0.8071435E-01
        2   -1    0    0  501    0  0.00000000000E+00  0.00000000000E+00  0.14551935282E+04  0.14551935282E+04  0.25500000920E-02 0.  1.
       -2   -1    0    0    0  501  0.00000000000E+00  0.00000000000E+00 -0.23320909474E+04  0.23320909474E+04  0.25500000920E-02 0. -1.
    10030    2    1    2    0    0  0.00000000000E+00  0.00000000000E+00 -0.87689741919E+03  0.37872844756E+04  0.36843689576E+04 0.  0.
        3    1    3    3  502    0  0.17447888648E+04 -0.43603181979E+03 -0.28263877504E+02  0.17986691712E+04  0.10100000352E+00 0.  1.
       -3    1    3    3    0  502 -0.17447888648E+04  0.43603181979E+03 -0.84863354169E+03  0.19886153044E+04  0.10100000352E+00 0. -1.
</event>
<event>
 5   0  0.7124627E-07  0.3488807E+04  0.7818609E-02  0.8116448E-01
       -2   -1    0    0    0  501  0.00000000000E+00  0.00000000000E+00  0.15903548703E+04  0.15903548703E+04  0.25500000920E-02 0.  1.
        2   -1    0    0  501    0  0.00000000000E+00  0.00000000000E+00 -0.19133742961E+04  0.19133742961E+04  0.25500000920E-02 0. -1.
    10030    2    1    2    0    0  0.00000000000E+00  0.00000000000E+00 -0.32301942582E+03  0.35037291664E+04  0.34888073209E+04 0.  0.
        2    1    3    3  502    0  0.75842399464E+03  0.15707122140E+04 -0.18611584536E+03  0.17541330972E+04  0.25500000920E-02 0. -1.
       -2    1    3    3    0  502 -0.75842399464E+03 -0.15707122140E+04 -0.13690358046E+03  0.17495960692E+04  0.25500000920E-02 0.  1.
</event>
<event>
 5   0  0.7300916E-07  0.3689438E+04  0.7818609E-02  0.8070307E-01
        2   -1    0    0  501    0  0.00000000000E+00  0.00000000000E+00  0.22258744252E+04  0.22258744252E+04  0.25500000920E-02 0. -1.
       -2   -1    0    0    0  501  0.00000000000E+00  0.00000000000E+00 -0.15288318959E+04  0.15288318959E+04  0.25500000920E-02 0.  1.
    10030    2    1    2    0    0  0.00000000000E+00  0.00000000000E+00  0.69704252929E+03  0.37547063211E+04  0.36894377987E+04 0.  0.
        1    1    3    3  502    0 -0.53479087390E+03  0.14706057315E+04  0.13426885174E+04  0.20619153599E+04  0.50400001928E-02 0.  1.
       -1    1    3    3    0  502  0.53479087390E+03 -0.14706057315E+04 -0.64564598816E+03  0.16927909612E+04  0.50400001928E-02 0. -1.
</event>
<event>
 5   0  0.6949625E-07  0.3688093E+04  0.7818609E-02  0.8070606E-01
       -2   -1    0    0    0  501  0.00000000000E+00  0.00000000000E+00  0.14543364417E+04  0.14543364417E+04  0.25500000920E-02 0. -1.
        2   -1    0    0  501    0  0.00000000000E+00  0.00000000000E+00 -0.23381852441E+04  0.23381852441E+04  0.25500000920E-02 0.  1.
    10030    2    1    2    0    0  0.00000000000E+00  0.00000000000E+00 -0.88384880238E+03  0.37925216859E+04  0.36880932787E+04 0.  0.
        5    1    3    3  502    0  0.12720784088E+04  0.11800657402E+04  0.20005002473E+03  0.17466484282E+04  0.46999998093E+01 0. -1.
       -5    1    3    3    0  502 -0.12720784088E+04 -0.11800657402E+04 -0.10838988271E+04  0.20458732577E+04  0.46999998093E+01 0.  1.
</event>
<event>
 5   0  0.7074157E-07  0.3935916E+04  0.7818609E-02  0.8017601E-01
       -2   -1    0    0    0  501  0.00000000000E+00  0.00000000000E+00  0.17430371541E+04  0.17430371541E+04  0.25500000920E-02 0. -1.
        2   -1    0    0  501    0  0.00000000000E+00  0.00000000000E+00 -0.22219024301E+04  0.22219024301E+04  0.25500000920E-02 0.  1.
    10030    2    1    2    0    0  0.00000000000E+00  0.00000000000E+00 -0.47886527599E+03  0.39649395842E+04  0.39359158977E+04 0.  0.
        3    1    3    3  502    0  0.93707512444E+03 -0.17094724800E+04  0.31722314125E+02  0.19497210734E+04  0.10100000352E+00 0. -1.
       -3    1    3    3    0  502 -0.93707512444E+03  0.17094724800E+04 -0.51058759011E+03  0.20152185108E+04  0.10100000352E+00 0.  1.
</event>
<event>
 5   0  0.2411746E-07  0.3663544E+04  0.7818609E-02  0.8076089E-01
        1   -1    0    0  501    0  0.00000000000E+00  0.00000000000E+00  0.14008810312E+04  0.14008810312E+04  0.50400001928E-02 0.  1.
       -1   -1    0    0    0  501  0.00000000000E+00  0.00000000000E+00 -0.23951992183E+04  0.23951992183E+04  0.50400001928E-02 0. -1.
    10030    2    1    2    0    0  0.00000000000E+00  0.00000000000E+00 -0.99431818717E+03  0.37960802495E+04  0.36635442680E+04 0.  0.
        1    1    3    3  502    0  0.84612354894E+03 -0.51365273861E+03 -0.20942251543E+04  0.23163642185E+04  0.50400001928E-02 0. -1.
       -1    1    3    3    0  502 -0.84612354894E+03  0.51365273861E+03  0.10999069672E+04  0.14797160310E+04  0.50400001928E-02 0.  1.
</event>
<event>
 5   0  0.2287500E-07  0.3799934E+04  0.7818609E-02  0.8046169E-01
        1   -1    0    0  501    0  0.00000000000E+00  0.00000000000E+00  0.21926723557E+04  0.21926723557E+04  0.50400001928E-02 0. -1.
       -1   -1    0    0    0  501  0.00000000000E+00  0.00000000000E+00 -0.16463360020E+04  0.16463360020E+04  0.50400001928E-02 0.  1.
    10030    2    1    2    0    0  0.00000000000E+00  0.00000000000E+00  0.54633635371E+03  0.38390083577E+04  0.37999344414E+04 0.  0.
        3    1    3    3  502    0 -0.17672534189E+04  0.65469386497E+03  0.51661640844E+03  0.19541497453E+04  0.10100000352E+00 0.  1.
       -3    1    3    3    0  502  0.17672534189E+04 -0.65469386497E+03  0.29719945270E+02  0.18848586124E+04  0.10100000352E+00 0. -1.
</event>
<event>
 5   0  0.2345471E-07  0.3704155E+04  0.7818609E-02  0.8067042E-01
       -1   -1    0    0    0  501  0.00000000000E+00  0.00000000000E+00  0.18386063533E+04  0.18386063533E+04  0.50400001928E-02 0. -1.
        1   -1    0    0  501    0  0.00000000000E+00  0.00000000000E+00 -0.18656470148E+04  0.18656470148E+04  0.50400001928E-02 0.  1.
    10030    2    1    2    0    0  0.00000000000E+00  0.00000000000E+00 -0.27040661520E+02  0.37042533681E+04  0.37041546698E+04 0.  0.
        5    1    3    3  502    0 -0.14333047687E+04 -0.52794244348E+03 -0.10609653393E+04  0.18597729229E+04  0.46999998093E+01 0.  1.
       -5    1    3    3    0  502  0.14333047687E+04  0.52794244348E+03  0.10339246778E+04  0.18444804452E+04  0.46999998093E+01 0. -1.
</event>
<event>
 5   0  0.2287500E-07  0.3678567E+04  0.7818609E-02  0.8072728E-01
        1   -1    0    0  501    0  0.00000000000E+00  0.00000000000E+00  0.19998029455E+04  0.19998029455E+04  0.50400001928E-02 0. -1.
       -1   -1    0    0    0  501  0.00000000000E+00  0.00000000000E+00 -0.16916481967E+04  0.16916481967E+04  0.50400001928E-02 0.  1.
    10030    2    1    2    0    0  0.00000000000E+00  0.00000000000E+00  0.30815474878E+03  0.36914511423E+04  0.36785665940E+04 0.  0.
        3    1    3    3  502    0  0.18269019758E+03 -0.18083619796E+04 -0.12871506916E+03  0.18221186396E+04  0.10100000352E+00 0.  1.
       -3    1    3    3    0  502 -0.18269019758E+03  0.18083619796E+04  0.43686981794E+03  0.18693325027E+04  0.10100000352E+00 0. -1.
</event>
<event>
 5   0  0.7124627E-07  0.3689868E+04  0.7818609E-02  0.8070211E-01
       -2   -1    0    0    0  501  0.00000000000E+00  0.00000000000E+00  0.26446662824E+04  0.26446662824E+04  0.25500000920E-02 0.  1.
        2   -1    0    0  501    0  0.00000000000E+00  0.00000000000E+00 -0.12870362953E+04  0.12870362953E+04  0.25500000920E-02 0. -1.
    10030    2    1    2    0    0  0.00000000000E+00  0.00000000000E+00  0.13576299871E+04  0.39317025777E+04  0.36898680163E+04 0.  0.
        2    1    3    3  502    0 -0.99665376928E+03  0.88457992245E+03  0.20383628739E+04  0.24353076973E+04  0.25500000920E-02 0.  1.
       -2    1    3    3    0  502  0.99665376928E+03 -0.88457992245E+03 -0.68073288675E+03  0.14963948804E+04  0.25500000920E-02 0. -1.
</event>
<event>
 5   0  0.7074157E-07  0.3687149E+04  0.7818609E-02  0.8070816E-01
       -2   -1    0    0    0  501  0.00000000000E+00  0.00000000000E+00  0.15034840178E+04  0.15034840178E+04  0.25500000920E-02 0. -1.
        2   -1    0    0  501    0  0.00000000000E+00  0.00000000000E+00 -0.22605938795E+04  0.22605938795E+04  0.25500000920E-02 0.  1.
    10030    2    1    2    0    0  0.00000000000E+00  0.00000000000E+00 -0.75710986170E+03  0.37640778973E+04  0.36871489086E+04 0.  0.
        3    1    3    3  502    0 -0.22919639276E+03 -0.14564282209E+03  0.14829548117E+04  0.15076132799E+04  0.10100000352E+00 0. -1.
       -3    1    3    3    0  502  0.22919639276E+03  0.14564282209E+03 -0.22400646734E+04  0.22564646173E+04  0.10100000352E+00 0.  1.
</event>
<event>
 5   0  0.2287500E-07  0.3605069E+04  0.7818609E-02  0.8089332E-01
       -1   -1    0    0    0  501  0.00000000000E+00  0.00000000000E+00  0.14644980143E+04  0.14644980143E+04  0.50400001928E-02 0. -1.
        1   -1    0    0  501    0  0.00000000000E+00  0.00000000000E+00 -0.22185971632E+04  0.22185971632E+04  0.50400001928E-02 0.  1.
    10030    2    1    2    0    0  0.00000000000E+00  0.00000000000E+00 -0.75409914887E+03  0.36830951776E+04  0.36050692865E+04 0.  0.
        3    1    3    3  502    0  0.13360401412E+04  0.11999814478E+04 -0.53588931766E+03  0.18740693970E+04  0.10100000352E+00 0.  1.
       -3    1    3    3    0  502 -0.13360401412E+04 -0.11999814478E+04 -0.21820983121E+03  0.18090257805E+04  0.10100000352E+00 0. -1.
</event>
<event>
 5   0  0.2287500E-07  0.3692777E+04  0.7818609E-02  0.8069564E-01
        1   -1    0    0  501    0  0.00000000000E+00  0.00000000000E+00  0.19633989422E+04  0.19633989422E+04  0.50400001928E-02 0. -1.
       -1   -1    0    0    0  501  0.00000000000E+00  0.00000000000E+00 -0.17363513884E+04  0.17363513884E+04  0.50400001928E-02 0.  1.
    10030    2    1    2    0    0  0.00000000000E+00  0.00000000000E+00  0.22704755379E+03  0.36997503306E+04  0.36927769926E+04 0.  0.
        2    1    3    3  502    0 -0.26097992399E+02  0.17311026779E+04  0.75641525040E+03  0.18893283509E+04  0.25500000920E-02 0.  1.
       -2    1    3    3    0  502  0.26097992399E+02 -0.17311026779E+04 -0.52936769661E+03  0.18104219797E+04  0.25500000920E-02 0. -1.
</event>
<event>
 5   0  0.7124627E-07  0.3761082E+04  0.7818609E-02  0.8054558E-01
        2   -1    0    0  501    0  0.00000000000E+00  0.00000000000E+00  0.22118717653E+04  0.22118717653E+04  0.25500000920E-02 0. -1.
       -2   -1    0    0    0  501  0.00000000000E+00  0.00000000000E+00 -0.15988426192E+04  0.15988426192E+04  0.25500000920E-02 0.  1.
    10030    2    1    2    0    0  0.00000000000E+00  0.00000000000E+00  0.61302914614E+03  0.38107143845E+04  0.37610822094E+04 0.  0.
        2    1    3    3  502    0  0.15813061277E+04 -0.85421638359E+03  0.86718861980E+03  0.19955527560E+04  0.25500000920E-02 0. -1.
       -2    1    3    3    0  502 -0.15813061277E+04  0.85421638359E+03 -0.25415947365E+03  0.18151616285E+04  0.25500000920E-02 0.  1.
</event>
<event>
 5   0  0.2287500E-07  0.3597289E+04  0.7818609E-02  0.8091113E-01
        1   -1    0    0  501    0  0.00000000000E+00  0.00000000000E+00  0.19289557777E+04  0.19289557777E+04  0.50400001928E-02 0. -1.
       -1   -1    0    0    0  501  0.00000000000E+00  0.00000000000E+00 -0.16771362248E+04  0.16771362248E+04  0.50400001928E-02 0.  1.
    10030    2    1    2    0    0  0.00000000000E+00  0.00000000000E+00  0.25181955288E+03  0.36060920025E+04  0.35972887628E+04 0.  0.
        4    1    3    3  502    0 -0.40860280076E+03 -0.12942116775E+04 -0.10573091259E+04  0.17204198079E+04  0.12699999809E+01 0.  1.
       -4    1    3    3    0  502  0.40860280076E+03  0.12942116775E+04  0.13091286787E+04  0.18856721946E+04  0.12699999809E+01 0. -1.
</event>
<event>
 5   0  0.7300916E-07  0.3793443E+04  0.7818609E-02  0.8047563E-01
        2   -1    0    0  501    0  0.00000000000E+00  0.00000000000E+00  0.18293857364E+04  0.18293857364E+04  0.25500000920E-02 0.  1.
       -2   -1    0    0    0  501  0.00000000000E+00  0.00000000000E+00 -0.19665359663E+04  0.19665359663E+04  0.25500000920E-02 0. -1.
    10030    2    1    2    0    0  0.00000000000E+00  0.00000000000E+00 -0.13715022988E+03  0.37959217026E+04  0.37934432099E+04 0.  0.
        1    1    3    3  502    0  0.51217067479E+03  0.99219024773E+03  0.14656560935E+04  0.18425276313E+04  0.50400001928E-02 0.  1.
       -1    1    3    3    0  502 -0.51217067479E+03 -0.99219024773E+03 -0.16028063233E+04  0.19533940713E+04  0.50400001928E-02 0. -1.
</event>
<event>
 5   0  0.2287500E-07  0.3475614E+04  0.7818609E-02  0.8119594E-01
       -1   -1    0    0    0  501  0.00000000000E+00  0.00000000000E+00  0.12681342017E+04  0.12681342018E+04  0.50400001928E-02 0.  1.
        1   -1    0    0  501    0  0.00000000000E+00  0.00000000000E+00 -0.23814302341E+04  0.23814302342E+04  0.50400001928E-02 0. -1.
    10030    2    1    2    0    0  0.00000000000E+00  0.00000000000E+00 -0.11132960324E+04  0.36495644359E+04  0.34756139769E+04 0.  0.
        4    1    3    3  502    0 -0.80960816356E+03  0.31113227773E+03 -0.21379054242E+04  0.23071432310E+04  0.12699999809E+01 0. -1.
       -4    1    3    3    0  502  0.80960816356E+03 -0.31113227773E+03  0.10246093918E+04  0.13424212049E+04  0.12699999809E+01 0.  1.
</event>
<event>
 5   0  0.2287500E-07  0.3687827E+04  0.7818609E-02  0.8070665E-01
       -1   -1    0    0    0  501  0.00000000000E+00  0.00000000000E+00  0.15829826677E+04  0.15829826677E+04  0.50400001928E-02 0. -1.
        1   -1    0    0  501    0  0.00000000000E+00  0.00000000000E+00 -0.21478549471E+04  0.21478549471E+04  0.50400001928E-02 0.  1.
    10030    2    1    2    0    0  0.00000000000E+00  0.00000000000E+00 -0.56487227935E+03  0.37308376148E+04  0.36878270860E+04 0.  0.
        3    1    3    3  502    0  0.17628770434E+04  0.27195871357E+03 -0.75513296905E+03  0.19369880803E+04  0.10100000352E+00 0.  1.
       -3    1    3    3    0  502 -0.17628770434E+04 -0.27195871357E+03  0.19026068971E+03  0.17938495345E+04  0.10100000352E+00 0. -1.
</event>
<event>
 5   0  0.2287500E-07  0.3682356E+04  0.7818609E-02  0.8071883E-01
        1   -1    0    0  501    0  0.00000000000E+00  0.00000000000E+00  0.22038568174E+04  0.22038568174E+04  0.50400001928E-02 0.  1.
       -1   -1    0    0    0  501  0.00000000000E+00  0.00000000000E+00 -0.15381836987E+04  0.15381836987E+04  0.50400001928E-02 0. -1.
    10030    2    1    2    0    0  0.00000000000E+00  0.00000000000E+00  0.66567311865E+03  0.37420405161E+04  0.36823561103E+04 0.  0.
        2    1    3    3  502    0 -0.98799286559E+03  0.13104381932E+04  0.11809647300E+04  0.20218941254E+04  0.25500000920E-02 0.  1.
       -2    1    3    3    0  502  0.98799286559E+03 -0.13104381932E+04 -0.51529161139E+03  0.17201463907E+04  0.25500000920E-02 0. -1.
</event>
<event>
 5   0  0.7300916E-07  0.3712264E+04  0.7818609E-02  0.8065249E-01
        2   -1    0    0  501    0  0.00000000000E+00  0.00000000000E+00  0.13242158458E+04  0.13242158458E+04  0.25500000920E-02 0.  1.
       -2   -1    0    0    0  501  0.00000000000E+00  0.00000000000E+00 -0.26017103900E+04  0.26017103900E+04  0.25500000920E-02 0. -1.
    10030    2    1    2    0    0  0.00000000000E+00  0.00000000000E+00 -0.12774945442E+04  0.39259262358E+04  0.37122640664E+04 0.  0.
        1    1    3    3  502    0 -0.90782906000E+03 -0.81772926332E+03  0.83895422727E+03  0.14821197474E+04  0.50400001928E-02 0.  1.
       -1    1    3    3    0  502  0.90782906000E+03  0.81772926332E+03 -0.21164487715E+04  0.24438064884E+04  0.50400001928E-02 0. -1.
</event>
<event>
 5   0  0.6949625E-07  0.2708218E+04  0.7818609E-02  0.8332343E-01
        2   -1    0    0  501    0  0.00000000000E+00  0.00000000000E+00  0.17158794676E+04  0.17158794676E+04  0.25500000920E-02 0. -1.
       -2   -1    0    0    0  501  0.00000000000E+00  0.00000000000E+00 -0.10686131635E+04  0.10686131635E+04  0.25500000920E-02 0.  1.
    10030    2    1    2    0    0  0.00000000000E+00  0.00000000000E+00  0.64726630407E+03  0.27844926311E+04  0.27082181493E+04 0.  0.
        5    1    3    3  502    0 -0.31135243985E+03 -0.11946801722E+04  0.89552555824E+03  0.15251849629E+04  0.46999998093E+01 0. -1.
       -5    1    3    3    0  502  0.31135243985E+03  0.11946801722E+04 -0.24825925417E+03  0.12593076681E+04  0.46999998093E+01 0.  1.
</event>
<event>
 5   0  0.2345471E-07  0.3679179E+04  0.7818609E-02  0.8072592E-01
        1   -1    0    0  501    0  0.00000000000E+00  0.00000000000E+00  0.24421397678E+04  0.24421397678E+04  0.50400001928E-02 0. -1.
       -1   -1    0    0    0  501  0.00000000000E+00  0.00000000000E+00 -0.13857069354E+04  0.13857069354E+04  0.50400001928E-02 0.  1.
    10030    2    1    2    0    0  0.00000000000E+00  0.00000000000E+00  0.10564328323E+04  0.38278467032E+04  0.36791792637E+04 0.  0.
        5    1    3    3  502    0  0.42284470669E+03 -0.10418296536E+04  0.20430234263E+04  0.23319891688E+04  0.46999998093E+01 0. -1.
       -5    1    3    3    0  502 -0.42284470669E+03  0.10418296536E+04 -0.98659059397E+03  0.14958575344E+04  0.46999998093E+01 0.  1.
</event>
<event>
 5   0  0.6939921E-07  0.3733195E+04  0.7818609E-02  0.8060645E-01
       -2   -1    0    0    0  501  0.00000000000E+00  0.00000000000E+00  0.15539624771E+04  0.15539624771E+04  0.25500000920E-02 0.  1.
        2   -1    0    0  501    0  0.00000000000E+00  0.00000000000E+00 -0.22421303038E+04  0.22421303038E+04  0.25500000920E-02 0. -1.
    10030    2    1    2    0    0  0.00000000000E+00  0.00000000000E+00 -0.68816782667E+03  0.37960927810E+04  0.37331950718E+04 0.  0.
        4    1    3    3  502    0  0.10123991150E+04  0.10403757385E+04 -0.15372464893E+04  0.21143467140E+04  0.12699999809E+01 0. -1.
       -4    1    3    3    0  502 -0.10123991150E+04 -0.10403757385E+04  0.84907866266E+03  0.16817460669E+04  0.12699999809E+01 0.  1.
</event>
<event>
 5   0  0.2411746E-07  0.3705986E+04  0.7818609E-02  0.8066637E-01
       -1   -1    0    0    0  501  0.00000000000E+00  0.00000000000E+00  0.20722047866E+04  0.20722047866E+04  0.50400001928E-02 0.  1.
        1   -1    0    0  501    0  0.00000000000E+00  0.00000000000E+00 -0.16569710845E+04  0.16569710845E+04  0.50400001928E-02 0. -1.
    10030    2    1    2    0    0  0.00000000000E+00  0.00000000000E+00  0.41523370208E+03  0.37291758712E+04  0.37059861914E+04 0.  0.
        1    1    3    3  502    0 -0.27697646473E+03 -0.16122767618E+04 -0.66813413234E+03  0.17670754193E+04  0.50400001928E-02 0. -1.
       -1    1    3    3    0  502  0.27697646473E+03  0.16122767618E+04  0.10833678344E+04  0.19621004519E+04  0.50400001928E-02 0.  1.
</event>
<event>
 5   0  0.2345471E-07  0.3712544E+04  0.7818609E-02  0.8065188E-01
        1   -1    0    0  501    0  0.00000000000E+00  0.00000000000E+00  0.20675287055E+04  0.20675287055E+04  0.50400001928E-02 0.  1.
       -1   -1    0    0    0  501  0.00000000000E+00  0.00000000000E+00 -0.16666014707E+04  0.16666014707E+04  0.50400001928E-02 0. -1.
    10030    2    1    2    0    0  0.00000000000E+00  0.00000000000E+00  0.40092723479E+03  0.37341301761E+04  0.37125443465E+04 0.  0.
        5    1    3    3  502    0 -0.11362850683E+04 -0.63462327127E+03  0.15317278361E+04  0.20100006733E+04  0.46999998093E+01 0.  1.
       -5    1    3    3    0  502  0.11362850683E+04  0.63462327127E+03 -0.11308006013E+04  0.17241295029E+04  0.46999998093E+01 0. -1.
</event>
<event>
 5   0  0.2287500E-07  0.3708023E+04  0.7818609E-02  0.8066186E-01
       -1   -1    0    0    0  501  0.00000000000E+00  0.00000000000E+00  0.14335118577E+04  0.14335118577E+04  0.50400001928E-02 0.  1.
        1   -1    0    0  501    0  0.00000000000E+00  0.00000000000E+00 -0.23978585547E+04  0.23978585547E+04  0.50400001928E-02 0. -1.
    10030    2    1    2    0    0  0.00000000000E+00  0.00000000000E+00 -0.96434669700E+03  0.38313704124E+04  0.37080230157E+04 0.  0.
        2    1    3    3  502    0 -0.23434233534E+03  0.32624465433E+02 -0.23821951331E+04  0.23939161092E+04  0.25500000920E-02 0. -1.
       -2    1    3    3    0  502  0.23434233534E+03 -0.32624465433E+02  0.14178484361E+04  0.14374543032E+04  0.25500000920E-02 0.  1.
</event>
<event>
 5   0  0.2287500E-07  0.3125622E+04  0.7818609E-02  0.8208741E-01
        1   -1    0    0  501    0  0.00000000000E+00  0.00000000000E+00  0.12376087789E+04  0.12376087789E+04  0.50400001928E-02 0. -1.
       -1   -1    0    0    0  501  0.00000000000E+00  0.00000000000E+00 -0.19734659126E+04  0.19734659127E+04  0.50400001928E-02 0.  1.
    10030    2    1    2    0    0  0.00000000000E+00  0.00000000000E+00 -0.73585713379E+03  0.32110746915E+04  0.31256223305E+04 0.  0.
        2    1    3    3  502    0 -0.15614273703E+04  0.57919407917E+02 -0.33595457865E+03  0.15982101144E+04  0.25500000920E-02 0.  1.
       -2    1    3    3    0  502  0.15614273703E+04 -0.57919407917E+02 -0.39990255513E+03  0.16128645772E+04  0.25500000920E-02 0. -1.
</event>
<event>
 5   0  0.2345471E-07  0.3688554E+04  0.7818609E-02  0.8070503E-01
        1   -1    0    0  501    0  0.00000000000E+00  0.00000000000E+00  0.19577956096E+04  0.19577956096E+04  0.50400001928E-02 0.  1.
       -1   -1    0    0    0  501  0.00000000000E+00  0.00000000000E+00 -0.17373408893E+04  0.17373408893E+04  0.50400001928E-02 0. -1.
    10030    2    1    2    0    0  0.00000000000E+00  0.00000000000E+00  0.22045472030E+03  0.36951364989E+04  0.36885543864E+04 0.  0.
        5    1    3    3  502    0 -0.11439807520E+04 -0.14057433380E+04 -0.23174667590E+03  0.18271658122E+04  0.46999998093E+01 0.  1.
       -5    1    3    3    0  502  0.11439807520E+04  0.14057433380E+04  0.45220139620E+03  0.18679706867E+04  0.46999998093E+01 0. -1.
</event>
<event>
 5   0  0.2345471E-07  0.3727361E+04  0.7818609E-02  0.8061925E-01
       -1   -1    0    0    0  501  0.00000000000E+00  0.00000000000E+00  0.21790399735E+04  0.21790399736E+04  0.50400001928E-02 0. -1.
        1   -1    0    0  501    0  0.00000000000E+00  0.00000000000E+00 -0.15939614123E+04  0.15939614123E+04  0.50400001928E-02 0.  1.
    10030    2    1    2    0    0  0.00000000000E+00  0.00000000000E+00  0.58507856121E+03  0.37730013859E+04  0.37273613368E+04 0.  0.
        5    1    3    3  502    0 -0.50438865933E+03 -0.70459466458E+03  0.19627189396E+04  0.21454951146E+04  0.46999998093E+01 0. -1.
       -5    1    3    3    0  502  0.50438865933E+03  0.70459466458E+03 -0.13776403784E+04  0.16275062713E+04  0.46999998093E+01 0.  1.
</event>
<event>
 5   0  0.2287500E-07  0.3717849E+04  0.7818609E-02  0.8064018E-01
        1   -1    0    0  501    0  0.00000000000E+00  0.00000000000E+00  0.19602429763E+04  0.19602429763E+04  0.50400001928E-02 0.  1.
       -1   -1    0    0    0  501  0.00000000000E+00  0.00000000000E+00 -0.17628425485E+04  0.17628425485E+04  0.50400001928E-02 0. -1.
    10030    2    1    2    0    0  0.00000000000E+00  0.00000000000E+00  0.19740042780E+03  0.37230855249E+04  0.37178486920E+04 0.  0.
        2    1    3    3  502    0 -0.53029835361E+03 -0.16888388374E+04  0.66713235534E+03  0.18916814061E+04  0.25500000920E-02 0. -1.
       -2    1    3    3    0  502  0.53029835361E+03  0.16888388374E+04 -0.46973192754E+03  0.18314041188E+04  0.25500000920E-02 0.  1.
</event>
<event>
 5   0  0.2287500E-07  0.3659066E+04  0.7818609E-02  0.8077094E-01
        1   -1    0    0  501    0  0.00000000000E+00  0.00000000000E+00  0.12575317983E+04  0.12575317984E+04  0.50400001928E-02 0.  1.
       -1   -1    0    0    0  501  0.00000000000E+00  0.00000000000E+00 -0.26617153239E+04  0.26617153239E+04  0.50400001928E-02 0. -1.
    10030    2    1    2    0    0  0.00000000000E+00  0.00000000000E+00 -0.14041835256E+04  0.39192471223E+04  0.36590663607E+04 0.  0.
        2    1    3    3  502    0  0.12922717374E+04 -0.82258125048E+03  0.36932753640E+03  0.15757566393E+04  0.25500000920E-02 0.  1.
       -2    1    3    3    0  502 -0.12922717374E+04  0.82258125048E+03 -0.17735110620E+04  0.23434904830E+04  0.25500000920E-02 0. -1.
</event>
<event>
 5   0  0.6949625E-07  0.3631713E+04  0.7818609E-02  0.8083266E-01
       -2   -1    0    0    0  501  0.00000000000E+00  0.00000000000E+00  0.14897373369E+04  0.14897373369E+04  0.25500000920E-02 0. -1.
        2   -1    0    0  501    0  0.00000000000E+00  0.00000000000E+00 -0.22133665113E+04  0.22133665113E+04  0.25500000920E-02 0.  1.
    10030    2    1    2    0    0  0.00000000000E+00  0.00000000000E+00 -0.72362917442E+03  0.37031038481E+04  0.36317129468E+04 0.  0.
        5    1    3    3  502    0 -0.16771218914E+04  0.18867146861E+03 -0.10450444647E+04  0.19850629171E+04  0.46999998093E+01 0. -1.
       -5    1    3    3    0  502  0.16771218914E+04 -0.18867146861E+03  0.32141529029E+03  0.17180409310E+04  0.46999998093E+01 0.  1.
</event>
<event>
 5   0  0.7300916E-07  0.3700202E+04  0.7818609E-02  0.8067917E-01
       -2   -1    0    0    0  501  0.00000000000E+00  0.00000000000E+00  0.18824769346E+04  0.18824769346E+04  0.25500000920E-02 0.  1.
        2   -1    0    0  501    0  0.00000000000E+00  0.00000000000E+00 -0.18182820413E+04  0.18182820413E+04  0.25500000920E-02 0. -1.
    10030    2    1    2    0    0  0.00000000000E+00  0.00000000000E+00  0.64194893338E+02  0.37007589758E+04  0.37002021584E+04 0.  0.
        1    1    3    3  502    0 -0.56318018032E+03  0.17300485554E+04  0.36775796766E+03  0.18562019939E+04  0.50400001928E-02 0. -1.
       -1    1    3    3    0  502  0.56318018032E+03 -0.17300485554E+04 -0.30356307432E+03  0.18445569819E+04  0.50400001928E-02 0.  1.
</event>
<event>
 5   0  0.2345471E-07  0.3636866E+04  0.7818609E-02  0.8082099E-01
        1   -1    0    0  501    0  0.00000000000E+00  0.00000000000E+00  0.23748017795E+04  0.23748017795E+04  0.50400001928E-02 0.  1.
       -1   -1    0    0    0  501  0.00000000000E+00  0.00000000000E+00 -0.13924106908E+04  0.13924106908E+04  0.50400001928E-02 0. -1.
    10030    2    1    2    0    0  0.00000000000E+00  0.00000000000E+00  0.98239108876E+03  0.37672124703E+04  0.36368664459E+04 0.  0.
        5    1    3    3  502    0  0.19499226008E+03 -0.78078431352E+03 -0.11979010108E+04  0.14431337593E+04  0.46999998093E+01 0. -1.
       -5    1    3    3    0  502 -0.19499226008E+03  0.78078431352E+03  0.21802920995E+04  0.23240787110E+04  0.46999998093E+01 0.  1.
</event>
<event>
 5   0  0.2287500E-07  0.3588565E+04  0.7818609E-02  0.8093116E-01
        1   -1    0    0  501    0  0.00000000000E+00  0.00000000000E+00  0.14071893605E+04  0.14071893605E+04  0.50400001928E-02 0.  1.
       -1   -1    0    0    0  501  0.00000000000E+00  0.00000000000E+00 -0.22878578541E+04  0.22878578541E+04  0.50400001928E-02 0. -1.
    10030    2    1    2    0    0  0.00000000000E+00  0.00000000000E+00 -0.88066849361E+03  0.36950472146E+04  0.35885647441E+04 0.  0.
        2    1    3    3  502    0 -0.70182849875E+03 -0.15327060992E+04  0.19247315446E+03  0.16967018428E+04  0.25500000920E-02 0.  1.
       -2    1    3    3    0  502  0.70182849875E+03  0.15327060992E+04 -0.10731416481E+04  0.19983453718E+04  0.25500000920E-02 0. -1.
</event>
<event>
 5   0  0.2411746E-07  0.3702017E+04  0.7818609E-02  0.8067515E-01
       -1   -1    0    0    0  501  0.00000000000E+00  0.00000000000E+00  0.18618313408E+04  0.18618313408E+04  0.50400001928E-02 0.  1.
        1   -1    0    0  501    0  0.00000000000E+00  0.00000000000E+00 -0.18402481803E+04  0.18402481803E+04  0.50400001928E-02 0. -1.
    10030    2    1    2    0    0  0.00000000000E+00  0.00000000000E+00  0.21583160430E+02  0.37020795211E+04  0.37020166056E+04 0.  0.
        1    1    3    3  502    0  0.18120931314E+04 -0.25135159227E+03 -0.27094463517E+03  0.18493972356E+04  0.50400001928E-02 0.  1.
       -1    1    3    3    0  502 -0.18120931314E+04  0.25135159227E+03  0.29252779560E+03  0.18526822855E+04  0.50400001928E-02 0. -1.
</event>
<event>
 5   0  0.6949625E-07  0.3701620E+04  0.7818609E-02  0.8067603E-01
       -2   -1    0    0    0  501  0.00000000000E+00  0.00000000000E+00  0.16418324236E+04  0.16418324236E+04  0.25500000920E-02 0. -1.
        2   -1    0    0  501    0  0.00000000000E+00  0.00000000000E+00 -0.20863868148E+04  0.20863868148E+04  0.25500000920E-02 0.  1.
    10030    2    1    2    0    0  0.00000000000E+00  0.00000000000E+00 -0.44455439122E+03  0.37282192384E+04  0.37016199268E+04 0.  0.
        5    1    3    3  502    0 -0.66455456091E+03 -0.91493900247E+03 -0.16979778147E+04  0.20400727663E+04  0.46999998093E+01 0.  1.
       -5    1    3    3    0  502  0.66455456091E+03  0.91493900247E+03  0.12534234235E+04  0.16881464721E+04  0.46999998093E+01 0. -1.
</event>
<event>
 5   0  0.6949625E-07  0.3666252E+04  0.7818609E-02  0.8075482E-01
       -2   -1    0    0    0  501  0.00000000000E+00  0.00000000000E+00  0.13006011983E+04  0.13006011983E+04  0.25500000920E-02 0. -1.
        2   -1    0    0  501    0  0.00000000000E+00  0.00000000000E+00 -0.25836911711E+04  0.25836911711E+04  0.25500000920E-02 0.  1.
    10030    2    1    2    0    0  0.00000000000E+00  0.00000000000E+00 -0.12830899728E+04  0.38842923693E+04  0.36662524916E+04 0.  0.
        5    1    3    3  502    0 -0.36530259919E+02  0.24295993368E+03  0.12830717451E+04  0.13063916650E+04  0.46999998093E+01 0. -1.
       -5    1    3    3    0  502  0.36530259919E+02 -0.24295993368E+03 -0.25661617179E+04  0.25779007044E+04  0.46999998093E+01 0.  1.
</event>
<event>
 5   0  0.6939921E-07  0.3752230E+04  0.7818609E-02  0.8056485E-01
       -2   -1    0    0    0  501  0.00000000000E+00  0.00000000000E+00  0.22048426619E+04  0.22048426620E+04  0.25500000920E-02 0.  1.
        2   -1    0    0  501    0  0.00000000000E+00  0.00000000000E+00 -0.15963980762E+04  0.15963980762E+04  0.25500000920E-02 0. -1.
    10030    2    1    2    0    0  0.00000000000E+00  0.00000000000E+00  0.60844458577E+03  0.38012407381E+04  0.37522295153E+04 0.  0.
        4    1    3    3  502    0 -0.14944990327E+04 -0.25842745043E+03  0.14229531356E+04  0.20796897233E+04  0.12699999809E+01 0.  1.
       -4    1    3    3    0  502  0.14944990327E+04  0.25842745043E+03 -0.81450854987E+03  0.17215510149E+04  0.12699999809E+01 0. -1.
</event>
<event>
 5   0  0.2345471E-07  0.3692147E+04  0.7818609E-02  0.8069704E-01
       -1   -1    0    0    0  501  0.00000000000E+00  0.00000000000E+00  0.15992776785E+04  0.15992776785E+04  0.50400001928E-02 0.  1.
        1   -1    0    0  501    0  0.00000000000E+00  0.00000000000E+00 -0.21309540920E+04  0.21309540920E+04  0.50400001928E-02 0. -1.
    10030    2    1    2    0    0  0.00000000000E+00  0.00000000000E+00 -0.53167641356E+03  0.37302317705E+04  0.36921469707E+04 0.  0.
        5    1    3    3  502    0 -0.14075094094E+04  0.31012690368E+03 -0.14312986376E+04  0.20312309848E+04  0.46999998093E+01 0. -1.
       -5    1    3    3    0  502  0.14075094094E+04 -0.31012690368E+03  0.89962222402E+03  0.16990007857E+04  0.46999998093E+01 0.  1.
</event>
<event>
 5   0  0.7124627E-07  0.3723945E+04  0.7818609E-02  0.8062676E-01
        2   -1    0    0  501    0  0.00000000000E+00  0.00000000000E+00  0.24099339786E+04  0.24099339786E+04  0.25500000920E-02 0.  1.
       -2   -1    0    0    0  501  0.00000000000E+00  0.00000000000E+00 -0.14386043895E+04  0.14386043895E+04  0.25500000920E-02 0. -1.
    10030    2    1    2    0    0  0.00000000000E+00  0.00000000000E+00  0.97132958913E+03  0.38485383682E+04  0.37239450050E+04 0.  0.
        2    1    3    3  502    0  0.17262110790E+04 -0.50380756919E+03  0.98485234673E+03  0.20502587400E+04  0.25500000920E-02 0. -1.
       -2    1    3    3    0  502 -0.17262110790E+04  0.50380756919E+03 -0.13522757597E+02  0.17982796282E+04  0.25500000920E-02 0.  1.
</event>
<event>
 5   0  0.2287500E-07  0.3533972E+04  0.7818609E-02  0.8105786E-01
        1   -1    0    0  501    0  0.00000000000E+00  0.00000000000E+00  0.21885739725E+04  0.21885739725E+04  0.50400001928E-02 0.  1.
       -1   -1    0    0    0  501  0.00000000000E+00  0.00000000000E+00 -0.14266091939E+04  0.14266091939E+04  0.50400001928E-02 0. -1.
    10030    2    1    2    0    0  0.00000000000E+00  0.00000000000E+00  0.76196477865E+03  0.36151831664E+04  0.35339721282E+04 0.  0.
        2    1    3    3  502    0  0.21829140608E+03  0.13284293354E+04  0.15517759039E+04  0.20543573431E+04  0.25500000920E-02 0.  1.
       -2    1    3    3    0  502 -0.21829140608E+03 -0.13284293354E+04 -0.78981112529E+03  0.15608258233E+04  0.25500000920E-02 0. -1.
</event>
<event>
 5   0  0.7124627E-07  0.3080346E+04  0.7818609E-02  0.8221153E-01
        2   -1    0    0  501    0  0.00000000000E+00  0.00000000000E+00  0.28969980574E+04  0.28969980574E+04  0.25500000920E-02 0.  1.
       -2   -1    0    0    0  501  0.00000000000E+00  0.00000000000E+00 -0.81882443253E+03  0.81882443254E+03  0.25500000920E-02 0. -1.
    10030    2    1    2    0    0  0.00000000000E+00  0.00000000000E+00  0.20781736249E+04  0.37158224899E+04  0.30803459484E+04 0.  0.
        2    1    3    3  502    0 -0.11226947568E+04  0.75457524640E+03  0.15075041271E+03  0.13610852311E+04  0.25500000920E-02 0. -1.
       -2    1    3    3    0  502  0.11226947568E+04 -0.75457524640E+03  0.19274232121E+04  0.23547372588E+04  0.25500000920E-02 0.  1.
</event>
<event>
 5   0  0.2345471E-07  0.3694468E+04  0.7818609E-02  0.8069189E-01
       -1   -1    0    0    0  501  0.00000000000E+00  0.00000000000E+00  0.18570475688E+04  0.18570475688E+04  0.50400001928E-02 0. -1.
        1   -1    0    0  501    0  0.00000000000E+00  0.00000000000E+00 -0.18374724428E+04  0.18374724428E+04  0.50400001928E-02 0.  1.
    10030    2    1    2    0    0  0.00000000000E+00  0.00000000000E+00  0.19575125949E+02  0.36945200116E+04  0.36944681526E+04 0.  0.
        5    1    3    3  502    0  0.13625050419E+04  0.84398939438E+03 -0.90865526946E+03  0.18423937081E+04  0.46999998093E+01 0.  1.
       -5    1    3    3    0  502 -0.13625050419E+04 -0.84398939438E+03  0.92823039541E+03  0.18521263035E+04  0.46999998093E+01 0. -1.
</event>
<event>
 5   0  0.6939921E-07  0.3743184E+04  0.7818609E-02  0.8058458E-01
        2   -1    0    0  501    0  0.00000000000E+00  0.00000000000E+00  0.20319367552E+04  0.20319367552E+04  0.25500000920E-02 0.  1.
       -2   -1    0    0    0  501  0.00000000000E+00  0.00000000000E+00 -0.17239006565E+04  0.17239006565E+04  0.25500000920E-02 0. -1.
    10030    2    1    2    0    0  0.00000000000E+00  0.00000000000E+00  0.30803609870E+03  0.37558374116E+04  0.37431842627E+04 0.  0.
        4    1    3    3  502    0  0.16548606541E+04  0.81677563276E+03 -0.15875552784E+03  0.18522664898E+04  0.12699999809E+01 0. -1.
       -4    1    3    3    0  502 -0.16548606541E+04 -0.81677563276E+03  0.46679162654E+03  0.19035709218E+04  0.12699999809E+01 0.  1.
</event>
<event>
 5   0  0.2411746E-07  0.3743890E+04  0.7818609E-02  0.8058304E-01
        1   -1    0    0  501    0  0.00000000000E+00  0.00000000000E+00  0.20716779796E+04  0.20716779796E+04  0.50400001928E-02 0. -1.
       -1   -1    0    0    0  501  0.00000000000E+00  0.00000000000E+00 -0.16914683665E+04  0.16914683665E+04  0.50400001928E-02 0.  1.
    10030    2    1    2    0    0  0.00000000000E+00  0.00000000000E+00  0.38020961307E+03  0.37631463461E+04  0.37438898318E+04 0.  0.
        1    1    3    3  502    0  0.96530665674E+03 -0.26528333082E+03 -0.13997975339E+04  0.17209373385E+04  0.50400001928E-02 0.  1.
       -1    1    3    3    0  502 -0.96530665674E+03  0.26528333082E+03  0.17800071470E+04  0.20422090076E+04  0.50400001928E-02 0. -1.
</event>
<event>
 5   0  0.2345471E-07  0.3589449E+04  0.7818609E-02  0.8092913E-01
        1   -1    0    0  501    0  0.00000000000E+00  0.00000000000E+00  0.14233089707E+04  0.14233089707E+04  0.50400001928E-02 0.  1.
       -1   -1    0    0    0  501  0.00000000000E+00  0.00000000000E+00 -0.22630612424E+04  0.22630612425E+04  0.50400001928E-02 0. -1.
    10030    2    1    2    0    0  0.00000000000E+00  0.00000000000E+00 -0.83975227177E+03  0.36863702131E+04  0.35894486304E+04 0.  0.
        5    1    3    3  502    0  0.13077148207E+04  0.10868445636E+04 -0.10095434387E+04  0.19775108602E+04  0.46999998093E+01 0. -1.
       -5    1    3    3    0  502 -0.13077148207E+04 -0.10868445636E+04  0.16979116696E+03  0.17088593529E+04  0.46999998093E+01 0.  1.
</event>
<event>
 5   0  0.2411746E-07  0.3753452E+04  0.7818609E-02  0.8056218E-01
        1   -1    0    0  501    0  0.00000000000E+00  0.00000000000E+00  0.26755591452E+04  0.26755591452E+04  0.50400001928E-02 0. -1.
       -1   -1    0    0    0  501  0.00000000000E+00  0.00000000000E+00 -0.13163978237E+04  0.13163978237E+04  0.50400001928E-02 0.  1.
    10030    2    1    2    0    0  0.00000000000E+00  0.00000000000E+00  0.13591613215E+04  0.39919569690E+04  0.37534518705E+04 0.  0.
        1    1    3    3  502    0 -0.10125619772E+04  0.11977586542E+04 -0.41653568164E+03  0.16227783353E+04  0.50400001928E-02 0.  1.
       -1    1    3    3    0  502  0.10125619772E+04 -0.11977586542E+04  0.17756970031E+04  0.23691786337E+04  0.50400001928E-02 0. -1.
</event>
<event>
 5   0  0.7124627E-07  0.3685236E+04  0.7818609E-02  0.8071241E-01
        2   -1    0    0  501    0  0.00000000000E+00  0.00000000000E+00  0.19545023888E+04  0.19545023888E+04  0.25500000920E-02 0. -1.
       -2   -1    0    0    0  501  0.00000000000E+00  0.00000000000E+00 -0.17371388315E+04  0.17371388315E+04  0.25500000920E-02 0.  1.
    10030    2    1    2    0    0  0.00000000000E+00  0.00000000000E+00  0.21736355738E+03  0.36916412203E+04  0.36852364895E+04 0.  0.
        2    1    3    3  502    0  0.30622625908E+03  0.11125828790E+04 -0.13303477470E+04  0.17610906599E+04  0.25500000920E-02 0.  1.
       -2    1    3    3    0  502 -0.30622625908E+03 -0.11125828790E+04  0.15477113044E+04  0.19305505604E+04  0.25500000920E-02 0. -1.
</event>
<event>
 5   0  0.7300916E-07  0.3325770E+04  0.7818609E-02  0.8156369E-01
       -2   -1    0    0    0  501  0.00000000000E+00  0.00000000000E+00  0.15058623424E+04  0.15058623424E+04  0.25500000920E-02 0.  1.
        2   -1    0    0  501    0  0.00000000000E+00  0.00000000000E+00 -0.18362806984E+04  0.18362806984E+04  0.25500000920E-02 0. -1.
    10030    2    1    2    0    0  0.00000000000E+00  0.00000000000E+00 -0.33041835600E+03  0.33421430408E+04  0.33257696576E+04 0.  0.
        1    1    3    3  502    0  0.13589748866E+03 -0.16232094804E+04  0.17096550468E+03  0.16378358735E+04  0.50400001928E-02 0.  1.
       -1    1    3    3    0  502 -0.13589748866E+03  0.16232094804E+04 -0.50138386068E+03  0.17043071673E+04  0.50400001928E-02 0. -1.
</event>
<event>
 5   0  0.2345471E-07  0.3717889E+04  0.7818609E-02  0.8064009E-01
       -1   -1    0    0    0  501  0.00000000000E+00  0.00000000000E+00  0.14089480367E+04  0.14089480367E+04  0.50400001928E-02 0. -1.
        1   -1    0    0  501    0  0.00000000000E+00  0.00000000000E+00 -0.24526630041E+04  0.24526630041E+04  0.50400001928E-02 0.  1.
    10030    2    1    2    0    0  0.00000000000E+00  0.00000000000E+00 -0.10437149674E+04  0.38616110408E+04  0.37178890378E+04 0.  0.
        5    1    3    3  502    0  0.46526180513E+03  0.16105359489E+04  0.31253900438E+03  0.17052851109E+04  0.46999998093E+01 0. -1.
       -5    1    3    3    0  502 -0.46526180513E+03 -0.16105359489E+04 -0.13562539718E+04  0.21563259300E+04  0.46999998093E+01 0.  1.
</event>
<event>
 5   0  0.6949625E-07  0.3699518E+04  0.7818609E-02  0.8068069E-01
       -2   -1    0    0    0  501  0.00000000000E+00  0.00000000000E+00  0.14873091934E+04  0.14873091934E+04  0.25500000920E-02 0.  1.
        2   -1    0    0  501    0  0.00000000000E+00  0.00000000000E+00 -0.23005354244E+04  0.23005354244E+04  0.25500000920E-02 0. -1.
    10030    2    1    2    0    0  0.00000000000E+00  0.00000000000E+00 -0.81322623094E+03  0.37878446178E+04  0.36995175288E+04 0.  0.
        5    1    3    3  502    0  0.29747544790E+03 -0.66648795020E+03  0.13336398635E+04  0.15203010246E+04  0.46999998093E+01 0.  1.
       -5    1    3    3    0  502 -0.29747544790E+03  0.66648795020E+03 -0.21468660944E+04  0.22675435932E+04  0.46999998093E+01 0. -1.
</event>
<event>
 5   0  0.6949625E-07  0.2657527E+04  0.7818609E-02  0.8348919E-01
       -2   -1    0    0    0  501  0.00000000000E+00  0.00000000000E+00  0.10058493875E+04  0.10058493875E+04  0.25500000920E-02 0.  1.
        2   -1    0    0  501    0  0.00000000000E+00  0.00000000000E+00 -0.17553441379E+04  0.17553441379E+04  0.25500000920E-02 0. -1.
    10030    2    1    2    0    0  0.00000000000E+00  0.00000000000E+00 -0.74949475041E+03  0.27611935254E+04  0.26575265387E+04 0.  0.
        5    1    3    3  502    0 -0.34096277960E+03 -0.12674989370E+04 -0.15984437126E+03  0.13222637730E+04  0.46999998093E+01 0. -1.
       -5    1    3    3    0  502  0.34096277960E+03  0.12674989370E+04 -0.58965037916E+03  0.14389297523E+04  0.46999998093E+01 0.  1.
</event>
<event>
 5   0  0.6949625E-07  0.3669458E+04  0.7818609E-02  0.8074764E-01
        2   -1    0    0  501    0  0.00000000000E+00  0.00000000000E+00  0.23618695010E+04  0.23618695010E+04  0.25500000920E-02 0.  1.
       -2   -1    0    0    0  501  0.00000000000E+00  0.00000000000E+00 -0.14252399102E+04  0.14252399103E+04  0.25500000920E-02 0. -1.
    10030    2    1    2    0    0  0.00000000000E+00  0.00000000000E+00  0.93662959073E+03  0.37871094112E+04  0.36694580938E+04 0.  0.
        5    1    3    3  502    0 -0.75830013859E+03 -0.58902480468E+03 -0.11452179302E+04  0.14944950714E+04  0.46999998093E+01 0. -1.
       -5    1    3    3    0  502  0.75830013859E+03  0.58902480468E+03  0.20818475210E+04  0.22926143398E+04  0.46999998093E+01 0.  1.
</event>
<event>
 5   0  0.2411746E-07  0.3700360E+04  0.7818609E-02  0.8067882E-01
        1   -1    0    0  501    0  0.00000000000E+00  0.00000000000E+00  0.16628324713E+04  0.16628324713E+04  0.50400001928E-02 0.  1.
       -1   -1    0    0    0  501  0.00000000000E+00  0.00000000000E+00 -0.20586351815E+04  0.20586351815E+04  0.50400001928E-02 0. -1.
    10030    2    1    2    0    0  0.00000000000E+00  0.00000000000E+00 -0.39580271014E+03  0.37214676528E+04  0.37003596725E+04 0.  0.
        1    1    3    3  502    0  0.12316911859E+04 -0.88379356822E+03 -0.12646171552E+04  0.19741861103E+04  0.50400001928E-02 0. -1.
       -1    1    3    3    0  502 -0.12316911859E+04  0.88379356822E+03  0.86881444511E+03  0.17472815425E+04  0.50400001928E-02 0.  1.
</event>
<event>
 5   0  0.6939921E-07  0.3275449E+04  0.7818609E-02  0.8169171E-01
       -2   -1    0    0    0  501  0.00000000000E+00  0.00000000000E+00  0.15050016417E+04  0.15050016417E+04  0.25500000920E-02 0. -1.
        2   -1    0    0  501    0  0.00000000000E+00  0.00000000000E+00 -0.17821514340E+04  0.17821514340E+04  0.25500000920E-02 0.  1.
    10030    2    1    2    0    0  0.00000000000E+00  0.00000000000E+00 -0.27714979232E+03  0.32871530757E+04  0.32754485702E+04 0.  0.
        4    1    3    3  502    0 -0.98254345160E+03 -0.12888515949E+04 -0.37523349236E+03  0.16635299380E+04  0.12699999809E+01 0. -1.
       -4    1    3    3    0  502  0.98254345160E+03  0.12888515949E+04  0.98083700040E+02  0.16236231377E+04  0.12699999809E+01 0.  1.
</event>
<event>
 5   0  0.2411746E-07  0.3509937E+04  0.7818609E-02  0.8111439E-01
       -1   -1    0    0    0  501  0.00000000000E+00  0.00000000000E+00  0.15963023292E+04  0.15963023292E+04  0.50400001928E-02 0.  1.
        1   -1    0    0  501    0  0.00000000000E+00  0.00000000000E+00 -0.19294050079E+04  0.19294050079E+04  0.50400001928E-02 0. -1.
    10030    2    1    2    0    0  0.00000000000E+00  0.00000000000E+00 -0.33310267874E+03  0.35257073371E+04  0.35099365852E+04 0.  0.
        1    1    3    3  502    0 -0.14848068524E+04 -0.85090257051E+03 -0.55717797323E+03  0.17997593915E+04  0.50400001928E-02 0. -1.
       -1    1    3    3    0  502  0.14848068524E+04  0.85090257051E+03  0.22407529449E+03  0.17259479456E+04  0.50400001928E-02 0.  1.
</event>
<event>
 5   0  0.2287500E-07  0.3736547E+04  0.7818609E-02  0.8059910E-01
       -1   -1    0    0    0  501  0.00000000000E+00  0.00000000000E+00  0.14733886032E+04  0.14733886032E+04  0.50400001928E-02 0. -1.
        1   -1    0    0  501    0  0.00000000000E+00  0.00000000000E+00 -0.23689923519E+04  0.23689923519E+04  0.50400001928E-02 0.  1.
    10030    2    1    2    0    0  0.00000000000E+00  0.00000000000E+00 -0.89560374874E+03  0.38423809552E+04  0.37365472471E+04 0.  0.
        3    1    3    3  502    0 -0.60949575962E+03  0.85243254594E+03 -0.20383234989E+04  0.22919181972E+04  0.10100000352E+00 0.  1.
       -3    1    3    3    0  502  0.60949575962E+03 -0.85243254594E+03  0.11427197501E+04  0.15504627580E+04  0.10100000352E+00 0. -1.
</event>
<event>
 5   0  0.2287500E-07  0.3663769E+04  0.7818609E-02  0.8076039E-01
       -1   -1    0    0    0  501  0.00000000000E+00  0.00000000000E+00  0.24632923593E+04  0.24632923593E+04  0.50400001928E-02 0. -1.
        1   -1    0    0  501    0  0.00000000000E+00  0.00000000000E+00 -0.13623231859E+04  0.13623231859E+04  0.50400001928E-02 0.  1.
    10030    2    1    2    0    0  0.00000000000E+00  0.00000000000E+00  0.11009691733E+04  0.38256155452E+04  0.36637687126E+04 0.  0.
        2    1    3    3  502    0  0.10137334226E+04  0.14685602991E+04  0.11809592132E+03  0.17883711726E+04  0.25500000920E-02 0.  1.
       -2    1    3    3    0  502 -0.10137334226E+04 -0.14685602991E+04  0.98287325201E+03  0.20372443726E+04  0.25500000920E-02 0. -1.
</event>
<event>
 5   0  0.6939921E-07  0.3137153E+04  0.7818609E-02  0.8205615E-01
        2   -1    0    0  501    0  0.00000000000E+00  0.00000000000E+00  0.17230307936E+04  0.17230307936E+04  0.25500000920E-02 0. -1.
       -2   -1    0    0    0  501  0.00000000000E+00  0.00000000000E+00 -0.14279674690E+04  0.14279674690E+04  0.25500000920E-02 0.  1.
    10030    2    1    2    0    0  0.00000000000E+00  0.00000000000E+00  0.29506332461E+03  0.31509982626E+04  0.31371527992E+04 0.  0.
        4    1    3    3  502    0 -0.31478369891E+03 -0.12031780169E+04 -0.81256575210E+03  0.14855944372E+04  0.12699999809E+01 0.  1.
       -4    1    3    3    0  502  0.31478369891E+03  0.12031780169E+04  0.11076290767E+04  0.16654038254E+04  0.12699999809E+01 0. -1.
</event>
<event>
 5   0  0.2287500E-07  0.3705177E+04  0.7818609E-02  0.8066815E-01
        1   -1    0    0  501    0  0.00000000000E+00  0.00000000000E+00  0.16211445711E+04  0.16211445711E+04  0.50400001928E-02 0.  1.
       -1   -1    0    0    0  501  0.00000000000E+00  0.00000000000E+00 -0.21170751199E+04  0.21170751199E+04  0.50400001928E-02 0. -1.
    10030    2    1    2    0    0  0.00000000000E+00  0.00000000000E+00 -0.49593054887E+03  0.37382196910E+04  0.37051773708E+04 0.  0.
        4    1    3    3  502    0 -0.46895746832E+03  0.50272222986E+03  0.14876762647E+04  0.16388511309E+04  0.12699999809E+01 0.  1.
       -4    1    3    3    0  502  0.46895746832E+03 -0.50272222986E+03 -0.19836068136E+04  0.20993685602E+04  0.12699999809E+01 0. -1.
</event>
<event>
 5   0  0.2287500E-07  0.3663264E+04  0.7818609E-02  0.8076152E-01
       -1   -1    0    0    0  501  0.00000000000E+00  0.00000000000E+00  0.11629598729E+04  0.11629598729E+04  0.50400001928E-02 0.  1.
        1   -1    0    0  501    0  0.00000000000E+00  0.00000000000E+00 -0.28847736811E+04  0.28847736811E+04  0.50400001928E-02 0. -1.
    10030    2    1    2    0    0  0.00000000000E+00  0.00000000000E+00 -0.17218138082E+04  0.40477335540E+04  0.36632641365E+04 0.  0.
        3    1    3    3  502    0  0.14896293511E+04  0.80590016470E+03 -0.16315314742E+04  0.23516729450E+04  0.10100000352E+00 0. -1.
       -3    1    3    3    0  502 -0.14896293511E+04 -0.80590016470E+03 -0.90282334037E+02  0.16960606089E+04  0.10100000352E+00 0.  1.
</event>
<event>
 5   0  0.7300916E-07  0.3562819E+04  0.7818609E-02  0.8099062E-01
        2   -1    0    0  501    0  0.00000000000E+00  0.00000000000E+00  0.18565373676E+04  0.18565373676E+04  0.25500000920E-02 0. -1.
       -2   -1    0    0    0  501  0.00000000000E+00  0.00000000000E+00 -0.17093222414E+04  0.17093222414E+04  0.25500000920E-02 0.  1.
    10030    2    1    2    0    0  0.00000000000E+00  0.00000000000E+00  0.14721512625E+03  0.35658596090E+04  0.35628194534E+04 0.  0.
        1    1    3    3  502    0  0.22207960855E+03 -0.16744644289E+04  0.64001461190E+03  0.18063136991E+04  0.50400001928E-02 0. -1.
       -1    1    3    3    0  502 -0.22207960855E+03  0.16744644289E+04 -0.49279948564E+03  0.17595459099E+04  0.50400001928E-02 0.  1.
</event>
<event>
 5   0  0.6949625E-07  0.3617000E+04  0.7818609E-02  0.8086609E-01
       -2   -1    0    0    0  501  0.00000000000E+00  0.00000000000E+00  0.25568232759E+04  0.25568232759E+04  0.25500000920E-02 0. -1.
        2   -1    0    0  501    0  0.00000000000E+00  0.00000000000E+00 -0.12791935113E+04  0.12791935113E+04  0.25500000920E-02 0.  1.
    10030    2    1    2    0    0  0.00000000000E+00  0.00000000000E+00  0.12776297646E+04  0.38360167872E+04  0.36169997202E+04 0.  0.
        5    1    3    3  502    0 -0.16109104735E+04  0.33578693246E+03  0.14344864720E+04  0.21830160206E+04  0.46999998093E+01 0. -1.
       -5    1    3    3    0  502  0.16109104735E+04 -0.33578693246E+03 -0.15685670740E+03  0.16530007666E+04  0.46999998093E+01 0.  1.
</event>
<event>
 5   0  0.2287500E-07  0.3707821E+04  0.7818609E-02  0.8066231E-01
       -1   -1    0    0    0  501  0.00000000000E+00  0.00000000000E+00  0.18730779613E+04  0.18730779613E+04  0.50400001928E-02 0. -1.
        1   -1    0    0  501    0  0.00000000000E+00  0.00000000000E+00 -0.18349389364E+04  0.18349389364E+04  0.50400001928E-02 0.  1.
    10030    2    1    2    0    0  0.00000000000E+00  0.00000000000E+00  0.38139024844E+02  0.37080168977E+04  0.37078207520E+04 0.  0.
        4    1    3    3  502    0  0.23573705508E+03  0.16713493878E+04  0.78592252766E+03  0.18618959604E+04  0.12699999809E+01 0. -1.
       -4    1    3    3    0  502 -0.23573705508E+03 -0.16713493878E+04 -0.74778350281E+03  0.18461209373E+04  0.12699999809E+01 0.  1.
</event>
<event>
 5   0  0.6939921E-07  0.3727039E+04  0.7818609E-02  0.8061996E-01
       -2   -1    0    0    0  501  0.00000000000E+00  0.00000000000E+00  0.12030629036E+04  0.12030629036E+04  0.25500000920E-02 0. -1.
        2   -1    0    0  501    0  0.00000000000E+00  0.00000000000E+00 -0.28865530285E+04  0.28865530285E+04  0.25500000920E-02 0.  1.
    10030    2    1    2    0    0  0.00000000000E+00  0.00000000000E+00 -0.16834901248E+04  0.40896159321E+04  0.37270389684E+04 0.  0.
        4    1    3    3  502    0 -0.61138575288E+03 -0.10648536384E+03  0.10863440759E+04  0.12511102013E+04  0.12699999809E+01 0. -1.
       -4    1    3    3    0  502  0.61138575288E+03  0.10648536384E+03 -0.27698342007E+04  0.28385057308E+04  0.12699999809E+01 0.  1.
</event>
<event>
 5   0  0.7124627E-07  0.3376920E+04  0.7818609E-02  0.8143594E-01
        2   -1    0    0  501    0  0.00000000000E+00  0.00000000000E+00  0.17575340724E+04  0.17575340724E+04  0.25500000920E-02 0. -1.
       -2   -1    0    0    0  501  0.00000000000E+00  0.00000000000E+00 -0.16221004396E+04  0.16221004396E+04  0.25500000920E-02 0.  1.
    10030    2    1    2    0    0  0.00000000000E+00  0.00000000000E+00  0.13543363285E+03  0.33796345120E+04  0.33769197748E+04 0.  0.
        2    1    3    3  502    0 -0.68732715134E+03  0.35158382670E+03 -0.14351118050E+04  0.16295937203E+04  0.25500000920E-02 0.  1.
       -2    1    3    3    0  502  0.68732715134E+03 -0.35158382670E+03  0.15705454379E+04  0.17500407917E+04  0.25500000920E-02 0. -1.
</event>
<event>
 5   0  0.2411746E-07  0.3428075E+04  0.7818609E-02  0.8131050E-01
       -1   -1    0    0    0  501  0.00000000000E+00  0.00000000000E+00  0.12525553534E+04  0.12525553534E+04  0.50400001928E-02 0. -1.
        1   -1    0    0  501    0  0.00000000000E+00  0.00000000000E+00 -0.23455441618E+04  0.23455441618E+04  0.50400001928E-02 0.  1.
    10030    2    1    2    0    0  0.00000000000E+00  0.00000000000E+00 -0.10929888084E+04  0.35980995152E+04  0.34280746179E+04 0.  0.
        1    1    3    3  502    0 -0.72314932343E+03  0.14136728370E+04 -0.12238778993E+04  0.20048174347E+04  0.50400001928E-02 0.  1.
       -1    1    3    3    0  502  0.72314932343E+03 -0.14136728370E+04  0.13088909086E+03  0.15932820805E+04  0.50400001928E-02 0. -1.
</event>
<event>
 5   0  0.7124627E-07  0.3630007E+04  0.7818609E-02  0.8083653E-01
       -2   -1    0    0    0  501  0.00000000000E+00  0.00000000000E+00  0.17210841126E+04  0.17210841126E+04  0.25500000920E-02 0. -1.
        2   -1    0    0  501    0  0.00000000000E+00  0.00000000000E+00 -0.19140484190E+04  0.19140484190E+04  0.25500000920E-02 0.  1.
    10030    2    1    2    0    0  0.00000000000E+00  0.00000000000E+00 -0.19296430635E+03  0.36351325316E+04  0.36300073414E+04 0.  0.
        2    1    3    3  502    0 -0.50031827745E+02 -0.12473727176E+04  0.12228742923E+04  0.17475306621E+04  0.25500000920E-02 0. -1.
       -2    1    3    3    0  502  0.50031827745E+02  0.12473727176E+04 -0.14158385986E+04  0.18876018695E+04  0.25500000920E-02 0.  1.
</event>
<event>
 5   0  0.2287500E-07  0.3438338E+04  0.7818609E-02  0.8128560E-01
       -1   -1    0    0    0  501  0.00000000000E+00  0.00000000000E+00  0.15923128824E+04  0.15923128824E+04  0.50400001928E-02 0.  1.
        1   -1    0    0  501    0  0.00000000000E+00  0.00000000000E+00 -0.18561317974E+04  0.18561317974E+04  0.50400001928E-02 0. -1.
    10030    2    1    2    0    0  0.00000000000E+00  0.00000000000E+00 -0.26381891497E+03  0.34484446798E+04  0.34383383036E+04 0.  0.
        2    1    3    3  502    0 -0.94715952881E+03  0.55126750443E+03 -0.14603916662E+04  0.18258561973E+04  0.25500000920E-02 0. -1.
       -2    1    3    3    0  502  0.94715952881E+03 -0.55126750443E+03  0.11965727513E+04  0.16225884825E+04  0.25500000920E-02 0.  1.
</event>
<event>
 5   0  0.2287500E-07  0.3625895E+04  0.7818609E-02  0.8084586E-01
       -1   -1    0    0    0  501  0.00000000000E+00  0.00000000000E+00  0.15832343936E+04  0.15832343936E+04  0.50400001928E-02 0.  1.
        1   -1    0    0  501    0  0.00000000000E+00  0.00000000000E+00 -0.20759902004E+04  0.20759902004E+04  0.50400001928E-02 0. -1.
    10030    2    1    2    0    0  0.00000000000E+00  0.00000000000E+00 -0.49275580676E+03  0.36592245940E+04  0.36258952473E+04 0.  0.
        4    1    3    3  502    0  0.18070094894E+04 -0.82899899873E+02 -0.12434582469E+03  0.18131793031E+04  0.12699999809E+01 0.  1.
       -4    1    3    3    0  502 -0.18070094894E+04  0.82899899873E+02 -0.36840998207E+03  0.18460452909E+04  0.12699999809E+01 0. -1.
</event>
<event>
 5   0  0.7300916E-07  0.3668983E+04  0.7818609E-02  0.8074871E-01
       -2   -1    0    0    0  501  0.00000000000E+00  0.00000000000E+00  0.11624129532E+04  0.11624129532E+04  0.25500000920E-02 0. -1.
        2   -1    0    0  501    0  0.00000000000E+00  0.00000000000E+00 -0.28951487027E+04  0.28951487027E+04  0.25500000920E-02 0.  1.
    10030    2    1    2    0    0  0.00000000000E+00  0.00000000000E+00 -0.17327357495E+04  0.40575616559E+04  0.36689826129E+04 0.  0.
        1    1    3    3  502    0 -0.66420855193E+03 -0.44584262370E+03  0.95935717112E+03  0.12491256251E+04  0.50400001928E-02 0. -1.
       -1    1    3    3    0  502  0.66420855193E+03  0.44584262370E+03 -0.26920929206E+04  0.28084360308E+04  0.50400001928E-02 0.  1.
</event>
<event>
 5   0  0.7124627E-07  0.3637013E+04  0.7818609E-02  0.8082066E-01
        2   -1    0    0  501    0  0.00000000000E+00  0.00000000000E+00  0.20292184734E+04  0.20292184734E+04  0.25500000920E-02 0. -1.
       -2   -1    0    0    0  501  0.00000000000E+00  0.00000000000E+00 -0.16296746220E+04  0.16296746220E+04  0.25500000920E-02 0.  1.
    10030    2    1    2    0    0  0.00000000000E+00  0.00000000000E+00  0.39954385139E+03  0.36588930955E+04  0.36370129770E+04 0.  0.
        2    1    3    3  502    0  0.94497224732E+03 -0.15000954047E+04 -0.20726948732E+03  0.17849984347E+04  0.25500000920E-02 0.  1.
       -2    1    3    3    0  502 -0.94497224732E+03  0.15000954047E+04  0.60681333872E+03  0.18738946608E+04  0.25500000920E-02 0. -1.
</event>
<event>
 5   0  0.2411746E-07  0.3450182E+04  0.7818609E-02  0.8125699E-01
        1   -1    0    0  501    0  0.00000000000E+00  0.00000000000E+00  0.15540041237E+04  0.15540041238E+04  0.50400001928E-02 0.  1.
       -1   -1    0    0    0  501  0.00000000000E+00  0.00000000000E+00 -0.19150136468E+04  0.19150136468E+04  0.50400001928E-02 0. -1.
    10030    2    1    2    0    0  0.00000000000E+00  0.00000000000E+00 -0.36100952306E+03  0.34690177706E+04  0.34501820846E+04 0.  0.
        1    1    3    3  502    0  0.94503938760E+03  0.23893658860E+03 -0.16115630451E+04  0.18834345186E+04  0.50400001928E-02 0. -1.
       -1    1    3    3    0  502 -0.94503938760E+03 -0.23893658860E+03  0.12505535220E+04  0.15855832520E+04  0.50400001928E-02 0.  1.
</event>
<event>
 5   0  0.2287500E-07  0.3680468E+04  0.7818609E-02  0.8072304E-01
       -1   -1    0    0    0  501  0.00000000000E+00  0.00000000000E+00  0.14726620358E+04  0.14726620358E+04  0.50400001928E-02 0. -1.
        1   -1    0    0  501    0  0.00000000000E+00  0.00000000000E+00 -0.22995512390E+04  0.22995512390E+04  0.50400001928E-02 0.  1.
    10030    2    1    2    0    0  0.00000000000E+00  0.00000000000E+00 -0.82688920318E+03  0.37722132748E+04  0.36804683446E+04 0.  0.
        2    1    3    3  502    0  0.14510217862E+04  0.11183698953E+04 -0.59169467846E+03  0.19251800018E+04  0.25500000920E-02 0.  1.
       -2    1    3    3    0  502 -0.14510217862E+04 -0.11183698953E+04 -0.23519452472E+03  0.18470332729E+04  0.25500000920E-02 0. -1.
</event>
<event>
 5   0  0.7300916E-07  0.3691327E+04  0.7818609E-02  0.8069887E-01
       -2   -1    0    0    0  501  0.00000000000E+00  0.00000000000E+00  0.18722422836E+04  0.18722422836E+04  0.25500000920E-02 0. -1.
        2   -1    0    0  501    0  0.00000000000E+00  0.00000000000E+00 -0.18194618412E+04  0.18194618412E+04  0.25500000920E-02 0.  1.
    10030    2    1    2    0    0  0.00000000000E+00  0.00000000000E+00  0.52780442402E+02  0.36917041247E+04  0.36913268034E+04 0.  0.
        1    1    3    3  502    0 -0.23766523751E+03 -0.39508082029E+03 -0.17609409614E+04  0.18202985165E+04  0.50400001928E-02 0.  1.
       -1    1    3    3    0  502  0.23766523751E+03  0.39508082029E+03  0.18137214038E+04  0.18714056082E+04  0.50400001928E-02 0. -1.
</event>
<event>
 5   0  0.2287500E-07  0.3634542E+04  0.7818609E-02  0.8082625E-01
       -1   -1    0    0    0  501  0.00000000000E+00  0.00000000000E+00  0.19125332997E+04  0.19125332998E+04  0.50400001928E-02 0. -1.
        1   -1    0    0  501    0  0.00000000000E+00  0.00000000000E+00 -0.17267537226E+04  0.17267537226E+04  0.50400001928E-02 0.  1.
    10030    2    1    2    0    0  0.00000000000E+00  0.00000000000E+00  0.18577957715E+03  0.36392870224E+04  0.36345420592E+04 0.  0.
        2    1    3    3  502    0  0.12077193171E+04 -0.11867400215E+04 -0.56792343085E+03  0.17859100904E+04  0.25500000920E-02 0.  1.
       -2    1    3    3    0  502 -0.12077193171E+04  0.11867400215E+04  0.75370300801E+03  0.18533769320E+04  0.25500000920E-02 0. -1.
</event>
<event>
 5   0  0.2287500E-07  0.3765890E+04  0.7818609E-02  0.8053515E-01
       -1   -1    0    0    0  501  0.00000000000E+00  0.00000000000E+00  0.22398106703E+04  0.22398106703E+04  0.50400001928E-02 0. -1.
        1   -1    0    0  501    0  0.00000000000E+00  0.00000000000E+00 -0.15829381305E+04  0.15829381305E+04  0.50400001928E-02 0.  1.
    10030    2    1    2    0    0  0.00000000000E+00  0.00000000000E+00  0.65687253972E+03  0.38227488008E+04  0.37658899162E+04 0.  0.
        3    1    3    3  502    0  0.31825560871E+03  0.19069954671E+03 -0.15454663643E+04  0.15893769984E+04  0.10100000352E+00 0.  1.
       -3    1    3    3    0  502 -0.31825560871E+03 -0.19069954671E+03  0.22023389040E+04  0.22333718024E+04  0.10100000352E+00 0. -1.
</event>
<event>
 5   0  0.6939921E-07  0.3654740E+04  0.7818609E-02  0.8078067E-01
        2   -1    0    0  501    0  0.00000000000E+00  0.00000000000E+00  0.22039816075E+04  0.22039816075E+04  0.25500000920E-02 0.  1.
       -2   -1    0    0    0  501  0.00000000000E+00  0.00000000000E+00 -0.15151125561E+04  0.15151125561E+04  0.25500000920E-02 0. -1.
    10030    2    1    2    0    0  0.00000000000E+00  0.00000000000E+00  0.68886905136E+03  0.37190941636E+04  0.36547395021E+04 0.  0.
        4    1    3    3  502    0  0.59875829718E+03 -0.15915646462E+04 -0.33644299179E+03  0.17334315739E+04  0.12699999809E+01 0. -1.
       -4    1    3    3    0  502 -0.59875829718E+03  0.15915646462E+04  0.10253120432E+04  0.19856625898E+04  0.12699999809E+01 0.  1.
</event>
<event>
 5   0  0.6939921E-07  0.3696555E+04  0.7818609E-02  0.8068726E-01
        2   -1    0    0  501    0  0.00000000000E+00  0.00000000000E+00  0.23263091257E+04  0.23263091257E+04  0.25500000920E-02 0. -1.
       -2   -1    0    0    0  501  0.00000000000E+00  0.00000000000E+00 -0.14684763353E+04  0.14684763353E+04  0.25500000920E-02 0.  1.
    10030    2    1    2    0    0  0.00000000000E+00  0.00000000000E+00  0.85783279042E+03  0.37947854610E+04  0.36965550988E+04 0.  0.
        4    1    3    3  502    0  0.16685950110E+03  0.17099741378E+04 -0.27056718745E+03  0.17392704968E+04  0.12699999809E+01 0.  1.
       -4    1    3    3    0  502 -0.16685950110E+03 -0.17099741378E+04  0.11283999779E+04  0.20555149642E+04  0.12699999809E+01 0. -1.
</event>
<event>
 5   0  0.6939921E-07  0.3757087E+04  0.7818609E-02  0.8055427E-01
        2   -1    0    0  501    0  0.00000000000E+00  0.00000000000E+00  0.30921233410E+04  0.30921233410E+04  0.25500000920E-02 0. -1.
       -2   -1    0    0    0  501  0.00000000000E+00  0.00000000000E+00 -0.11412626289E+04  0.11412626289E+04  0.25500000920E-02 0.  1.
    10030    2    1    2    0    0  0.00000000000E+00  0.00000000000E+00  0.19508607121E+04  0.42333859699E+04  0.37570865378E+04 0.  0.
        4    1    3    3  502    0 -0.11087746561E+04  0.63568028288E+02 -0.73173432560E+03  0.13299845369E+04  0.12699999809E+01 0.  1.
       -4    1    3    3    0  502  0.11087746561E+04 -0.63568028288E+02  0.26825950377E+04  0.29034014331E+04  0.12699999809E+01 0. -1.
</event>
<event>
 5   0  0.7074157E-07  0.3002501E+04  0.7818609E-02  0.8243017E-01
       -2   -1    0    0    0  501  0.00000000000E+00  0.00000000000E+00  0.10151588549E+04  0.10151588549E+04  0.25500000920E-02 0.  1.
        2   -1    0    0  501    0  0.00000000000E+00  0.00000000000E+00 -0.22200987726E+04  0.22200987726E+04  0.25500000920E-02 0. -1.
    10030    2    1    2    0    0  0.00000000000E+00  0.00000000000E+00 -0.12049399177E+04  0.32352576275E+04  0.30025009095E+04 0.  0.
        3    1    3    3  502    0 -0.93765479092E+03 -0.11724138955E+04 -0.60092033975E+03  0.16170516734E+04  0.10100000352E+00 0.  1.
       -3    1    3    3    0  502  0.93765479092E+03  0.11724138955E+04 -0.60401957796E+03  0.16182059542E+04  0.10100000352E+00 0. -1.
</event>
<event>
 5   0  0.2411746E-07  0.3679585E+04  0.7818609E-02  0.8072501E-01
       -1   -1    0    0    0  501  0.00000000000E+00  0.00000000000E+00  0.12181584861E+04  0.12181584861E+04  0.50400001928E-02 0.  1.
        1   -1    0    0  501    0  0.00000000000E+00  0.00000000000E+00 -0.27786507192E+04  0.27786507192E+04  0.50400001928E-02 0. -1.
    10030    2    1    2    0    0  0.00000000000E+00  0.00000000000E+00 -0.15604922331E+04  0.39968092053E+04  0.36795852775E+04 0.  0.
        1    1    3    3  502    0 -0.10168878324E+04  0.13546894530E+04 -0.29412384045E+00  0.16938844306E+04  0.50400001928E-02 0. -1.
       -1    1    3    3    0  502  0.10168878324E+04 -0.13546894530E+04 -0.15601981092E+04  0.23029247747E+04  0.50400001928E-02 0.  1.
</event>
<event>
 5   0  0.7124627E-07  0.3715681E+04  0.7818609E-02  0.8064496E-01
        2   -1    0    0  501    0  0.00000000000E+00  0.00000000000E+00  0.25870526878E+04  0.25870526878E+04  0.25500000920E-02 0.  1.
       -2   -1    0    0    0  501  0.00000000000E+00  0.00000000000E+00 -0.13341711895E+04  0.13341711895E+04  0.25500000920E-02 0. -1.
    10030    2    1    2    0    0  0.00000000000E+00  0.00000000000E+00  0.12528814983E+04  0.39212238773E+04  0.37156809130E+04 0.  0.
        2    1    3    3  502    0  0.29672747178E+03  0.45323093678E+03  0.25018521717E+04  0.25598300263E+04  0.25500000920E-02 0.  1.
       -2    1    3    3    0  502 -0.29672747178E+03 -0.45323093678E+03 -0.12489706734E+04  0.13613938510E+04  0.25500000920E-02 0. -1.
</event>
<event>
 5   0  0.7300916E-07  0.3836471E+04  0.7818609E-02  0.8038373E-01
        2   -1    0    0  501    0  0.00000000000E+00  0.00000000000E+00  0.21321380499E+04  0.21321380499E+04  0.25500000920E-02 0. -1.
       -2   -1    0    0    0  501  0.00000000000E+00  0.00000000000E+00 -0.17257927204E+04  0.17257927204E+04  0.25500000920E-02 0.  1.
    10030    2    1    2    0    0  0.00000000000E+00  0.00000000000E+00  0.40634532955E+03  0.38579307703E+04  0.38364714650E+04 0.  0.
        1    1    3    3  502    0 -0.87599333564E+03  0.31916521113E+02 -0.15126083605E+04  0.17482468478E+04  0.50400001928E-02 0.  1.
       -1    1    3    3    0  502  0.87599333564E+03 -0.31916521113E+02  0.19189536901E+04  0.21096839226E+04  0.50400001928E-02 0. -1.
</event>
<event>
 5   0  0.2287500E-07  0.3609147E+04  0.7818609E-02  0.8088400E-01
       -1   -1    0    0    0  501  0.00000000000E+00  0.00000000000E+00  0.20650728100E+04  0.20650728100E+04  0.50400001928E-02 0.  1.
        1   -1    0    0  501    0  0.00000000000E+00  0.00000000000E+00 -0.15769348381E+04  0.15769348381E+04  0.50400001928E-02 0. -1.
    10030    2    1    2    0    0  0.00000000000E+00  0.00000000000E+00  0.48813797185E+03  0.36420076481E+04  0.36091468562E+04 0.  0.
        2    1    3    3  502    0  0.98990526069E+03 -0.58063174838E+03  0.16493864056E+04  0.20093583970E+04  0.25500000920E-02 0.  1.
       -2    1    3    3    0  502 -0.98990526069E+03  0.58063174838E+03 -0.11612484338E+04  0.16326492512E+04  0.25500000920E-02 0. -1.
</event>
<event>
 5   0  0.2287500E-07  0.3978338E+04  0.7818609E-02  0.8008931E-01
        1   -1    0    0  501    0  0.00000000000E+00  0.00000000000E+00  0.22513140090E+04  0.22513140090E+04  0.50400001928E-02 0.  1.
       -1   -1    0    0    0  501  0.00000000000E+00  0.00000000000E+00 -0.17575480160E+04  0.17575480160E+04  0.50400001928E-02 0. -1.
    10030    2    1    2    0    0  0.00000000000E+00  0.00000000000E+00  0.49376599296E+03  0.40088620250E+04  0.39783375774E+04 0.  0.
        2    1    3    3  502    0 -0.18919602726E+01 -0.11835132970E+04 -0.13641600221E+04  0.18060010713E+04  0.25500000920E-02 0. -1.
       -2    1    3    3    0  502  0.18919602726E+01  0.11835132970E+04  0.18579260151E+04  0.22028609537E+04  0.25500000920E-02 0.  1.
</event>
<event>
 5   0  0.6939921E-07  0.3110751E+04  0.7818609E-02  0.8212794E-01
        2   -1    0    0  501    0  0.00000000000E+00  0.00000000000E+00  0.10394889224E+04  0.10394889224E+04  0.25500000920E-02 0.  1.
       -2   -1    0    0    0  501  0.00000000000E+00  0.00000000000E+00 -0.23272910626E+04  0.23272910626E+04  0.25500000920E-02 0. -1.
    10030    2    1    2    0    0  0.00000000000E+00  0.00000000000E+00 -0.12878021401E+04  0.33667799850E+04  0.31107512140E+04 0.  0.
        4    1    3    3  502    0 -0.13825098766E+04  0.22481914978E+03 -0.13758097924E+04  0.19633469909E+04  0.12699999809E+01 0. -1.
       -4    1    3    3    0  502  0.13825098766E+04 -0.22481914978E+03  0.88007652308E+02  0.14034329940E+04  0.12699999809E+01 0.  1.
</event>
<event>
 5   0  0.6939921E-07  0.3700286E+04  0.7818609E-02  0.8067898E-01
        2   -1    0    0  501    0  0.00000000000E+00  0.00000000000E+00  0.22205870856E+04  0.22205870856E+04  0.25500000920E-02 0. -1.
       -2   -1    0    0    0  501  0.00000000000E+00  0.00000000000E+00 -0.15414974406E+04  0.15414974406E+04  0.25500000920E-02 0.  1.
    10030    2    1    2    0    0  0.00000000000E+00  0.00000000000E+00  0.67908964502E+03  0.37620845263E+04  0.37002861020E+04 0.  0.
        4    1    3    3  502    0 -0.87853714107E+03 -0.16086914594E+04  0.59536581528E+03  0.19272202227E+04  0.12699999809E+01 0. -1.
       -4    1    3    3    0  502  0.87853714107E+03  0.16086914594E+04  0.83723829738E+02  0.18348643036E+04  0.12699999809E+01 0.  1.
</event>
<event>
 5   0  0.6939921E-07  0.3710908E+04  0.7818609E-02  0.8065549E-01
        2   -1    0    0  501    0  0.00000000000E+00  0.00000000000E+00  0.22078666061E+04  0.22078666061E+04  0.25500000920E-02 0.  1.
       -2   -1    0    0    0  501  0.00000000000E+00  0.00000000000E+00 -0.15592920161E+04  0.15592920161E+04  0.25500000920E-02 0. -1.
    10030    2    1    2    0    0  0.00000000000E+00  0.00000000000E+00  0.64857459003E+03  0.37671586221E+04  0.37109075825E+04 0.  0.
        4    1    3    3  502    0  0.16193056706E+04  0.90033267389E+03  0.22298802703E+03  0.18661390762E+04  0.12699999809E+01 0. -1.
       -4    1    3    3    0  502 -0.16193056706E+04 -0.90033267389E+03  0.42558656300E+03  0.19010195460E+04  0.12699999809E+01 0.  1.
</event>
<event>
 5   0  0.2287500E-07  0.3718794E+04  0.7818609E-02  0.8063810E-01
       -1   -1    0    0    0  501  0.00000000000E+00  0.00000000000E+00  0.18150389934E+04  0.18150389934E+04  0.50400001928E-02 0.  1.
        1   -1    0    0  501    0  0.00000000000E+00  0.00000000000E+00 -0.19048391556E+04  0.19048391556E+04  0.50400001928E-02 0. -1.
    10030    2    1    2    0    0  0.00000000000E+00  0.00000000000E+00 -0.89800162199E+02  0.37198781490E+04  0.37187940752E+04 0.  0.
        3    1    3    3  502    0  0.90461289734E+03  0.10680542581E+04  0.11795045128E+04  0.18303811893E+04  0.10100000352E+00 0.  1.
       -3    1    3    3    0  502 -0.90461289734E+03 -0.10680542581E+04 -0.12693046750E+04  0.18894969596E+04  0.10100000352E+00 0. -1.
</event>
<event>
 5   0  0.2345471E-07  0.3698348E+04  0.7818609E-02  0.8068328E-01
       -1   -1    0    0    0  501  0.00000000000E+00  0.00000000000E+00  0.19752082398E+04  0.19752082398E+04  0.50400001928E-02 0. -1.
        1   -1    0    0  501    0  0.00000000000E+00  0.00000000000E+00 -0.17311822150E+04  0.17311822150E+04  0.50400001928E-02 0.  1.
    10030    2    1    2    0    0  0.00000000000E+00  0.00000000000E+00  0.24402602479E+03  0.37063904547E+04  0.36983484831E+04 0.  0.
        5    1    3    3  502    0  0.11973007273E+04  0.57624966163E+03  0.14108228636E+04  0.19380495212E+04  0.46999998093E+01 0. -1.
       -5    1    3    3    0  502 -0.11973007273E+04 -0.57624966163E+03 -0.11667968388E+04  0.17683409335E+04  0.46999998093E+01 0.  1.
</event>
<event>
 5   0  0.7124627E-07  0.3728203E+04  0.7818609E-02  0.8061740E-01
       -2   -1    0    0    0  501  0.00000000000E+00  0.00000000000E+00  0.18079393655E+04  0.18079393655E+04  0.25500000920E-02 0.  1.
        2   -1    0    0  501    0  0.00000000000E+00  0.00000000000E+00 -0.19220079134E+04  0.19220079134E+04  0.25500000920E-02 0. -1.
    10030    2    1    2    0    0  0.00000000000E+00  0.00000000000E+00 -0.11406854793E+03  0.37299472790E+04  0.37282026595E+04 0.  0.
        2    1    3    3  502    0 -0.12267238355E+04  0.26312629862E+03  0.13223011891E+04  0.18227910611E+04  0.25500000920E-02 0.  1.
       -2    1    3    3    0  502  0.12267238355E+04 -0.26312629862E+03 -0.14363697371E+04  0.19071562178E+04  0.25500000920E-02 0. -1.
</event>
<event>
 5   0  0.2287500E-07  0.3281107E+04  0.7818609E-02  0.8167719E-01
        1   -1    0    0  501    0  0.00000000000E+00  0.00000000000E+00  0.22051816708E+04  0.22051816708E+04  0.50400001928E-02 0.  1.
       -1   -1    0    0    0  501  0.00000000000E+00  0.00000000000E+00 -0.12204961323E+04  0.12204961324E+04  0.50400001928E-02 0. -1.
    10030    2    1    2    0    0  0.00000000000E+00  0.00000000000E+00  0.98468553841E+03  0.34256778031E+04  0.32811069475E+04 0.  0.
        2    1    3    3  502    0 -0.14392470517E+04 -0.77066810030E+03  0.66086836161E+03  0.17612803264E+04  0.25500000920E-02 0. -1.
       -2    1    3    3    0  502  0.14392470517E+04  0.77066810030E+03  0.32381717680E+03  0.16643974768E+04  0.25500000920E-02 0.  1.
</event>
<event>
 5   0  0.2287500E-07  0.3742722E+04  0.7818609E-02  0.8058560E-01
        1   -1    0    0  501    0  0.00000000000E+00  0.00000000000E+00  0.23395173803E+04  0.23395173804E+04  0.50400001928E-02 0.  1.
       -1   -1    0    0    0  501  0.00000000000E+00  0.00000000000E+00 -0.14968861362E+04  0.14968861362E+04  0.50400001928E-02 0. -1.
    10030    2    1    2    0    0  0.00000000000E+00  0.00000000000E+00  0.84263124417E+03  0.38364035165E+04  0.37427215403E+04 0.  0.
        2    1    3    3  502    0 -0.31759335076E+03  0.13233169410E+04  0.17379742555E+04  0.22073938877E+04  0.25500000920E-02 0.  1.
       -2    1    3    3    0  502  0.31759335076E+03 -0.13233169410E+04 -0.89534301136E+03  0.16290096288E+04  0.25500000920E-02 0. -1.
</event>
<event>
 5   0  0.2411746E-07  0.3767906E+04  0.7818609E-02  0.8053077E-01
       -1   -1    0    0    0  501  0.00000000000E+00  0.00000000000E+00  0.15273103240E+04  0.15273103240E+04  0.50400001928E-02 0.  1.
        1   -1    0    0  501    0  0.00000000000E+00  0.00000000000E+00 -0.23238756517E+04  0.23238756517E+04  0.50400001928E-02 0. -1.
    10030    2    1    2    0    0  0.00000000000E+00  0.00000000000E+00 -0.79656532764E+03  0.38511859757E+04  0.37679061955E+04 0.  0.
        1    1    3    3  502    0  0.16418861062E+04 -0.13459824679E+03 -0.13324711764E+04  0.21188171487E+04  0.50400001928E-02 0. -1.
       -1    1    3    3    0  502 -0.16418861062E+04  0.13459824679E+03  0.53590584878E+03  0.17323688269E+04  0.50400001928E-02 0.  1.
</event>
<event>
 5   0  0.7124627E-07  0.3614765E+04  0.7818609E-02  0.8087118E-01
        2   -1    0    0  501    0  0.00000000000E+00  0.00000000000E+00  0.19205134717E+04  0.19205134717E+04  0.25500000920E-02 0.  1.
       -2   -1    0    0    0  501  0.00000000000E+00  0.00000000000E+00 -0.17009152687E+04  0.17009152687E+04  0.25500000920E-02 0. -1.
    10030    2    1    2    0    0  0.00000000000E+00  0.00000000000E+00  0.21959820301E+03  0.36214287404E+04  0.36147645499E+04 0.  0.
        2    1    3    3  502    0 -0.11502968823E+04  0.10747854843E+04  0.99928950484E+03  0.18646517823E+04  0.25500000920E-02 0.  1.
       -2    1    3    3    0  502  0.11502968823E+04 -0.10747854843E+04 -0.77969130182E+03  0.17567769582E+04  0.25500000920E-02 0. -1.
</event>
<event>
 5   0  0.6939921E-07  0.3697413E+04  0.7818609E-02  0.8068535E-01
       -2   -1    0    0    0  501  0.00000000000E+00  0.00000000000E+00  0.17023672699E+04  0.17023672699E+04  0.25500000920E-02 0.  1.
        2   -1    0    0  501    0  0.00000000000E+00  0.00000000000E+00 -0.20076252331E+04  0.20076252331E+04  0.25500000920E-02 0. -1.
    10030    2    1    2    0    0  0.00000000000E+00  0.00000000000E+00 -0.30525796325E+03  0.37099925030E+04  0.36974128723E+04 0.  0.
        4    1    3    3  502    0 -0.12526723766E+04 -0.33457544685E+03  0.11696500576E+04  0.17461992105E+04  0.12699999809E+01 0.  1.
       -4    1    3    3    0  502  0.12526723766E+04  0.33457544685E+03 -0.14749080209E+04  0.19637932925E+04  0.12699999809E+01 0. -1.
</event>
<event>
 5   0  0.2411746E-07  0.3689641E+04  0.7818609E-02  0.8070261E-01
       -1   -1    0    0    0  501  0.00000000000E+00  0.00000000000E+00  0.14004196171E+04  0.14004196171E+04  0.50400001928E-02 0.  1.
        1   -1    0    0  501    0  0.00000000000E+00  0.00000000000E+00 -0.24302443732E+04  0.24302443732E+04  0.50400001928E-02 0. -1.
    10030    2    1    2    0    0  0.00000000000E+00  0.00000000000E+00 -0.10298247560E+04  0.38306639903E+04  0.36896405758E+04 0.  0.
        1    1    3    3  502    0  0.17312326782E+04  0.52352137508E+03 -0.13753540630E+03  0.18138790489E+04  0.50400001928E-02 0.  1.
       -1    1    3    3    0  502 -0.17312326782E+04 -0.52352137508E+03 -0.89228934972E+03  0.20167849414E+04  0.50400001928E-02 0. -1.
</event>
<event>
 5   0  0.7300916E-07  0.3690018E+04  0.7818609E-02  0.8070178E-01
        2   -1    0    0  501    0  0.00000000000E+00  0.00000000000E+00  0.22381546661E+04  0.22381546661E+04  0.25500000920E-02 0.  1.
       -2   -1    0    0    0  501  0.00000000000E+00  0.00000000000E+00 -0.15209218747E+04  0.15209218747E+04  0.25500000920E-02 0. -1.
    10030    2    1    2    0    0  0.00000000000E+00  0.00000000000E+00  0.71723279140E+03  0.37590765409E+04  0.36900180980E+04 0.  0.
        1    1    3    3  502    0 -0.66766954002E+02  0.63555063778E+03  0.21218103541E+04  0.22159561409E+04  0.50400001928E-02 0.  1.
       -1    1    3    3    0  502  0.66766954002E+02 -0.63555063778E+03 -0.14045775627E+04  0.15431204000E+04  0.50400001928E-02 0. -1.
</event>
<event>
 5   0  0.2287500E-07  0.3707444E+04  0.7818609E-02  0.8066314E-01
       -1   -1    0    0    0  501  0.00000000000E+00  0.00000000000E+00  0.18851855034E+04  0.18851855034E+04  0.50400001928E-02 0.  1.
        1   -1    0    0  501    0  0.00000000000E+00  0.00000000000E+00 -0.18227837297E+04  0.18227837297E+04  0.50400001928E-02 0. -1.
    10030    2    1    2    0    0  0.00000000000E+00  0.00000000000E+00  0.62401773647E+02  0.37079692331E+04  0.37074441132E+04 0.  0.
        2    1    3    3  502    0  0.12021062574E+03 -0.13304066796E+04  0.13166272376E+04  0.18756171812E+04  0.25500000920E-02 0.  1.
       -2    1    3    3    0  502 -0.12021062574E+03  0.13304066796E+04 -0.12542254640E+04  0.18323520519E+04  0.25500000920E-02 0. -1.
</event>
<event>
 5   0  0.2411746E-07  0.3680619E+04  0.7818609E-02  0.8072271E-01
        1   -1    0    0  501    0  0.00000000000E+00  0.00000000000E+00  0.26994718137E+04  0.26994718137E+04  0.50400001928E-02 0.  1.
       -1   -1    0    0    0  501  0.00000000000E+00  0.00000000000E+00 -0.12545932066E+04  0.12545932066E+04  0.50400001928E-02 0. -1.
    10030    2    1    2    0    0  0.00000000000E+00  0.00000000000E+00  0.14448786071E+04  0.39540650204E+04  0.36806189692E+04 0.  0.
        1    1    3    3  502    0 -0.68424102259E+03 -0.17395395931E+03  0.25481988853E+04  0.26441942660E+04  0.50400001928E-02 0.  1.
       -1    1    3    3    0  502  0.68424102259E+03  0.17395395931E+03 -0.11033202782E+04  0.13098707544E+04  0.50400001928E-02 0. -1.
</event>
<event>
 5   0  0.2287500E-07  0.3677775E+04  0.7818609E-02  0.8072905E-01
        1   -1    0    0  501    0  0.00000000000E+00  0.00000000000E+00  0.22218615891E+04  0.22218615891E+04  0.50400001928E-02 0. -1.
       -1   -1    0    0    0  501  0.00000000000E+00  0.00000000000E+00 -0.15219254551E+04  0.15219254551E+04  0.50400001928E-02 0.  1.
    10030    2    1    2    0    0  0.00000000000E+00  0.00000000000E+00  0.69993613394E+03  0.37437870442E+04  0.36777752570E+04 0.  0.
        3    1    3    3  502    0  0.11259834313E+04 -0.12524434175E+04  0.11014973624E+04  0.20123989791E+04  0.10100000352E+00 0. -1.
       -3    1    3    3    0  502 -0.11259834313E+04  0.12524434175E+04 -0.40156122844E+03  0.17313880651E+04  0.10100000352E+00 0.  1.
</event>
<event>
 5   0  0.2411746E-07  0.3664516E+04  0.7818609E-02  0.8075871E-01
       -1   -1    0    0    0  501  0.00000000000E+00  0.00000000000E+00  0.31159929474E+04  0.31159929474E+04  0.50400001928E-02 0. -1.
        1   -1    0    0  501    0  0.00000000000E+00  0.00000000000E+00 -0.10773995283E+04  0.10773995283E+04  0.50400001928E-02 0.  1.
    10030    2    1    2    0    0  0.00000000000E+00  0.00000000000E+00  0.20385934191E+04  0.41933924757E+04  0.36645159744E+04 0.  0.
        1    1    3    3  502    0 -0.15669550703E+03 -0.96900195611E+03 -0.75113554212E+03  0.12360108719E+04  0.50400001928E-02 0.  1.
       -1    1    3    3    0  502  0.15669550703E+03  0.96900195611E+03  0.27897289613E+04  0.29573816037E+04  0.50400001928E-02 0. -1.
</event>
<event>
 5   0  0.2411746E-07  0.3686194E+04  0.7818609E-02  0.8071028E-01
        1   -1    0    0  501    0  0.00000000000E+00  0.00000000000E+00  0.27821267221E+04  0.27821267221E+04  0.50400001928E-02 0.  1.
       -1   -1    0    0    0  501  0.00000000000E+00  0.00000000000E+00 -0.12210105434E+04  0.12210105434E+04  0.50400001928E-02 0. -1.
    10030    2    1    2    0    0  0.00000000000E+00  0.00000000000E+00  0.15611161787E+04  0.40031372655E+04  0.36861937338E+04 0.  0.
        1    1    3    3  502    0  0.11533174196E+04 -0.68604470167E+02  0.23400507605E+04  0.26097289525E+04  0.50400001928E-02 0.  1.
       -1    1    3    3    0  502 -0.11533174196E+04  0.68604470167E+02 -0.77893458186E+03  0.13934083129E+04  0.50400001928E-02 0. -1.
</event>
<event>
 5   0  0.2287500E-07  0.3717006E+04  0.7818609E-02  0.8064203E-01
       -1   -1    0    0    0  501  0.00000000000E+00  0.00000000000E+00  0.13042132280E+04  0.13042132280E+04  0.50400001928E-02 0. -1.
        1   -1    0    0  501    0  0.00000000000E+00  0.00000000000E+00 -0.26483657074E+04  0.26483657074E+04  0.50400001928E-02 0.  1.
    10030    2    1    2    0    0  0.00000000000E+00  0.00000000000E+00 -0.13441524794E+04  0.39525789354E+04  0.37170061007E+04 0.  0.
        2    1    3    3  502    0 -0.58170825176E+03 -0.96519683667E+03 -0.22435892687E+04  0.25107134903E+04  0.25500000920E-02 0.  1.
       -2    1    3    3    0  502  0.58170825176E+03  0.96519683667E+03  0.89943678936E+03  0.14418654451E+04  0.25500000920E-02 0. -1.
</event>
<event>
 5   0  0.2411746E-07  0.3689655E+04  0.7818609E-02  0.8070258E-01
        1   -1    0    0  501    0  0.00000000000E+00  0.00000000000E+00  0.23546184574E+04  0.23546184574E+04  0.50400001928E-02 0.  1.
       -1   -1    0    0    0  501  0.00000000000E+00  0.00000000000E+00 -0.14454096135E+04  0.14454096135E+04  0.50400001928E-02 0. -1.
    10030    2    1    2    0    0  0.00000000000E+00  0.00000000000E+00  0.90920884388E+03  0.38000280708E+04  0.36896548101E+04 0.  0.
        1    1    3    3  502    0  0.47009011078E+02 -0.96921714499E+03 -0.11613426675E+04  0.15133765271E+04  0.50400001928E-02 0. -1.
       -1    1    3    3    0  502 -0.47009011078E+02  0.96921714499E+03  0.20705515114E+04  0.22866515438E+04  0.50400001928E-02 0.  1.
</event>
<event>
 5   0  0.7124627E-07  0.2728638E+04  0.7818609E-02  0.8325772E-01
        2   -1    0    0  501    0  0.00000000000E+00  0.00000000000E+00  0.18405957552E+04  0.18405957552E+04  0.25500000920E-02 0. -1.
       -2   -1    0    0    0  501  0.00000000000E+00  0.00000000000E+00 -0.10112849620E+04  0.10112849620E+04  0.25500000920E-02 0.  1.
    10030    2    1    2    0    0  0.00000000000E+00  0.00000000000E+00  0.82931079319E+03  0.28518807173E+04  0.27286383480E+04 0.  0.
        2    1    3    3  502    0  0.73201294437E+03 -0.74999693767E+03 -0.49831300030E+03  0.11604543091E+04  0.25500000920E-02 0.  1.
       -2    1    3    3    0  502 -0.73201294437E+03  0.74999693767E+03  0.13276237935E+04  0.16914264082E+04  0.25500000920E-02 0. -1.
</event>
<event>
 5   0  0.2287500E-07  0.3682660E+04  0.7818609E-02  0.8071815E-01
        1   -1    0    0  501    0  0.00000000000E+00  0.00000000000E+00  0.13442384526E+04  0.13442384526E+04  0.50400001928E-02 0. -1.
       -1   -1    0    0    0  501  0.00000000000E+00  0.00000000000E+00 -0.25222434159E+04  0.25222434159E+04  0.50400001928E-02 0.  1.
    10030    2    1    2    0    0  0.00000000000E+00  0.00000000000E+00 -0.11780049633E+04  0.38664818685E+04  0.36826602268E+04 0.  0.
        2    1    3    3  502    0  0.50418840393E+03 -0.17250646713E+04 -0.16845594247E+03  0.18051125925E+04  0.25500000920E-02 0. -1.
       -2    1    3    3    0  502 -0.50418840393E+03  0.17250646713E+04 -0.10095490209E+04  0.20613692761E+04  0.25500000920E-02 0.  1.
</event>
<event>
 5   0  0.2345471E-07  0.3353593E+04  0.7818609E-02  0.8149391E-01
       -1   -1    0    0    0  501  0.00000000000E+00  0.00000000000E+00  0.10604484521E+04  0.10604484521E+04  0.50400001928E-02 0. -1.
        1   -1    0    0  501    0  0.00000000000E+00  0.00000000000E+00 -0.26513751034E+04  0.26513751034E+04  0.50400001928E-02 0.  1.
    10030    2    1    2    0    0  0.00000000000E+00  0.00000000000E+00 -0.15909266514E+04  0.37118235555E+04  0.33535930727E+04 0.  0.
        5    1    3    3  502    0 -0.51793766230E+02  0.98551616178E+03 -0.22958881739E+04  0.24990096631E+04  0.46999998093E+01 0.  1.
       -5    1    3    3    0  502  0.51793766230E+02 -0.98551616178E+03  0.70496152255E+03  0.12128138924E+04  0.46999998093E+01 0. -1.
</event>
<event>
 5   0  0.7300916E-07  0.4131443E+04  0.7818609E-02  0.7978543E-01
        2   -1    0    0  501    0  0.00000000000E+00  0.00000000000E+00  0.21584101094E+04  0.21584101094E+04  0.25500000920E-02 0.  1.
       -2   -1    0    0    0  501  0.00000000000E+00  0.00000000000E+00 -0.19770136214E+04  0.19770136214E+04  0.25500000920E-02 0. -1.
    10030    2    1    2    0    0  0.00000000000E+00  0.00000000000E+00  0.18139648804E+03  0.41354237308E+04  0.41314434218E+04 0.  0.
        1    1    3    3  502    0 -0.66697538161E+03 -0.19535305725E+04  0.12723711770E+02  0.20642915856E+04  0.50400001928E-02 0. -1.
       -1    1    3    3    0  502  0.66697538161E+03  0.19535305725E+04  0.16867277627E+03  0.20711321452E+04  0.50400001928E-02 0.  1.
</event>
<event>
 5   0  0.7300916E-07  0.3692832E+04  0.7818609E-02  0.8069552E-01
        2   -1    0    0  501    0  0.00000000000E+00  0.00000000000E+00  0.16504267264E+04  0.16504267264E+04  0.25500000920E-02 0. -1.
       -2   -1    0    0    0  501  0.00000000000E+00  0.00000000000E+00 -0.20656789702E+04  0.20656789702E+04  0.25500000920E-02 0.  1.
    10030    2    1    2    0    0  0.00000000000E+00  0.00000000000E+00 -0.41525224372E+03  0.37161056966E+04  0.36928318568E+04 0.  0.
        1    1    3    3  502    0 -0.77760962643E+03 -0.82375247101E+03 -0.16748989020E+04  0.20220116707E+04  0.50400001928E-02 0.  1.
       -1    1    3    3    0  502  0.77760962643E+03  0.82375247101E+03  0.12596466583E+04  0.16940940258E+04  0.50400001928E-02 0. -1.
</event>
<event>
 5   0  0.7124627E-07  0.2846609E+04  0.7818609E-02  0.8288942E-01
        2   -1    0    0  501    0  0.00000000000E+00  0.00000000000E+00  0.71405863613E+03  0.71405863613E+03  0.25500000920E-02 0. -1.
       -2   -1    0    0    0  501  0.00000000000E+00  0.00000000000E+00 -0.28370168700E+04  0.28370168700E+04  0.25500000920E-02 0.  1.
    10030    2    1    2    0    0  0.00000000000E+00  0.00000000000E+00 -0.21229582339E+04  0.35510755061E+04  0.28466094898E+04 0.  0.
        2    1    3    3  502    0  0.15983029536E+03 -0.91170641170E+03 -0.24102776602E+04  0.25818971133E+04  0.25500000920E-02 0.  1.
       -2    1    3    3    0  502 -0.15983029536E+03  0.91170641170E+03  0.28731942629E+03  0.96917839286E+03  0.25500000920E-02 0. -1.
</event>
<event>
 5   0  0.6949625E-07  0.3685178E+04  0.7818609E-02  0.8071254E-01
        2   -1    0    0  501    0  0.00000000000E+00  0.00000000000E+00  0.16690355488E+04  0.16690355488E+04  0.25500000920E-02 0.  1.
       -2   -1    0    0    0  501  0.00000000000E+00  0.00000000000E+00 -0.20341894336E+04  0.20341894336E+04  0.25500000920E-02 0. -1.
    10030    2    1    2    0    0  0.00000000000E+00  0.00000000000E+00 -0.36515388487E+03  0.37032249824E+04  0.36851781382E+04 0.  0.
        5    1    3    3  502    0  0.11698633122E+04  0.87082539329E+03  0.94907973459E+03  0.17400262835E+04  0.46999998093E+01 0.  1.
       -5    1    3    3    0  502 -0.11698633122E+04 -0.87082539329E+03 -0.13142336195E+04  0.19631986989E+04  0.46999998093E+01 0. -1.
</event>
<event>
 5   0  0.2287500E-07  0.3648542E+04  0.7818609E-02  0.8079462E-01
        1   -1    0    0  501    0  0.00000000000E+00  0.00000000000E+00  0.31598050730E+04  0.31598050730E+04  0.50400001928E-02 0. -1.
       -1   -1    0    0    0  501  0.00000000000E+00  0.00000000000E+00 -0.10532184607E+04  0.10532184607E+04  0.50400001928E-02 0.  1.
    10030    2    1    2    0    0  0.00000000000E+00  0.00000000000E+00  0.21065866124E+04  0.42130235337E+04  0.36485421938E+04 0.  0.
        4    1    3    3  502    0 -0.12414262599E+04 -0.13294947447E+04  0.12135782336E+04  0.21866570780E+04  0.12699999809E+01 0.  1.
       -4    1    3    3    0  502  0.12414262599E+04  0.13294947447E+04  0.89300837878E+03  0.20263664556E+04  0.12699999809E+01 0. -1.
</event>
<event>
 5   0  0.7300916E-07  0.3688047E+04  0.7818609E-02  0.8070616E-01
       -2   -1    0    0    0  501  0.00000000000E+00  0.00000000000E+00  0.12480507916E+04  0.12480507916E+04  0.25500000920E-02 0.  1.
        2   -1    0    0  501    0  0.00000000000E+00  0.00000000000E+00 -0.27245867994E+04  0.27245867994E+04  0.25500000920E-02 0. -1.
    10030    2    1    2    0    0  0.00000000000E+00  0.00000000000E+00 -0.14765360078E+04  0.39726375910E+04  0.36880470235E+04 0.  0.
        1    1    3    3  502    0  0.27833727940E+03 -0.17571762212E+04 -0.12607575269E+04  0.21805158690E+04  0.50400001928E-02 0.  1.
       -1    1    3    3    0  502 -0.27833727940E+03  0.17571762212E+04 -0.21577848096E+03  0.17921217220E+04  0.50400001928E-02 0. -1.
</event>
<event>
 5   0  0.2411746E-07  0.3210753E+04  0.7818609E-02  0.8185983E-01
       -1   -1    0    0    0  501  0.00000000000E+00  0.00000000000E+00  0.19008144206E+04  0.19008144206E+04  0.50400001928E-02 0.  1.
        1   -1    0    0  501    0  0.00000000000E+00  0.00000000000E+00 -0.13558576144E+04  0.13558576145E+04  0.50400001928E-02 0. -1.
    10030    2    1    2    0    0  0.00000000000E+00  0.00000000000E+00  0.54495680617E+03  0.32566720351E+04  0.32107529994E+04 0.  0.
        1    1    3    3  502    0 -0.68749710539E+03 -0.11855929274E+04  0.11204678460E+04  0.17702347453E+04  0.50400001928E-02 0.  1.
       -1    1    3    3    0  502  0.68749710539E+03  0.11855929274E+04 -0.57551103979E+03  0.14864372898E+04  0.50400001928E-02 0. -1.
</event>
<event>
 5   0  0.2287500E-07  0.3681990E+04  0.7818609E-02  0.8071965E-01
        1   -1    0    0  501    0  0.00000000000E+00  0.00000000000E+00  0.15605105008E+04  0.15605105008E+04  0.50400001928E-02 0.  1.
       -1   -1    0    0    0  501  0.00000000000E+00  0.00000000000E+00 -0.21718932865E+04  0.21718932865E+04  0.50400001928E-02 0. -1.
    10030    2    1    2    0    0  0.00000000000E+00  0.00000000000E+00 -0.61138278568E+03  0.37324037873E+04  0.36819898317E+04 0.  0.
        2    1    3    3  502    0  0.87233386396E+03  0.78568373454E+03 -0.17432042765E+04  0.21016722986E+04  0.25500000920E-02 0. -1.
       -2    1    3    3    0  502 -0.87233386396E+03 -0.78568373454E+03  0.11318214909E+04  0.16307314887E+04  0.25500000920E-02 0.  1.
</event>
<event>
 5   0  0.2411746E-07  0.3683004E+04  0.7818609E-02  0.8071739E-01
       -1   -1    0    0    0  501  0.00000000000E+00  0.00000000000E+00  0.20409275531E+04  0.20409275532E+04  0.50400001928E-02 0. -1.
        1   -1    0    0  501    0  0.00000000000E+00  0.00000000000E+00 -0.16615628539E+04  0.16615628539E+04  0.50400001928E-02 0.  1.
    10030    2    1    2    0    0  0.00000000000E+00  0.00000000000E+00  0.37936469924E+03  0.37024904071E+04  0.36830038881E+04 0.  0.
        1    1    3    3  502    0  0.13247900360E+04 -0.47313529079E+03  0.13843316895E+04  0.19736514052E+04  0.50400001928E-02 0. -1.
       -1    1    3    3    0  502 -0.13247900360E+04  0.47313529079E+03 -0.10049669902E+04  0.17288390018E+04  0.50400001928E-02 0.  1.
</event>
<event>
 5   0  0.2345471E-07  0.3665981E+04  0.7818609E-02  0.8075543E-01
        1   -1    0    0  501    0  0.00000000000E+00  0.00000000000E+00  0.16691867850E+04  0.16691867850E+04  0.50400001928E-02 0.  1.
       -1   -1    0    0    0  501  0.00000000000E+00  0.00000000000E+00 -0.20128689893E+04  0.20128689893E+04  0.50400001928E-02 0. -1.
    10030    2    1    2    0    0  0.00000000000E+00  0.00000000000E+00 -0.34368220423E+03  0.36820557743E+04  0.36659810784E+04 0.  0.
        5    1    3    3  502    0 -0.14248955633E+03  0.17253480265E+04 -0.77673026225E+03  0.18974880965E+04  0.46999998093E+01 0. -1.
       -5    1    3    3    0  502  0.14248955633E+03 -0.17253480265E+04  0.43304805803E+03  0.17845676778E+04  0.46999998093E+01 0.  1.
</event>
<event>
 5   0  0.2287500E-07  0.3530004E+04  0.7818609E-02  0.8106716E-01
       -1   -1    0    0    0  501  0.00000000000E+00  0.00000000000E+00  0.19819541960E+04  0.19819541960E+04  0.50400001928E-02 0.  1.
        1   -1    0    0  501    0  0.00000000000E+00  0.00000000000E+00 -0.15717977848E+04  0.15717977848E+04  0.50400001928E-02 0. -1.
    10030    2    1    2    0    0  0.00000000000E+00  0.00000000000E+00  0.41015641119E+03  0.35537519808E+04  0.35300035212E+04 0.  0.
        2    1    3    3  502    0 -0.11333391758E+04 -0.58601632597E+02 -0.11558072810E+04  0.16198093436E+04  0.25500000920E-02 0. -1.
       -2    1    3    3    0  502  0.11333391758E+04  0.58601632597E+02  0.15659636922E+04  0.19339426372E+04  0.25500000920E-02 0.  1.
</event>
<event>
 5   0  0.7300916E-07  0.3028950E+04  0.7818609E-02  0.8235512E-01
        2   -1    0    0  501    0  0.00000000000E+00  0.00000000000E+00  0.20118034583E+04  0.20118034583E+04  0.25500000920E-02 0.  1.
       -2   -1    0    0    0  501  0.00000000000E+00  0.00000000000E+00 -0.11400886131E+04  0.11400886131E+04  0.25500000920E-02 0. -1.
    10030    2    1    2    0    0  0.00000000000E+00  0.00000000000E+00  0.87171484513E+03  0.31518920714E+04  0.30289497946E+04 0.  0.
        1    1    3    3  502    0 -0.77326426608E+03  0.14639001716E+03  0.17823115547E+04  0.19483331697E+04  0.50400001928E-02 0.  1.
       -1    1    3    3    0  502  0.77326426608E+03 -0.14639001716E+03 -0.91059670953E+03  0.12035589017E+04  0.50400001928E-02 0. -1.
</event>
<event>
 5   0  0.7074157E-07  0.3301161E+04  0.7818609E-02  0.8162600E-01
        2   -1    0    0  501    0  0.00000000000E+00  0.00000000000E+00  0.17730580726E+04  0.17730580726E+04  0.25500000920E-02 0. -1.
       -2   -1    0    0    0  501  0.00000000000E+00  0.00000000000E+00 -0.15365629064E+04  0.15365629064E+04  0.25500000920E-02 0.  1.
    10030    2    1    2    0    0  0.00000000000E+00  0.00000000000E+00  0.23649516618E+03  0.33096209790E+04  0.33011605628E+04 0.  0.
        3    1    3    3  502    0 -0.10460395241E+04  0.12805330275E+03 -0.11553699060E+04  0.15638017663E+04  0.10100000352E+00 0.  1.
       -3    1    3    3    0  502  0.10460395241E+04 -0.12805330275E+03  0.13918650721E+04  0.17458192127E+04  0.10100000352E+00 0. -1.
</event>
<event>
 5   0  0.2411746E-07  0.3719459E+04  0.7818609E-02  0.8063663E-01
       -1   -1    0    0    0  501  0.00000000000E+00  0.00000000000E+00  0.29458712980E+04  0.29458712980E+04  0.50400001928E-02 0. -1.
        1   -1    0    0  501    0  0.00000000000E+00  0.00000000000E+00 -0.11740478465E+04  0.11740478465E+04  0.50400001928E-02 0.  1.
    10030    2    1    2    0    0  0.00000000000E+00  0.00000000000E+00  0.17718234516E+04  0.41199191445E+04  0.37194590217E+04 0.  0.
        1    1    3    3  502    0  0.44745284875E+03 -0.14662600786E+04 -0.28027786128E+03  0.15584249579E+04  0.50400001928E-02 0.  1.
       -1    1    3    3    0  502 -0.44745284875E+03  0.14662600786E+04  0.20521013128E+04  0.25614941866E+04  0.50400001928E-02 0. -1.
</event>
<event>
 5   0  0.2287500E-07  0.3740859E+04  0.7818609E-02  0.8058967E-01
        1   -1    0    0  501    0  0.00000000000E+00  0.00000000000E+00  0.13808470536E+04  0.13808470536E+04  0.50400001928E-02 0. -1.
       -1   -1    0    0    0  501  0.00000000000E+00  0.00000000000E+00 -0.25335949305E+04  0.25335949305E+04  0.50400001928E-02 0.  1.
    10030    2    1    2    0    0  0.00000000000E+00  0.00000000000E+00 -0.11527478769E+04  0.39144419842E+04  0.37408593103E+04 0.  0.
        2    1    3    3  502    0  0.16614907618E+04  0.48639961614E+03 -0.13173054611E+04  0.21754148606E+04  0.25500000920E-02 0.  1.
       -2    1    3    3    0  502 -0.16614907618E+04 -0.48639961614E+03  0.16455758417E+03  0.17390271236E+04  0.25500000920E-02 0. -1.
</event>
<event>
 5   0  0.2411746E-07  0.3695819E+04  0.7818609E-02  0.8068889E-01
        1   -1    0    0  501    0  0.00000000000E+00  0.00000000000E+00  0.22455870357E+04  0.22455870357E+04  0.50400001928E-02 0. -1.
       -1   -1    0    0    0  501  0.00000000000E+00  0.00000000000E+00 -0.15206576885E+04  0.15206576885E+04  0.50400001928E-02 0.  1.
    10030    2    1    2    0    0  0.00000000000E+00  0.00000000000E+00  0.72492934716E+03  0.37662447242E+04  0.36958188219E+04 0.  0.
        1    1    3    3  502    0  0.72708637997E+03  0.11276014531E+04  0.16573589513E+04  0.21323644938E+04  0.50400001928E-02 0. -1.
       -1    1    3    3    0  502 -0.72708637997E+03 -0.11276014531E+04 -0.93242960410E+03  0.16338802305E+04  0.50400001928E-02 0.  1.
</event>
<event>
 5   0  0.2287500E-07  0.3238025E+04  0.7818609E-02  0.8178847E-01
        1   -1    0    0  501    0  0.00000000000E+00  0.00000000000E+00  0.14059249593E+04  0.14059249593E+04  0.50400001928E-02 0.  1.
       -1   -1    0    0    0  501  0.00000000000E+00  0.00000000000E+00 -0.18643959968E+04  0.18643959968E+04  0.50400001928E-02 0. -1.
    10030    2    1    2    0    0  0.00000000000E+00  0.00000000000E+00 -0.45847103751E+03  0.32703209562E+04  0.32380246238E+04 0.  0.
        2    1    3    3  502    0  0.88618852556E+03  0.68467866045E+03 -0.14101219475E+04  0.18007106591E+04  0.25500000920E-02 0. -1.
       -2    1    3    3    0  502 -0.88618852556E+03 -0.68467866045E+03  0.95165090996E+03  0.14696102971E+04  0.25500000920E-02 0.  1.
</event>
<event>
 5   0  0.2287500E-07  0.3698838E+04  0.7818609E-02  0.8068219E-01
       -1   -1    0    0    0  501  0.00000000000E+00  0.00000000000E+00  0.11468195278E+04  0.11468195278E+04  0.50400001928E-02 0.  1.
        1   -1    0    0  501    0  0.00000000000E+00  0.00000000000E+00 -0.29824664421E+04  0.29824664421E+04  0.50400001928E-02 0. -1.
    10030    2    1    2    0    0  0.00000000000E+00  0.00000000000E+00 -0.18356469143E+04  0.41292859700E+04  0.36988380645E+04 0.  0.
        3    1    3    3  502    0 -0.60917694370E+03  0.31813597826E+03  0.99897565956E+03  0.12125425469E+04  0.10100000352E+00 0.  1.
       -3    1    3    3    0  502  0.60917694370E+03 -0.31813597826E+03 -0.28346225739E+04  0.29167434231E+04  0.10100000352E+00 0. -1.
</event>
<event>
 5   0  0.7300916E-07  0.3720364E+04  0.7818609E-02  0.8063464E-01
       -2   -1    0    0    0  501  0.00000000000E+00  0.00000000000E+00  0.19432891740E+04  0.19432891740E+04  0.25500000920E-02 0.  1.
        2   -1    0    0  501    0  0.00000000000E+00  0.00000000000E+00 -0.17806290138E+04  0.17806290138E+04  0.25500000920E-02 0. -1.
    10030    2    1    2    0    0  0.00000000000E+00  0.00000000000E+00  0.16266016019E+03  0.37239181878E+04  0.37203640066E+04 0.  0.
        1    1    3    3  502    0  0.12313924942E+03 -0.80689701995E+03 -0.15918023151E+04  0.17888769343E+04  0.50400001928E-02 0. -1.
       -1    1    3    3    0  502 -0.12313924942E+03  0.80689701995E+03  0.17544624753E+04  0.19350412535E+04  0.50400001928E-02 0.  1.
</event>
<event>
 5   0  0.2345471E-07  0.3793969E+04  0.7818609E-02  0.8047450E-01
        1   -1    0    0  501    0  0.00000000000E+00  0.00000000000E+00  0.20170449852E+04  0.20170449852E+04  0.50400001928E-02 0. -1.
       -1   -1    0    0    0  501  0.00000000000E+00  0.00000000000E+00 -0.17840704587E+04  0.17840704587E+04  0.50400001928E-02 0.  1.
    10030    2    1    2    0    0  0.00000000000E+00  0.00000000000E+00  0.23297452652E+03  0.38011154438E+04  0.37939690942E+04 0.  0.
        5    1    3    3  502    0  0.85574556338E+03 -0.43243606295E+03 -0.15234302941E+04  0.18000453797E+04  0.46999998093E+01 0.  1.
       -5    1    3    3    0  502 -0.85574556338E+03  0.43243606295E+03  0.17564048206E+04  0.20010700642E+04  0.46999998093E+01 0. -1.
</event>
<event>
 5   0  0.7124627E-07  0.3703510E+04  0.7818609E-02  0.8067184E-01
        2   -1    0    0  501    0  0.00000000000E+00  0.00000000000E+00  0.27565068030E+04  0.27565068030E+04  0.25500000920E-02 0. -1.
       -2   -1    0    0    0  501  0.00000000000E+00  0.00000000000E+00 -0.12439645713E+04  0.12439645713E+04  0.25500000920E-02 0.  1.
    10030    2    1    2    0    0  0.00000000000E+00  0.00000000000E+00  0.15125422317E+04  0.40004713743E+04  0.37035101207E+04 0.  0.
        2    1    3    3  502    0 -0.53397545186E+03 -0.13087309853E+04  0.20484752897E+04  0.24888064584E+04  0.25500000920E-02 0. -1.
       -2    1    3    3    0  502  0.53397545186E+03  0.13087309853E+04 -0.53593305804E+03  0.15116649158E+04  0.25500000920E-02 0.  1.
</event>
<event>
 5   0  0.2287500E-07  0.3662112E+04  0.7818609E-02  0.8076411E-01
       -1   -1    0    0    0  501  0.00000000000E+00  0.00000000000E+00  0.29435609354E+04  0.29435609354E+04  0.50400001928E-02 0. -1.
        1   -1    0    0  501    0  0.00000000000E+00  0.00000000000E+00 -0.11390170334E+04  0.11390170334E+04  0.50400001928E-02 0.  1.
    10030    2    1    2    0    0  0.00000000000E+00  0.00000000000E+00  0.18045439021E+04  0.40825779688E+04  0.36621119831E+04 0.  0.
        2    1    3    3  502    0 -0.91386607877E+03  0.81644455000E+03 -0.61446393839E+03  0.13708752112E+04  0.25500000920E-02 0.  1.
       -2    1    3    3    0  502  0.91386607877E+03 -0.81644455000E+03  0.24190078405E+04  0.27117027576E+04  0.25500000920E-02 0. -1.
</event>
<event>
 5   0  0.7074157E-07  0.3699727E+04  0.7818609E-02  0.8068022E-01
        2   -1    0    0  501    0  0.00000000000E+00  0.00000000000E+00  0.19882031759E+04  0.19882031760E+04  0.25500000920E-02 0. -1.
       -2   -1    0    0    0  501  0.00000000000E+00  0.00000000000E+00 -0.17211493080E+04  0.17211493080E+04  0.25500000920E-02 0.  1.
    10030    2    1    2    0    0  0.00000000000E+00  0.00000000000E+00  0.26705386791E+03  0.37093524840E+04  0.36997267578E+04 0.  0.
        3    1    3    3  502    0  0.31924560923E+02  0.82015522155E+03 -0.15285922494E+04  0.17350124034E+04  0.10100000352E+00 0.  1.
       -3    1    3    3    0  502 -0.31924560923E+02 -0.82015522155E+03  0.17956461173E+04  0.19743400806E+04  0.10100000352E+00 0. -1.
</event>
<event>
 5   0  0.2411746E-07  0.3680459E+04  0.7818609E-02  0.8072306E-01
       -1   -1    0    0    0  501  0.00000000000E+00  0.00000000000E+00  0.12927613605E+04  0.12927613605E+04  0.50400001928E-02 0. -1.
        1   -1    0    0  501    0  0.00000000000E+00  0.00000000000E+00 -0.26195432690E+04  0.26195432690E+04  0.50400001928E-02 0.  1.
    10030    2    1    2    0    0  0.00000000000E+00  0.00000000000E+00 -0.13267819085E+04  0.39123046295E+04  0.36804588412E+04 0.  0.
        1    1    3    3  502    0  0.46925188935E+03 -0.17784943375E+04 -0.60321315025E+03  0.19357441847E+04  0.50400001928E-02 0. -1.
       -1    1    3    3    0  502 -0.46925188935E+03  0.17784943375E+04 -0.72356875823E+03  0.19765604448E+04  0.50400001928E-02 0.  1.
</event>
<event>
 5   0  0.7074157E-07  0.3802298E+04  0.7818609E-02  0.8045662E-01
        2   -1    0    0  501    0  0.00000000000E+00  0.00000000000E+00  0.19895463061E+04  0.19895463061E+04  0.25500000920E-02 0. -1.
       -2   -1    0    0    0  501  0.00000000000E+00  0.00000000000E+00 -0.18166788397E+04  0.18166788397E+04  0.25500000920E-02 0.  1.
    10030    2    1    2    0    0  0.00000000000E+00  0.00000000000E+00  0.17286746638E+03  0.38062251457E+04  0.38022975553E+04 0.  0.
        3    1    3    3  502    0  0.90085750775E+03 -0.13881078011E+04  0.10233380886E+04  0.19456639922E+04  0.10100000352E+00 0. -1.
       -3    1    3    3    0  502 -0.90085750775E+03  0.13881078011E+04 -0.85047062226E+03  0.18605611536E+04  0.10100000352E+00 0.  1.
</event>
<event>
 5   0  0.2287500E-07  0.3703866E+04  0.7818609E-02  0.8067106E-01
       -1   -1    0    0    0  501  0.00000000000E+00  0.00000000000E+00  0.14380810373E+04  0.14380810373E+04  0.50400001928E-02 0. -1.
        1   -1    0    0  501    0  0.00000000000E+00  0.00000000000E+00 -0.23848835240E+04  0.23848835240E+04  0.50400001928E-02 0.  1.
    10030    2    1    2    0    0  0.00000000000E+00  0.00000000000E+00 -0.94680248672E+03  0.38229645613E+04  0.37038659652E+04 0.  0.
        3    1    3    3  502    0  0.70554845274E+03  0.64518519948E+02 -0.22394711433E+04  0.23488704244E+04  0.10100000352E+00 0.  1.
       -3    1    3    3    0  502 -0.70554845274E+03 -0.64518519948E+02  0.12926686566E+04  0.14740941369E+04  0.10100000352E+00 0. -1.
</event>
<event>
 5   0  0.2345471E-07  0.3898549E+04  0.7818609E-02  0.8025331E-01
       -1   -1    0    0    0  501  0.00000000000E+00  0.00000000000E+00  0.21455711131E+04  0.21455711131E+04  0.50400001928E-02 0.  1.
        1   -1    0    0  501    0  0.00000000000E+00  0.00000000000E+00 -0.17709371725E+04  0.17709371725E+04  0.50400001928E-02 0. -1.
    10030    2    1    2    0    0  0.00000000000E+00  0.00000000000E+00  0.37463394052E+03  0.39165082856E+04  0.38985492894E+04 0.  0.
        5    1    3    3  502    0 -0.15090998846E+04 -0.72307629114E+03 -0.81700213797E+03  0.18621859112E+04  0.46999998093E+01 0. -1.
       -5    1    3    3    0  502  0.15090998846E+04  0.72307629114E+03  0.11916360785E+04  0.20543223744E+04  0.46999998093E+01 0.  1.
</event>
<event>
 5   0  0.2287500E-07  0.3686461E+04  0.7818609E-02  0.8070969E-01
        1   -1    0    0  501    0  0.00000000000E+00  0.00000000000E+00  0.17593957876E+04  0.17593957876E+04  0.50400001928E-02 0. -1.
       -1   -1    0    0    0  501  0.00000000000E+00  0.00000000000E+00 -0.19310603433E+04  0.19310603433E+04  0.50400001928E-02 0.  1.
    10030    2    1    2    0    0  0.00000000000E+00  0.00000000000E+00 -0.17166455572E+03  0.36904561309E+04  0.36864614110E+04 0.  0.
        3    1    3    3  502    0 -0.38591882247E+03  0.50883767560E+03 -0.18167664478E+04  0.19257438702E+04  0.10100000352E+00 0.  1.
       -3    1    3    3    0  502  0.38591882247E+03 -0.50883767560E+03  0.16451018921E+04  0.17647122607E+04  0.10100000352E+00 0. -1.
</event>
<event>
 5   0  0.6949625E-07  0.2851248E+04  0.7818609E-02  0.8287532E-01
       -2   -1    0    0    0  501  0.00000000000E+00  0.00000000000E+00  0.10770738221E+04  0.10770738221E+04  0.25500000920E-02 0.  1.
        2   -1    0    0  501    0  0.00000000000E+00  0.00000000000E+00 -0.18869677612E+04  0.18869677612E+04  0.25500000920E-02 0. -1.
    10030    2    1    2    0    0  0.00000000000E+00  0.00000000000E+00 -0.80989393902E+03  0.29640415833E+04  0.28512478523E+04 0.  0.
        5    1    3    3  502    0  0.85346134658E+03 -0.10280454383E+04 -0.92171131809E+03  0.16232213457E+04  0.46999998093E+01 0. -1.
       -5    1    3    3    0  502 -0.85346134658E+03  0.10280454383E+04  0.11181737907E+03  0.13408202376E+04  0.46999998093E+01 0.  1.
</event>
<event>
 5   0  0.7300916E-07  0.3728059E+04  0.7818609E-02  0.8061772E-01
       -2   -1    0    0    0  501  0.00000000000E+00  0.00000000000E+00  0.12222741900E+04  0.12222741900E+04  0.25500000920E-02 0.  1.
        2   -1    0    0  501    0  0.00000000000E+00  0.00000000000E+00 -0.28427386976E+04  0.28427386976E+04  0.25500000920E-02 0. -1.
    10030    2    1    2    0    0  0.00000000000E+00  0.00000000000E+00 -0.16204645076E+04  0.40650128876E+04  0.37280590870E+04 0.  0.
        1    1    3    3  502    0  0.78302762063E+03  0.11819137664E+04  0.50933580605E+03  0.15064778025E+04  0.50400001928E-02 0.  1.
       -1    1    3    3    0  502 -0.78302762063E+03 -0.11819137664E+04 -0.21298003136E+04  0.25585350852E+04  0.50400001928E-02 0. -1.
</event>
<event>
 5   0  0.7300916E-07  0.3042271E+04  0.7818609E-02  0.8231762E-01
        2   -1    0    0  501    0  0.00000000000E+00  0.00000000000E+00  0.14756477841E+04  0.14756477841E+04  0.25500000920E-02 0.  1.
       -2   -1    0    0    0  501  0.00000000000E+00  0.00000000000E+00 -0.15680252756E+04  0.15680252756E+04  0.25500000920E-02 0. -1.
    10030    2    1    2    0    0  0.00000000000E+00  0.00000000000E+00 -0.92377491492E+02  0.30436730597E+04  0.30422708777E+04 0.  0.
        1    1    3    3  502    0  0.52941744274E+03 -0.61083301482E+03  0.12429909083E+04  0.14827090742E+04  0.50400001928E-02 0.  1.
       -1    1    3    3    0  502 -0.52941744274E+03  0.61083301482E+03 -0.13353683998E+04  0.15609639855E+04  0.50400001928E-02 0. -1.
</event>
<event>
 5   0  0.2287500E-07  0.3628661E+04  0.7818609E-02  0.8083958E-01
        1   -1    0    0  501    0  0.00000000000E+00  0.00000000000E+00  0.16563249699E+04  0.16563249699E+04  0.50400001928E-02 0.  1.
       -1   -1    0    0    0  501  0.00000000000E+00  0.00000000000E+00 -0.19874093190E+04  0.19874093190E+04  0.50400001928E-02 0. -1.
    10030    2    1    2    0    0  0.00000000000E+00  0.00000000000E+00 -0.33108434909E+03  0.36437342889E+04  0.36286612851E+04 0.  0.
        2    1    3    3  502    0 -0.11450354635E+04 -0.66917007180E+03  0.10777044978E+04  0.17089007526E+04  0.25500000920E-02 0.  1.
       -2    1    3    3    0  502  0.11450354635E+04  0.66917007180E+03 -0.14087888469E+04  0.19348335362E+04  0.25500000920E-02 0. -1.
</event>
<event>
 5   0  0.6949625E-07  0.3698224E+04  0.7818609E-02  0.8068355E-01
        2   -1    0    0  501    0  0.00000000000E+00  0.00000000000E+00  0.10488753684E+04  0.10488753684E+04  0.25500000920E-02 0. -1.
       -2   -1    0    0    0  501  0.00000000000E+00  0.00000000000E+00 -0.32598875729E+04  0.32598875729E+04  0.25500000920E-02 0.  1.
    10030    2    1    2    0    0  0.00000000000E+00  0.00000000000E+00 -0.22110122045E+04  0.43087629413E+04  0.36982243193E+04 0.  0.
        5    1    3    3  502    0 -0.78990148233E+03  0.19298438056E+03 -0.30403992330E+04  0.31472586340E+04  0.46999998093E+01 0.  1.
       -5    1    3    3    0  502  0.78990148233E+03 -0.19298438056E+03  0.82938702848E+03  0.11615043073E+04  0.46999998093E+01 0. -1.
</event>
<event>
 5   0  0.7124627E-07  0.3703114E+04  0.7818609E-02  0.8067272E-01
        2   -1    0    0  501    0  0.00000000000E+00  0.00000000000E+00  0.18475453345E+04  0.18475453345E+04  0.25500000920E-02 0. -1.
       -2   -1    0    0    0  501  0.00000000000E+00  0.00000000000E+00 -0.18555770767E+04  0.18555770767E+04  0.25500000920E-02 0.  1.
    10030    2    1    2    0    0  0.00000000000E+00  0.00000000000E+00 -0.80317422128E+01  0.37031224112E+04  0.37031137011E+04 0.  0.
        2    1    3    3  502    0 -0.49678412026E+03  0.37649582079E+03 -0.17474990242E+04  0.18553426651E+04  0.25500000920E-02 0.  1.
       -2    1    3    3    0  502  0.49678412026E+03 -0.37649582079E+03  0.17394672820E+04  0.18477797462E+04  0.25500000920E-02 0. -1.
</event>
<event>
 5   0  0.2345471E-07  0.3655985E+04  0.7818609E-02  0.8077787E-01
        1   -1    0    0  501    0  0.00000000000E+00  0.00000000000E+00  0.21951925908E+04  0.21951925908E+04  0.50400001928E-02 0.  1.
       -1   -1    0    0    0  501  0.00000000000E+00  0.00000000000E+00 -0.15222160009E+04  0.15222160009E+04  0.50400001928E-02 0. -1.
    10030    2    1    2    0    0  0.00000000000E+00  0.00000000000E+00  0.67297658991E+03  0.37174085916E+04  0.36559853865E+04 0.  0.
        5    1    3    3  502    0 -0.39036013263E+03  0.40954839039E+03 -0.14309395980E+04  0.15387401146E+04  0.46999998093E+01 0. -1.
       -5    1    3    3    0  502  0.39036013263E+03 -0.40954839039E+03  0.21039161879E+04  0.21786684770E+04  0.46999998093E+01 0.  1.
</event>
<event>
 5   0  0.2287500E-07  0.3341996E+04  0.7818609E-02  0.8152291E-01
        1   -1    0    0  501    0  0.00000000000E+00  0.00000000000E+00  0.21618316818E+04  0.21618316818E+04  0.50400001928E-02 0.  1.
       -1   -1    0    0    0  501  0.00000000000E+00  0.00000000000E+00 -0.12916058998E+04  0.12916058998E+04  0.50400001928E-02 0. -1.
    10030    2    1    2    0    0  0.00000000000E+00  0.00000000000E+00  0.87022578202E+03  0.34534375816E+04  0.33419961428E+04 0.  0.
        4    1    3    3  502    0 -0.10954860116E+04  0.10769822078E+04  0.11144956258E+04  0.18979152748E+04  0.12699999809E+01 0.  1.
       -4    1    3    3    0  502  0.10954860116E+04 -0.10769822078E+04 -0.24426984375E+03  0.15555223068E+04  0.12699999809E+01 0. -1.
</event>
<event>
 5   0  0.2287500E-07  0.3469276E+04  0.7818609E-02  0.8121110E-01
       -1   -1    0    0    0  501  0.00000000000E+00  0.00000000000E+00  0.17069913678E+04  0.17069913678E+04  0.50400001928E-02 0. -1.
        1   -1    0    0  501    0  0.00000000000E+00  0.00000000000E+00 -0.17627322455E+04  0.17627322455E+04  0.50400001928E-02 0.  1.
    10030    2    1    2    0    0  0.00000000000E+00  0.00000000000E+00 -0.55740877618E+02  0.34697236133E+04  0.34692758477E+04 0.  0.
        3    1    3    3  502    0 -0.51095582474E+03 -0.94905616570E+03 -0.13871577906E+04  0.17566986670E+04  0.10100000352E+00 0.  1.
       -3    1    3    3    0  502  0.51095582474E+03  0.94905616570E+03  0.13314169129E+04  0.17130249463E+04  0.10100000352E+00 0. -1.
</event>
<event>
 5   0  0.2345471E-07  0.3737943E+04  0.7818609E-02  0.8059605E-01
        1   -1    0    0  501    0  0.00000000000E+00  0.00000000000E+00  0.24104661612E+04  0.24104661612E+04  0.50400001928E-02 0.  1.
       -1   -1    0    0    0  501  0.00000000000E+00  0.00000000000E+00 -0.14491200093E+04  0.14491200094E+04  0.50400001928E-02 0. -1.
    10030    2    1    2    0    0  0.00000000000E+00  0.00000000000E+00  0.96134615184E+03  0.38595861705E+04  0.37379431489E+04 0.  0.
        5    1    3    3  502    0  0.86201585176E+03 -0.10481730852E+04  0.18075184614E+04  0.22602838812E+04  0.46999998093E+01 0.  1.
       -5    1    3    3    0  502 -0.86201585176E+03  0.10481730852E+04 -0.84617230954E+03  0.15993022894E+04  0.46999998093E+01 0. -1.
</event>
<event>
 5   0  0.7124627E-07  0.3698550E+04  0.7818609E-02  0.8068283E-01
       -2   -1    0    0    0  501  0.00000000000E+00  0.00000000000E+00  0.20230994804E+04  0.20230994804E+04  0.25500000920E-02 0.  1.
        2   -1    0    0  501    0  0.00000000000E+00  0.00000000000E+00 -0.16903855345E+04  0.16903855345E+04  0.25500000920E-02 0. -1.
    10030    2    1    2    0    0  0.00000000000E+00  0.00000000000E+00  0.33271394585E+03  0.37134850149E+04  0.36985500384E+04 0.  0.
        2    1    3    3  502    0 -0.10940872173E+04 -0.26107356041E+02 -0.13303366941E+04  0.17226445230E+04  0.25500000920E-02 0. -1.
       -2    1    3    3    0  502  0.10940872173E+04  0.26107356041E+02  0.16630506400E+04  0.19908404919E+04  0.25500000920E-02 0.  1.
</event>
<event>
 5   0  0.7124627E-07  0.3695626E+04  0.7818609E-02  0.8068932E-01
        2   -1    0    0  501    0  0.00000000000E+00  0.00000000000E+00  0.31279701391E+04  0.31279701391E+04  0.25500000920E-02 0.  1.
       -2   -1    0    0    0  501  0.00000000000E+00  0.00000000000E+00 -0.10915744880E+04  0.10915744880E+04  0.25500000920E-02 0. -1.
    10030    2    1    2    0    0  0.00000000000E+00  0.00000000000E+00  0.20363956511E+04  0.42195446271E+04  0.36956257403E+04 0.  0.
        2    1    3    3  502    0  0.82808526431E+03 -0.25785204089E+02 -0.86762792171E+03  0.11996534051E+04  0.25500000920E-02 0. -1.
       -2    1    3    3    0  502 -0.82808526431E+03  0.25785204089E+02  0.29040235728E+04  0.30198912220E+04  0.25500000920E-02 0.  1.
</event>
<event>
 5   0  0.2287500E-07  0.2676209E+04  0.7818609E-02  0.8342766E-01
       -1   -1    0    0    0  501  0.00000000000E+00  0.00000000000E+00  0.12489736427E+04  0.12489736427E+04  0.50400001928E-02 0.  1.
        1   -1    0    0  501    0  0.00000000000E+00  0.00000000000E+00 -0.14335962752E+04  0.14335962753E+04  0.50400001928E-02 0. -1.
    10030    2    1    2    0    0  0.00000000000E+00  0.00000000000E+00 -0.18462263252E+03  0.26825699180E+04  0.26762092311E+04 0.  0.
        4    1    3    3  502    0  0.11273354180E+04  0.72022072929E+03 -0.12270343351E+03  0.13433766371E+04  0.12699999809E+01 0.  1.
       -4    1    3    3    0  502 -0.11273354180E+04 -0.72022072929E+03 -0.61919199004E+02  0.13391932809E+04  0.12699999809E+01 0. -1.
</event>
<event>
 5   0  0.2411746E-07  0.3692852E+04  0.7818609E-02  0.8069548E-01
       -1   -1    0    0    0  501  0.00000000000E+00  0.00000000000E+00  0.11965527070E+04  0.11965527070E+04  0.50400001928E-02 0.  1.
        1   -1    0    0  501    0  0.00000000000E+00  0.00000000000E+00 -0.28492598304E+04  0.28492598304E+04  0.50400001928E-02 0. -1.
    10030    2    1    2    0    0  0.00000000000E+00  0.00000000000E+00 -0.16527071234E+04  0.40458125374E+04  0.36928523193E+04 0.  0.
        1    1    3    3  502    0 -0.11832958465E+04 -0.14576840334E+03 -0.23710240439E+04  0.26539013743E+04  0.50400001928E-02 0. -1.
       -1    1    3    3    0  502  0.11832958465E+04  0.14576840334E+03  0.71831692048E+03  0.13919111632E+04  0.50400001928E-02 0.  1.
</event>
<event>
 5   0  0.2411746E-07  0.3751165E+04  0.7818609E-02  0.8056717E-01
        1   -1    0    0  501    0  0.00000000000E+00  0.00000000000E+00  0.22332089623E+04  0.22332089623E+04  0.50400001928E-02 0.  1.
       -1   -1    0    0    0  501  0.00000000000E+00  0.00000000000E+00 -0.15752262016E+04  0.15752262016E+04  0.50400001928E-02 0. -1.
    10030    2    1    2    0    0  0.00000000000E+00  0.00000000000E+00  0.65798276070E+03  0.38084351638E+04  0.37511647636E+04 0.  0.
        1    1    3    3  502    0 -0.35466993832E+03 -0.24795955956E+03 -0.15238464043E+04  0.15841030813E+04  0.50400001928E-02 0. -1.
       -1    1    3    3    0  502  0.35466993832E+03  0.24795955956E+03  0.21818291650E+04  0.22243320825E+04  0.50400001928E-02 0.  1.
</event>
<event>
 5   0  0.2345471E-07  0.3621872E+04  0.7818609E-02  0.8085500E-01
       -1   -1    0    0    0  501  0.00000000000E+00  0.00000000000E+00  0.14119559007E+04  0.14119559007E+04  0.50400001928E-02 0. -1.
        1   -1    0    0  501    0  0.00000000000E+00  0.00000000000E+00 -0.23226563328E+04  0.23226563328E+04  0.50400001928E-02 0.  1.
    10030    2    1    2    0    0  0.00000000000E+00  0.00000000000E+00 -0.91070043206E+03  0.37346122335E+04  0.36218715132E+04 0.  0.
        5    1    3    3  502    0  0.10412914757E+04 -0.92720405019E+03 -0.16469480263E+04  0.21578821051E+04  0.46999998093E+01 0.  1.
       -5    1    3    3    0  502 -0.10412914757E+04  0.92720405019E+03  0.73624759423E+03  0.15767301285E+04  0.46999998093E+01 0. -1.
</event>
<event>
 5   0  0.6939921E-07  0.3754552E+04  0.7818609E-02  0.8055979E-01
       -2   -1    0    0    0  501  0.00000000000E+00  0.00000000000E+00  0.17403971527E+04  0.17403971527E+04  0.25500000920E-02 0.  1.
        2   -1    0    0  501    0  0.00000000000E+00  0.00000000000E+00 -0.20249204758E+04  0.20249204758E+04  0.25500000920E-02 0. -1.
    10030    2    1    2    0    0  0.00000000000E+00  0.00000000000E+00 -0.28452332311E+03  0.37653176284E+04  0.37545523464E+04 0.  0.
        4    1    3    3  502    0 -0.13876576843E+04  0.10228227848E+04  0.60310820200E+03  0.18263355152E+04  0.12699999809E+01 0.  1.
       -4    1    3    3    0  502  0.13876576843E+04 -0.10228227848E+04 -0.88763152511E+03  0.19389821132E+04  0.12699999809E+01 0. -1.
</event>
<event>
 5   0  0.7074157E-07  0.3532373E+04  0.7818609E-02  0.8106161E-01
       -2   -1    0    0    0  501  0.00000000000E+00  0.00000000000E+00  0.14926669832E+04  0.14926669832E+04  0.25500000920E-02 0.  1.
        2   -1    0    0  501    0  0.00000000000E+00  0.00000000000E+00 -0.20898263382E+04  0.20898263382E+04  0.25500000920E-02 0. -1.
    10030    2    1    2    0    0  0.00000000000E+00  0.00000000000E+00 -0.59715935509E+03  0.35824933214E+04  0.35323730129E+04 0.  0.
        3    1    3    3  502    0 -0.11459733581E+04 -0.48604944277E+03  0.97216121837E+03  0.15794291510E+04  0.10100000352E+00 0.  1.
       -3    1    3    3    0  502  0.11459733581E+04  0.48604944277E+03 -0.15693205735E+04  0.20030641704E+04  0.10100000352E+00 0. -1.
</event>
<event>
 5   0  0.7300916E-07  0.3740641E+04  0.7818609E-02  0.8059014E-01
        2   -1    0    0  501    0  0.00000000000E+00  0.00000000000E+00  0.25542269457E+04  0.25542269457E+04  0.25500000920E-02 0.  1.
       -2   -1    0    0    0  501  0.00000000000E+00  0.00000000000E+00 -0.13695333068E+04  0.13695333068E+04  0.25500000920E-02 0. -1.
    10030    2    1    2    0    0  0.00000000000E+00  0.00000000000E+00  0.11846936389E+04  0.39237602524E+04  0.37406410548E+04 0.  0.
        1    1    3    3  502    0 -0.32048515337E+03 -0.52687051120E+03  0.24445142699E+04  0.25211016014E+04  0.50400001928E-02 0.  1.
       -1    1    3    3    0  502  0.32048515337E+03  0.52687051120E+03 -0.12598206310E+04  0.14026586510E+04  0.50400001928E-02 0. -1.
</event>
<event>
 5   0  0.7074157E-07  0.3542874E+04  0.7818609E-02  0.8103704E-01
        2   -1    0    0  501    0  0.00000000000E+00  0.00000000000E+00  0.18176195622E+04  0.18176195622E+04  0.25500000920E-02 0. -1.
       -2   -1    0    0    0  501  0.00000000000E+00  0.00000000000E+00 -0.17264282280E+04  0.17264282280E+04  0.25500000920E-02 0.  1.
    10030    2    1    2    0    0  0.00000000000E+00  0.00000000000E+00  0.91191334163E+02  0.35440477902E+04  0.35428743810E+04 0.  0.
        3    1    3    3  502    0  0.15212189711E+04  0.72623404120E+03 -0.49907219750E+03  0.17580091323E+04  0.10100000352E+00 0.  1.
       -3    1    3    3    0  502 -0.15212189711E+04 -0.72623404120E+03  0.59026353166E+03  0.17860386579E+04  0.10100000352E+00 0. -1.
</event>
<event>
 5   0  0.6949625E-07  0.3715828E+04  0.7818609E-02  0.8064463E-01
        2   -1    0    0  501    0  0.00000000000E+00  0.00000000000E+00  0.27361655886E+04  0.27361655886E+04  0.25500000920E-02 0. -1.
       -2   -1    0    0    0  501  0.00000000000E+00  0.00000000000E+00 -0.12615628107E+04  0.12615628107E+04  0.25500000920E-02 0.  1.
    10030    2    1    2    0    0  0.00000000000E+00  0.00000000000E+00  0.14746027779E+04  0.39977283992E+04  0.37158281717E+04 0.  0.
        5    1    3    3  502    0 -0.72663077024E+03 -0.17076900052E+04  0.64335412358E+03  0.19642107953E+04  0.46999998093E+01 0. -1.
       -5    1    3    3    0  502  0.72663077024E+03  0.17076900052E+04  0.83124865432E+03  0.20335176039E+04  0.46999998093E+01 0.  1.
</event>
<event>
 5   0  0.6949625E-07  0.3712323E+04  0.7818609E-02  0.8065236E-01
        2   -1    0    0  501    0  0.00000000000E+00  0.00000000000E+00  0.16623753864E+04  0.16623753864E+04  0.25500000920E-02 0.  1.
       -2   -1    0    0    0  501  0.00000000000E+00  0.00000000000E+00 -0.20725377900E+04  0.20725377900E+04  0.25500000920E-02 0. -1.
    10030    2    1    2    0    0  0.00000000000E+00  0.00000000000E+00 -0.41016240361E+03  0.37349131764E+04  0.37123231592E+04 0.  0.
        5    1    3    3  502    0 -0.69688755548E+03 -0.14366136084E+04  0.74714678648E+03  0.17628843794E+04  0.46999998093E+01 0.  1.
       -5    1    3    3    0  502  0.69688755548E+03  0.14366136084E+04 -0.11573091901E+04  0.19720287970E+04  0.46999998093E+01 0. -1.
</event>
<event>
 5   0  0.2287500E-07  0.3841136E+04  0.7818609E-02  0.8037384E-01
        1   -1    0    0  501    0  0.00000000000E+00  0.00000000000E+00  0.26547442281E+04  0.26547442281E+04  0.50400001928E-02 0.  1.
       -1   -1    0    0    0  501  0.00000000000E+00  0.00000000000E+00 -0.13894301278E+04  0.13894301278E+04  0.50400001928E-02 0. -1.
    10030    2    1    2    0    0  0.00000000000E+00  0.00000000000E+00  0.12653141003E+04  0.40441743559E+04  0.38411360883E+04 0.  0.
        3    1    3    3  502    0 -0.10082771615E+04  0.53822661554E+03 -0.99238928179E+03  0.15136536000E+04  0.10100000352E+00 0. -1.
       -3    1    3    3    0  502  0.10082771615E+04 -0.53822661554E+03  0.22577033821E+04  0.25305207559E+04  0.10100000352E+00 0.  1.
</event>
<event>
 5   0  0.6939921E-07  0.3688220E+04  0.7818609E-02  0.8070577E-01
        2   -1    0    0  501    0  0.00000000000E+00  0.00000000000E+00  0.26611264706E+04  0.26611264706E+04  0.25500000920E-02 0. -1.
       -2   -1    0    0    0  501  0.00000000000E+00  0.00000000000E+00 -0.12779330320E+04  0.12779330320E+04  0.25500000920E-02 0.  1.
    10030    2    1    2    0    0  0.00000000000E+00  0.00000000000E+00  0.13831934387E+04  0.39390595026E+04  0.36882198519E+04 0.  0.
        4    1    3    3  502    0  0.35756431033E+03  0.16622511324E+04 -0.70972690265E+02  0.17017549174E+04  0.12699999809E+01 0.  1.
       -4    1    3    3    0  502 -0.35756431033E+03 -0.16622511324E+04  0.14541661289E+04  0.22373045852E+04  0.12699999809E+01 0. -1.
</event>
<event>
 5   0  0.2287500E-07  0.2771342E+04  0.7818609E-02  0.8312221E-01
        1   -1    0    0  501    0  0.00000000000E+00  0.00000000000E+00  0.20600678460E+04  0.20600678461E+04  0.50400001928E-02 0. -1.
       -1   -1    0    0    0  501  0.00000000000E+00  0.00000000000E+00 -0.93204903822E+03  0.93204903824E+03  0.50400001928E-02 0.  1.
    10030    2    1    2    0    0  0.00000000000E+00  0.00000000000E+00  0.11280188078E+04  0.29921168843E+04  0.27713420970E+04 0.  0.
        3    1    3    3  502    0  0.69535291689E+03 -0.10301845309E+04 -0.97400943766E+02  0.12467087875E+04  0.10100000352E+00 0.  1.
       -3    1    3    3    0  502 -0.69535291689E+03  0.10301845309E+04  0.12254197516E+04  0.17454080968E+04  0.10100000352E+00 0. -1.
</event>
<event>
 5   0  0.2287500E-07  0.3621419E+04  0.7818609E-02  0.8085603E-01
        1   -1    0    0  501    0  0.00000000000E+00  0.00000000000E+00  0.14684895725E+04  0.14684895725E+04  0.50400001928E-02 0. -1.
       -1   -1    0    0    0  501  0.00000000000E+00  0.00000000000E+00 -0.22326808489E+04  0.22326808489E+04  0.50400001928E-02 0.  1.
    10030    2    1    2    0    0  0.00000000000E+00  0.00000000000E+00 -0.76419127647E+03  0.37011704214E+04  0.36214188078E+04 0.  0.
        2    1    3    3  502    0 -0.92572550362E+03  0.63650053985E+03  0.10692363079E+04  0.15509245396E+04  0.25500000920E-02 0. -1.
       -2    1    3    3    0  502  0.92572550362E+03 -0.63650053985E+03 -0.18334275844E+04  0.21502458819E+04  0.25500000920E-02 0.  1.
</event>
<event>
 5   0  0.2287500E-07  0.3525387E+04  0.7818609E-02  0.8107800E-01
       -1   -1    0    0    0  501  0.00000000000E+00  0.00000000000E+00  0.11059538782E+04  0.11059538782E+04  0.50400001928E-02 0. -1.
        1   -1    0    0  501    0  0.00000000000E+00  0.00000000000E+00 -0.28094201548E+04  0.28094201548E+04  0.50400001928E-02 0.  1.
    10030    2    1    2    0    0  0.00000000000E+00  0.00000000000E+00 -0.17034662766E+04  0.39153740330E+04  0.35253874202E+04 0.  0.
        4    1    3    3  502    0  0.11341500206E+04 -0.11952021031E+04 -0.15612245760E+03  0.16550468789E+04  0.12699999809E+01 0. -1.
       -4    1    3    3    0  502 -0.11341500206E+04  0.11952021031E+04 -0.15473438190E+04  0.22603271541E+04  0.12699999809E+01 0.  1.
</event>
<event>
 5   0  0.6939921E-07  0.3676384E+04  0.7818609E-02  0.8073216E-01
        2   -1    0    0  501    0  0.00000000000E+00  0.00000000000E+00  0.21425451820E+04  0.21425451820E+04  0.25500000920E-02 0. -1.
       -2   -1    0    0    0  501  0.00000000000E+00  0.00000000000E+00 -0.15770729669E+04  0.15770729669E+04  0.25500000920E-02 0.  1.
    10030    2    1    2    0    0  0.00000000000E+00  0.00000000000E+00  0.56547221507E+03  0.37196181489E+04  0.36763841404E+04 0.  0.
        4    1    3    3  502    0  0.10845020421E+04  0.10009585319E+04 -0.82600035722E+03  0.16912542283E+04  0.12699999809E+01 0.  1.
       -4    1    3    3    0  502 -0.10845020421E+04 -0.10009585319E+04  0.13914725723E+04  0.20283639206E+04  0.12699999809E+01 0. -1.
</event>
<event>
 5   0  0.2345471E-07  0.3694597E+04  0.7818609E-02  0.8069160E-01
        1   -1    0    0  501    0  0.00000000000E+00  0.00000000000E+00  0.14621822488E+04  0.14621822489E+04  0.50400001928E-02 0.  1.
       -1   -1    0    0    0  501  0.00000000000E+00  0.00000000000E+00 -0.23338485420E+04  0.23338485420E+04  0.50400001928E-02 0. -1.
    10030    2    1    2    0    0  0.00000000000E+00  0.00000000000E+00 -0.87166629314E+03  0.37960307909E+04  0.36945970874E+04 0.  0.
        5    1    3    3  502    0  0.77210487774E+03  0.32529268364E+03  0.12557355347E+04  0.15095877237E+04  0.46999998093E+01 0.  1.
       -5    1    3    3    0  502 -0.77210487774E+03 -0.32529268364E+03 -0.21274018279E+04  0.22864430672E+04  0.46999998093E+01 0. -1.
</event>
<event>
 5   0  0.2345471E-07  0.3630028E+04  0.7818609E-02  0.8083648E-01
       -1   -1    0    0    0  501  0.00000000000E+00  0.00000000000E+00  0.23425213812E+04  0.23425213812E+04  0.50400001928E-02 0. -1.
        1   -1    0    0  501    0  0.00000000000E+00  0.00000000000E+00 -0.14062947950E+04  0.14062947950E+04  0.50400001928E-02 0.  1.
    10030    2    1    2    0    0  0.00000000000E+00  0.00000000000E+00  0.93622658621E+03  0.37488161762E+04  0.36300278928E+04 0.  0.
        5    1    3    3  502    0 -0.56939281923E+03 -0.75706238040E+03  0.20669691546E+04  0.22737051714E+04  0.46999998093E+01 0. -1.
       -5    1    3    3    0  502  0.56939281923E+03  0.75706238040E+03 -0.11307425684E+04  0.14751110048E+04  0.46999998093E+01 0.  1.
</event>
<event>
 5   0  0.2345471E-07  0.3502763E+04  0.7818609E-02  0.8113135E-01
        1   -1    0    0  501    0  0.00000000000E+00  0.00000000000E+00  0.23547498626E+04  0.23547498626E+04  0.50400001928E-02 0.  1.
       -1   -1    0    0    0  501  0.00000000000E+00  0.00000000000E+00 -0.13026171677E+04  0.13026171677E+04  0.50400001928E-02 0. -1.
    10030    2    1    2    0    0  0.00000000000E+00  0.00000000000E+00  0.10521326949E+04  0.36573670303E+04  0.35027632502E+04 0.  0.
        5    1    3    3  502    0  0.37882085891E+03 -0.69084403442E+03  0.21592474494E+04  0.22985087255E+04  0.46999998093E+01 0.  1.
       -5    1    3    3    0  502 -0.37882085891E+03  0.69084403442E+03 -0.11071147545E+04  0.13588583049E+04  0.46999998093E+01 0. -1.
</event>
<event>
 5   0  0.6949625E-07  0.3702955E+04  0.7818609E-02  0.8067307E-01
        2   -1    0    0  501    0  0.00000000000E+00  0.00000000000E+00  0.21328373625E+04  0.21328373625E+04  0.25500000920E-02 0. -1.
       -2   -1    0    0    0  501  0.00000000000E+00  0.00000000000E+00 -0.16072343956E+04  0.16072343956E+04  0.25500000920E-02 0.  1.
    10030    2    1    2    0    0  0.00000000000E+00  0.00000000000E+00  0.52560296682E+03  0.37400717581E+04  0.37029553437E+04 0.  0.
        5    1    3    3  502    0  0.22443795800E+03  0.38872802639E+03 -0.15514395275E+04  0.16150754078E+04  0.46999998093E+01 0.  1.
       -5    1    3    3    0  502 -0.22443795800E+03 -0.38872802639E+03  0.20770424943E+04  0.21249963503E+04  0.46999998093E+01 0. -1.
</event>
<event>
 5   0  0.7300916E-07  0.3672347E+04  0.7818609E-02  0.8074118E-01
       -2   -1    0    0    0  501  0.00000000000E+00  0.00000000000E+00  0.23621311223E+04  0.23621311223E+04  0.25500000920E-02 0.  1.
        2   -1    0    0  501    0  0.00000000000E+00  0.00000000000E+00 -0.14273265172E+04  0.14273265172E+04  0.25500000920E-02 0. -1.
    10030    2    1    2    0    0  0.00000000000E+00  0.00000000000E+00  0.93480460509E+03  0.37894576394E+04  0.36723466001E+04 0.  0.
        1    1    3    3  502    0 -0.17361642149E+03  0.15006615920E+04 -0.60962813737E+03  0.16290409269E+04  0.50400001928E-02 0. -1.
       -1    1    3    3    0  502  0.17361642149E+03 -0.15006615920E+04  0.15444327425E+04  0.21604167125E+04  0.50400001928E-02 0.  1.
</event>
<event>
 5   0  0.2287500E-07  0.3704447E+04  0.7818609E-02  0.8066977E-01
       -1   -1    0    0    0  501  0.00000000000E+00  0.00000000000E+00  0.16955939648E+04  0.16955939648E+04  0.50400001928E-02 0. -1.
        1   -1    0    0  501    0  0.00000000000E+00  0.00000000000E+00 -0.20233215963E+04  0.20233215963E+04  0.50400001928E-02 0.  1.
    10030    2    1    2    0    0  0.00000000000E+00  0.00000000000E+00 -0.32772763148E+03  0.37189155611E+04  0.37044469966E+04 0.  0.
        2    1    3    3  502    0 -0.92526159182E+03 -0.12619257919E+04 -0.11587775314E+04  0.19471340696E+04  0.25500000920E-02 0. -1.
       -2    1    3    3    0  502  0.92526159182E+03  0.12619257919E+04  0.83104989991E+03  0.17717814915E+04  0.25500000920E-02 0.  1.
</event>
<event>
 5   0  0.6949625E-07  0.3498100E+04  0.7818609E-02  0.8114240E-01
       -2   -1    0    0    0  501  0.00000000000E+00  0.00000000000E+00  0.18003641957E+04  0.18003641957E+04  0.25500000920E-02 0. -1.
        2   -1    0    0  501    0  0.00000000000E+00  0.00000000000E+00 -0.16991983429E+04  0.16991983429E+04  0.25500000920E-02 0.  1.
    10030    2    1    2    0    0  0.00000000000E+00  0.00000000000E+00  0.10116585286E+03  0.34995625386E+04  0.34980999745E+04 0.  0.
        5    1    3    3  502    0 -0.11105714767E+04  0.21607114114E+03  0.13849689375E+04  0.17883558904E+04  0.46999998093E+01 0.  1.
       -5    1    3    3    0  502  0.11105714767E+04 -0.21607114114E+03 -0.12838030846E+04  0.17112066482E+04  0.46999998093E+01 0. -1.
</event>
<event>
 5   0  0.7300916E-07  0.3615505E+04  0.7818609E-02  0.8086949E-01
       -2   -1    0    0    0  501  0.00000000000E+00  0.00000000000E+00  0.13126755813E+04  0.13126755813E+04  0.25500000920E-02 0. -1.
        2   -1    0    0  501    0  0.00000000000E+00  0.00000000000E+00 -0.24895487771E+04  0.24895487771E+04  0.25500000920E-02 0.  1.
    10030    2    1    2    0    0  0.00000000000E+00  0.00000000000E+00 -0.11768731958E+04  0.38022243585E+04  0.36155054354E+04 0.  0.
        1    1    3    3  502    0 -0.15750593750E+04  0.53702146298E+03  0.15426961195E+03  0.16712280513E+04  0.50400001928E-02 0. -1.
       -1    1    3    3    0  502  0.15750593750E+04 -0.53702146298E+03 -0.13311428078E+04  0.21309963071E+04  0.50400001928E-02 0.  1.
</event>
<event>
 5   0  0.7300916E-07  0.3676807E+04  0.7818609E-02  0.8073121E-01
       -2   -1    0    0    0  501  0.00000000000E+00  0.00000000000E+00  0.19116724417E+04  0.19116724417E+04  0.25500000920E-02 0.  1.
        2   -1    0    0  501    0  0.00000000000E+00  0.00000000000E+00 -0.17679423433E+04  0.17679423433E+04  0.25500000920E-02 0. -1.
    10030    2    1    2    0    0  0.00000000000E+00  0.00000000000E+00  0.14373009847E+03  0.36796147850E+04  0.36768065797E+04 0.  0.
        1    1    3    3  502    0 -0.50874764826E+03 -0.99417290230E+03 -0.13895662528E+04  0.17827221601E+04  0.50400001928E-02 0. -1.
       -1    1    3    3    0  502  0.50874764826E+03  0.99417290230E+03  0.15332963513E+04  0.18968926248E+04  0.50400001928E-02 0.  1.
</event>
<event>
 5   0  0.7074157E-07  0.3559478E+04  0.7818609E-02  0.8099837E-01
        2   -1    0    0  501    0  0.00000000000E+00  0.00000000000E+00  0.13305496783E+04  0.13305496783E+04  0.25500000920E-02 0.  1.
       -2   -1    0    0    0  501  0.00000000000E+00  0.00000000000E+00 -0.23805726164E+04  0.23805726164E+04  0.25500000920E-02 0. -1.
    10030    2    1    2    0    0  0.00000000000E+00  0.00000000000E+00 -0.10500229381E+04  0.37111222946E+04  0.35594775621E+04 0.  0.
        3    1    3    3  502    0  0.51732089552E+03  0.13590044262E+04 -0.15948645835E+04  0.21582648098E+04  0.10100000352E+00 0. -1.
       -3    1    3    3    0  502 -0.51732089552E+03 -0.13590044262E+04  0.54484164539E+03  0.15528574848E+04  0.10100000352E+00 0.  1.
</event>
<event>
 5   0  0.2287500E-07  0.3701263E+04  0.7818609E-02  0.8067682E-01
        1   -1    0    0  501    0  0.00000000000E+00  0.00000000000E+00  0.27280868309E+04  0.27280868309E+04  0.50400001928E-02 0.  1.
       -1   -1    0    0    0  501  0.00000000000E+00  0.00000000000E+00 -0.12553984984E+04  0.12553984984E+04  0.50400001928E-02 0. -1.
    10030    2    1    2    0    0  0.00000000000E+00  0.00000000000E+00  0.14726883325E+04  0.39834853294E+04  0.37012625474E+04 0.  0.
        4    1    3    3  502    0  0.74676935868E+03 -0.16866228852E+04  0.89768579205E+03  0.20513904129E+04  0.12699999809E+01 0.  1.
       -4    1    3    3    0  502 -0.74676935868E+03  0.16866228852E+04  0.57500254043E+03  0.19320949165E+04  0.12699999809E+01 0. -1.
</event>
<event>
 5   0  0.2287500E-07  0.3703870E+04  0.7818609E-02  0.8067105E-01
       -1   -1    0    0    0  501  0.00000000000E+00  0.00000000000E+00  0.21239026368E+04  0.21239026368E+04  0.50400001928E-02 0. -1.
        1   -1    0    0  501    0  0.00000000000E+00  0.00000000000E+00 -0.16147927762E+04  0.16147927762E+04  0.50400001928E-02 0.  1.
    10030    2    1    2    0    0  0.00000000000E+00  0.00000000000E+00  0.50910986061E+03  0.37386954131E+04  0.37038696712E+04 0.  0.
        4    1    3    3  502    0 -0.40296346233E+03 -0.14400847476E+04 -0.84816242165E+03  0.17191872320E+04  0.12699999809E+01 0.  1.
       -4    1    3    3    0  502  0.40296346233E+03  0.14400847476E+04  0.13572722823E+04  0.20195081811E+04  0.12699999809E+01 0. -1.
</event>
<event>
 5   0  0.2411746E-07  0.3694516E+04  0.7818609E-02  0.8069178E-01
        1   -1    0    0  501    0  0.00000000000E+00  0.00000000000E+00  0.20568922505E+04  0.20568922505E+04  0.50400001928E-02 0.  1.
       -1   -1    0    0    0  501  0.00000000000E+00  0.00000000000E+00 -0.16589891095E+04  0.16589891095E+04  0.50400001928E-02 0. -1.
    10030    2    1    2    0    0  0.00000000000E+00  0.00000000000E+00  0.39790314097E+03  0.37158813600E+04  0.36945158508E+04 0.  0.
        1    1    3    3  502    0  0.16354190420E+04 -0.31647368110E+02  0.10622655085E+04  0.19503858617E+04  0.50400001928E-02 0.  1.
       -1    1    3    3    0  502 -0.16354190420E+04  0.31647368110E+02 -0.66436236758E+03  0.17654954983E+04  0.50400001928E-02 0. -1.
</event>
<event>
 5   0  0.6949625E-07  0.3634337E+04  0.7818609E-02  0.8082671E-01
        2   -1    0    0  501    0  0.00000000000E+00  0.00000000000E+00  0.22578058053E+04  0.22578058053E+04  0.25500000920E-02 0.  1.
       -2   -1    0    0    0  501  0.00000000000E+00  0.00000000000E+00 -0.14625267669E+04  0.14625267669E+04  0.25500000920E-02 0. -1.
    10030    2    1    2    0    0  0.00000000000E+00  0.00000000000E+00  0.79527903840E+03  0.37203325723E+04  0.36343370371E+04 0.  0.
        5    1    3    3  502    0 -0.68822686785E+03 -0.18483396420E+03  0.21087968183E+04  0.22259528133E+04  0.46999998093E+01 0.  1.
       -5    1    3    3    0  502  0.68822686785E+03  0.18483396420E+03 -0.13135177799E+04  0.14943797590E+04  0.46999998093E+01 0. -1.
</event>
<event>
 5   0  0.2411746E-07  0.3690805E+04  0.7818609E-02  0.8070003E-01
       -1   -1    0    0    0  501  0.00000000000E+00  0.00000000000E+00  0.13801978853E+04  0.13801978853E+04  0.50400001928E-02 0. -1.
        1   -1    0    0  501    0  0.00000000000E+00  0.00000000000E+00 -0.24674068443E+04  0.24674068443E+04  0.50400001928E-02 0.  1.
    10030    2    1    2    0    0  0.00000000000E+00  0.00000000000E+00 -0.10872089591E+04  0.38476047296E+04  0.36908046324E+04 0.  0.
        1    1    3    3  502    0  0.11123531501E+04  0.13956863960E+04 -0.54369885283E+02  0.17855604529E+04  0.50400001928E-02 0. -1.
       -1    1    3    3    0  502 -0.11123531501E+04 -0.13956863960E+04 -0.10328390738E+04  0.20620442767E+04  0.50400001928E-02 0.  1.
</event>
<event>
 5   0  0.6949625E-07  0.3688172E+04  0.7818609E-02  0.8070588E-01
       -2   -1    0    0    0  501  0.00000000000E+00  0.00000000000E+00  0.18809140013E+04  0.18809140013E+04  0.25500000920E-02 0. -1.
        2   -1    0    0  501    0  0.00000000000E+00  0.00000000000E+00 -0.18079795516E+04  0.18079795516E+04  0.25500000920E-02 0.  1.
    10030    2    1    2    0    0  0.00000000000E+00  0.00000000000E+00  0.72934449759E+02  0.36888935529E+04  0.36881724757E+04 0.  0.
        5    1    3    3  502    0  0.13833203009E+04  0.41043301568E+03 -0.11120610940E+04  0.18217388073E+04  0.46999998093E+01 0.  1.
       -5    1    3    3    0  502 -0.13833203009E+04 -0.41043301568E+03  0.11849955438E+04  0.18671547456E+04  0.46999998093E+01 0. -1.
</event>
<event>
 5   0  0.7300916E-07  0.3717357E+04  0.7818609E-02  0.8064126E-01
        2   -1    0    0  501    0  0.00000000000E+00  0.00000000000E+00  0.20074821576E+04  0.20074821576E+04  0.25500000920E-02 0.  1.
       -2   -1    0    0    0  501  0.00000000000E+00  0.00000000000E+00 -0.17209046876E+04  0.17209046876E+04  0.25500000920E-02 0. -1.
    10030    2    1    2    0    0  0.00000000000E+00  0.00000000000E+00  0.28657746998E+03  0.37283868453E+04  0.37173568327E+04 0.  0.
        1    1    3    3  502    0  0.85928924758E+03  0.10063510866E+04  0.14523683548E+04  0.19648140774E+04  0.50400001928E-02 0.  1.
       -1    1    3    3    0  502 -0.85928924758E+03 -0.10063510866E+04 -0.11657908848E+04  0.17635727679E+04  0.50400001928E-02 0. -1.
</event>
<event>
 5   0  0.6939921E-07  0.3337569E+04  0.7818609E-02  0.8153401E-01
        2   -1    0    0  501    0  0.00000000000E+00  0.00000000000E+00  0.18681427176E+04  0.18681427176E+04  0.25500000920E-02 0. -1.
       -2   -1    0    0    0  501  0.00000000000E+00  0.00000000000E+00 -0.14907004337E+04  0.14907004337E+04  0.25500000920E-02 0.  1.
    10030    2    1    2    0    0  0.00000000000E+00  0.00000000000E+00  0.37744228389E+03  0.33588431514E+04  0.33375686716E+04 0.  0.
        4    1    3    3  502    0  0.13321815568E+04 -0.93801255705E+03 -0.17450090413E+03  0.16386053326E+04  0.12699999809E+01 0. -1.
       -4    1    3    3    0  502 -0.13321815568E+04  0.93801255705E+03  0.55194318802E+03  0.17202378188E+04  0.12699999809E+01 0.  1.
</event>
<event>
 5   0  0.6949625E-07  0.3669027E+04  0.7818609E-02  0.8074861E-01
        2   -1    0    0  501    0  0.00000000000E+00  0.00000000000E+00  0.24905829825E+04  0.24905829825E+04  0.25500000920E-02 0. -1.
       -2   -1    0    0    0  501  0.00000000000E+00  0.00000000000E+00 -0.13512660588E+04  0.13512660588E+04  0.25500000920E-02 0.  1.
    10030    2    1    2    0    0  0.00000000000E+00  0.00000000000E+00  0.11393169237E+04  0.38418490412E+04  0.36690272557E+04 0.  0.
        5    1    3    3  502    0  0.39147008886E+02  0.55489346895E+03  0.24001365499E+04  0.24637607023E+04  0.46999998093E+01 0. -1.
       -5    1    3    3    0  502 -0.39147008886E+02 -0.55489346895E+03 -0.12608196262E+04  0.13780883389E+04  0.46999998093E+01 0.  1.
</event>
<event>
 5   0  0.2287500E-07  0.2850885E+04  0.7818609E-02  0.8287643E-01
        1   -1    0    0  501    0  0.00000000000E+00  0.00000000000E+00  0.78989625332E+03  0.78989625334E+03  0.50400001928E-02 0. -1.
       -1   -1    0    0    0  501  0.00000000000E+00  0.00000000000E+00 -0.25723449818E+04  0.25723449818E+04  0.50400001928E-02 0.  1.
    10030    2    1    2    0    0  0.00000000000E+00  0.00000000000E+00 -0.17824487284E+04  0.33622412351E+04  0.28508845388E+04 0.  0.
        4    1    3    3  502    0  0.35284201152E+03  0.65311516690E+03 -0.23263880101E+04  0.24419540726E+04  0.12699999809E+01 0.  1.
       -4    1    3    3    0  502 -0.35284201152E+03 -0.65311516690E+03  0.54393928169E+03  0.92028716246E+03  0.12699999809E+01 0. -1.
</event>
<event>
 5   0  0.7300916E-07  0.2987610E+04  0.7818609E-02  0.8247278E-01
        2   -1    0    0  501    0  0.00000000000E+00  0.00000000000E+00  0.21209963749E+04  0.21209963749E+04  0.25500000920E-02 0. -1.
       -2   -1    0    0    0  501  0.00000000000E+00  0.00000000000E+00 -0.10520777585E+04  0.10520777585E+04  0.25500000920E-02 0.  1.
    10030    2    1    2    0    0  0.00000000000E+00  0.00000000000E+00  0.10689186164E+04  0.31730741334E+04  0.29876098219E+04 0.  0.
        1    1    3    3  502    0 -0.82173521437E+03 -0.11168620805E+04 -0.55757360023E+02  0.13877098229E+04  0.50400001928E-02 0.  1.
       -1    1    3    3    0  502  0.82173521437E+03  0.11168620805E+04  0.11246759764E+04  0.17853643105E+04  0.50400001928E-02 0. -1.
</event>
<event>
 5   0  0.2287500E-07  0.3664216E+04  0.7818609E-02  0.8075939E-01
       -1   -1    0    0    0  501  0.00000000000E+00  0.00000000000E+00  0.14343161802E+04  0.14343161802E+04  0.50400001928E-02 0.  1.
        1   -1    0    0  501    0  0.00000000000E+00  0.00000000000E+00 -0.23402231688E+04  0.23402231688E+04  0.50400001928E-02 0. -1.
    10030    2    1    2    0    0  0.00000000000E+00  0.00000000000E+00 -0.90590698861E+03  0.37745393491E+04  0.36642161270E+04 0.  0.
        4    1    3    3  502    0  0.14940353024E+04 -0.62609625347E+03  0.42866534423E+03  0.16756770553E+04  0.12699999809E+01 0.  1.
       -4    1    3    3    0  502 -0.14940353024E+04  0.62609625347E+03 -0.13345723328E+04  0.20988622937E+04  0.12699999809E+01 0. -1.
</event>
<event>
 5   0  0.2287500E-07  0.3874344E+04  0.7818609E-02  0.8030386E-01
        1   -1    0    0  501    0  0.00000000000E+00  0.00000000000E+00  0.12216235453E+04  0.12216235453E+04  0.50400001928E-02 0. -1.
       -1   -1    0    0    0  501  0.00000000000E+00  0.00000000000E+00 -0.30718433831E+04  0.30718433831E+04  0.50400001928E-02 0.  1.
    10030    2    1    2    0    0  0.00000000000E+00  0.00000000000E+00 -0.18502198378E+04  0.42934669284E+04  0.38743444370E+04 0.  0.
        2    1    3    3  502    0 -0.91004789070E+03  0.72628749355E+03  0.79058427462E+03  0.14073749259E+04  0.25500000920E-02 0. -1.
       -2    1    3    3    0  502  0.91004789070E+03 -0.72628749355E+03 -0.26408041124E+04  0.28860920025E+04  0.25500000920E-02 0.  1.
</event>
<event>
 5   0  0.2287500E-07  0.3620572E+04  0.7818609E-02  0.8085796E-01
       -1   -1    0    0    0  501  0.00000000000E+00  0.00000000000E+00  0.16559366161E+04  0.16559366162E+04  0.50400001928E-02 0.  1.
        1   -1    0    0  501    0  0.00000000000E+00  0.00000000000E+00 -0.19790219991E+04  0.19790219991E+04  0.50400001928E-02 0. -1.
    10030    2    1    2    0    0  0.00000000000E+00  0.00000000000E+00 -0.32308538298E+03  0.36349586153E+04  0.36205717739E+04 0.  0.
        2    1    3    3  502    0 -0.62931741506E+03 -0.25540141243E+03 -0.18462645135E+04  0.19672221391E+04  0.25500000920E-02 0. -1.
       -2    1    3    3    0  502  0.62931741506E+03  0.25540141243E+03  0.15231791306E+04  0.16677364762E+04  0.25500000920E-02 0.  1.
</event>
<event>
 5   0  0.2411746E-07  0.3678156E+04  0.7818609E-02  0.8072820E-01
        1   -1    0    0  501    0  0.00000000000E+00  0.00000000000E+00  0.10866589045E+04  0.10866589045E+04  0.50400001928E-02 0.  1.
       -1   -1    0    0    0  501  0.00000000000E+00  0.00000000000E+00 -0.31124827622E+04  0.31124827622E+04  0.50400001928E-02 0. -1.
    10030    2    1    2    0    0  0.00000000000E+00  0.00000000000E+00 -0.20258238578E+04  0.41991416667E+04  0.36781555751E+04 0.  0.
        1    1    3    3  502    0 -0.28234699752E+03  0.17477194799E+04 -0.44441952991E+03  0.18253087207E+04  0.50400001928E-02 0.  1.
       -1    1    3    3    0  502  0.28234699752E+03 -0.17477194799E+04 -0.15814043278E+04  0.23738329460E+04  0.50400001928E-02 0. -1.
</event>
<event>
 5   0  0.2287500E-07  0.3696524E+04  0.7818609E-02  0.8068733E-01
        1   -1    0    0  501    0  0.00000000000E+00  0.00000000000E+00  0.11794594304E+04  0.11794594304E+04  0.50400001928E-02 0. -1.
       -1   -1    0    0    0  501  0.00000000000E+00  0.00000000000E+00 -0.28963030080E+04  0.28963030080E+04  0.50400001928E-02 0.  1.
    10030    2    1    2    0    0  0.00000000000E+00  0.00000000000E+00 -0.17168435776E+04  0.40757624384E+04  0.36965237162E+04 0.  0.
        4    1    3    3  502    0 -0.25999251929E+03 -0.17990477365E+04 -0.12272576625E+04  0.21932468742E+04  0.12699999809E+01 0.  1.
       -4    1    3    3    0  502  0.25999251929E+03  0.17990477365E+04 -0.48958591511E+03  0.18825155642E+04  0.12699999809E+01 0. -1.
</event>
<event>
 5   0  0.6939921E-07  0.2693943E+04  0.7818609E-02  0.8336973E-01
       -2   -1    0    0    0  501  0.00000000000E+00  0.00000000000E+00  0.11293845435E+04  0.11293845435E+04  0.25500000920E-02 0. -1.
        2   -1    0    0  501    0  0.00000000000E+00  0.00000000000E+00 -0.16064789000E+04  0.16064789000E+04  0.25500000920E-02 0.  1.
    10030    2    1    2    0    0  0.00000000000E+00  0.00000000000E+00 -0.47709435644E+03  0.27358634435E+04  0.26939431613E+04 0.  0.
        4    1    3    3  502    0  0.69651035915E+03  0.97847066793E+03 -0.85778898711E+03  0.14759183879E+04  0.12699999809E+01 0.  1.
       -4    1    3    3    0  502 -0.69651035915E+03 -0.97847066793E+03  0.38069463067E+03  0.12599450556E+04  0.12699999809E+01 0. -1.
</event>
<event>
 5   0  0.7124627E-07  0.3714705E+04  0.7818609E-02  0.8064711E-01
       -2   -1    0    0    0  501  0.00000000000E+00  0.00000000000E+00  0.17730385597E+04  0.17730385597E+04  0.25500000920E-02 0.  1.
        2   -1    0    0  501    0  0.00000000000E+00  0.00000000000E+00 -0.19456759975E+04  0.19456759975E+04  0.25500000920E-02 0. -1.
    10030    2    1    2    0    0  0.00000000000E+00  0.00000000000E+00 -0.17263743787E+03  0.37187145572E+04  0.37147051394E+04 0.  0.
        2    1    3    3  502    0 -0.99061529328E+03  0.12017452613E+04  0.92682512410E+03  0.18123231343E+04  0.25500000920E-02 0.  1.
       -2    1    3    3    0  502  0.99061529328E+03 -0.12017452613E+04 -0.10994625620E+04  0.19063914229E+04  0.25500000920E-02 0. -1.
</event>
<event>
 5   0  0.2345471E-07  0.3001417E+04  0.7818609E-02  0.8243326E-01
        1   -1    0    0  501    0  0.00000000000E+00  0.00000000000E+00  0.18285036111E+04  0.18285036111E+04  0.50400001928E-02 0. -1.
       -1   -1    0    0    0  501  0.00000000000E+00  0.00000000000E+00 -0.12316774183E+04  0.12316774183E+04  0.50400001928E-02 0.  1.
    10030    2    1    2    0    0  0.00000000000E+00  0.00000000000E+00  0.59682619282E+03  0.30601810294E+04  0.30014174032E+04 0.  0.
        5    1    3    3  502    0 -0.39243249726E+03 -0.32006635064E+03  0.17387492637E+04  0.18109988475E+04  0.46999998093E+01 0. -1.
       -5    1    3    3    0  502  0.39243249726E+03  0.32006635064E+03 -0.11419230709E+04  0.12491821819E+04  0.46999998093E+01 0.  1.
</event>
<event>
 5   0  0.7124627E-07  0.3728936E+04  0.7818609E-02  0.8061579E-01
       -2   -1    0    0    0  501  0.00000000000E+00  0.00000000000E+00  0.17653806695E+04  0.17653806695E+04  0.25500000920E-02 0. -1.
        2   -1    0    0  501    0  0.00000000000E+00  0.00000000000E+00 -0.19691172856E+04  0.19691172856E+04  0.25500000920E-02 0.  1.
    10030    2    1    2    0    0  0.00000000000E+00  0.00000000000E+00 -0.20373661605E+03  0.37344979551E+04  0.37289363588E+04 0.  0.
        2    1    3    3  502    0  0.16564280004E+04  0.41324243549E+03  0.64872837671E+03  0.18262999583E+04  0.25500000920E-02 0. -1.
       -2    1    3    3    0  502 -0.16564280004E+04 -0.41324243549E+03 -0.85246499276E+03  0.19081979968E+04  0.25500000920E-02 0.  1.
</event>
<event>
 5   0  0.2345471E-07  0.3760598E+04  0.7818609E-02  0.8054664E-01
       -1   -1    0    0    0  501  0.00000000000E+00  0.00000000000E+00  0.14896025002E+04  0.14896025002E+04  0.50400001928E-02 0. -1.
        1   -1    0    0  501    0  0.00000000000E+00  0.00000000000E+00 -0.23734677693E+04  0.23734677693E+04  0.50400001928E-02 0.  1.
    10030    2    1    2    0    0  0.00000000000E+00  0.00000000000E+00 -0.88386526911E+03  0.38630702694E+04  0.37605975712E+04 0.  0.
        5    1    3    3  502    0 -0.69856771762E+03  0.13322794828E+04 -0.16007387492E+04  0.21966684113E+04  0.46999998093E+01 0.  1.
       -5    1    3    3    0  502  0.69856771762E+03 -0.13322794828E+04  0.71687348006E+03  0.16664018581E+04  0.46999998093E+01 0. -1.
</event>
<event>
 5   0  0.7300916E-07  0.3750297E+04  0.7818609E-02  0.8056906E-01
        2   -1    0    0  501    0  0.00000000000E+00  0.00000000000E+00  0.32832542045E+04  0.32832542045E+04  0.25500000920E-02 0.  1.
       -2   -1    0    0    0  501  0.00000000000E+00  0.00000000000E+00 -0.10709441155E+04  0.10709441155E+04  0.25500000920E-02 0. -1.
    10030    2    1    2    0    0  0.00000000000E+00  0.00000000000E+00  0.22123100890E+04  0.43541983200E+04  0.37502969323E+04 0.  0.
        1    1    3    3  502    0  0.83459423258E+03  0.44657004118E+03 -0.77320744458E+03  0.12222201467E+04  0.50400001928E-02 0. -1.
       -1    1    3    3    0  502 -0.83459423258E+03 -0.44657004118E+03  0.29855175335E+04  0.31319781733E+04  0.50400001928E-02 0.  1.
</event>
<event>
 5   0  0.6939921E-07  0.3754933E+04  0.7818609E-02  0.8055896E-01
       -2   -1    0    0    0  501  0.00000000000E+00  0.00000000000E+00  0.11892512868E+04  0.11892512868E+04  0.25500000920E-02 0.  1.
        2   -1    0    0  501    0  0.00000000000E+00  0.00000000000E+00 -0.29639497520E+04  0.29639497520E+04  0.25500000920E-02 0. -1.
    10030    2    1    2    0    0  0.00000000000E+00  0.00000000000E+00 -0.17746984652E+04  0.41532010388E+04  0.37549333186E+04 0.  0.
        4    1    3    3  502    0 -0.68504479409E+03 -0.15975647454E+04 -0.16720944635E+04  0.24119288948E+04  0.12699999809E+01 0. -1.
       -4    1    3    3    0  502  0.68504479409E+03  0.15975647454E+04 -0.10260400165E+03  0.17412721441E+04  0.12699999809E+01 0.  1.
</event>
<event>
 5   0  0.2345471E-07  0.3658585E+04  0.7818609E-02  0.8077202E-01
        1   -1    0    0  501    0  0.00000000000E+00  0.00000000000E+00  0.11722403251E+04  0.11722403251E+04  0.50400001928E-02 0. -1.
       -1   -1    0    0    0  501  0.00000000000E+00  0.00000000000E+00 -0.28546286040E+04  0.28546286040E+04  0.50400001928E-02 0.  1.
    10030    2    1    2    0    0  0.00000000000E+00  0.00000000000E+00 -0.16823882789E+04  0.40268689291E+04  0.36585848427E+04 0.  0.
        5    1    3    3  502    0  0.16693385185E+04 -0.66793522696E+03 -0.12119397135E+04  0.21683285074E+04  0.46999998093E+01 0.  1.
       -5    1    3    3    0  502 -0.16693385185E+04  0.66793522696E+03 -0.47044856541E+03  0.18585404218E+04  0.46999998093E+01 0. -1.
</event>
<event>
 5   0  0.6939921E-07  0.3710568E+04  0.7818609E-02  0.8065624E-01
       -2   -1    0    0    0  501  0.00000000000E+00  0.00000000000E+00  0.17691774256E+04  0.17691774256E+04  0.25500000920E-02 0.  1.
        2   -1    0    0  501    0  0.00000000000E+00  0.00000000000E+00 -0.19455816894E+04  0.19455816894E+04  0.25500000920E-02 0. -1.
    10030    2    1    2    0    0  0.00000000000E+00  0.00000000000E+00 -0.17640426373E+03  0.37147591150E+04  0.37105682608E+04 0.  0.
        4    1    3    3  502    0  0.10658601506E+04 -0.42430540275E+03 -0.15479246058E+04  0.19266979871E+04  0.12699999809E+01 0. -1.
       -4    1    3    3    0  502 -0.10658601506E+04  0.42430540275E+03  0.13715203421E+04  0.17880611279E+04  0.12699999809E+01 0.  1.
</event>
<event>
 5   0  0.6949625E-07  0.3271979E+04  0.7818609E-02  0.8170062E-01
        2   -1    0    0  501    0  0.00000000000E+00  0.00000000000E+00  0.12941386860E+04  0.12941386860E+04  0.25500000920E-02 0.  1.
       -2   -1    0    0    0  501  0.00000000000E+00  0.00000000000E+00 -0.20681418716E+04  0.20681418716E+04  0.25500000920E-02 0. -1.
    10030    2    1    2    0    0  0.00000000000E+00  0.00000000000E+00 -0.77400318560E+03  0.33622805577E+04  0.32719794647E+04 0.  0.
        5    1    3    3  502    0 -0.10865563078E+03  0.14588883889E+04  0.36551962536E+03  0.15079085065E+04  0.46999998093E+01 0.  1.
       -5    1    3    3    0  502  0.10865563078E+03 -0.14588883889E+04 -0.11395228110E+04  0.18543720512E+04  0.46999998093E+01 0. -1.
</event>
<event>
 5   0  0.7300916E-07  0.3680187E+04  0.7818609E-02  0.8072367E-01
       -2   -1    0    0    0  501  0.00000000000E+00  0.00000000000E+00  0.19556909302E+04  0.19556909302E+04  0.25500000920E-02 0.  1.
        2   -1    0    0  501    0  0.00000000000E+00  0.00000000000E+00 -0.17313287091E+04  0.17313287091E+04  0.25500000920E-02 0. -1.
    10030    2    1    2    0    0  0.00000000000E+00  0.00000000000E+00  0.22436222111E+03  0.36870196393E+04  0.36801868722E+04 0.  0.
        1    1    3    3  502    0 -0.14337623664E+04 -0.34853338239E+03 -0.98931176663E+03  0.17764818641E+04  0.50400001928E-02 0. -1.
       -1    1    3    3    0  502  0.14337623664E+04  0.34853338239E+03  0.12136739877E+04  0.19105377752E+04  0.50400001928E-02 0.  1.
</event>
<event>
 5   0  0.2287500E-07  0.3690059E+04  0.7818609E-02  0.8070168E-01
       -1   -1    0    0    0  501  0.00000000000E+00  0.00000000000E+00  0.14079449168E+04  0.14079449169E+04  0.50400001928E-02 0. -1.
        1   -1    0    0  501    0  0.00000000000E+00  0.00000000000E+00 -0.24178038204E+04  0.24178038204E+04  0.50400001928E-02 0.  1.
    10030    2    1    2    0    0  0.00000000000E+00  0.00000000000E+00 -0.10098589035E+04  0.38257487372E+04  0.36900594027E+04 0.  0.
        4    1    3    3  502    0 -0.87947120626E+03  0.14861909524E+04  0.16849326807E+03  0.17351151962E+04  0.12699999809E+01 0. -1.
       -4    1    3    3    0  502  0.87947120626E+03 -0.14861909524E+04 -0.11783521716E+04  0.20906335411E+04  0.12699999809E+01 0.  1.
</event>
<event>
 5   0  0.7300916E-07  0.3742347E+04  0.7818609E-02  0.8058641E-01
        2   -1    0    0  501    0  0.00000000000E+00  0.00000000000E+00  0.20091659121E+04  0.20091659121E+04  0.25500000920E-02 0. -1.
       -2   -1    0    0    0  501  0.00000000000E+00  0.00000000000E+00 -0.17426587821E+04  0.17426587821E+04  0.25500000920E-02 0.  1.
    10030    2    1    2    0    0  0.00000000000E+00  0.00000000000E+00  0.26650712998E+03  0.37518246941E+04  0.37423471893E+04 0.  0.
        1    1    3    3  502    0  0.11411413782E+04 -0.12336883882E+04  0.95819828721E+03  0.19345114737E+04  0.50400001928E-02 0.  1.
       -1    1    3    3    0  502 -0.11411413782E+04  0.12336883882E+04 -0.69169115723E+03  0.18173132205E+04  0.50400001928E-02 0. -1.
</event>
<event>
 5   0  0.2287500E-07  0.3691182E+04  0.7818609E-02  0.8069919E-01
        1   -1    0    0  501    0  0.00000000000E+00  0.00000000000E+00  0.16074584790E+04  0.16074584790E+04  0.50400001928E-02 0. -1.
       -1   -1    0    0    0  501  0.00000000000E+00  0.00000000000E+00 -0.21190008954E+04  0.21190008954E+04  0.50400001928E-02 0.  1.
    10030    2    1    2    0    0  0.00000000000E+00  0.00000000000E+00 -0.51154241638E+03  0.37264593744E+04  0.36911819009E+04 0.  0.
        2    1    3    3  502    0 -0.73509957696E+03  0.16926447991E+04 -0.28411356889E+03  0.18671203293E+04  0.25500000920E-02 0. -1.
       -2    1    3    3    0  502  0.73509957696E+03 -0.16926447991E+04 -0.22742884748E+03  0.18593390451E+04  0.25500000920E-02 0.  1.
</event>
<event>
 5   0  0.7074157E-07  0.3702621E+04  0.7818609E-02  0.8067381E-01
        2   -1    0    0  501    0  0.00000000000E+00  0.00000000000E+00  0.15086121361E+04  0.15086121361E+04  0.25500000920E-02 0.  1.
       -2   -1    0    0    0  501  0.00000000000E+00  0.00000000000E+00 -0.22718562615E+04  0.22718562615E+04  0.25500000920E-02 0. -1.
    10030    2    1    2    0    0  0.00000000000E+00  0.00000000000E+00 -0.76324412534E+03  0.37804683976E+04  0.37026206544E+04 0.  0.
        3    1    3    3  502    0 -0.99020000723E+03 -0.14600062768E+04 -0.95488514717E+03  0.20059710958E+04  0.10100000352E+00 0.  1.
       -3    1    3    3    0  502  0.99020000723E+03  0.14600062768E+04  0.19164102183E+03  0.17744973018E+04  0.10100000352E+00 0. -1.
</event>
<event>
 5   0  0.2287500E-07  0.3752912E+04  0.7818609E-02  0.8056336E-01
        1   -1    0    0  501    0  0.00000000000E+00  0.00000000000E+00  0.22129345983E+04  0.22129345983E+04  0.50400001928E-02 0. -1.
       -1   -1    0    0    0  501  0.00000000000E+00  0.00000000000E+00 -0.15911394591E+04  0.15911394591E+04  0.50400001928E-02 0.  1.
    10030    2    1    2    0    0  0.00000000000E+00  0.00000000000E+00  0.62179513925E+03  0.38040740574E+04  0.37529122344E+04 0.  0.
        4    1    3    3  502    0  0.10422883876E+04  0.23687934306E+03 -0.12524015656E+04  0.16465078805E+04  0.12699999809E+01 0.  1.
       -4    1    3    3    0  502 -0.10422883876E+04 -0.23687934306E+03  0.18741967049E+04  0.21575661769E+04  0.12699999809E+01 0. -1.
</event>
<event>
 5   0  0.2287500E-07  0.3705892E+04  0.7818609E-02  0.8066657E-01
       -1   -1    0    0    0  501  0.00000000000E+00  0.00000000000E+00  0.21525867836E+04  0.21525867836E+04  0.50400001928E-02 0.  1.
        1   -1    0    0  501    0  0.00000000000E+00  0.00000000000E+00 -0.15950150961E+04  0.15950150962E+04  0.50400001928E-02 0. -1.
    10030    2    1    2    0    0  0.00000000000E+00  0.00000000000E+00  0.55757168744E+03  0.37476018797E+04  0.37058917500E+04 0.  0.
        4    1    3    3  502    0  0.12746827522E+03 -0.51460926019E+03  0.20742509374E+04  0.21409319037E+04  0.12699999809E+01 0.  1.
       -4    1    3    3    0  502 -0.12746827522E+03  0.51460926019E+03 -0.15166792500E+04  0.16066699761E+04  0.12699999809E+01 0. -1.
</event>
<event>
 5   0  0.7300916E-07  0.3835737E+04  0.7818609E-02  0.8038529E-01
       -2   -1    0    0    0  501  0.00000000000E+00  0.00000000000E+00  0.20946388675E+04  0.20946388675E+04  0.25500000920E-02 0. -1.
        2   -1    0    0  501    0  0.00000000000E+00  0.00000000000E+00 -0.17560163234E+04  0.17560163234E+04  0.25500000920E-02 0.  1.
    10030    2    1    2    0    0  0.00000000000E+00  0.00000000000E+00  0.33862254404E+03  0.38506551909E+04  0.38357372397E+04 0.  0.
        1    1    3    3  502    0 -0.16113363162E+03 -0.53662541630E+03 -0.16720221677E+04  0.17634026806E+04  0.50400001928E-02 0.  1.
       -1    1    3    3    0  502  0.16113363162E+03  0.53662541630E+03  0.20106447118E+04  0.20872525103E+04  0.50400001928E-02 0. -1.
</event>
<event>
 5   0  0.6939921E-07  0.3670735E+04  0.7818609E-02  0.8074478E-01
        2   -1    0    0  501    0  0.00000000000E+00  0.00000000000E+00  0.14284650255E+04  0.14284650255E+04  0.25500000920E-02 0. -1.
       -2   -1    0    0    0  501  0.00000000000E+00  0.00000000000E+00 -0.23581771587E+04  0.23581771587E+04  0.25500000920E-02 0.  1.
    10030    2    1    2    0    0  0.00000000000E+00  0.00000000000E+00 -0.92971213323E+03  0.37866421842E+04  0.36707348556E+04 0.  0.
        4    1    3    3  502    0 -0.80706167552E+03  0.15935313807E+04 -0.29778946500E+02  0.17864991486E+04  0.12699999809E+01 0. -1.
       -4    1    3    3    0  502  0.80706167552E+03 -0.15935313807E+04 -0.89993318673E+03  0.20001430356E+04  0.12699999809E+01 0.  1.
</event>
<event>
 5   0  0.2345471E-07  0.3709189E+04  0.7818609E-02  0.8065929E-01
        1   -1    0    0  501    0  0.00000000000E+00  0.00000000000E+00  0.18789871248E+04  0.18789871248E+04  0.50400001928E-02 0. -1.
       -1   -1    0    0    0  501  0.00000000000E+00  0.00000000000E+00 -0.18305183583E+04  0.18305183583E+04  0.50400001928E-02 0.  1.
    10030    2    1    2    0    0  0.00000000000E+00  0.00000000000E+00  0.48468766559E+02  0.37095054831E+04  0.37091888207E+04 0.  0.
        5    1    3    3  502    0  0.13298702200E+04  0.50222225474E+03  0.12154348662E+04  0.18703170852E+04  0.46999998093E+01 0. -1.
       -5    1    3    3    0  502 -0.13298702200E+04 -0.50222225474E+03 -0.11669660997E+04  0.18391883979E+04  0.46999998093E+01 0.  1.
</event>
<event>
 5   0  0.7300916E-07  0.3704459E+04  0.7818609E-02  0.8066974E-01
        2   -1    0    0  501    0  0.00000000000E+00  0.00000000000E+00  0.20993107070E+04  0.20993107070E+04  0.25500000920E-02 0.  1.
       -2   -1    0    0    0  501  0.00000000000E+00  0.00000000000E+00 -0.16342291461E+04  0.16342291461E+04  0.25500000920E-02 0. -1.
    10030    2    1    2    0    0  0.00000000000E+00  0.00000000000E+00  0.46508156082E+03  0.37335398531E+04  0.37044593366E+04 0.  0.
        1    1    3    3  502    0 -0.16543466461E+04 -0.16205721386E+02 -0.60684125961E+03  0.17622093420E+04  0.50400001928E-02 0. -1.
       -1    1    3    3    0  502  0.16543466461E+04  0.16205721386E+02  0.10719228204E+04  0.19713305110E+04  0.50400001928E-02 0.  1.
</event>
<event>
 5   0  0.7074157E-07  0.3657689E+04  0.7818609E-02  0.8077404E-01
        2   -1    0    0  501    0  0.00000000000E+00  0.00000000000E+00  0.19787483428E+04  0.19787483428E+04  0.25500000920E-02 0. -1.
       -2   -1    0    0    0  501  0.00000000000E+00  0.00000000000E+00 -0.16902966033E+04  0.16902966033E+04  0.25500000920E-02 0.  1.
    10030    2    1    2    0    0  0.00000000000E+00  0.00000000000E+00  0.28845173954E+03  0.36690449460E+04  0.36576886705E+04 0.  0.
        3    1    3    3  502    0  0.20076209864E+03 -0.11641697667E+04  0.15446531498E+04  0.19446207931E+04  0.10100000352E+00 0. -1.
       -3    1    3    3    0  502 -0.20076209864E+03  0.11641697667E+04 -0.12562014102E+04  0.17244241529E+04  0.10100000352E+00 0.  1.
</event>
<event>
 5   0  0.2411746E-07  0.3705460E+04  0.7818609E-02  0.8066753E-01
        1   -1    0    0  501    0  0.00000000000E+00  0.00000000000E+00  0.12191855512E+04  0.12191855512E+04  0.50400001928E-02 0. -1.
       -1   -1    0    0    0  501  0.00000000000E+00  0.00000000000E+00 -0.28154923286E+04  0.28154923286E+04  0.50400001928E-02 0.  1.
    10030    2    1    2    0    0  0.00000000000E+00  0.00000000000E+00 -0.15963067774E+04  0.40346778798E+04  0.37054595216E+04 0.  0.
        1    1    3    3  502    0 -0.42014205761E+03 -0.17789503656E+04 -0.11273811608E+04  0.21475968043E+04  0.50400001928E-02 0. -1.
       -1    1    3    3    0  502  0.42014205761E+03  0.17789503656E+04 -0.46892561657E+03  0.18870810756E+04  0.50400001928E-02 0.  1.
</event>
<event>
 5   0  0.2287500E-07  0.3655369E+04  0.7818609E-02  0.8077925E-01
       -1   -1    0    0    0  501  0.00000000000E+00  0.00000000000E+00  0.16053451940E+04  0.16053451940E+04  0.50400001928E-02 0. -1.
        1   -1    0    0  501    0  0.00000000000E+00  0.00000000000E+00 -0.20808179525E+04  0.20808179525E+04  0.50400001928E-02 0.  1.
    10030    2    1    2    0    0  0.00000000000E+00  0.00000000000E+00 -0.47547275848E+03  0.36861631465E+04  0.36553692561E+04 0.  0.
        4    1    3    3  502    0  0.47193810368E+03  0.99906166288E+03 -0.17058787560E+04  0.20324550974E+04  0.12699999809E+01 0.  1.
       -4    1    3    3    0  502 -0.47193810368E+03 -0.99906166288E+03  0.12304059975E+04  0.16537080491E+04  0.12699999809E+01 0. -1.
</event>
<event>
 5   0  0.2287500E-07  0.3686779E+04  0.7818609E-02  0.8070898E-01
       -1   -1    0    0    0  501  0.00000000000E+00  0.00000000000E+00  0.19522917871E+04  0.19522917871E+04  0.50400001928E-02 0. -1.
        1   -1    0    0  501    0  0.00000000000E+00  0.00000000000E+00 -0.17405615055E+04  0.17405615055E+04  0.50400001928E-02 0.  1.
    10030    2    1    2    0    0  0.00000000000E+00  0.00000000000E+00  0.21173028155E+03  0.36928532926E+04  0.36867785028E+04 0.  0.
        3    1    3    3  502    0  0.20813428709E+03 -0.10003535820E+03 -0.17260160002E+04  0.17413954742E+04  0.10100000352E+00 0.  1.
       -3    1    3    3    0  502 -0.20813428709E+03  0.10003535820E+03  0.19377462818E+04  0.19514578184E+04  0.10100000352E+00 0. -1.
</event>
<event>
 5   0  0.2345471E-07  0.3692058E+04  0.7818609E-02  0.8069724E-01
       -1   -1    0    0    0  501  0.00000000000E+00  0.00000000000E+00  0.20615109687E+04  0.20615109687E+04  0.50400001928E-02 0. -1.
        1   -1    0    0  501    0  0.00000000000E+00  0.00000000000E+00 -0.16530702016E+04  0.16530702016E+04  0.50400001928E-02 0.  1.
    10030    2    1    2    0    0  0.00000000000E+00  0.00000000000E+00  0.40844076711E+03  0.37145811703E+04  0.36920576121E+04 0.  0.
        5    1    3    3  502    0  0.89488793744E+03 -0.15364947100E+04 -0.29495135770E+03  0.18024036196E+04  0.46999998093E+01 0.  1.
       -5    1    3    3    0  502 -0.89488793744E+03  0.15364947100E+04  0.70339212481E+03  0.19121775508E+04  0.46999998093E+01 0. -1.
</event>
<event>
 5   0  0.2345471E-07  0.3675578E+04  0.7818609E-02  0.8073396E-01
       -1   -1    0    0    0  501  0.00000000000E+00  0.00000000000E+00  0.15015587644E+04  0.15015587644E+04  0.50400001928E-02 0. -1.
        1   -1    0    0  501    0  0.00000000000E+00  0.00000000000E+00 -0.22493075947E+04  0.22493075947E+04  0.50400001928E-02 0.  1.
    10030    2    1    2    0    0  0.00000000000E+00  0.00000000000E+00 -0.74774883028E+03  0.37508663591E+04  0.36755775234E+04 0.  0.
        5    1    3    3  502    0 -0.13170445988E+04  0.17425495334E+03 -0.16697174183E+04  0.21337641882E+04  0.46999998093E+01 0.  1.
       -5    1    3    3    0  502  0.13170445988E+04 -0.17425495334E+03  0.92196858800E+03  0.16171021709E+04  0.46999998093E+01 0. -1.
</event>
<event>
 5   0  0.6939921E-07  0.3704695E+04  0.7818609E-02  0.8066922E-01
       -2   -1    0    0    0  501  0.00000000000E+00  0.00000000000E+00  0.19003570787E+04  0.19003570787E+04  0.25500000920E-02 0. -1.
        2   -1    0    0  501    0  0.00000000000E+00  0.00000000000E+00 -0.18055508467E+04  0.18055508467E+04  0.25500000920E-02 0.  1.
    10030    2    1    2    0    0  0.00000000000E+00  0.00000000000E+00  0.94806232001E+02  0.37059079255E+04  0.37046950388E+04 0.  0.
        4    1    3    3  502    0 -0.17717771764E+04  0.43155706002E+03 -0.27790153837E+03  0.18446318702E+04  0.12699999809E+01 0.  1.
       -4    1    3    3    0  502  0.17717771764E+04 -0.43155706002E+03  0.37270777037E+03  0.18612760552E+04  0.12699999809E+01 0. -1.
</event>
<event>
 5   0  0.7300916E-07  0.3720145E+04  0.7818609E-02  0.8063512E-01
        2   -1    0    0  501    0  0.00000000000E+00  0.00000000000E+00  0.31467275991E+04  0.31467275991E+04  0.25500000920E-02 0.  1.
       -2   -1    0    0    0  501  0.00000000000E+00  0.00000000000E+00 -0.10995137087E+04  0.10995137087E+04  0.25500000920E-02 0. -1.
    10030    2    1    2    0    0  0.00000000000E+00  0.00000000000E+00  0.20472138904E+04  0.42462413078E+04  0.37201452298E+04 0.  0.
        1    1    3    3  502    0 -0.14841239882E+04 -0.10347076389E+04  0.15167025243E+04  0.23608537561E+04  0.50400001928E-02 0. -1.
       -1    1    3    3    0  502  0.14841239882E+04  0.10347076389E+04  0.53051136604E+03  0.18853875517E+04  0.50400001928E-02 0.  1.
</event>
<event>
 5   0  0.2287500E-07  0.3671593E+04  0.7818609E-02  0.8074286E-01
       -1   -1    0    0    0  501  0.00000000000E+00  0.00000000000E+00  0.15368411808E+04  0.15368411808E+04  0.50400001928E-02 0. -1.
        1   -1    0    0  501    0  0.00000000000E+00  0.00000000000E+00 -0.21929067394E+04  0.21929067394E+04  0.50400001928E-02 0.  1.
    10030    2    1    2    0    0  0.00000000000E+00  0.00000000000E+00 -0.65606555855E+03  0.37297479202E+04  0.36715933232E+04 0.  0.
        2    1    3    3  502    0 -0.38941083858E+03 -0.32221814115E+03  0.14647674891E+04  0.15495189992E+04  0.25500000920E-02 0. -1.
       -2    1    3    3    0  502  0.38941083858E+03  0.32221814115E+03 -0.21208330477E+04  0.21802289210E+04  0.25500000920E-02 0.  1.
</event>
<event>
 5   0  0.6949625E-07  0.3716764E+04  0.7818609E-02  0.8064257E-01
        2   -1    0    0  501    0  0.00000000000E+00  0.00000000000E+00  0.26513845572E+04  0.26513845572E+04  0.25500000920E-02 0.  1.
       -2   -1    0    0    0  501  0.00000000000E+00  0.00000000000E+00 -0.13025588215E+04  0.13025588215E+04  0.25500000920E-02 0. -1.
    10030    2    1    2    0    0  0.00000000000E+00  0.00000000000E+00  0.13488257358E+04  0.39539433787E+04  0.37167643693E+04 0.  0.
        5    1    3    3  502    0 -0.56992398110E+03 -0.30993675180E+03  0.25270027665E+04  0.26089536612E+04  0.46999998093E+01 0.  1.
       -5    1    3    3    0  502  0.56992398110E+03  0.30993675180E+03 -0.11781770308E+04  0.13449897175E+04  0.46999998093E+01 0. -1.
</event>
<event>
 5   0  0.2287500E-07  0.3667671E+04  0.7818609E-02  0.8075164E-01
       -1   -1    0    0    0  501  0.00000000000E+00  0.00000000000E+00  0.21199717657E+04  0.21199717657E+04  0.50400001928E-02 0.  1.
        1   -1    0    0  501    0  0.00000000000E+00  0.00000000000E+00 -0.15863198336E+04  0.15863198336E+04  0.50400001928E-02 0. -1.
    10030    2    1    2    0    0  0.00000000000E+00  0.00000000000E+00  0.53365193210E+03  0.37062915994E+04  0.36676713368E+04 0.  0.
        2    1    3    3  502    0  0.94611433027E+03  0.25339783162E+03  0.18335092791E+04  0.20787253459E+04  0.25500000920E-02 0.  1.
       -2    1    3    3    0  502 -0.94611433027E+03 -0.25339783162E+03 -0.12998573470E+04  0.16275662535E+04  0.25500000920E-02 0. -1.
</event>
<event>
 5   0  0.7124627E-07  0.3245237E+04  0.7818609E-02  0.8176971E-01
       -2   -1    0    0    0  501  0.00000000000E+00  0.00000000000E+00  0.29608188110E+04  0.29608188110E+04  0.25500000920E-02 0.  1.
        2   -1    0    0  501    0  0.00000000000E+00  0.00000000000E+00 -0.88924439130E+03  0.88924439130E+03  0.25500000920E-02 0. -1.
    10030    2    1    2    0    0  0.00000000000E+00  0.00000000000E+00  0.20715744197E+04  0.38500632023E+04  0.32452374467E+04 0.  0.
        2    1    3    3  502    0 -0.71013490916E+03  0.33430664997E+03 -0.64904631379E+03  0.10184859562E+04  0.25500000920E-02 0. -1.
       -2    1    3    3    0  502  0.71013490916E+03 -0.33430664997E+03  0.27206207335E+04  0.28315772462E+04  0.25500000920E-02 0.  1.
</event>
<event>
 5   0  0.7074157E-07  0.3047371E+04  0.7818609E-02  0.8230332E-01
       -2   -1    0    0    0  501  0.00000000000E+00  0.00000000000E+00  0.15556596893E+04  0.15556596893E+04  0.25500000920E-02 0. -1.
        2   -1    0    0  501    0  0.00000000000E+00  0.00000000000E+00 -0.14923680212E+04  0.14923680212E+04  0.25500000920E-02 0.  1.
    10030    2    1    2    0    0  0.00000000000E+00  0.00000000000E+00  0.63291668167E+02  0.30480277105E+04  0.30473705204E+04 0.  0.
        3    1    3    3  502    0  0.13857793719E+04  0.40371387417E+03  0.51985703152E+03  0.15341514603E+04  0.10100000352E+00 0.  1.
       -3    1    3    3    0  502 -0.13857793719E+04 -0.40371387417E+03 -0.45656536336E+03  0.15138762502E+04  0.10100000352E+00 0. -1.
</event>
<event>
 5   0  0.7300916E-07  0.3678391E+04  0.7818609E-02  0.8072768E-01
       -2   -1    0    0    0  501  0.00000000000E+00  0.00000000000E+00  0.12803326646E+04  0.12803326646E+04  0.25500000920E-02 0.  1.
        2   -1    0    0  501    0  0.00000000000E+00  0.00000000000E+00 -0.26420006010E+04  0.26420006010E+04  0.25500000920E-02 0. -1.
    10030    2    1    2    0    0  0.00000000000E+00  0.00000000000E+00 -0.13616679364E+04  0.39223332657E+04  0.36783907729E+04 0.  0.
        1    1    3    3  502    0  0.46668810100E+03  0.17285584609E+04 -0.23231136111E+03  0.18054585857E+04  0.50400001928E-02 0.  1.
       -1    1    3    3    0  502 -0.46668810100E+03 -0.17285584609E+04 -0.11293565753E+04  0.21168746799E+04  0.50400001928E-02 0. -1.
</event>
<event>
 5   0  0.6939921E-07  0.3678256E+04  0.7818609E-02  0.8072798E-01
       -2   -1    0    0    0  501  0.00000000000E+00  0.00000000000E+00  0.97512885739E+03  0.97512885739E+03  0.25500000920E-02 0. -1.
        2   -1    0    0  501    0  0.00000000000E+00  0.00000000000E+00 -0.34686614244E+04  0.34686614244E+04  0.25500000920E-02 0.  1.
    10030    2    1    2    0    0  0.00000000000E+00  0.00000000000E+00 -0.24935325670E+04  0.44437902818E+04  0.36782560278E+04 0.  0.
        4    1    3    3  502    0  0.13190397923E+03  0.16906843712E+04 -0.21066401193E+04  0.27043939262E+04  0.12699999809E+01 0.  1.
       -4    1    3    3    0  502 -0.13190397923E+03 -0.16906843712E+04 -0.38689244773E+03  0.17393963556E+04  0.12699999809E+01 0. -1.
</event>
<event>
 5   0  0.2345471E-07  0.3215227E+04  0.7818609E-02  0.8184807E-01
       -1   -1    0    0    0  501  0.00000000000E+00  0.00000000000E+00  0.12840039436E+04  0.12840039436E+04  0.50400001928E-02 0. -1.
        1   -1    0    0  501    0  0.00000000000E+00  0.00000000000E+00 -0.20127832242E+04  0.20127832242E+04  0.50400001928E-02 0.  1.
    10030    2    1    2    0    0  0.00000000000E+00  0.00000000000E+00 -0.72877928057E+03  0.32967871677E+04  0.32152272687E+04 0.  0.
        5    1    3    3  502    0 -0.80588294847E+03  0.10992726096E+04 -0.12383919073E+04  0.18415982741E+04  0.46999998093E+01 0.  1.
       -5    1    3    3    0  502  0.80588294847E+03 -0.10992726096E+04  0.50961262677E+03  0.14551888937E+04  0.46999998093E+01 0. -1.
</event>
<event>
 5   0  0.2287500E-07  0.3654157E+04  0.7818609E-02  0.8078198E-01
       -1   -1    0    0    0  501  0.00000000000E+00  0.00000000000E+00  0.28842644825E+04  0.28842644825E+04  0.50400001928E-02 0.  1.
        1   -1    0    0  501    0  0.00000000000E+00  0.00000000000E+00 -0.11573888916E+04  0.11573888916E+04  0.50400001928E-02 0. -1.
    10030    2    1    2    0    0  0.00000000000E+00  0.00000000000E+00  0.17268755909E+04  0.40416533741E+04  0.36541569055E+04 0.  0.
        4    1    3    3  502    0  0.70256971828E+03  0.13658952663E+04 -0.23089623241E+03  0.15532510327E+04  0.12699999809E+01 0. -1.
       -4    1    3    3    0  502 -0.70256971828E+03 -0.13658952663E+04  0.19577718233E+04  0.24884023414E+04  0.12699999809E+01 0.  1.
</event>
<event>
 5   0  0.2287500E-07  0.3035293E+04  0.7818609E-02  0.8233724E-01
       -3   -1    0    0    0  501  0.00000000000E+00  0.00000000000E+00  0.12105265677E+04  0.12105265719E+04  0.10100000352E+00 0.  1.
        3   -1    0    0  501    0  0.00000000000E+00  0.00000000000E+00 -0.19026855089E+04  0.19026855116E+04  0.10100000352E+00 0. -1.
    10030    2    1    2    0    0  0.00000000000E+00  0.00000000000E+00 -0.69215894120E+03  0.31132120835E+04  0.30352933099E+04 0.  0.
        2    1    3    3  502    0  0.87293214928E+03 -0.61903201312E+03 -0.14498272945E+04  0.18020017632E+04  0.25500000920E-02 0. -1.
       -2    1    3    3    0  502 -0.87293214928E+03  0.61903201312E+03  0.75766835331E+03  0.13112103203E+04  0.25500000920E-02 0.  1.
</event>
<event>
 5   0  0.7074157E-07  0.3722673E+04  0.7818609E-02  0.8062956E-01
       -2   -1    0    0    0  501  0.00000000000E+00  0.00000000000E+00  0.19767812338E+04  0.19767812338E+04  0.25500000920E-02 0.  1.
        2   -1    0    0  501    0  0.00000000000E+00  0.00000000000E+00 -0.17526339739E+04  0.17526339739E+04  0.25500000920E-02 0. -1.
    10030    2    1    2    0    0  0.00000000000E+00  0.00000000000E+00  0.22414725985E+03  0.37294152077E+04  0.37226732058E+04 0.  0.
        3    1    3    3  502    0  0.50383225830E+03 -0.17857954466E+04  0.25951904256E+03  0.18735694450E+04  0.10100000352E+00 0.  1.
       -3    1    3    3    0  502 -0.50383225830E+03  0.17857954466E+04 -0.35371782713E+02  0.18558457627E+04  0.10100000352E+00 0. -1.
</event>
<event>
 5   0  0.7124627E-07  0.3754321E+04  0.7818609E-02  0.8056029E-01
       -2   -1    0    0    0  501  0.00000000000E+00  0.00000000000E+00  0.16084417590E+04  0.16084417590E+04  0.25500000920E-02 0. -1.
        2   -1    0    0  501    0  0.00000000000E+00  0.00000000000E+00 -0.21907730723E+04  0.21907730723E+04  0.25500000920E-02 0.  1.
    10030    2    1    2    0    0  0.00000000000E+00  0.00000000000E+00 -0.58233131327E+03  0.37992148313E+04  0.37543206544E+04 0.  0.
        2    1    3    3  502    0  0.70937574091E+03  0.10306367197E+04  0.11249627842E+04  0.16825478464E+04  0.25500000920E-02 0. -1.
       -2    1    3    3    0  502 -0.70937574091E+03 -0.10306367197E+04 -0.17072940974E+04  0.21166669849E+04  0.25500000920E-02 0.  1.
</event>
<event>
 5   0  0.6949625E-07  0.3687111E+04  0.7818609E-02  0.8070824E-01
       -2   -1    0    0    0  501  0.00000000000E+00  0.00000000000E+00  0.11099329960E+04  0.11099329960E+04  0.25500000920E-02 0. -1.
        2   -1    0    0  501    0  0.00000000000E+00  0.00000000000E+00 -0.30620747161E+04  0.30620747161E+04  0.25500000920E-02 0.  1.
    10030    2    1    2    0    0  0.00000000000E+00  0.00000000000E+00 -0.19521417201E+04  0.41720077122E+04  0.36871114785E+04 0.  0.
        5    1    3    3  502    0  0.10813660273E+04  0.14383424736E+04 -0.14293736513E+04  0.22981106765E+04  0.46999998093E+01 0.  1.
       -5    1    3    3    0  502 -0.10813660273E+04 -0.14383424736E+04 -0.52276806878E+03  0.18738970356E+04  0.46999998093E+01 0. -1.
</event>
<event>
 5   0  0.2287500E-07  0.3678809E+04  0.7818609E-02  0.8072674E-01
       -1   -1    0    0    0  501  0.00000000000E+00  0.00000000000E+00  0.31150354616E+04  0.31150354616E+04  0.50400001928E-02 0.  1.
        1   -1    0    0  501    0  0.00000000000E+00  0.00000000000E+00 -0.10861541420E+04  0.10861541420E+04  0.50400001928E-02 0. -1.
    10030    2    1    2    0    0  0.00000000000E+00  0.00000000000E+00  0.20288813196E+04  0.42011896036E+04  0.36788088665E+04 0.  0.
        4    1    3    3  502    0 -0.35108751140E+03  0.62910853290E+03 -0.91832585850E+03  0.11672034879E+04  0.12699999809E+01 0. -1.
       -4    1    3    3    0  502  0.35108751140E+03 -0.62910853290E+03  0.29472071781E+04  0.30339861157E+04  0.12699999809E+01 0.  1.
</event>
<event>
 5   0  0.2411746E-07  0.3724680E+04  0.7818609E-02  0.8062514E-01
       -1   -1    0    0    0  501  0.00000000000E+00  0.00000000000E+00  0.15763167459E+04  0.15763167459E+04  0.50400001928E-02 0.  1.
        1   -1    0    0  501    0  0.00000000000E+00  0.00000000000E+00 -0.22002621700E+04  0.22002621700E+04  0.50400001928E-02 0. -1.
    10030    2    1    2    0    0  0.00000000000E+00  0.00000000000E+00 -0.62394542407E+03  0.37765789159E+04  0.37246799078E+04 0.  0.
        1    1    3    3  502    0  0.13961457823E+02  0.15586418792E+04  0.72141969757E+03  0.17175580951E+04  0.50400001928E-02 0.  1.
       -1    1    3    3    0  502 -0.13961457823E+02 -0.15586418792E+04 -0.13453651216E+04  0.20590208208E+04  0.50400001928E-02 0. -1.
</event>
<event>
 5   0  0.7124627E-07  0.3908269E+04  0.7818609E-02  0.8023312E-01
       -2   -1    0    0    0  501  0.00000000000E+00  0.00000000000E+00  0.20804595977E+04  0.20804595977E+04  0.25500000920E-02 0.  1.
        2   -1    0    0  501    0  0.00000000000E+00  0.00000000000E+00 -0.18354794037E+04  0.18354794037E+04  0.25500000920E-02 0. -1.
    10030    2    1    2    0    0  0.00000000000E+00  0.00000000000E+00  0.24498019398E+03  0.39159390013E+04  0.39082685382E+04 0.  0.
        2    1    3    3  502    0 -0.19229971616E+04  0.54756282333E+02 -0.22129320497E+03  0.19364625007E+04  0.25500000920E-02 0. -1.
       -2    1    3    3    0  502  0.19229971616E+04 -0.54756282333E+02  0.46627339895E+03  0.19794765006E+04  0.25500000920E-02 0.  1.
</event>
<event>
 5   0  0.2287500E-07  0.3700094E+04  0.7818609E-02  0.8067941E-01
        1   -1    0    0  501    0  0.00000000000E+00  0.00000000000E+00  0.14013655208E+04  0.14013655208E+04  0.50400001928E-02 0.  1.
       -1   -1    0    0    0  501  0.00000000000E+00  0.00000000000E+00 -0.24423842203E+04  0.24423842203E+04  0.50400001928E-02 0. -1.
    10030    2    1    2    0    0  0.00000000000E+00  0.00000000000E+00 -0.10410186995E+04  0.38437497411E+04  0.37000935312E+04 0.  0.
        4    1    3    3  502    0  0.48606391506E+03  0.20718938105E+03  0.13213147726E+04  0.14230459973E+04  0.12699999809E+01 0.  1.
       -4    1    3    3    0  502 -0.48606391506E+03 -0.20718938105E+03 -0.23623334721E+04  0.24207037438E+04  0.12699999809E+01 0. -1.
</event>
<event>
 5   0  0.6939921E-07  0.3709319E+04  0.7818609E-02  0.8065900E-01
       -2   -1    0    0    0  501  0.00000000000E+00  0.00000000000E+00  0.15315108842E+04  0.15315108842E+04  0.25500000920E-02 0.  1.
        2   -1    0    0  501    0  0.00000000000E+00  0.00000000000E+00 -0.22459925896E+04  0.22459925896E+04  0.25500000920E-02 0. -1.
    10030    2    1    2    0    0  0.00000000000E+00  0.00000000000E+00 -0.71448170537E+03  0.37775034738E+04  0.37093191272E+04 0.  0.
        4    1    3    3  502    0  0.14606339235E+04  0.36426193017E+03 -0.14604931607E+04  0.20974222506E+04  0.12699999809E+01 0.  1.
       -4    1    3    3    0  502 -0.14606339235E+04 -0.36426193017E+03  0.74601145531E+03  0.16800812232E+04  0.12699999809E+01 0. -1.
</event>
<event>
 5   0  0.2345471E-07  0.3798073E+04  0.7818609E-02  0.8046568E-01
        1   -1    0    0  501    0  0.00000000000E+00  0.00000000000E+00  0.19976648864E+04  0.19976648865E+04  0.50400001928E-02 0. -1.
       -1   -1    0    0    0  501  0.00000000000E+00  0.00000000000E+00 -0.18052777423E+04  0.18052777423E+04  0.50400001928E-02 0.  1.
    10030    2    1    2    0    0  0.00000000000E+00  0.00000000000E+00  0.19238714411E+03  0.38029426288E+04  0.37980731726E+04 0.  0.
        5    1    3    3  502    0 -0.37121127363E+02 -0.49637747773E+03  0.19311776880E+04  0.19943013642E+04  0.46999998093E+01 0. -1.
       -5    1    3    3    0  502  0.37121127363E+02  0.49637747773E+03 -0.17387905439E+04  0.18086412646E+04  0.46999998093E+01 0.  1.
</event>
<event>
 5   0  0.7074157E-07  0.3858760E+04  0.7818609E-02  0.8033661E-01
       -2   -1    0    0    0  501  0.00000000000E+00  0.00000000000E+00  0.22184535753E+04  0.22184535753E+04  0.25500000920E-02 0.  1.
        2   -1    0    0  501    0  0.00000000000E+00  0.00000000000E+00 -0.16779741147E+04  0.16779741147E+04  0.25500000920E-02 0. -1.
    10030    2    1    2    0    0  0.00000000000E+00  0.00000000000E+00  0.54047946057E+03  0.38964276900E+04  0.38587602538E+04 0.  0.
        3    1    3    3  502    0  0.50934075001E+03  0.61009172349E+03  0.20454877476E+04  0.21944612200E+04  0.10100000352E+00 0.  1.
       -3    1    3    3    0  502 -0.50934075001E+03 -0.61009172349E+03 -0.15050082870E+04  0.17019664699E+04  0.10100000352E+00 0. -1.
</event>
<event>
 5   0  0.7300916E-07  0.3721064E+04  0.7818609E-02  0.8063310E-01
        2   -1    0    0  501    0  0.00000000000E+00  0.00000000000E+00  0.23858973612E+04  0.23858973612E+04  0.25500000920E-02 0.  1.
       -2   -1    0    0    0  501  0.00000000000E+00  0.00000000000E+00 -0.14508502949E+04  0.14508502949E+04  0.25500000920E-02 0. -1.
    10030    2    1    2    0    0  0.00000000000E+00  0.00000000000E+00  0.93504706634E+03  0.38367476561E+04  0.37210643048E+04 0.  0.
        1    1    3    3  502    0  0.18224745794E+04 -0.37436207525E+03  0.47205731993E+03  0.19194787493E+04  0.50400001928E-02 0.  1.
       -1    1    3    3    0  502 -0.18224745794E+04  0.37436207525E+03  0.46298974641E+03  0.19172689068E+04  0.50400001928E-02 0. -1.
</event>
<event>
 5   0  0.2287500E-07  0.3691747E+04  0.7818609E-02  0.8069793E-01
       -1   -1    0    0    0  501  0.00000000000E+00  0.00000000000E+00  0.21971788023E+04  0.21971788023E+04  0.50400001928E-02 0.  1.
        1   -1    0    0  501    0  0.00000000000E+00  0.00000000000E+00 -0.15507377797E+04  0.15507377797E+04  0.50400001928E-02 0. -1.
    10030    2    1    2    0    0  0.00000000000E+00  0.00000000000E+00  0.64644102259E+03  0.37479165820E+04  0.36917465663E+04 0.  0.
        3    1    3    3  502    0  0.12772246354E+03 -0.16177715965E+04  0.12162348331E+04  0.20279854895E+04  0.10100000352E+00 0.  1.
       -3    1    3    3    0  502 -0.12772246354E+03  0.16177715965E+04 -0.56979381053E+03  0.17199310925E+04  0.10100000352E+00 0. -1.
</event>
<event>
 5   0  0.2287500E-07  0.3254395E+04  0.7818609E-02  0.8174598E-01
        1   -1    0    0  501    0  0.00000000000E+00  0.00000000000E+00  0.22448448653E+04  0.22448448653E+04  0.50400001928E-02 0.  1.
       -1   -1    0    0    0  501  0.00000000000E+00  0.00000000000E+00 -0.11794897142E+04  0.11794897142E+04  0.50400001928E-02 0. -1.
    10030    2    1    2    0    0  0.00000000000E+00  0.00000000000E+00  0.10653551511E+04  0.34243345796E+04  0.32543948308E+04 0.  0.
        4    1    3    3  502    0  0.15616814515E+04  0.35205016408E+03  0.83941604997E+03  0.18075976299E+04  0.12699999809E+01 0. -1.
       -4    1    3    3    0  502 -0.15616814515E+04 -0.35205016408E+03  0.22593910112E+03  0.16167369496E+04  0.12699999809E+01 0.  1.
</event>
<event>
 5   0  0.2287500E-07  0.3675926E+04  0.7818609E-02  0.8073318E-01
       -1   -1    0    0    0  501  0.00000000000E+00  0.00000000000E+00  0.21831113472E+04  0.21831113472E+04  0.50400001928E-02 0. -1.
        1   -1    0    0  501    0  0.00000000000E+00  0.00000000000E+00 -0.15473822238E+04  0.15473822238E+04  0.50400001928E-02 0.  1.
    10030    2    1    2    0    0  0.00000000000E+00  0.00000000000E+00  0.63572912345E+03  0.37304935710E+04  0.36759258377E+04 0.  0.
        4    1    3    3  502    0  0.25680034626E+03 -0.12278391637E+04 -0.10454199466E+04  0.16329237298E+04  0.12699999809E+01 0.  1.
       -4    1    3    3    0  502 -0.25680034626E+03  0.12278391637E+04  0.16811490700E+04  0.20975698411E+04  0.12699999809E+01 0. -1.
</event>
<event>
 5   0  0.2287500E-07  0.3517491E+04  0.7818609E-02  0.8109657E-01
        1   -1    0    0  501    0  0.00000000000E+00  0.00000000000E+00  0.23304758580E+04  0.23304758580E+04  0.50400001928E-02 0.  1.
       -1   -1    0    0    0  501  0.00000000000E+00  0.00000000000E+00 -0.13272761463E+04  0.13272761463E+04  0.50400001928E-02 0. -1.
    10030    2    1    2    0    0  0.00000000000E+00  0.00000000000E+00  0.10031997117E+04  0.36577520043E+04  0.35174905918E+04 0.  0.
        4    1    3    3  502    0  0.24433705126E+03  0.17119003087E+04  0.83513921387E+03  0.19203547540E+04  0.12699999809E+01 0.  1.
       -4    1    3    3    0  502 -0.24433705126E+03 -0.17119003087E+04  0.16806049787E+03  0.17373972504E+04  0.12699999809E+01 0. -1.
</event>
<event>
 5   0  0.2287500E-07  0.3673468E+04  0.7818609E-02  0.8073867E-01
       -1   -1    0    0    0  501  0.00000000000E+00  0.00000000000E+00  0.16336602125E+04  0.16336602125E+04  0.50400001928E-02 0.  1.
        1   -1    0    0  501    0  0.00000000000E+00  0.00000000000E+00 -0.20650516356E+04  0.20650516357E+04  0.50400001928E-02 0. -1.
    10030    2    1    2    0    0  0.00000000000E+00  0.00000000000E+00 -0.43139142317E+03  0.36987118481E+04  0.36734684939E+04 0.  0.
        3    1    3    3  502    0  0.53158835907E+02  0.81722926773E+03 -0.18710441404E+04  0.20424239823E+04  0.10100000352E+00 0. -1.
       -3    1    3    3    0  502 -0.53158835907E+02 -0.81722926773E+03  0.14396527173E+04  0.16562878658E+04  0.10100000352E+00 0.  1.
</event>
<event>
 5   0  0.6949625E-07  0.3668224E+04  0.7818609E-02  0.8075040E-01
       -2   -1    0    0    0  501  0.00000000000E+00  0.00000000000E+00  0.14514475306E+04  0.14514475306E+04  0.25500000920E-02 0. -1.
        2   -1    0    0  501    0  0.00000000000E+00  0.00000000000E+00 -0.23176637659E+04  0.23176637659E+04  0.25500000920E-02 0.  1.
    10030    2    1    2    0    0  0.00000000000E+00  0.00000000000E+00 -0.86621623526E+03  0.37691112965E+04  0.36682242842E+04 0.  0.
        5    1    3    3  502    0  0.11293254816E+04  0.10070737845E+04 -0.14981344404E+04  0.21293197370E+04  0.46999998093E+01 0.  1.
       -5    1    3    3    0  502 -0.11293254816E+04 -0.10070737845E+04  0.63191820512E+03  0.16397915596E+04  0.46999998093E+01 0. -1.
</event>
<event>
 5   0  0.7124627E-07  0.3584994E+04  0.7818609E-02  0.8093938E-01
       -2   -1    0    0    0  501  0.00000000000E+00  0.00000000000E+00  0.14601333585E+04  0.14601333585E+04  0.25500000920E-02 0. -1.
        2   -1    0    0  501    0  0.00000000000E+00  0.00000000000E+00 -0.22005153505E+04  0.22005153505E+04  0.25500000920E-02 0.  1.
    10030    2    1    2    0    0  0.00000000000E+00  0.00000000000E+00 -0.74038199205E+03  0.36606487090E+04  0.35849942087E+04 0.  0.
        2    1    3    3  502    0  0.83236772164E+01 -0.16306857423E+03 -0.21929058617E+04  0.21989762986E+04  0.25500000920E-02 0.  1.
       -2    1    3    3    0  502 -0.83236772164E+01  0.16306857423E+03  0.14525238696E+04  0.14616724104E+04  0.25500000920E-02 0. -1.
</event>
<event>
 5   0  0.2287500E-07  0.3630014E+04  0.7818609E-02  0.8083651E-01
        1   -1    0    0  501    0  0.00000000000E+00  0.00000000000E+00  0.33276731123E+04  0.33276731123E+04  0.50400001928E-02 0.  1.
       -1   -1    0    0    0  501  0.00000000000E+00  0.00000000000E+00 -0.98995607896E+03  0.98995607898E+03  0.50400001928E-02 0. -1.
    10030    2    1    2    0    0  0.00000000000E+00  0.00000000000E+00  0.23377170333E+04  0.43176291913E+04  0.36300138988E+04 0.  0.
        2    1    3    3  502    0 -0.13696661579E+02 -0.47769928753E+03  0.32514958023E+04  0.32864280245E+04  0.25500000920E-02 0.  1.
       -2    1    3    3    0  502  0.13696661579E+02  0.47769928753E+03 -0.91377876894E+03  0.10312011668E+04  0.25500000920E-02 0. -1.
</event>
<event>
 5   0  0.2411746E-07  0.3634985E+04  0.7818609E-02  0.8082525E-01
       -1   -1    0    0    0  501  0.00000000000E+00  0.00000000000E+00  0.12011653553E+04  0.12011653553E+04  0.50400001928E-02 0.  1.
        1   -1    0    0  501    0  0.00000000000E+00  0.00000000000E+00 -0.27500614510E+04  0.27500614510E+04  0.50400001928E-02 0. -1.
    10030    2    1    2    0    0  0.00000000000E+00  0.00000000000E+00 -0.15488960956E+04  0.39512268063E+04  0.36349847537E+04 0.  0.
        1    1    3    3  502    0 -0.16842536091E+04 -0.62491839143E+03 -0.47469360831E+03  0.18581085107E+04  0.50400001928E-02 0.  1.
       -1    1    3    3    0  502  0.16842536091E+04  0.62491839143E+03 -0.10742024873E+04  0.20931182956E+04  0.50400001928E-02 0. -1.
</event>
<event>
 5   0  0.2287500E-07  0.3706738E+04  0.7818609E-02  0.8066470E-01
        1   -1    0    0  501    0  0.00000000000E+00  0.00000000000E+00  0.19386799931E+04  0.19386799931E+04  0.50400001928E-02 0.  1.
       -1   -1    0    0    0  501  0.00000000000E+00  0.00000000000E+00 -0.17718125002E+04  0.17718125002E+04  0.50400001928E-02 0. -1.
    10030    2    1    2    0    0  0.00000000000E+00  0.00000000000E+00  0.16686749295E+03  0.37104924933E+04  0.37067384292E+04 0.  0.
        3    1    3    3  502    0  0.16350993921E+04  0.63033674767E+03  0.68745433783E+03  0.18824101345E+04  0.10100000352E+00 0.  1.
       -3    1    3    3    0  502 -0.16350993921E+04 -0.63033674767E+03 -0.52058684487E+03  0.18280823589E+04  0.10100000352E+00 0. -1.
</event>
<event>
 5   0  0.2411746E-07  0.2968384E+04  0.7818609E-02  0.8252817E-01
       -1   -1    0    0    0  501  0.00000000000E+00  0.00000000000E+00  0.18523188707E+04  0.18523188707E+04  0.50400001928E-02 0.  1.
        1   -1    0    0  501    0  0.00000000000E+00  0.00000000000E+00 -0.11892256743E+04  0.11892256743E+04  0.50400001928E-02 0. -1.
    10030    2    1    2    0    0  0.00000000000E+00  0.00000000000E+00  0.66309319643E+03  0.30415445450E+04  0.29683835049E+04 0.  0.
        1    1    3    3  502    0  0.65472483622E+03 -0.13312460749E+04  0.37672916180E+03  0.15306226134E+04  0.50400001928E-02 0.  1.
       -1    1    3    3    0  502 -0.65472483622E+03  0.13312460749E+04  0.28636403463E+03  0.15109219316E+04  0.50400001928E-02 0. -1.
</event>
<event>
 5   0  0.2287500E-07  0.3721705E+04  0.7818609E-02  0.8063169E-01
        1   -1    0    0  501    0  0.00000000000E+00  0.00000000000E+00  0.22957465914E+04  0.22957465914E+04  0.50400001928E-02 0. -1.
       -1   -1    0    0    0  501  0.00000000000E+00  0.00000000000E+00 -0.15083421971E+04  0.15083421971E+04  0.50400001928E-02 0.  1.
    10030    2    1    2    0    0  0.00000000000E+00  0.00000000000E+00  0.78740439436E+03  0.38040887885E+04  0.37217046941E+04 0.  0.
        4    1    3    3  502    0 -0.13787652334E+04  0.42619082008E+03 -0.80709575382E+03  0.16534924713E+04  0.12699999809E+01 0.  1.
       -4    1    3    3    0  502  0.13787652334E+04 -0.42619082008E+03  0.15945001482E+04  0.21505963172E+04  0.12699999809E+01 0. -1.
</event>
<event>
 5   0  0.2287500E-07  0.3644606E+04  0.7818609E-02  0.8080350E-01
       -1   -1    0    0    0  501  0.00000000000E+00  0.00000000000E+00  0.26259155997E+04  0.26259155997E+04  0.50400001928E-02 0.  1.
        1   -1    0    0  501    0  0.00000000000E+00  0.00000000000E+00 -0.12646209738E+04  0.12646209738E+04  0.50400001928E-02 0. -1.
    10030    2    1    2    0    0  0.00000000000E+00  0.00000000000E+00  0.13612946259E+04  0.38905365735E+04  0.36446058458E+04 0.  0.
        4    1    3    3  502    0  0.58971677939E+03  0.16146139683E+04  0.13264866644E+04  0.21712467917E+04  0.12699999809E+01 0.  1.
       -4    1    3    3    0  502 -0.58971677939E+03 -0.16146139683E+04  0.34807961480E+02  0.17192897818E+04  0.12699999809E+01 0. -1.
</event>
<event>
 5   0  0.2287500E-07  0.3711422E+04  0.7818609E-02  0.8065435E-01
        1   -1    0    0  501    0  0.00000000000E+00  0.00000000000E+00  0.11781417695E+04  0.11781417695E+04  0.50400001928E-02 0.  1.
       -1   -1    0    0    0  501  0.00000000000E+00  0.00000000000E+00 -0.29229625234E+04  0.29229625234E+04  0.50400001928E-02 0. -1.
    10030    2    1    2    0    0  0.00000000000E+00  0.00000000000E+00 -0.17448207539E+04  0.41011042929E+04  0.37114224979E+04 0.  0.
        3    1    3    3  502    0 -0.16472381912E+04  0.84694506594E+03 -0.99817916042E+03  0.21040606573E+04  0.10100000352E+00 0.  1.
       -3    1    3    3    0  502  0.16472381912E+04 -0.84694506594E+03 -0.74664159343E+03  0.19970436356E+04  0.10100000352E+00 0. -1.
</event>
<event>
 5   0  0.7124627E-07  0.3644909E+04  0.7818609E-02  0.8080282E-01
        2   -1    0    0  501    0  0.00000000000E+00  0.00000000000E+00  0.10765709942E+04  0.10765709942E+04  0.25500000920E-02 0.  1.
       -2   -1    0    0    0  501  0.00000000000E+00  0.00000000000E+00 -0.30851105253E+04  0.30851105253E+04  0.25500000920E-02 0. -1.
    10030    2    1    2    0    0  0.00000000000E+00  0.00000000000E+00 -0.20085395311E+04  0.41616815195E+04  0.36449090554E+04 0.  0.
        2    1    3    3  502    0  0.28901888941E+03  0.21055029030E+02  0.10500970781E+04  0.10893480188E+04  0.25500000920E-02 0.  1.
       -2    1    3    3    0  502 -0.28901888941E+03 -0.21055029030E+02 -0.30586366092E+04  0.30723335007E+04  0.25500000920E-02 0. -1.
</event>
<event>
 5   0  0.2345471E-07  0.3722154E+04  0.7818609E-02  0.8063070E-01
       -1   -1    0    0    0  501  0.00000000000E+00  0.00000000000E+00  0.17229463862E+04  0.17229463862E+04  0.50400001928E-02 0.  1.
        1   -1    0    0  501    0  0.00000000000E+00  0.00000000000E+00 -0.20102813497E+04  0.20102813497E+04  0.50400001928E-02 0. -1.
    10030    2    1    2    0    0  0.00000000000E+00  0.00000000000E+00 -0.28733496350E+03  0.37332277360E+04  0.37221536706E+04 0.  0.
        5    1    3    3  502    0 -0.93489781801E+03 -0.14766665261E+04 -0.78510671805E+03  0.19159834571E+04  0.46999998093E+01 0. -1.
       -5    1    3    3    0  502  0.93489781801E+03  0.14766665261E+04  0.49777175455E+03  0.18172442788E+04  0.46999998093E+01 0.  1.
</event>
<event>
 5   0  0.7300916E-07  0.3721092E+04  0.7818609E-02  0.8063304E-01
       -2   -1    0    0    0  501  0.00000000000E+00  0.00000000000E+00  0.11993641051E+04  0.11993641051E+04  0.25500000920E-02 0.  1.
        2   -1    0    0  501    0  0.00000000000E+00  0.00000000000E+00 -0.28862228944E+04  0.28862228944E+04  0.25500000920E-02 0. -1.
    10030    2    1    2    0    0  0.00000000000E+00  0.00000000000E+00 -0.16868587893E+04  0.40855869994E+04  0.37210923873E+04 0.  0.
        1    1    3    3  502    0  0.16593231876E+04  0.37478389936E+03 -0.16082352575E+02  0.17011981231E+04  0.50400001928E-02 0. -1.
       -1    1    3    3    0  502 -0.16593231876E+04 -0.37478389936E+03 -0.16707764367E+04  0.23843888763E+04  0.50400001928E-02 0.  1.
</event>
<event>
 5   0  0.2287500E-07  0.3627183E+04  0.7818609E-02  0.8084293E-01
        1   -1    0    0  501    0  0.00000000000E+00  0.00000000000E+00  0.19104560513E+04  0.19104560513E+04  0.50400001928E-02 0.  1.
       -1   -1    0    0    0  501  0.00000000000E+00  0.00000000000E+00 -0.17216381067E+04  0.17216381067E+04  0.50400001928E-02 0. -1.
    10030    2    1    2    0    0  0.00000000000E+00  0.00000000000E+00  0.18881794457E+03  0.36320941580E+04  0.36271828953E+04 0.  0.
        3    1    3    3  502    0  0.50195358446E+03 -0.17318203975E+04 -0.10067431925E+03  0.18059054845E+04  0.10100000352E+00 0. -1.
       -3    1    3    3    0  502 -0.50195358446E+03  0.17318203975E+04  0.28949226382E+03  0.18261886735E+04  0.10100000352E+00 0.  1.
</event>
<event>
 5   0  0.7300916E-07  0.3625496E+04  0.7818609E-02  0.8084676E-01
        2   -1    0    0  501    0  0.00000000000E+00  0.00000000000E+00  0.21543859585E+04  0.21543859585E+04  0.25500000920E-02 0.  1.
       -2   -1    0    0    0  501  0.00000000000E+00  0.00000000000E+00 -0.15252860271E+04  0.15252860271E+04  0.25500000920E-02 0. -1.
    10030    2    1    2    0    0  0.00000000000E+00  0.00000000000E+00  0.62909993140E+03  0.36796719856E+04  0.36254957176E+04 0.  0.
        1    1    3    3  502    0 -0.10427736440E+04 -0.24465254266E+03 -0.11697755015E+04  0.15860663489E+04  0.50400001928E-02 0. -1.
       -1    1    3    3    0  502  0.10427736440E+04  0.24465254266E+03  0.17988754329E+04  0.20936056367E+04  0.50400001928E-02 0.  1.
</event>
<event>
 5   0  0.2411746E-07  0.3688058E+04  0.7818609E-02  0.8070613E-01
       -1   -1    0    0    0  501  0.00000000000E+00  0.00000000000E+00  0.18270584299E+04  0.18270584299E+04  0.50400001928E-02 0. -1.
        1   -1    0    0  501    0  0.00000000000E+00  0.00000000000E+00 -0.18611575521E+04  0.18611575521E+04  0.50400001928E-02 0.  1.
    10030    2    1    2    0    0  0.00000000000E+00  0.00000000000E+00 -0.34099122155E+02  0.36882159820E+04  0.36880583482E+04 0.  0.
        1    1    3    3  502    0  0.77209048080E+03  0.65350330265E+03  0.15248507397E+04  0.18298524683E+04  0.50400001928E-02 0. -1.
       -1    1    3    3    0  502 -0.77209048080E+03 -0.65350330265E+03 -0.15589498619E+04  0.18583635137E+04  0.50400001928E-02 0.  1.
</event>
<event>
 5   0  0.6949625E-07  0.3640910E+04  0.7818609E-02  0.8081185E-01
        2   -1    0    0  501    0  0.00000000000E+00  0.00000000000E+00  0.35615227764E+04  0.35615227764E+04  0.25500000920E-02 0. -1.
       -2   -1    0    0    0  501  0.00000000000E+00  0.00000000000E+00 -0.93051672247E+03  0.93051672247E+03  0.25500000920E-02 0.  1.
    10030    2    1    2    0    0  0.00000000000E+00  0.00000000000E+00  0.26310060540E+04  0.44920394989E+04  0.36409100516E+04 0.  0.
        5    1    3    3  502    0  0.32343194215E+03 -0.69883778055E+03  0.33506793099E+04  0.34380308889E+04  0.46999998093E+01 0. -1.
       -5    1    3    3    0  502 -0.32343194215E+03  0.69883778055E+03 -0.71967325596E+03  0.10540086101E+04  0.46999998093E+01 0.  1.
</event>
<event>
 5   0  0.2287500E-07  0.3748320E+04  0.7818609E-02  0.8057337E-01
        1   -1    0    0  501    0  0.00000000000E+00  0.00000000000E+00  0.26141352357E+04  0.26141352357E+04  0.50400001928E-02 0. -1.
       -1   -1    0    0    0  501  0.00000000000E+00  0.00000000000E+00 -0.13436470383E+04  0.13436470383E+04  0.50400001928E-02 0.  1.
    10030    2    1    2    0    0  0.00000000000E+00  0.00000000000E+00  0.12704881974E+04  0.39577822740E+04  0.37483196594E+04 0.  0.
        2    1    3    3  502    0  0.17391628813E+04 -0.47476519521E+03  0.11761045605E+04  0.21525128235E+04  0.25500000920E-02 0. -1.
       -2    1    3    3    0  502 -0.17391628813E+04  0.47476519521E+03  0.94383636857E+02  0.18052694505E+04  0.25500000920E-02 0.  1.
</event>
<event>
 5   0  0.7074157E-07  0.3733132E+04  0.7818609E-02  0.8060659E-01
       -2   -1    0    0    0  501  0.00000000000E+00  0.00000000000E+00  0.16883167894E+04  0.16883167894E+04  0.25500000920E-02 0. -1.
        2   -1    0    0  501    0  0.00000000000E+00  0.00000000000E+00 -0.20636338827E+04  0.20636338827E+04  0.25500000920E-02 0.  1.
    10030    2    1    2    0    0  0.00000000000E+00  0.00000000000E+00 -0.37531709332E+03  0.37519506721E+04  0.37331315172E+04 0.  0.
        3    1    3    3  502    0 -0.11194174167E+04  0.16867776329E+03 -0.16792290207E+04  0.20251808943E+04  0.10100000352E+00 0.  1.
       -3    1    3    3    0  502  0.11194174167E+04 -0.16867776329E+03  0.13039119274E+04  0.17267697777E+04  0.10100000352E+00 0. -1.
</event>
<event>
 5   0  0.7124627E-07  0.3650416E+04  0.7818609E-02  0.8079040E-01
        2   -1    0    0  501    0  0.00000000000E+00  0.00000000000E+00  0.25794171446E+04  0.25794171446E+04  0.25500000920E-02 0.  1.
       -2   -1    0    0    0  501  0.00000000000E+00  0.00000000000E+00 -0.12915256590E+04  0.12915256590E+04  0.25500000920E-02 0. -1.
    10030    2    1    2    0    0  0.00000000000E+00  0.00000000000E+00  0.12878914856E+04  0.38709428036E+04  0.36504155531E+04 0.  0.
        2    1    3    3  502    0 -0.14384029363E+04  0.34056589249E+03  0.17793268031E+04  0.23132211322E+04  0.25500000920E-02 0.  1.
       -2    1    3    3    0  502  0.14384029363E+04 -0.34056589249E+03 -0.49143531745E+03  0.15577216714E+04  0.25500000920E-02 0. -1.
</event>
<event>
 5   0  0.2287500E-07  0.3695126E+04  0.7818609E-02  0.8069043E-01
       -1   -1    0    0    0  501  0.00000000000E+00  0.00000000000E+00  0.15672123383E+04  0.15672123383E+04  0.50400001928E-02 0.  1.
        1   -1    0    0  501    0  0.00000000000E+00  0.00000000000E+00 -0.21780639454E+04  0.21780639454E+04  0.50400001928E-02 0. -1.
    10030    2    1    2    0    0  0.00000000000E+00  0.00000000000E+00 -0.61085160708E+03  0.37452762837E+04  0.36951258105E+04 0.  0.
        2    1    3    3  502    0 -0.49510933805E+02  0.19717168536E+03 -0.21666931619E+04  0.21762093796E+04  0.25500000920E-02 0. -1.
       -2    1    3    3    0  502  0.49510933805E+02 -0.19717168536E+03  0.15558415548E+04  0.15690669041E+04  0.25500000920E-02 0.  1.
</event>
<event>
 5   0  0.6949625E-07  0.3688878E+04  0.7818609E-02  0.8070431E-01
        2   -1    0    0  501    0  0.00000000000E+00  0.00000000000E+00  0.23733456102E+04  0.23733456102E+04  0.25500000920E-02 0. -1.
       -2   -1    0    0    0  501  0.00000000000E+00  0.00000000000E+00 -0.14334010590E+04  0.14334010590E+04  0.25500000920E-02 0.  1.
    10030    2    1    2    0    0  0.00000000000E+00  0.00000000000E+00  0.93994455121E+03  0.38067466692E+04  0.36888784805E+04 0.  0.
        5    1    3    3  502    0 -0.24252038322E+03  0.86489299233E+03 -0.11924250640E+04  0.14929017542E+04  0.46999998093E+01 0.  1.
       -5    1    3    3    0  502  0.24252038322E+03 -0.86489299233E+03  0.21323696152E+04  0.23138449149E+04  0.46999998093E+01 0. -1.
</event>
<event>
 5   0  0.6949625E-07  0.3691878E+04  0.7818609E-02  0.8069764E-01
       -2   -1    0    0    0  501  0.00000000000E+00  0.00000000000E+00  0.14537397711E+04  0.14537397711E+04  0.25500000920E-02 0.  1.
        2   -1    0    0  501    0  0.00000000000E+00  0.00000000000E+00 -0.23439487009E+04  0.23439487009E+04  0.25500000920E-02 0. -1.
    10030    2    1    2    0    0  0.00000000000E+00  0.00000000000E+00 -0.89020892981E+03  0.37976884720E+04  0.36918783555E+04 0.  0.
        5    1    3    3  502    0  0.18320970590E+04  0.18456921641E+03 -0.31167994132E+03  0.18675684472E+04  0.46999998093E+01 0. -1.
       -5    1    3    3    0  502 -0.18320970590E+04 -0.18456921641E+03 -0.57852898849E+03  0.19301200247E+04  0.46999998093E+01 0.  1.
</event>
<event>
 5   0  0.7074157E-07  0.3783128E+04  0.7818609E-02  0.8049785E-01
        2   -1    0    0  501    0  0.00000000000E+00  0.00000000000E+00  0.17422675176E+04  0.17422675176E+04  0.25500000920E-02 0. -1.
       -2   -1    0    0    0  501  0.00000000000E+00  0.00000000000E+00 -0.20536536679E+04  0.20536536679E+04  0.25500000920E-02 0.  1.
    10030    2    1    2    0    0  0.00000000000E+00  0.00000000000E+00 -0.31138615030E+03  0.37959211855E+04  0.37831278476E+04 0.  0.
        3    1    3    3  502    0 -0.43811240350E+03 -0.55090764847E+03  0.16059698231E+04  0.17534482593E+04  0.10100000352E+00 0. -1.
       -3    1    3    3    0  502  0.43811240350E+03  0.55090764847E+03 -0.19173559734E+04  0.20424729262E+04  0.10100000352E+00 0.  1.
</event>
<event>
 5   0  0.7300916E-07  0.3732922E+04  0.7818609E-02  0.8060705E-01
        2   -1    0    0  501    0  0.00000000000E+00  0.00000000000E+00  0.19888718236E+04  0.19888718236E+04  0.25500000920E-02 0.  1.
       -2   -1    0    0    0  501  0.00000000000E+00  0.00000000000E+00 -0.17515838776E+04  0.17515838776E+04  0.25500000920E-02 0. -1.
    10030    2    1    2    0    0  0.00000000000E+00  0.00000000000E+00  0.23728794604E+03  0.37404557011E+04  0.37329215479E+04 0.  0.
        1    1    3    3  502    0  0.87623395741E+03  0.15622956848E+04 -0.40693546324E+03  0.18368860134E+04  0.50400001928E-02 0.  1.
       -1    1    3    3    0  502 -0.87623395741E+03 -0.15622956848E+04  0.64422340927E+03  0.19035696877E+04  0.50400001928E-02 0. -1.
</event>
<event>
 5   0  0.2345471E-07  0.3747413E+04  0.7818609E-02  0.8057535E-01
       -1   -1    0    0    0  501  0.00000000000E+00  0.00000000000E+00  0.23293724168E+04  0.23293724168E+04  0.50400001928E-02 0. -1.
        1   -1    0    0  501    0  0.00000000000E+00  0.00000000000E+00 -0.15071765217E+04  0.15071765217E+04  0.50400001928E-02 0.  1.
    10030    2    1    2    0    0  0.00000000000E+00  0.00000000000E+00  0.82219589512E+03  0.38365489386E+04  0.37474126632E+04 0.  0.
        5    1    3    3  502    0  0.11411185312E+04 -0.12294910941E+04 -0.44359695947E+03  0.17351081249E+04  0.46999998093E+01 0.  1.
       -5    1    3    3    0  502 -0.11411185312E+04  0.12294910941E+04  0.12657928546E+04  0.21014408137E+04  0.46999998093E+01 0. -1.
</event>
<event>
 5   0  0.2411746E-07  0.3657051E+04  0.7818609E-02  0.8077547E-01
        1   -1    0    0  501    0  0.00000000000E+00  0.00000000000E+00  0.23488618983E+04  0.23488618983E+04  0.50400001928E-02 0.  1.
       -1   -1    0    0    0  501  0.00000000000E+00  0.00000000000E+00 -0.14234577565E+04  0.14234577566E+04  0.50400001928E-02 0. -1.
    10030    2    1    2    0    0  0.00000000000E+00  0.00000000000E+00  0.92540414177E+03  0.37723196549E+04  0.36570511007E+04 0.  0.
        1    1    3    3  502    0 -0.11053689894E+04 -0.67754198814E+03  0.17927631925E+04  0.22124429061E+04  0.50400001928E-02 0.  1.
       -1    1    3    3    0  502  0.11053689894E+04  0.67754198814E+03 -0.86735905076E+03  0.15598767488E+04  0.50400001928E-02 0. -1.
</event>
<event>
 5   0  0.7124627E-07  0.3720904E+04  0.7818609E-02  0.8063345E-01
        2   -1    0    0  501    0  0.00000000000E+00  0.00000000000E+00  0.19186393670E+04  0.19186393670E+04  0.25500000920E-02 0.  1.
       -2   -1    0    0    0  501  0.00000000000E+00  0.00000000000E+00 -0.18040289839E+04  0.18040289839E+04  0.25500000920E-02 0. -1.
    10030    2    1    2    0    0  0.00000000000E+00  0.00000000000E+00  0.11461038308E+03  0.37226683509E+04  0.37209036686E+04 0.  0.
        2    1    3    3  502    0  0.80743832278E+03  0.49698553540E+03 -0.15441818570E+04  0.18120289387E+04  0.25500000920E-02 0. -1.
       -2    1    3    3    0  502 -0.80743832278E+03 -0.49698553540E+03  0.16587922400E+04  0.19106394121E+04  0.25500000920E-02 0.  1.
</event>
<event>
 5   0  0.2287500E-07  0.3726602E+04  0.7818609E-02  0.8062092E-01
        1   -1    0    0  501    0  0.00000000000E+00  0.00000000000E+00  0.20502648082E+04  0.20502648082E+04  0.50400001928E-02 0. -1.
       -1   -1    0    0    0  501  0.00000000000E+00  0.00000000000E+00 -0.16933860594E+04  0.16933860594E+04  0.50400001928E-02 0.  1.
    10030    2    1    2    0    0  0.00000000000E+00  0.00000000000E+00  0.35687874879E+03  0.37436508675E+04  0.37266015855E+04 0.  0.
        2    1    3    3  502    0  0.14361127471E+04  0.10961111792E+04  0.63660742375E+03  0.19155021670E+04  0.25500000920E-02 0. -1.
       -2    1    3    3    0  502 -0.14361127471E+04 -0.10961111792E+04 -0.27972867497E+03  0.18281487006E+04  0.25500000920E-02 0.  1.
</event>
<event>
 5   0  0.7300916E-07  0.3752322E+04  0.7818609E-02  0.8056465E-01
        2   -1    0    0  501    0  0.00000000000E+00  0.00000000000E+00  0.15749158550E+04  0.15749158551E+04  0.25500000920E-02 0.  1.
       -2   -1    0    0    0  501  0.00000000000E+00  0.00000000000E+00 -0.22350276201E+04  0.22350276201E+04  0.25500000920E-02 0. -1.
    10030    2    1    2    0    0  0.00000000000E+00  0.00000000000E+00 -0.66011176505E+03  0.38099434752E+04  0.37523221799E+04 0.  0.
        1    1    3    3  502    0 -0.67335018174E+03  0.40349536851E+03 -0.20602691101E+04  0.22047489167E+04  0.50400001928E-02 0. -1.
       -1    1    3    3    0  502  0.67335018174E+03 -0.40349536851E+03  0.14001573450E+04  0.16051945585E+04  0.50400001928E-02 0.  1.
</event>
<event>
 5   0  0.6949625E-07  0.3659427E+04  0.7818609E-02  0.8077013E-01
        2   -1    0    0  501    0  0.00000000000E+00  0.00000000000E+00  0.25016477989E+04  0.25016477989E+04  0.25500000920E-02 0. -1.
       -2   -1    0    0    0  501  0.00000000000E+00  0.00000000000E+00 -0.13382585225E+04  0.13382585225E+04  0.25500000920E-02 0.  1.
    10030    2    1    2    0    0  0.00000000000E+00  0.00000000000E+00  0.11633892764E+04  0.38399063214E+04  0.36594269974E+04 0.  0.
        5    1    3    3  502    0  0.36547570009E+03 -0.97319987413E+03  0.21616565133E+04  0.23986395006E+04  0.46999998093E+01 0. -1.
       -5    1    3    3    0  502 -0.36547570009E+03  0.97319987413E+03 -0.99826723695E+03  0.14412668208E+04  0.46999998093E+01 0.  1.
</event>
<event>
 5   0  0.2345471E-07  0.2864442E+04  0.7818609E-02  0.8283536E-01
        1   -1    0    0  501    0  0.00000000000E+00  0.00000000000E+00  0.30606819627E+04  0.30606819627E+04  0.50400001928E-02 0.  1.
       -1   -1    0    0    0  501  0.00000000000E+00  0.00000000000E+00 -0.67019621686E+03  0.67019621688E+03  0.50400001928E-02 0. -1.
    10030    2    1    2    0    0  0.00000000000E+00  0.00000000000E+00  0.23904857459E+04  0.37308781796E+04  0.28644423349E+04 0.  0.
        5    1    3    3  502    0  0.88056593910E+03  0.56697547682E+03  0.24676648260E+04  0.26807180657E+04  0.46999998093E+01 0.  1.
       -5    1    3    3    0  502 -0.88056593910E+03 -0.56697547682E+03 -0.77179080121E+02  0.10501601139E+04  0.46999998093E+01 0. -1.
</event>
<event>
 5   0  0.2345471E-07  0.3657955E+04  0.7818609E-02  0.8077344E-01
       -1   -1    0    0    0  501  0.00000000000E+00  0.00000000000E+00  0.16803883885E+04  0.16803883885E+04  0.50400001928E-02 0. -1.
        1   -1    0    0  501    0  0.00000000000E+00  0.00000000000E+00 -0.19907062154E+04  0.19907062154E+04  0.50400001928E-02 0.  1.
    10030    2    1    2    0    0  0.00000000000E+00  0.00000000000E+00 -0.31031782683E+03  0.36710946039E+04  0.36579554996E+04 0.  0.
        5    1    3    3  502    0  0.11912280933E+04 -0.10393666353E+04 -0.10781526173E+04  0.19135680100E+04  0.46999998093E+01 0.  1.
       -5    1    3    3    0  502 -0.11912280933E+04  0.10393666353E+04  0.76783479043E+03  0.17575265939E+04  0.46999998093E+01 0. -1.
</event>
<event>
 5   0  0.7300916E-07  0.3898829E+04  0.7818609E-02  0.8025273E-01
       -2   -1    0    0    0  501  0.00000000000E+00  0.00000000000E+00  0.31482738800E+04  0.31482738800E+04  0.25500000920E-02 0. -1.
        2   -1    0    0  501    0  0.00000000000E+00  0.00000000000E+00 -0.12070795382E+04  0.12070795382E+04  0.25500000920E-02 0.  1.
    10030    2    1    2    0    0  0.00000000000E+00  0.00000000000E+00  0.19411943418E+04  0.43553534182E+04  0.38988290453E+04 0.  0.
        1    1    3    3  502    0 -0.24645393739E+03 -0.15952668776E+04  0.21915549634E+04  0.27218613322E+04  0.50400001928E-02 0. -1.
       -1    1    3    3    0  502  0.24645393739E+03  0.15952668776E+04 -0.25036062159E+03  0.16334920860E+04  0.50400001928E-02 0.  1.
</event>
<event>
 5   0  0.6939921E-07  0.3704678E+04  0.7818609E-02  0.8066926E-01
        2   -1    0    0  501    0  0.00000000000E+00  0.00000000000E+00  0.31920032290E+04  0.31920032290E+04  0.25500000920E-02 0.  1.
       -2   -1    0    0    0  501  0.00000000000E+00  0.00000000000E+00 -0.10749238164E+04  0.10749238164E+04  0.25500000920E-02 0. -1.
    10030    2    1    2    0    0  0.00000000000E+00  0.00000000000E+00  0.21170794126E+04  0.42669270453E+04  0.37046782817E+04 0.  0.
        4    1    3    3  502    0 -0.11821041869E+04 -0.13169479559E+04  0.42828361370E+03  0.18207555283E+04  0.12699999809E+01 0. -1.
       -4    1    3    3    0  502  0.11821041869E+04  0.13169479559E+04  0.16887957989E+04  0.24461715170E+04  0.12699999809E+01 0.  1.
</event>
<event>
 5   0  0.2287500E-07  0.2800308E+04  0.7818609E-02  0.8303173E-01
       -4   -1    0    0    0  501  0.00000000000E+00  0.00000000000E+00  0.27412578849E+04  0.27412581790E+04  0.12699999809E+01 0.  1.
        4   -1    0    0  501    0  0.00000000000E+00  0.00000000000E+00 -0.71515662505E+03  0.71515775270E+03  0.12699999809E+01 0. -1.
    10030    2    1    2    0    0  0.00000000000E+00  0.00000000000E+00  0.20261012598E+04  0.34564159317E+04  0.28003079792E+04 0.  0.
        2    1    3    3  502    0 -0.66854217122E+03  0.12287910896E+04  0.93945685057E+03  0.16850683519E+04  0.25500000920E-02 0. -1.
       -2    1    3    3    0  502  0.66854217122E+03 -0.12287910896E+04  0.10866444092E+04  0.17713475798E+04  0.25500000920E-02 0.  1.
</event>
<event>
 5   0  0.2287500E-07  0.3774006E+04  0.7818609E-02  0.8051756E-01
       -1   -1    0    0    0  501  0.00000000000E+00  0.00000000000E+00  0.17233528600E+04  0.17233528600E+04  0.50400001928E-02 0. -1.
        1   -1    0    0  501    0  0.00000000000E+00  0.00000000000E+00 -0.20661933640E+04  0.20661933640E+04  0.50400001928E-02 0.  1.
    10030    2    1    2    0    0  0.00000000000E+00  0.00000000000E+00 -0.34284050400E+03  0.37895462240E+04  0.37740059582E+04 0.  0.
        4    1    3    3  502    0  0.10559454294E+03 -0.13411416186E+02 -0.20631760360E+04  0.20659203861E+04  0.12699999809E+01 0.  1.
       -4    1    3    3    0  502 -0.10559454294E+03  0.13411416186E+02  0.17203355320E+04  0.17236258379E+04  0.12699999809E+01 0. -1.
</event>
<event>
 5   0  0.7074157E-07  0.3666390E+04  0.7818609E-02  0.8075451E-01
        2   -1    0    0  501    0  0.00000000000E+00  0.00000000000E+00  0.10965657228E+04  0.10965657228E+04  0.25500000920E-02 0.  1.
       -2   -1    0    0    0  501  0.00000000000E+00  0.00000000000E+00 -0.30646628062E+04  0.30646628062E+04  0.25500000920E-02 0. -1.
    10030    2    1    2    0    0  0.00000000000E+00  0.00000000000E+00 -0.19680970834E+04  0.41612285290E+04  0.36663901513E+04 0.  0.
        3    1    3    3  502    0  0.17318397809E+04  0.60062588817E+03 -0.10114689731E+04  0.20935830478E+04  0.10100000352E+00 0.  1.
       -3    1    3    3    0  502 -0.17318397809E+04 -0.60062588817E+03 -0.95662811028E+03  0.20676454812E+04  0.10100000352E+00 0. -1.
</event>
<event>
 5   0  0.2411746E-07  0.3697331E+04  0.7818609E-02  0.8068554E-01
        1   -1    0    0  501    0  0.00000000000E+00  0.00000000000E+00  0.24925636272E+04  0.24925636272E+04  0.50400001928E-02 0.  1.
       -1   -1    0    0    0  501  0.00000000000E+00  0.00000000000E+00 -0.13711039767E+04  0.13711039767E+04  0.50400001928E-02 0. -1.
    10030    2    1    2    0    0  0.00000000000E+00  0.00000000000E+00  0.11214596505E+04  0.38636676040E+04  0.36973308759E+04 0.  0.
        1    1    3    3  502    0  0.98827706593E+03  0.36267492650E+03 -0.10272877568E+04  0.14708993156E+04  0.50400001928E-02 0. -1.
       -1    1    3    3    0  502 -0.98827706593E+03 -0.36267492650E+03  0.21487474073E+04  0.23927682884E+04  0.50400001928E-02 0.  1.
</event>
<event>
 5   0  0.7074157E-07  0.3702097E+04  0.7818609E-02  0.8067497E-01
        2   -1    0    0  501    0  0.00000000000E+00  0.00000000000E+00  0.15300200380E+04  0.15300200380E+04  0.25500000920E-02 0. -1.
       -2   -1    0    0    0  501  0.00000000000E+00  0.00000000000E+00 -0.22394354725E+04  0.22394354725E+04  0.25500000920E-02 0.  1.
    10030    2    1    2    0    0  0.00000000000E+00  0.00000000000E+00 -0.70941543449E+03  0.37694555106E+04  0.37020973228E+04 0.  0.
        3    1    3    3  502    0  0.28815423189E+03 -0.14485848055E+04  0.78136676160E+03  0.16709173607E+04  0.10100000352E+00 0. -1.
       -3    1    3    3    0  502 -0.28815423189E+03  0.14485848055E+04 -0.14907821961E+04  0.20985381499E+04  0.10100000352E+00 0.  1.
</event>
<event>
 5   0  0.2287500E-07  0.3680212E+04  0.7818609E-02  0.8072361E-01
        1   -1    0    0  501    0  0.00000000000E+00  0.00000000000E+00  0.21244956358E+04  0.21244956358E+04  0.50400001928E-02 0.  1.
       -1   -1    0    0    0  501  0.00000000000E+00  0.00000000000E+00 -0.15937850486E+04  0.15937850486E+04  0.50400001928E-02 0. -1.
    10030    2    1    2    0    0  0.00000000000E+00  0.00000000000E+00  0.53071058720E+03  0.37182806844E+04  0.36802116135E+04 0.  0.
        2    1    3    3  502    0 -0.14900086368E+04  0.10476623770E+04  0.52933794131E+03  0.18968186128E+04  0.25500000920E-02 0.  1.
       -2    1    3    3    0  502  0.14900086368E+04 -0.10476623770E+04  0.13726458937E+01  0.18214620715E+04  0.25500000920E-02 0. -1.
</event>
<event>
 5   0  0.7300916E-07  0.3664059E+04  0.7818609E-02  0.8075974E-01
        2   -1    0    0  501    0  0.00000000000E+00  0.00000000000E+00  0.22563066143E+04  0.22563066143E+04  0.25500000920E-02 0.  1.
       -2   -1    0    0    0  501  0.00000000000E+00  0.00000000000E+00 -0.14875339282E+04  0.14875339282E+04  0.25500000920E-02 0. -1.
    10030    2    1    2    0    0  0.00000000000E+00  0.00000000000E+00  0.76877268603E+03  0.37438405425E+04  0.36640593015E+04 0.  0.
        1    1    3    3  502    0  0.73873029242E+03 -0.43002347027E+03  0.20400670001E+04  0.22119032517E+04  0.50400001928E-02 0.  1.
       -1    1    3    3    0  502 -0.73873029242E+03  0.43002347027E+03 -0.12712943141E+04  0.15319372908E+04  0.50400001928E-02 0. -1.
</event>
<event>
 5   0  0.7124627E-07  0.3726227E+04  0.7818609E-02  0.8062174E-01
       -2   -1    0    0    0  501  0.00000000000E+00  0.00000000000E+00  0.10904385048E+04  0.10904385048E+04  0.25500000920E-02 0.  1.
        2   -1    0    0  501    0  0.00000000000E+00  0.00000000000E+00 -0.31832983636E+04  0.31832983636E+04  0.25500000920E-02 0. -1.
    10030    2    1    2    0    0  0.00000000000E+00  0.00000000000E+00 -0.20928598588E+04  0.42737368684E+04  0.37262265674E+04 0.  0.
        2    1    3    3  502    0 -0.11315549473E+04 -0.60032597148E+03  0.50527641685E+03  0.13769938737E+04  0.25500000920E-02 0.  1.
       -2    1    3    3    0  502  0.11315549473E+04  0.60032597148E+03 -0.25981362756E+04  0.28967429947E+04  0.25500000920E-02 0. -1.
</event>
<event>
 5   0  0.2287500E-07  0.3704720E+04  0.7818609E-02  0.8066917E-01
       -3   -1    0    0    0  501  0.00000000000E+00  0.00000000000E+00  0.14822538663E+04  0.14822538697E+04  0.10100000352E+00 0.  1.
        3   -1    0    0  501    0  0.00000000000E+00  0.00000000000E+00 -0.23148786573E+04  0.23148786595E+04  0.10100000352E+00 0. -1.
    10030    2    1    2    0    0  0.00000000000E+00  0.00000000000E+00 -0.83262479095E+03  0.37971325292E+04  0.37047201516E+04 0.  0.
        5    1    3    3  502    0  0.18388368610E+04  0.21905558984E+03 -0.37152563131E+03  0.18887455460E+04  0.46999998093E+01 0. -1.
       -5    1    3    3    0  502 -0.18388368610E+04 -0.21905558984E+03 -0.46109915964E+03  0.19083869832E+04  0.46999998093E+01 0.  1.
</event>
<event>
 5   0  0.2287500E-07  0.3651322E+04  0.7818609E-02  0.8078836E-01
        1   -1    0    0  501    0  0.00000000000E+00  0.00000000000E+00  0.19510351437E+04  0.19510351437E+04  0.50400001928E-02 0.  1.
       -1   -1    0    0    0  501  0.00000000000E+00  0.00000000000E+00 -0.17083433595E+04  0.17083433595E+04  0.50400001928E-02 0. -1.
    10030    2    1    2    0    0  0.00000000000E+00  0.00000000000E+00  0.24269178416E+03  0.36593785032E+04  0.36513219151E+04 0.  0.
        4    1    3    3  502    0  0.16009750517E+04  0.51291028871E+03 -0.59215068693E+03  0.17823698072E+04  0.12699999809E+01 0. -1.
       -4    1    3    3    0  502 -0.16009750517E+04 -0.51291028871E+03  0.83484247110E+03  0.18770086960E+04  0.12699999809E+01 0.  1.
</event>
<event>
 5   0  0.6939921E-07  0.3758018E+04  0.7818609E-02  0.8055225E-01
       -2   -1    0    0    0  501  0.00000000000E+00  0.00000000000E+00  0.28118947724E+04  0.28118947724E+04  0.25500000920E-02 0.  1.
        2   -1    0    0  501    0  0.00000000000E+00  0.00000000000E+00 -0.12556209755E+04  0.12556209755E+04  0.25500000920E-02 0. -1.
    10030    2    1    2    0    0  0.00000000000E+00  0.00000000000E+00  0.15562737969E+04  0.40675157479E+04  0.37580175929E+04 0.  0.
        4    1    3    3  502    0 -0.67328938874E+03 -0.17537370840E+04  0.73272840828E+03  0.20163841137E+04  0.12699999809E+01 0.  1.
       -4    1    3    3    0  502  0.67328938874E+03  0.17537370840E+04  0.82354538857E+03  0.20511316342E+04  0.12699999809E+01 0. -1.
</event>
<event>
 5   0  0.6949625E-07  0.3565558E+04  0.7818609E-02  0.8098427E-01
       -2   -1    0    0    0  501  0.00000000000E+00  0.00000000000E+00  0.10165063804E+04  0.10165063804E+04  0.25500000920E-02 0.  1.
        2   -1    0    0  501    0  0.00000000000E+00  0.00000000000E+00 -0.31266902717E+04  0.31266902717E+04  0.25500000920E-02 0. -1.
    10030    2    1    2    0    0  0.00000000000E+00  0.00000000000E+00 -0.21101838913E+04  0.41431966520E+04  0.35655578024E+04 0.  0.
        5    1    3    3  502    0  0.12505474492E+04  0.12661713200E+04 -0.93200829747E+03  0.20089102247E+04  0.46999998093E+01 0. -1.
       -5    1    3    3    0  502 -0.12505474492E+04 -0.12661713200E+04 -0.11781755938E+04  0.21342864274E+04  0.46999998093E+01 0.  1.
</event>
<event>
 5   0  0.2411746E-07  0.3785324E+04  0.7818609E-02  0.8049312E-01
       -1   -1    0    0    0  501  0.00000000000E+00  0.00000000000E+00  0.15200683731E+04  0.15200683731E+04  0.50400001928E-02 0. -1.
        1   -1    0    0  501    0  0.00000000000E+00  0.00000000000E+00 -0.23565847221E+04  0.23565847221E+04  0.50400001928E-02 0.  1.
    10030    2    1    2    0    0  0.00000000000E+00  0.00000000000E+00 -0.83651634901E+03  0.38766530952E+04  0.37853242422E+04 0.  0.
        1    1    3    3  502    0  0.84693060572E+03 -0.11188677174E+04  0.88242898407E+03  0.16576601980E+04  0.50400001928E-02 0. -1.
       -1    1    3    3    0  502 -0.84693060572E+03  0.11188677174E+04 -0.17189453331E+04  0.22189928973E+04  0.50400001928E-02 0.  1.
</event>
<event>
 5   0  0.6939921E-07  0.3673926E+04  0.7818609E-02  0.8073765E-01
        2   -1    0    0  501    0  0.00000000000E+00  0.00000000000E+00  0.16425367615E+04  0.16425367615E+04  0.25500000920E-02 0.  1.
       -2   -1    0    0    0  501  0.00000000000E+00  0.00000000000E+00 -0.20544038219E+04  0.20544038219E+04  0.25500000920E-02 0. -1.
    10030    2    1    2    0    0  0.00000000000E+00  0.00000000000E+00 -0.41186706038E+03  0.36969405834E+04  0.36739264013E+04 0.  0.
        4    1    3    3  502    0  0.12267147944E+04  0.11301496866E+04  0.56854003552E+03  0.17621880960E+04  0.12699999809E+01 0.  1.
       -4    1    3    3    0  502 -0.12267147944E+04 -0.11301496866E+04 -0.98040709590E+03  0.19347524874E+04  0.12699999809E+01 0. -1.
</event>
<event>
 5   0  0.2287500E-07  0.3666216E+04  0.7818609E-02  0.8075490E-01
        1   -1    0    0  501    0  0.00000000000E+00  0.00000000000E+00  0.23599027728E+04  0.23599027728E+04  0.50400001928E-02 0.  1.
       -1   -1    0    0    0  501  0.00000000000E+00  0.00000000000E+00 -0.14239085863E+04  0.14239085863E+04  0.50400001928E-02 0. -1.
    10030    2    1    2    0    0  0.00000000000E+00  0.00000000000E+00  0.93599418652E+03  0.37838113592E+04  0.36662164809E+04 0.  0.
        3    1    3    3  502    0 -0.81695623424E+02 -0.68305227339E+03  0.22216297171E+04  0.23256984312E+04  0.10100000352E+00 0.  1.
       -3    1    3    3    0  502  0.81695623424E+02  0.68305227339E+03 -0.12856355305E+04  0.14581129279E+04  0.10100000352E+00 0. -1.
</event>
<event>
 5   0  0.2287500E-07  0.3689705E+04  0.7818609E-02  0.8070247E-01
       -1   -1    0    0    0  501  0.00000000000E+00  0.00000000000E+00  0.17127214116E+04  0.17127214116E+04  0.50400001928E-02 0.  1.
        1   -1    0    0  501    0  0.00000000000E+00  0.00000000000E+00 -0.19871770637E+04  0.19871770637E+04  0.50400001928E-02 0. -1.
    10030    2    1    2    0    0  0.00000000000E+00  0.00000000000E+00 -0.27445565215E+03  0.36998984753E+04  0.36897049778E+04 0.  0.
        2    1    3    3  502    0 -0.83482112559E+03 -0.58275426504E+03  0.14055126632E+04  0.17355099227E+04  0.25500000920E-02 0.  1.
       -2    1    3    3    0  502  0.83482112559E+03  0.58275426504E+03 -0.16799683154E+04  0.19643885527E+04  0.25500000920E-02 0. -1.
</event>
<event>
 5   0  0.2287500E-07  0.3774316E+04  0.7818609E-02  0.8051689E-01
        1   -1    0    0  501    0  0.00000000000E+00  0.00000000000E+00  0.20176511868E+04  0.20176511868E+04  0.50400001928E-02 0.  1.
       -1   -1    0    0    0  501  0.00000000000E+00  0.00000000000E+00 -0.17651046706E+04  0.17651046706E+04  0.50400001928E-02 0. -1.
    10030    2    1    2    0    0  0.00000000000E+00  0.00000000000E+00  0.25254651617E+03  0.37827558574E+04  0.37743161148E+04 0.  0.
        2    1    3    3  502    0 -0.10669099477E+04 -0.95700006984E+03 -0.11041606826E+04  0.18092309922E+04  0.25500000920E-02 0. -1.
       -2    1    3    3    0  502  0.10669099477E+04  0.95700006984E+03  0.13567071988E+04  0.19735248652E+04  0.25500000920E-02 0.  1.
</event>
<event>
 5   0  0.2411746E-07  0.3703294E+04  0.7818609E-02  0.8067232E-01
        1   -1    0    0  501    0  0.00000000000E+00  0.00000000000E+00  0.17862603917E+04  0.17862603917E+04  0.50400001928E-02 0. -1.
       -1   -1    0    0    0  501  0.00000000000E+00  0.00000000000E+00 -0.19194267400E+04  0.19194267400E+04  0.50400001928E-02 0.  1.
    10030    2    1    2    0    0  0.00000000000E+00  0.00000000000E+00 -0.13316634834E+03  0.37056871317E+04  0.37032936478E+04 0.  0.
        1    1    3    3  502    0  0.11094754607E+04  0.58729167391E+03  0.12954536588E+04  0.18038978603E+04  0.50400001928E-02 0. -1.
       -1    1    3    3    0  502 -0.11094754607E+04 -0.58729167391E+03 -0.14286200072E+04  0.19017892715E+04  0.50400001928E-02 0.  1.
</event>
<event>
 5   0  0.2345471E-07  0.3647101E+04  0.7818609E-02  0.8079787E-01
        1   -1    0    0  501    0  0.00000000000E+00  0.00000000000E+00  0.25548819547E+04  0.25548819547E+04  0.50400001928E-02 0. -1.
       -1   -1    0    0    0  501  0.00000000000E+00  0.00000000000E+00 -0.13015616196E+04  0.13015616196E+04  0.50400001928E-02 0.  1.
    10030    2    1    2    0    0  0.00000000000E+00  0.00000000000E+00  0.12533203351E+04  0.38564435743E+04  0.36471009280E+04 0.  0.
        5    1    3    3  502    0  0.13817508247E+04  0.11441485769E+04  0.97254934026E+03  0.20406336312E+04  0.46999998093E+01 0. -1.
       -5    1    3    3    0  502 -0.13817508247E+04 -0.11441485769E+04  0.28077099486E+03  0.18158099430E+04  0.46999998093E+01 0.  1.
</event>
<event>
 5   0  0.2287500E-07  0.3767841E+04  0.7818609E-02  0.8053092E-01
        1   -1    0    0  501    0  0.00000000000E+00  0.00000000000E+00  0.29643593753E+04  0.29643593754E+04  0.50400001928E-02 0. -1.
       -1   -1    0    0    0  501  0.00000000000E+00  0.00000000000E+00 -0.11972759360E+04  0.11972759360E+04  0.50400001928E-02 0.  1.
    10030    2    1    2    0    0  0.00000000000E+00  0.00000000000E+00  0.17670834394E+04  0.41616353113E+04  0.37678408383E+04 0.  0.
        2    1    3    3  502    0  0.13502079839E+04  0.76874091699E+03 -0.29323656164E+03  0.15811425863E+04  0.25500000920E-02 0.  1.
       -2    1    3    3    0  502 -0.13502079839E+04 -0.76874091699E+03  0.20603200010E+04  0.25804927250E+04  0.25500000920E-02 0. -1.
</event>
<event>
 5   0  0.6939921E-07  0.3164035E+04  0.7818609E-02  0.8198381E-01
       -2   -1    0    0    0  501  0.00000000000E+00  0.00000000000E+00  0.15787554559E+04  0.15787554559E+04  0.25500000920E-02 0. -1.
        2   -1    0    0  501    0  0.00000000000E+00  0.00000000000E+00 -0.15852859008E+04  0.15852859008E+04  0.25500000920E-02 0.  1.
    10030    2    1    2    0    0  0.00000000000E+00  0.00000000000E+00 -0.65304448248E+01  0.31640413567E+04  0.31640346174E+04 0.  0.
        4    1    3    3  502    0 -0.45384316684E+03 -0.31675961137E+03 -0.14853165837E+04  0.15850795684E+04  0.12699999809E+01 0.  1.
       -4    1    3    3    0  502  0.45384316684E+03  0.31675961137E+03  0.14787861389E+04  0.15789617883E+04  0.12699999809E+01 0. -1.
</event>
<event>
 5   0  0.6939921E-07  0.3672811E+04  0.7818609E-02  0.8074014E-01
       -2   -1    0    0    0  501  0.00000000000E+00  0.00000000000E+00  0.30001148946E+04  0.30001148946E+04  0.25500000920E-02 0.  1.
        2   -1    0    0  501    0  0.00000000000E+00  0.00000000000E+00 -0.11240853414E+04  0.11240853414E+04  0.25500000920E-02 0. -1.
    10030    2    1    2    0    0  0.00000000000E+00  0.00000000000E+00  0.18760295532E+04  0.41242002360E+04  0.36728110082E+04 0.  0.
        4    1    3    3  502    0 -0.87064915755E+03  0.35347022783E+03 -0.83368277913E+03  0.12561845989E+04  0.12699999809E+01 0. -1.
       -4    1    3    3    0  502  0.87064915755E+03 -0.35347022783E+03  0.27097123323E+04  0.28680156371E+04  0.12699999809E+01 0.  1.
</event>
<event>
 5   0  0.6939921E-07  0.3381440E+04  0.7818609E-02  0.8142477E-01
       -2   -1    0    0    0  501  0.00000000000E+00  0.00000000000E+00  0.22371626078E+04  0.22371626078E+04  0.25500000920E-02 0.  1.
        2   -1    0    0  501    0  0.00000000000E+00  0.00000000000E+00 -0.12777500127E+04  0.12777500127E+04  0.25500000920E-02 0. -1.
    10030    2    1    2    0    0  0.00000000000E+00  0.00000000000E+00  0.95941259510E+03  0.35149126205E+04  0.33814402555E+04 0.  0.
        4    1    3    3  502    0 -0.10922415538E+04  0.96622417388E+03  0.13690183257E+04  0.20001983789E+04  0.12699999809E+01 0.  1.
       -4    1    3    3    0  502  0.10922415538E+04 -0.96622417388E+03 -0.40960573063E+03  0.15147142415E+04  0.12699999809E+01 0. -1.
</event>
<event>
 5   0  0.2287500E-07  0.3556972E+04  0.7818609E-02  0.8100419E-01
       -1   -1    0    0    0  501  0.00000000000E+00  0.00000000000E+00  0.17161524068E+04  0.17161524068E+04  0.50400001928E-02 0. -1.
        1   -1    0    0  501    0  0.00000000000E+00  0.00000000000E+00 -0.18430835995E+04  0.18430835995E+04  0.50400001928E-02 0.  1.
    10030    2    1    2    0    0  0.00000000000E+00  0.00000000000E+00 -0.12693119276E+03  0.35592360063E+04  0.35569719455E+04 0.  0.
        4    1    3    3  502    0 -0.10819368531E+04 -0.73015260610E+03  0.11453184540E+04  0.17365097628E+04  0.12699999809E+01 0. -1.
       -4    1    3    3    0  502  0.10819368531E+04  0.73015260610E+03 -0.12722496468E+04  0.18227262435E+04  0.12699999809E+01 0.  1.
</event>
<event>
 5   0  0.2287500E-07  0.3143328E+04  0.7818609E-02  0.8203946E-01
        1   -1    0    0  501    0  0.00000000000E+00  0.00000000000E+00  0.27384767047E+04  0.27384767047E+04  0.50400001928E-02 0.  1.
       -1   -1    0    0    0  501  0.00000000000E+00  0.00000000000E+00 -0.90200814491E+03  0.90200814492E+03  0.50400001928E-02 0. -1.
    10030    2    1    2    0    0  0.00000000000E+00  0.00000000000E+00  0.18364685598E+04  0.36404848496E+04  0.31433283585E+04 0.  0.
        4    1    3    3  502    0 -0.66819107205E+03 -0.73879624249E+03 -0.48969664011E+03  0.11100016256E+04  0.12699999809E+01 0. -1.
       -4    1    3    3    0  502  0.66819107205E+03  0.73879624249E+03  0.23261651999E+04  0.25304832240E+04  0.12699999809E+01 0.  1.
</event>
<event>
 5   0  0.6949625E-07  0.3225056E+04  0.7818609E-02  0.8182231E-01
       -2   -1    0    0    0  501  0.00000000000E+00  0.00000000000E+00  0.20203154919E+04  0.20203154919E+04  0.25500000920E-02 0. -1.
        2   -1    0    0  501    0  0.00000000000E+00  0.00000000000E+00 -0.12870499914E+04  0.12870499914E+04  0.25500000920E-02 0.  1.
    10030    2    1    2    0    0  0.00000000000E+00  0.00000000000E+00  0.73326550048E+03  0.33073654833E+04  0.32250563012E+04 0.  0.
        5    1    3    3  502    0 -0.12344081339E+04 -0.93990172492E+03  0.81721655417E+03  0.17535802462E+04  0.46999998093E+01 0. -1.
       -5    1    3    3    0  502  0.12344081339E+04  0.93990172492E+03 -0.83951053693E+02  0.15537852371E+04  0.46999998093E+01 0.  1.
</event>
<event>
 5   0  0.2345471E-07  0.3664095E+04  0.7818609E-02  0.8075966E-01
       -1   -1    0    0    0  501  0.00000000000E+00  0.00000000000E+00  0.16946319644E+04  0.16946319644E+04  0.50400001928E-02 0. -1.
        1   -1    0    0  501    0  0.00000000000E+00  0.00000000000E+00 -0.19806063422E+04  0.19806063422E+04  0.50400001928E-02 0.  1.
    10030    2    1    2    0    0  0.00000000000E+00  0.00000000000E+00 -0.28597437780E+03  0.36752383066E+04  0.36640954226E+04 0.  0.
        5    1    3    3  502    0  0.84687982258E+03 -0.34370753311E+03  0.14496185978E+04  0.17136967268E+04  0.46999998093E+01 0. -1.
       -5    1    3    3    0  502 -0.84687982258E+03  0.34370753311E+03 -0.17355929756E+04  0.19615415798E+04  0.46999998093E+01 0.  1.
</event>
<event>
 5   0  0.2287500E-07  0.3442267E+04  0.7818609E-02  0.8127610E-01
        3   -1    0    0  501    0  0.00000000000E+00  0.00000000000E+00  0.20383284177E+04  0.20383284202E+04  0.10100000352E+00 0. -1.
       -3   -1    0    0    0  501  0.00000000000E+00  0.00000000000E+00 -0.14532986965E+04  0.14532987000E+04  0.10100000352E+00 0.  1.
    10030    2    1    2    0    0  0.00000000000E+00  0.00000000000E+00  0.58502972118E+03  0.34916271202E+04  0.34422667200E+04 0.  0.
        2    1    3    3  502    0 -0.74566808283E+03 -0.14160198277E+04  0.93497463485E+03  0.18534590932E+04  0.25500000920E-02 0.  1.
       -2    1    3    3    0  502  0.74566808283E+03  0.14160198277E+04 -0.34994491367E+03  0.16381680270E+04  0.25500000920E-02 0. -1.
</event>
<event>
 5   0  0.7124627E-07  0.3717857E+04  0.7818609E-02  0.8064016E-01
        2   -1    0    0  501    0  0.00000000000E+00  0.00000000000E+00  0.26856383764E+04  0.26856383764E+04  0.25500000920E-02 0. -1.
       -2   -1    0    0    0  501  0.00000000000E+00  0.00000000000E+00 -0.12867014608E+04  0.12867014608E+04  0.25500000920E-02 0.  1.
    10030    2    1    2    0    0  0.00000000000E+00  0.00000000000E+00  0.13989369156E+04  0.39723398372E+04  0.37178568138E+04 0.  0.
        2    1    3    3  502    0 -0.63587466391E+02 -0.34944208909E+03  0.26490470463E+04  0.26727520261E+04  0.25500000920E-02 0. -1.
       -2    1    3    3    0  502  0.63587466391E+02  0.34944208909E+03 -0.12501101308E+04  0.12995878110E+04  0.25500000920E-02 0.  1.
</event>
<event>
 5   0  0.2287500E-07  0.3726243E+04  0.7818609E-02  0.8062171E-01
        1   -1    0    0  501    0  0.00000000000E+00  0.00000000000E+00  0.28282780826E+04  0.28282780826E+04  0.50400001928E-02 0.  1.
       -1   -1    0    0    0  501  0.00000000000E+00  0.00000000000E+00 -0.12273271941E+04  0.12273271941E+04  0.50400001928E-02 0. -1.
    10030    2    1    2    0    0  0.00000000000E+00  0.00000000000E+00  0.16009508885E+04  0.40556052767E+04  0.37262434721E+04 0.  0.
        3    1    3    3  502    0 -0.22585941348E+03  0.73079809884E+03  0.26495033621E+04  0.27577067306E+04  0.10100000352E+00 0.  1.
       -3    1    3    3    0  502  0.22585941348E+03 -0.73079809884E+03 -0.10485524736E+04  0.12978985461E+04  0.10100000352E+00 0. -1.
</event>
<event>
 5   0  0.7074157E-07  0.3796181E+04  0.7818609E-02  0.8046975E-01
       -2   -1    0    0    0  501  0.00000000000E+00  0.00000000000E+00  0.16764837355E+04  0.16764837355E+04  0.25500000920E-02 0. -1.
        2   -1    0    0  501    0  0.00000000000E+00  0.00000000000E+00 -0.21489903356E+04  0.21489903356E+04  0.25500000920E-02 0.  1.
    10030    2    1    2    0    0  0.00000000000E+00  0.00000000000E+00 -0.47250660007E+03  0.38254740712E+04  0.37961808943E+04 0.  0.
        3    1    3    3  502    0 -0.10951046606E+04 -0.13708671569E+04  0.49336152052E+03  0.18226180564E+04  0.10100000352E+00 0. -1.
       -3    1    3    3    0  502  0.10951046606E+04  0.13708671569E+04 -0.96586812058E+03  0.20028560148E+04  0.10100000352E+00 0.  1.
</event>
<event>
 5   0  0.6939921E-07  0.3729041E+04  0.7818609E-02  0.8061556E-01
        2   -1    0    0  501    0  0.00000000000E+00  0.00000000000E+00  0.18275933396E+04  0.18275933396E+04  0.25500000920E-02 0.  1.
       -2   -1    0    0    0  501  0.00000000000E+00  0.00000000000E+00 -0.19021936053E+04  0.19021936053E+04  0.25500000920E-02 0. -1.
    10030    2    1    2    0    0  0.00000000000E+00  0.00000000000E+00 -0.74600265707E+02  0.37297869449E+04  0.37290408223E+04 0.  0.
        4    1    3    3  502    0 -0.45543509059E+03 -0.43673800210E+03  0.17175518547E+04  0.18297943028E+04  0.12699999809E+01 0.  1.
       -4    1    3    3    0  502  0.45543509059E+03  0.43673800210E+03 -0.17921521204E+04  0.18999926420E+04  0.12699999809E+01 0. -1.
</event>
<event>
 5   0  0.6939921E-07  0.2734008E+04  0.7818609E-02  0.8324054E-01
        2   -1    0    0  501    0  0.00000000000E+00  0.00000000000E+00  0.85742468537E+03  0.85742468538E+03  0.25500000920E-02 0.  1.
       -2   -1    0    0    0  501  0.00000000000E+00  0.00000000000E+00 -0.21794338825E+04  0.21794338825E+04  0.25500000920E-02 0. -1.
    10030    2    1    2    0    0  0.00000000000E+00  0.00000000000E+00 -0.13220091971E+04  0.30368585678E+04  0.27340083474E+04 0.  0.
        4    1    3    3  502    0 -0.71261569944E+03  0.24994679736E+03  0.60469224306E+03  0.96744449883E+03  0.12699999809E+01 0.  1.
       -4    1    3    3    0  502  0.71261569944E+03 -0.24994679736E+03 -0.19267014402E+04  0.20694140690E+04  0.12699999809E+01 0. -1.
</event>
<event>
 5   0  0.2287500E-07  0.3034714E+04  0.7818609E-02  0.8233887E-01
        1   -1    0    0  501    0  0.00000000000E+00  0.00000000000E+00  0.11424262330E+04  0.11424262330E+04  0.50400001928E-02 0. -1.
       -1   -1    0    0    0  501  0.00000000000E+00  0.00000000000E+00 -0.20153357668E+04  0.20153357668E+04  0.50400001928E-02 0.  1.
    10030    2    1    2    0    0  0.00000000000E+00  0.00000000000E+00 -0.87290953375E+03  0.31577619998E+04  0.30347141205E+04 0.  0.
        2    1    3    3  502    0 -0.14577080789E+04 -0.33869630751E+03 -0.69709961826E+03  0.16509318307E+04  0.25500000920E-02 0.  1.
       -2    1    3    3    0  502  0.14577080789E+04  0.33869630751E+03 -0.17580991549E+03  0.15068301690E+04  0.25500000920E-02 0. -1.
</event>
<event>
 5   0  0.7300916E-07  0.3607014E+04  0.7818609E-02  0.8088887E-01
       -2   -1    0    0    0  501  0.00000000000E+00  0.00000000000E+00  0.13171360282E+04  0.13171360282E+04  0.25500000920E-02 0.  1.
        2   -1    0    0  501    0  0.00000000000E+00  0.00000000000E+00 -0.24694769526E+04  0.24694769526E+04  0.25500000920E-02 0. -1.
    10030    2    1    2    0    0  0.00000000000E+00  0.00000000000E+00 -0.11523409245E+04  0.37866129808E+04  0.36070137594E+04 0.  0.
        1    1    3    3  502    0  0.14482726236E+03  0.11122483755E+04 -0.20587817129E+04  0.23444943007E+04  0.50400001928E-02 0. -1.
       -1    1    3    3    0  502 -0.14482726236E+03 -0.11122483755E+04  0.90644078841E+03  0.14421186801E+04  0.50400001928E-02 0.  1.
</event>
<event>
 5   0  0.2411746E-07  0.3343291E+04  0.7818609E-02  0.8151967E-01
       -1   -1    0    0    0  501  0.00000000000E+00  0.00000000000E+00  0.11736722801E+04  0.11736722801E+04  0.50400001928E-02 0.  1.
        1   -1    0    0  501    0  0.00000000000E+00  0.00000000000E+00 -0.23809018716E+04  0.23809018716E+04  0.50400001928E-02 0. -1.
    10030    2    1    2    0    0  0.00000000000E+00  0.00000000000E+00 -0.12072295915E+04  0.35545741517E+04  0.33432909107E+04 0.  0.
        1    1    3    3  502    0 -0.14946077744E+04  0.26421796282E+03  0.14118050269E+03  0.15243344336E+04  0.50400001928E-02 0.  1.
       -1    1    3    3    0  502  0.14946077744E+04 -0.26421796282E+03 -0.13484100942E+04  0.20302397181E+04  0.50400001928E-02 0. -1.
</event>
<event>
 5   0  0.2345471E-07  0.3663292E+04  0.7818609E-02  0.8076146E-01
       -1   -1    0    0    0  501  0.00000000000E+00  0.00000000000E+00  0.16705009499E+04  0.16705009500E+04  0.50400001928E-02 0.  1.
        1   -1    0    0  501    0  0.00000000000E+00  0.00000000000E+00 -0.20083354546E+04  0.20083354546E+04  0.50400001928E-02 0. -1.
    10030    2    1    2    0    0  0.00000000000E+00  0.00000000000E+00 -0.33783450469E+03  0.36788364046E+04  0.36632915717E+04 0.  0.
        5    1    3    3  502    0  0.76341407990E+03 -0.48340413078E+03 -0.17689211320E+04  0.19863495846E+04  0.46999998093E+01 0. -1.
       -5    1    3    3    0  502 -0.76341407990E+03  0.48340413078E+03  0.14310866273E+04  0.16924868200E+04  0.46999998093E+01 0.  1.
</event>
<event>
 5   0  0.7300916E-07  0.3640909E+04  0.7818609E-02  0.8081185E-01
       -2   -1    0    0    0  501  0.00000000000E+00  0.00000000000E+00  0.17210659876E+04  0.17210659876E+04  0.25500000920E-02 0.  1.
        2   -1    0    0  501    0  0.00000000000E+00  0.00000000000E+00 -0.19255821496E+04  0.19255821496E+04  0.25500000920E-02 0. -1.
    10030    2    1    2    0    0  0.00000000000E+00  0.00000000000E+00 -0.20451616193E+03  0.36466481372E+04  0.36409086470E+04 0.  0.
        1    1    3    3  502    0 -0.16194676759E+04  0.78784122147E+03  0.16402678370E+03  0.18083899273E+04  0.50400001928E-02 0. -1.
       -1    1    3    3    0  502  0.16194676759E+04 -0.78784122147E+03 -0.36854294563E+03  0.18382582099E+04  0.50400001928E-02 0.  1.
</event>
<event>
 5   0  0.2345471E-07  0.3576177E+04  0.7818609E-02  0.8095970E-01
       -1   -1    0    0    0  501  0.00000000000E+00  0.00000000000E+00  0.14535418578E+04  0.14535418578E+04  0.50400001928E-02 0.  1.
        1   -1    0    0  501    0  0.00000000000E+00  0.00000000000E+00 -0.21996345275E+04  0.21996345275E+04  0.50400001928E-02 0. -1.
    10030    2    1    2    0    0  0.00000000000E+00  0.00000000000E+00 -0.74609266967E+03  0.36531763853E+04  0.35761772090E+04 0.  0.
        5    1    3    3  502    0  0.99996500923E+03 -0.70440216324E+03  0.95930847835E+03  0.15544797438E+04  0.46999998093E+01 0.  1.
       -5    1    3    3    0  502 -0.99996500923E+03  0.70440216324E+03 -0.17054011480E+04  0.20986966415E+04  0.46999998093E+01 0. -1.
</event>
<event>
 5   0  0.2287500E-07  0.3722514E+04  0.7818609E-02  0.8062991E-01
        1   -1    0    0  501    0  0.00000000000E+00  0.00000000000E+00  0.20480197019E+04  0.20480197019E+04  0.50400001928E-02 0. -1.
       -1   -1    0    0    0  501  0.00000000000E+00  0.00000000000E+00 -0.16915255129E+04  0.16915255129E+04  0.50400001928E-02 0.  1.
    10030    2    1    2    0    0  0.00000000000E+00  0.00000000000E+00  0.35649418899E+03  0.37395452149E+04  0.37225139768E+04 0.  0.
        3    1    3    3  502    0  0.13930949918E+04 -0.10797049142E+03  0.14134687233E+04  0.19875273898E+04  0.10100000352E+00 0. -1.
       -3    1    3    3    0  502 -0.13930949918E+04  0.10797049142E+03 -0.10569745343E+04  0.17520178251E+04  0.10100000352E+00 0.  1.
</event>
<event>
 5   0  0.2287500E-07  0.4150079E+04  0.7818609E-02  0.7974937E-01
       -1   -1    0    0    0  501  0.00000000000E+00  0.00000000000E+00  0.15439300261E+04  0.15439300261E+04  0.50400001928E-02 0.  1.
        1   -1    0    0  501    0  0.00000000000E+00  0.00000000000E+00 -0.27888493319E+04  0.27888493319E+04  0.50400001928E-02 0. -1.
    10030    2    1    2    0    0  0.00000000000E+00  0.00000000000E+00 -0.12449193058E+04  0.43327793580E+04  0.41500786604E+04 0.  0.
        4    1    3    3  502    0 -0.15970759510E+04 -0.10943223452E+04  0.15713552346E+03  0.19423918694E+04  0.12699999809E+01 0. -1.
       -4    1    3    3    0  502  0.15970759510E+04  0.10943223452E+04 -0.14020548292E+04  0.23903874886E+04  0.12699999809E+01 0.  1.
</event>
<event>
 5   0  0.6949625E-07  0.3673884E+04  0.7818609E-02  0.8073774E-01
        2   -1    0    0  501    0  0.00000000000E+00  0.00000000000E+00  0.15648504145E+04  0.15648504145E+04  0.25500000920E-02 0.  1.
       -2   -1    0    0    0  501  0.00000000000E+00  0.00000000000E+00 -0.21563445782E+04  0.21563445782E+04  0.25500000920E-02 0. -1.
    10030    2    1    2    0    0  0.00000000000E+00  0.00000000000E+00 -0.59149416367E+03  0.37211949927E+04  0.36738844331E+04 0.  0.
        5    1    3    3  502    0  0.18182413984E+04 -0.26034691982E+03 -0.27194304734E+03  0.18568137797E+04  0.46999998093E+01 0. -1.
       -5    1    3    3    0  502 -0.18182413984E+04  0.26034691982E+03 -0.31955111632E+03  0.18643812130E+04  0.46999998093E+01 0.  1.
</event>
<event>
 5   0  0.7300916E-07  0.3732047E+04  0.7818609E-02  0.8060897E-01
        2   -1    0    0  501    0  0.00000000000E+00  0.00000000000E+00  0.12639352631E+04  0.12639352631E+04  0.25500000920E-02 0.  1.
       -2   -1    0    0    0  501  0.00000000000E+00  0.00000000000E+00 -0.27549222236E+04  0.27549222236E+04  0.25500000920E-02 0. -1.
    10030    2    1    2    0    0  0.00000000000E+00  0.00000000000E+00 -0.14909869605E+04  0.40188574867E+04  0.37320468087E+04 0.  0.
        1    1    3    3  502    0 -0.14161980837E+04 -0.60601589076E+03 -0.18796024652E+04  0.24301805898E+04  0.50400001928E-02 0. -1.
       -1    1    3    3    0  502  0.14161980837E+04  0.60601589076E+03  0.38861550467E+03  0.15886768969E+04  0.50400001928E-02 0.  1.
</event>
<event>
 5   0  0.2287500E-07  0.3733698E+04  0.7818609E-02  0.8060535E-01
       -1   -1    0    0    0  501  0.00000000000E+00  0.00000000000E+00  0.18346375073E+04  0.18346375073E+04  0.50400001928E-02 0.  1.
        1   -1    0    0  501    0  0.00000000000E+00  0.00000000000E+00 -0.18996256040E+04  0.18996256040E+04  0.50400001928E-02 0. -1.
    10030    2    1    2    0    0  0.00000000000E+00  0.00000000000E+00 -0.64988096701E+02  0.37342631113E+04  0.37336975683E+04 0.  0.
        2    1    3    3  502    0  0.15389441992E+04  0.10398231426E+04  0.15606293232E+03  0.18638500624E+04  0.25500000920E-02 0. -1.
       -2    1    3    3    0  502 -0.15389441992E+04 -0.10398231426E+04 -0.22105102902E+03  0.18704130489E+04  0.25500000920E-02 0.  1.
</event>
<event>
 5   0  0.2345471E-07  0.3622092E+04  0.7818609E-02  0.8085450E-01
        1   -1    0    0  501    0  0.00000000000E+00  0.00000000000E+00  0.16140091546E+04  0.16140091546E+04  0.50400001928E-02 0. -1.
       -1   -1    0    0    0  501  0.00000000000E+00  0.00000000000E+00 -0.20321371338E+04  0.20321371338E+04  0.50400001928E-02 0.  1.
    10030    2    1    2    0    0  0.00000000000E+00  0.00000000000E+00 -0.41812797922E+03  0.36461462885E+04  0.36220921785E+04 0.  0.
        5    1    3    3  502    0  0.99943379938E+03  0.96296143820E+03  0.96215017998E+03  0.16887621827E+04  0.46999998093E+01 0.  1.
       -5    1    3    3    0  502 -0.99943379938E+03 -0.96296143820E+03 -0.13802781592E+04  0.19573841058E+04  0.46999998093E+01 0. -1.
</event>
<event>
 5   0  0.7074157E-07  0.3612811E+04  0.7818609E-02  0.8087564E-01
        2   -1    0    0  501    0  0.00000000000E+00  0.00000000000E+00  0.26380302103E+04  0.26380302103E+04  0.25500000920E-02 0.  1.
       -2   -1    0    0    0  501  0.00000000000E+00  0.00000000000E+00 -0.12369458472E+04  0.12369458472E+04  0.25500000920E-02 0. -1.
    10030    2    1    2    0    0  0.00000000000E+00  0.00000000000E+00  0.14010843631E+04  0.38749760575E+04  0.36128108245E+04 0.  0.
        3    1    3    3  502    0 -0.15310434765E+04  0.15036958973E+03  0.17160273916E+04  0.23046594455E+04  0.10100000352E+00 0.  1.
       -3    1    3    3    0  502  0.15310434765E+04 -0.15036958973E+03 -0.31494302850E+03  0.15703166120E+04  0.10100000352E+00 0. -1.
</event>
<event>
 5   0  0.7300916E-07  0.3774906E+04  0.7818609E-02  0.8051562E-01
       -2   -1    0    0    0  501  0.00000000000E+00  0.00000000000E+00  0.15211084977E+04  0.15211084977E+04  0.25500000920E-02 0.  1.
        2   -1    0    0  501    0  0.00000000000E+00  0.00000000000E+00 -0.23420280898E+04  0.23420280898E+04  0.25500000920E-02 0. -1.
    10030    2    1    2    0    0  0.00000000000E+00  0.00000000000E+00 -0.82091959214E+03  0.38631365875E+04  0.37749060011E+04 0.  0.
        1    1    3    3  502    0 -0.16897997101E+04 -0.83654627198E+03 -0.32334614800E+03  0.19130565744E+04  0.50400001928E-02 0. -1.
       -1    1    3    3    0  502  0.16897997101E+04  0.83654627198E+03 -0.49757344414E+03  0.19500800131E+04  0.50400001928E-02 0.  1.
</event>
<event>
 5   0  0.2287500E-07  0.3694708E+04  0.7818609E-02  0.8069136E-01
        3   -1    0    0  501    0  0.00000000000E+00  0.00000000000E+00  0.23364336691E+04  0.23364336713E+04  0.10100000352E+00 0. -1.
       -3   -1    0    0    0  501  0.00000000000E+00  0.00000000000E+00 -0.14606521173E+04  0.14606521207E+04  0.10100000352E+00 0.  1.
    10030    2    1    2    0    0  0.00000000000E+00  0.00000000000E+00  0.87578155190E+03  0.37970857921E+04  0.36947079974E+04 0.  0.
        1    1    3    3  502    0  0.78878012025E+03  0.16661806497E+04  0.31463093265E+03  0.18701135419E+04  0.50400001928E-02 0.  1.
       -1    1    3    3    0  502 -0.78878012025E+03 -0.16661806497E+04  0.56115061925E+03  0.19269722502E+04  0.50400001928E-02 0. -1.
</event>
<event>
 5   0  0.2287500E-07  0.3704903E+04  0.7818609E-02  0.8066876E-01
        1   -1    0    0  501    0  0.00000000000E+00  0.00000000000E+00  0.15852250406E+04  0.15852250406E+04  0.50400001928E-02 0. -1.
       -1   -1    0    0    0  501  0.00000000000E+00  0.00000000000E+00 -0.21647246616E+04  0.21647246616E+04  0.50400001928E-02 0.  1.
    10030    2    1    2    0    0  0.00000000000E+00  0.00000000000E+00 -0.57949962101E+03  0.37499497023E+04  0.37049025573E+04 0.  0.
        2    1    3    3  502    0  0.64310158433E+03  0.13612207008E+04  0.80276029526E+03  0.17061434687E+04  0.25500000920E-02 0. -1.
       -2    1    3    3    0  502 -0.64310158433E+03 -0.13612207008E+04 -0.13822599163E+04  0.20438062336E+04  0.25500000920E-02 0.  1.
</event>
<event>
 5   0  0.2345471E-07  0.2936482E+04  0.7818609E-02  0.8262105E-01
        1   -1    0    0  501    0  0.00000000000E+00  0.00000000000E+00  0.18330970708E+04  0.18330970708E+04  0.50400001928E-02 0. -1.
       -1   -1    0    0    0  501  0.00000000000E+00  0.00000000000E+00 -0.11760052941E+04  0.11760052941E+04  0.50400001928E-02 0.  1.
    10030    2    1    2    0    0  0.00000000000E+00  0.00000000000E+00  0.65709177669E+03  0.30091023650E+04  0.29364821538E+04 0.  0.
        5    1    3    3  502    0  0.13802401407E+03  0.72059149762E+03  0.16317704609E+04  0.17891337742E+04  0.46999998093E+01 0. -1.
       -5    1    3    3    0  502 -0.13802401407E+03 -0.72059149762E+03 -0.97467868423E+03  0.12199685907E+04  0.46999998093E+01 0.  1.
</event>
<event>
 5   0  0.2287500E-07  0.3693654E+04  0.7818609E-02  0.8069370E-01
       -1   -1    0    0    0  501  0.00000000000E+00  0.00000000000E+00  0.16289765161E+04  0.16289765161E+04  0.50400001928E-02 0.  1.
        1   -1    0    0  501    0  0.00000000000E+00  0.00000000000E+00 -0.20938116006E+04  0.20938116006E+04  0.50400001928E-02 0. -1.
    10030    2    1    2    0    0  0.00000000000E+00  0.00000000000E+00 -0.46483508456E+03  0.37227881167E+04  0.36936539776E+04 0.  0.
        2    1    3    3  502    0 -0.89640539809E+03 -0.15031491883E+04  0.36195405449E+03  0.17871795818E+04  0.25500000920E-02 0.  1.
       -2    1    3    3    0  502  0.89640539809E+03  0.15031491883E+04 -0.82678913905E+03  0.19356085349E+04  0.25500000920E-02 0. -1.
</event>
<event>
 5   0  0.2345471E-07  0.3704401E+04  0.7818609E-02  0.8066987E-01
       -1   -1    0    0    0  501  0.00000000000E+00  0.00000000000E+00  0.25171661945E+04  0.25171661945E+04  0.50400001928E-02 0. -1.
        1   -1    0    0  501    0  0.00000000000E+00  0.00000000000E+00 -0.13629006486E+04  0.13629006487E+04  0.50400001928E-02 0.  1.
    10030    2    1    2    0    0  0.00000000000E+00  0.00000000000E+00  0.11542655458E+04  0.38800668431E+04  0.37044014033E+04 0.  0.
        5    1    3    3  502    0  0.10650188943E+04  0.10061418469E+04 -0.60975654708E+03  0.15869504711E+04  0.46999998093E+01 0.  1.
       -5    1    3    3    0  502 -0.10650188943E+04 -0.10061418469E+04  0.17640220929E+04  0.22931163720E+04  0.46999998093E+01 0. -1.
</event>
<event>
 5   0  0.2287500E-07  0.3694841E+04  0.7818609E-02  0.8069106E-01
       -1   -1    0    0    0  501  0.00000000000E+00  0.00000000000E+00  0.17751001117E+04  0.17751001117E+04  0.50400001928E-02 0. -1.
        1   -1    0    0  501    0  0.00000000000E+00  0.00000000000E+00 -0.19226870099E+04  0.19226870100E+04  0.50400001928E-02 0.  1.
    10030    2    1    2    0    0  0.00000000000E+00  0.00000000000E+00 -0.14758689830E+03  0.36977871216E+04  0.36948406873E+04 0.  0.
        2    1    3    3  502    0 -0.88851117781E+03  0.10829618154E+04 -0.12792054766E+04  0.18970042325E+04  0.25500000920E-02 0.  1.
       -2    1    3    3    0  502  0.88851117781E+03 -0.10829618154E+04  0.11316185783E+04  0.18007828891E+04  0.25500000920E-02 0. -1.
</event>
<event>
 5   0  0.7074157E-07  0.3539205E+04  0.7818609E-02  0.8104561E-01
       -2   -1    0    0    0  501  0.00000000000E+00  0.00000000000E+00  0.14932535339E+04  0.14932535339E+04  0.25500000920E-02 0.  1.
        2   -1    0    0  501    0  0.00000000000E+00  0.00000000000E+00 -0.20970935287E+04  0.20970935287E+04  0.25500000920E-02 0. -1.
    10030    2    1    2    0    0  0.00000000000E+00  0.00000000000E+00 -0.60383999484E+03  0.35903470626E+04  0.35392046127E+04 0.  0.
        3    1    3    3  502    0 -0.12708973541E+04  0.12019840015E+04 -0.30572683015E+02  0.17495371741E+04  0.10100000352E+00 0. -1.
       -3    1    3    3    0  502  0.12708973541E+04 -0.12019840015E+04 -0.57326731183E+03  0.18408098885E+04  0.10100000352E+00 0.  1.
</event>
<event>
 5   0  0.7124627E-07  0.3821132E+04  0.7818609E-02  0.8041635E-01
        2   -1    0    0  501    0  0.00000000000E+00  0.00000000000E+00  0.28930365563E+04  0.28930365563E+04  0.25500000920E-02 0.  1.
       -2   -1    0    0    0  501  0.00000000000E+00  0.00000000000E+00 -0.12617409421E+04  0.12617409421E+04  0.25500000920E-02 0. -1.
    10030    2    1    2    0    0  0.00000000000E+00  0.00000000000E+00  0.16312956142E+04  0.41547774984E+04  0.38211321202E+04 0.  0.
        2    1    3    3  502    0  0.10110531495E+04  0.55327491589E+03  0.24724835027E+04  0.27279142718E+04  0.25500000920E-02 0.  1.
       -2    1    3    3    0  502 -0.10110531495E+04 -0.55327491589E+03 -0.84118788843E+03  0.14268632265E+04  0.25500000920E-02 0. -1.
</event>
<event>
 5   0  0.7300916E-07  0.3710252E+04  0.7818609E-02  0.8065694E-01
        2   -1    0    0  501    0  0.00000000000E+00  0.00000000000E+00  0.22862160988E+04  0.22862160988E+04  0.25500000920E-02 0. -1.
       -2   -1    0    0    0  501  0.00000000000E+00  0.00000000000E+00 -0.15053223925E+04  0.15053223925E+04  0.25500000920E-02 0.  1.
    10030    2    1    2    0    0  0.00000000000E+00  0.00000000000E+00  0.78089370631E+03  0.37915384914E+04  0.37102518986E+04 0.  0.
        1    1    3    3  502    0 -0.97122816837E+03  0.12546728307E+04 -0.59186424510E+03  0.16934554472E+04  0.50400001928E-02 0.  1.
       -1    1    3    3    0  502  0.97122816837E+03 -0.12546728307E+04  0.13727579514E+04  0.20980830442E+04  0.50400001928E-02 0. -1.
</event>
<event>
 5   0  0.2287500E-07  0.3771014E+04  0.7818609E-02  0.8052404E-01
        1   -1    0    0  501    0  0.00000000000E+00  0.00000000000E+00  0.12911330578E+04  0.12911330579E+04  0.50400001928E-02 0. -1.
       -1   -1    0    0    0  501  0.00000000000E+00  0.00000000000E+00 -0.27535016423E+04  0.27535016423E+04  0.50400001928E-02 0.  1.
    10030    2    1    2    0    0  0.00000000000E+00  0.00000000000E+00 -0.14623685845E+04  0.40446347002E+04  0.37710141847E+04 0.  0.
        2    1    3    3  502    0 -0.15110915490E+04 -0.19269611384E+03  0.46056691022E+03  0.15914305956E+04  0.25500000920E-02 0. -1.
       -2    1    3    3    0  502  0.15110915490E+04  0.19269611384E+03 -0.19229354947E+04  0.24532041046E+04  0.25500000920E-02 0.  1.
</event>
<event>
 5   0  0.6939921E-07  0.3688280E+04  0.7818609E-02  0.8070564E-01
        2   -1    0    0  501    0  0.00000000000E+00  0.00000000000E+00  0.26814975663E+04  0.26814975663E+04  0.25500000920E-02 0. -1.
       -2   -1    0    0    0  501  0.00000000000E+00  0.00000000000E+00 -0.12682661267E+04  0.12682661267E+04  0.25500000920E-02 0.  1.
    10030    2    1    2    0    0  0.00000000000E+00  0.00000000000E+00  0.14132314397E+04  0.39497636930E+04  0.36882801044E+04 0.  0.
        4    1    3    3  502    0  0.95356457481E+03 -0.26925707886E+03  0.23722171665E+04  0.25708365702E+04  0.12699999809E+01 0. -1.
       -4    1    3    3    0  502 -0.95356457481E+03  0.26925707886E+03 -0.95898572681E+03  0.13789271228E+04  0.12699999809E+01 0.  1.
</event>
<event>
 5   0  0.2411746E-07  0.3682403E+04  0.7818609E-02  0.8071873E-01
       -1   -1    0    0    0  501  0.00000000000E+00  0.00000000000E+00  0.27987652930E+04  0.27987652930E+04  0.50400001928E-02 0.  1.
        1   -1    0    0  501    0  0.00000000000E+00  0.00000000000E+00 -0.12112564477E+04  0.12112564477E+04  0.50400001928E-02 0. -1.
    10030    2    1    2    0    0  0.00000000000E+00  0.00000000000E+00  0.15875088453E+04  0.40100217406E+04  0.36824027518E+04 0.  0.
        1    1    3    3  502    0 -0.18173405752E+04  0.23290477057E+03  0.59578028766E+03  0.19266358113E+04  0.50400001928E-02 0.  1.
       -1    1    3    3    0  502  0.18173405752E+04 -0.23290477057E+03  0.99172855765E+03  0.20833859293E+04  0.50400001928E-02 0. -1.
</event>
<event>
 5   0  0.2287500E-07  0.3705849E+04  0.7818609E-02  0.8066667E-01
        1   -1    0    0  501    0  0.00000000000E+00  0.00000000000E+00  0.26085639529E+04  0.26085639529E+04  0.50400001928E-02 0. -1.
       -1   -1    0    0    0  501  0.00000000000E+00  0.00000000000E+00 -0.13161762205E+04  0.13161762205E+04  0.50400001928E-02 0.  1.
    10030    2    1    2    0    0  0.00000000000E+00  0.00000000000E+00  0.12923877324E+04  0.39247401734E+04  0.37058493463E+04 0.  0.
        4    1    3    3  502    0  0.83222664749E+03 -0.11471709461E+04 -0.61792759424E+03  0.15461042970E+04  0.12699999809E+01 0.  1.
       -4    1    3    3    0  502 -0.83222664749E+03  0.11471709461E+04  0.19103153266E+04  0.23786358764E+04  0.12699999809E+01 0. -1.
</event>
<event>
 5   0  0.7074157E-07  0.3528884E+04  0.7818609E-02  0.8106979E-01
       -2   -1    0    0    0  501  0.00000000000E+00  0.00000000000E+00  0.15755367967E+04  0.15755367967E+04  0.25500000920E-02 0.  1.
        2   -1    0    0  501    0  0.00000000000E+00  0.00000000000E+00 -0.19759969536E+04  0.19759969536E+04  0.25500000920E-02 0. -1.
    10030    2    1    2    0    0  0.00000000000E+00  0.00000000000E+00 -0.40046015684E+03  0.35515337503E+04  0.35288841923E+04 0.  0.
        3    1    3    3  502    0 -0.35362308273E+03  0.10367516344E+04  0.11918879333E+04  0.16187958771E+04  0.10100000352E+00 0.  1.
       -3    1    3    3    0  502  0.35362308273E+03 -0.10367516344E+04 -0.15923480901E+04  0.19327378732E+04  0.10100000352E+00 0. -1.
</event>
<event>
 5   0  0.2345471E-07  0.3675093E+04  0.7818609E-02  0.8073504E-01
       -1   -1    0    0    0  501  0.00000000000E+00  0.00000000000E+00  0.33769744840E+04  0.33769744840E+04  0.50400001928E-02 0.  1.
        1   -1    0    0  501    0  0.00000000000E+00  0.00000000000E+00 -0.99988212333E+03  0.99988212335E+03  0.50400001928E-02 0. -1.
    10030    2    1    2    0    0  0.00000000000E+00  0.00000000000E+00  0.23770923607E+04  0.43768566074E+04  0.36750926070E+04 0.  0.
        5    1    3    3  502    0 -0.11063108514E+03  0.17659425376E+04  0.17789530975E+04  0.25090812056E+04  0.46999998093E+01 0.  1.
       -5    1    3    3    0  502  0.11063108514E+03 -0.17659425376E+04  0.59813926314E+03  0.18677754017E+04  0.46999998093E+01 0. -1.
</event>
<event>
 5   0  0.7074157E-07  0.3807346E+04  0.7818609E-02  0.8044580E-01
       -2   -1    0    0    0  501  0.00000000000E+00  0.00000000000E+00  0.15303923125E+04  0.15303923125E+04  0.25500000920E-02 0.  1.
        2   -1    0    0  501    0  0.00000000000E+00  0.00000000000E+00 -0.23680016106E+04  0.23680016106E+04  0.25500000920E-02 0. -1.
    10030    2    1    2    0    0  0.00000000000E+00  0.00000000000E+00 -0.83760929812E+03  0.38983939231E+04  0.38073462994E+04 0.  0.
        3    1    3    3  502    0  0.13158007834E+04  0.36709328962E+03 -0.17763621500E+04  0.22408818985E+04  0.10100000352E+00 0. -1.
       -3    1    3    3    0  502 -0.13158007834E+04 -0.36709328962E+03  0.93875285183E+03  0.16575120247E+04  0.10100000352E+00 0.  1.
</event>
<event>
 5   0  0.2287500E-07  0.3705596E+04  0.7818609E-02  0.8066723E-01
        1   -1    0    0  501    0  0.00000000000E+00  0.00000000000E+00  0.23958334576E+04  0.23958334576E+04  0.50400001928E-02 0. -1.
       -1   -1    0    0    0  501  0.00000000000E+00  0.00000000000E+00 -0.14328460089E+04  0.14328460089E+04  0.50400001928E-02 0.  1.
    10030    2    1    2    0    0  0.00000000000E+00  0.00000000000E+00  0.96298744870E+03  0.38286794666E+04  0.37055959887E+04 0.  0.
        4    1    3    3  502    0 -0.14078716737E+04 -0.10754405630E+04 -0.78909047570E+02  0.17733875224E+04  0.12699999809E+01 0.  1.
       -4    1    3    3    0  502  0.14078716737E+04  0.10754405630E+04  0.10418964963E+04  0.20552919442E+04  0.12699999809E+01 0. -1.
</event>
<event>
 5   0  0.2345471E-07  0.3698930E+04  0.7818609E-02  0.8068199E-01
       -1   -1    0    0    0  501  0.00000000000E+00  0.00000000000E+00  0.18206173323E+04  0.18206173323E+04  0.50400001928E-02 0.  1.
        1   -1    0    0  501    0  0.00000000000E+00  0.00000000000E+00 -0.18787697028E+04  0.18787697028E+04  0.50400001928E-02 0. -1.
    10030    2    1    2    0    0  0.00000000000E+00  0.00000000000E+00 -0.58152370488E+02  0.36993870350E+04  0.36989299448E+04 0.  0.
        5    1    3    3  502    0  0.11089111360E+04  0.13054162773E+02  0.14511892371E+04  0.18264245428E+04  0.46999998093E+01 0.  1.
       -5    1    3    3    0  502 -0.11089111360E+04 -0.13054162773E+02 -0.15093416076E+04  0.18729624922E+04  0.46999998093E+01 0. -1.
</event>
<event>
 5   0  0.7074157E-07  0.3667824E+04  0.7818609E-02  0.8075130E-01
        2   -1    0    0  501    0  0.00000000000E+00  0.00000000000E+00  0.20795110685E+04  0.20795110685E+04  0.25500000920E-02 0.  1.
       -2   -1    0    0    0  501  0.00000000000E+00  0.00000000000E+00 -0.16173191683E+04  0.16173191683E+04  0.25500000920E-02 0. -1.
    10030    2    1    2    0    0  0.00000000000E+00  0.00000000000E+00  0.46219190021E+03  0.36968302368E+04  0.36678239389E+04 0.  0.
        3    1    3    3  502    0  0.10088166747E+04 -0.13053956592E+04 -0.57615252944E+03  0.17474898162E+04  0.10100000352E+00 0. -1.
       -3    1    3    3    0  502 -0.10088166747E+04  0.13053956592E+04  0.10383444297E+04  0.19493404205E+04  0.10100000352E+00 0.  1.
</event>
<event>
 5   0  0.2411746E-07  0.3657372E+04  0.7818609E-02  0.8077475E-01
        1   -1    0    0  501    0  0.00000000000E+00  0.00000000000E+00  0.27234842685E+04  0.27234842685E+04  0.50400001928E-02 0.  1.
       -1   -1    0    0    0  501  0.00000000000E+00  0.00000000000E+00 -0.12278730131E+04  0.12278730131E+04  0.50400001928E-02 0. -1.
    10030    2    1    2    0    0  0.00000000000E+00  0.00000000000E+00  0.14956112554E+04  0.39513572816E+04  0.36573721904E+04 0.  0.
        1    1    3    3  502    0 -0.42185666855E+03  0.11255148483E+02  0.26701571699E+04  0.27032996577E+04  0.50400001928E-02 0.  1.
       -1    1    3    3    0  502  0.42185666855E+03 -0.11255148483E+02 -0.11745459145E+04  0.12480576239E+04  0.50400001928E-02 0. -1.
</event>
<event>
 5   0  0.6949625E-07  0.3620000E+04  0.7818609E-02  0.8085926E-01
       -2   -1    0    0    0  501  0.00000000000E+00  0.00000000000E+00  0.21386768915E+04  0.21386768915E+04  0.25500000920E-02 0.  1.
        2   -1    0    0  501    0  0.00000000000E+00  0.00000000000E+00 -0.15318349464E+04  0.15318349464E+04  0.25500000920E-02 0. -1.
    10030    2    1    2    0    0  0.00000000000E+00  0.00000000000E+00  0.60684194509E+03  0.36705118379E+04  0.36200000008E+04 0.  0.
        5    1    3    3  502    0 -0.32796378212E+03 -0.47421017466E+03 -0.14362238218E+04  0.15476422353E+04  0.46999998093E+01 0. -1.
       -5    1    3    3    0  502  0.32796378212E+03  0.47421017466E+03  0.20430657669E+04  0.21228696026E+04  0.46999998093E+01 0.  1.
</event>
<event>
 5   0  0.2287500E-07  0.3574693E+04  0.7818609E-02  0.8096313E-01
       -1   -1    0    0    0  501  0.00000000000E+00  0.00000000000E+00  0.15817837922E+04  0.15817837923E+04  0.50400001928E-02 0. -1.
        1   -1    0    0  501    0  0.00000000000E+00  0.00000000000E+00 -0.20196230794E+04  0.20196230794E+04  0.50400001928E-02 0.  1.
    10030    2    1    2    0    0  0.00000000000E+00  0.00000000000E+00 -0.43783928710E+03  0.36014068716E+04  0.35746927439E+04 0.  0.
        2    1    3    3  502    0  0.79094884981E+03  0.14390141200E+04  0.49222032763E+03  0.17142469400E+04  0.25500000920E-02 0. -1.
       -2    1    3    3    0  502 -0.79094884981E+03 -0.14390141200E+04 -0.93005961473E+03  0.18871599316E+04  0.25500000920E-02 0.  1.
</event>
<event>
 5   0  0.2287500E-07  0.3736711E+04  0.7818609E-02  0.8059875E-01
       -1   -1    0    0    0  501  0.00000000000E+00  0.00000000000E+00  0.31259255636E+04  0.31259255636E+04  0.50400001928E-02 0.  1.
        1   -1    0    0  501    0  0.00000000000E+00  0.00000000000E+00 -0.11167098706E+04  0.11167098707E+04  0.50400001928E-02 0. -1.
    10030    2    1    2    0    0  0.00000000000E+00  0.00000000000E+00  0.20092156929E+04  0.42426354342E+04  0.37367108166E+04 0.  0.
        3    1    3    3  502    0 -0.17496608171E+04  0.13101960489E+03  0.17336263850E+04  0.24665643240E+04  0.10100000352E+00 0.  1.
       -3    1    3    3    0  502  0.17496608171E+04 -0.13101960489E+03  0.27558930794E+03  0.17760711102E+04  0.10100000352E+00 0. -1.
</event>
<event>
 5   0  0.2345471E-07  0.3675885E+04  0.7818609E-02  0.8073327E-01
       -1   -1    0    0    0  501  0.00000000000E+00  0.00000000000E+00  0.13309367914E+04  0.13309367914E+04  0.50400001928E-02 0.  1.
        1   -1    0    0  501    0  0.00000000000E+00  0.00000000000E+00 -0.25380866712E+04  0.25380866712E+04  0.50400001928E-02 0. -1.
    10030    2    1    2    0    0  0.00000000000E+00  0.00000000000E+00 -0.12071498798E+04  0.38690234627E+04  0.36758851617E+04 0.  0.
        5    1    3    3  502    0  0.33959912179E+03  0.18028040031E+04 -0.72163338844E+03  0.19713464115E+04  0.46999998093E+01 0. -1.
       -5    1    3    3    0  502 -0.33959912179E+03 -0.18028040031E+04 -0.48551649135E+03  0.18976770511E+04  0.46999998093E+01 0.  1.
</event>
<event>
 5   0  0.7124627E-07  0.3768863E+04  0.7818609E-02  0.8052870E-01
        2   -1    0    0  501    0  0.00000000000E+00  0.00000000000E+00  0.20052720106E+04  0.20052720106E+04  0.25500000920E-02 0.  1.
       -2   -1    0    0    0  501  0.00000000000E+00  0.00000000000E+00 -0.17708728022E+04  0.17708728022E+04  0.25500000920E-02 0. -1.
    10030    2    1    2    0    0  0.00000000000E+00  0.00000000000E+00  0.23439920844E+03  0.37761448129E+04  0.37688627806E+04 0.  0.
        2    1    3    3  502    0  0.83321613984E+03  0.60040464501E+03 -0.14658363320E+04  0.17898075387E+04  0.25500000920E-02 0. -1.
       -2    1    3    3    0  502 -0.83321613984E+03 -0.60040464501E+03  0.17002355405E+04  0.19863372741E+04  0.25500000920E-02 0.  1.
</event>
<event>
 5   0  0.7300916E-07  0.3687189E+04  0.7818609E-02  0.8070807E-01
       -2   -1    0    0    0  501  0.00000000000E+00  0.00000000000E+00  0.13786328273E+04  0.13786328273E+04  0.25500000920E-02 0.  1.
        2   -1    0    0  501    0  0.00000000000E+00  0.00000000000E+00 -0.24653707283E+04  0.24653707283E+04  0.25500000920E-02 0. -1.
    10030    2    1    2    0    0  0.00000000000E+00  0.00000000000E+00 -0.10867379010E+04  0.38440035556E+04  0.36871891829E+04 0.  0.
        1    1    3    3  502    0  0.13240443183E+04  0.19302168823E+03  0.77883235390E+03  0.15482023654E+04  0.50400001928E-02 0. -1.
       -1    1    3    3    0  502 -0.13240443183E+04 -0.19302168823E+03 -0.18655702549E+04  0.22958011902E+04  0.50400001928E-02 0.  1.
</event>
<event>
 5   0  0.2411746E-07  0.3642964E+04  0.7818609E-02  0.8080720E-01
        1   -1    0    0  501    0  0.00000000000E+00  0.00000000000E+00  0.23304826693E+04  0.23304826693E+04  0.50400001928E-02 0. -1.
       -1   -1    0    0    0  501  0.00000000000E+00  0.00000000000E+00 -0.14236525362E+04  0.14236525362E+04  0.50400001928E-02 0.  1.
    10030    2    1    2    0    0  0.00000000000E+00  0.00000000000E+00  0.90683013309E+03  0.37541352054E+04  0.36429644866E+04 0.  0.
        1    1    3    3  502    0 -0.36964114563E+03  0.17830978615E+04  0.41061446966E+03  0.18667289045E+04  0.50400001928E-02 0. -1.
       -1    1    3    3    0  502  0.36964114563E+03 -0.17830978615E+04  0.49621566344E+03  0.18874063009E+04  0.50400001928E-02 0.  1.
</event>
<event>
 5   0  0.2287500E-07  0.3695074E+04  0.7818609E-02  0.8069054E-01
       -1   -1    0    0    0  501  0.00000000000E+00  0.00000000000E+00  0.23388953448E+04  0.23388953448E+04  0.50400001928E-02 0. -1.
        1   -1    0    0  501    0  0.00000000000E+00  0.00000000000E+00 -0.14594042846E+04  0.14594042846E+04  0.50400001928E-02 0.  1.
    10030    2    1    2    0    0  0.00000000000E+00  0.00000000000E+00  0.87949106017E+03  0.37982996294E+04  0.36950744985E+04 0.  0.
        3    1    3    3  502    0 -0.78321504860E+03  0.88342635910E+03  0.19005454602E+04  0.22373960313E+04  0.10100000352E+00 0. -1.
       -3    1    3    3    0  502  0.78321504860E+03 -0.88342635910E+03 -0.10210544001E+04  0.15609035980E+04  0.10100000352E+00 0.  1.
</event>
<event>
 5   0  0.2287500E-07  0.3867671E+04  0.7818609E-02  0.8031787E-01
        1   -1    0    0  501    0  0.00000000000E+00  0.00000000000E+00  0.21254974149E+04  0.21254974149E+04  0.50400001928E-02 0.  1.
       -1   -1    0    0    0  501  0.00000000000E+00  0.00000000000E+00 -0.17594560429E+04  0.17594560429E+04  0.50400001928E-02 0. -1.
    10030    2    1    2    0    0  0.00000000000E+00  0.00000000000E+00  0.36604137197E+03  0.38849534579E+04  0.38676707569E+04 0.  0.
        3    1    3    3  502    0  0.11053869383E+04 -0.13058740864E+04  0.10884541043E+04  0.20277869120E+04  0.10100000352E+00 0.  1.
       -3    1    3    3    0  502 -0.11053869383E+04  0.13058740864E+04 -0.72241273235E+03  0.18571665459E+04  0.10100000352E+00 0. -1.
</event>
<event>
 5   0  0.2287500E-07  0.3724475E+04  0.7818609E-02  0.8062559E-01
       -1   -1    0    0    0  501  0.00000000000E+00  0.00000000000E+00  0.15438251694E+04  0.15438251694E+04  0.50400001928E-02 0. -1.
        1   -1    0    0  501    0  0.00000000000E+00  0.00000000000E+00 -0.22463225408E+04  0.22463225408E+04  0.50400001928E-02 0.  1.
    10030    2    1    2    0    0  0.00000000000E+00  0.00000000000E+00 -0.70249737132E+03  0.37901477102E+04  0.37244754139E+04 0.  0.
        2    1    3    3  502    0  0.76185271654E+03  0.16189175081E+04  0.17420443977E+03  0.17976820204E+04  0.25500000920E-02 0.  1.
       -2    1    3    3    0  502 -0.76185271654E+03 -0.16189175081E+04 -0.87670181109E+03  0.19924656898E+04  0.25500000920E-02 0. -1.
</event>
<event>
 5   0  0.7300916E-07  0.3634244E+04  0.7818609E-02  0.8082693E-01
        2   -1    0    0  501    0  0.00000000000E+00  0.00000000000E+00  0.21709044521E+04  0.21709044521E+04  0.25500000920E-02 0. -1.
       -2   -1    0    0    0  501  0.00000000000E+00  0.00000000000E+00 -0.15209935165E+04  0.15209935165E+04  0.25500000920E-02 0.  1.
    10030    2    1    2    0    0  0.00000000000E+00  0.00000000000E+00  0.64991093555E+03  0.36918979686E+04  0.36342435783E+04 0.  0.
        1    1    3    3  502    0 -0.16753225679E+04 -0.65488278266E+03  0.58663552319E+03  0.18920143770E+04  0.50400001928E-02 0. -1.
       -1    1    3    3    0  502  0.16753225679E+04  0.65488278266E+03  0.63275412360E+02  0.17998835916E+04  0.50400001928E-02 0.  1.
</event>
<event>
 5   0  0.7074157E-07  0.3742258E+04  0.7818609E-02  0.8058661E-01
       -2   -1    0    0    0  501  0.00000000000E+00  0.00000000000E+00  0.22749769362E+04  0.22749769362E+04  0.25500000920E-02 0. -1.
        2   -1    0    0  501    0  0.00000000000E+00  0.00000000000E+00 -0.15389714983E+04  0.15389714983E+04  0.25500000920E-02 0.  1.
    10030    2    1    2    0    0  0.00000000000E+00  0.00000000000E+00  0.73600543793E+03  0.38139484345E+04  0.37422584968E+04 0.  0.
        3    1    3    3  502    0  0.15829014751E+03 -0.48036576677E+03  0.22039898690E+04  0.22612780443E+04  0.10100000352E+00 0. -1.
       -3    1    3    3    0  502 -0.15829014751E+03  0.48036576677E+03 -0.14679844311E+04  0.15526703902E+04  0.10100000352E+00 0.  1.
</event>
<event>
 5   0  0.2287500E-07  0.3690436E+04  0.7818609E-02  0.8070085E-01
        1   -1    0    0  501    0  0.00000000000E+00  0.00000000000E+00  0.26178483613E+04  0.26178483614E+04  0.50400001928E-02 0. -1.
       -1   -1    0    0    0  501  0.00000000000E+00  0.00000000000E+00 -0.13006216411E+04  0.13006216411E+04  0.50400001928E-02 0.  1.
    10030    2    1    2    0    0  0.00000000000E+00  0.00000000000E+00  0.13172267203E+04  0.39184700024E+04  0.36904364142E+04 0.  0.
        3    1    3    3  502    0 -0.89204970369E+03 -0.51977094432E+03 -0.96523729663E+03  0.14133639154E+04  0.10100000352E+00 0.  1.
       -3    1    3    3    0  502  0.89204970369E+03  0.51977094432E+03  0.22824640169E+04  0.25051060870E+04  0.10100000352E+00 0. -1.
</event>
<event>
 5   0  0.6939921E-07  0.3675445E+04  0.7818609E-02  0.8073425E-01
        2   -1    0    0  501    0  0.00000000000E+00  0.00000000000E+00  0.20963592854E+04  0.20963592854E+04  0.25500000920E-02 0. -1.
       -2   -1    0    0    0  501  0.00000000000E+00  0.00000000000E+00 -0.16109952262E+04  0.16109952262E+04  0.25500000920E-02 0.  1.
    10030    2    1    2    0    0  0.00000000000E+00  0.00000000000E+00  0.48536405925E+03  0.37073545116E+04  0.36754454430E+04 0.  0.
        4    1    3    3  502    0  0.44795425653E+03 -0.67341219071E+02 -0.15537982732E+04  0.16184834082E+04  0.12699999809E+01 0.  1.
       -4    1    3    3    0  502 -0.44795425653E+03  0.67341219071E+02  0.20391623325E+04  0.20888711034E+04  0.12699999809E+01 0. -1.
</event>
<event>
 5   0  0.2287500E-07  0.2714196E+04  0.7818609E-02  0.8330414E-01
        1   -1    0    0  501    0  0.00000000000E+00  0.00000000000E+00  0.30005940201E+04  0.30005940201E+04  0.50400001928E-02 0.  1.
       -1   -1    0    0    0  501  0.00000000000E+00  0.00000000000E+00 -0.61378341616E+03  0.61378341618E+03  0.50400001928E-02 0. -1.
    10030    2    1    2    0    0  0.00000000000E+00  0.00000000000E+00  0.23868106039E+04  0.36143774363E+04  0.27141959017E+04 0.  0.
        3    1    3    3  502    0 -0.62381757145E+03  0.11762808433E+04  0.15430250769E+04  0.20380655983E+04  0.10100000352E+00 0.  1.
       -3    1    3    3    0  502  0.62381757145E+03 -0.11762808433E+04  0.84378552709E+03  0.15763118380E+04  0.10100000352E+00 0. -1.
</event>
<event>
 5   0  0.2287500E-07  0.3663566E+04  0.7818609E-02  0.8076084E-01
       -1   -1    0    0    0  501  0.00000000000E+00  0.00000000000E+00  0.16539801941E+04  0.16539801942E+04  0.50400001928E-02 0. -1.
        1   -1    0    0  501    0  0.00000000000E+00  0.00000000000E+00 -0.20286998767E+04  0.20286998767E+04  0.50400001928E-02 0.  1.
    10030    2    1    2    0    0  0.00000000000E+00  0.00000000000E+00 -0.37471968251E+03  0.36826800708E+04  0.36635662494E+04 0.  0.
        3    1    3    3  502    0  0.11611215520E+04  0.27842117254E+03 -0.15837465875E+04  0.19834250355E+04  0.10100000352E+00 0.  1.
       -3    1    3    3    0  502 -0.11611215520E+04 -0.27842117254E+03  0.12090269050E+04  0.16992550353E+04  0.10100000352E+00 0. -1.
</event>
<event>
 5   0  0.7074157E-07  0.3748048E+04  0.7818609E-02  0.8057396E-01
        2   -1    0    0  501    0  0.00000000000E+00  0.00000000000E+00  0.18569180172E+04  0.18569180172E+04  0.25500000920E-02 0.  1.
       -2   -1    0    0    0  501  0.00000000000E+00  0.00000000000E+00 -0.18912876945E+04  0.18912876945E+04  0.25500000920E-02 0. -1.
    10030    2    1    2    0    0  0.00000000000E+00  0.00000000000E+00 -0.34369677326E+02  0.37482057117E+04  0.37480481297E+04 0.  0.
        3    1    3    3  502    0 -0.15041416139E+04 -0.11686509807E+03  0.10945573358E+04  0.18639085862E+04  0.10100000352E+00 0.  1.
       -3    1    3    3    0  502  0.15041416139E+04  0.11686509807E+03 -0.11289270132E+04  0.18842971255E+04  0.10100000352E+00 0. -1.
</event>
<event>
 5   0  0.2287500E-07  0.2731310E+04  0.7818609E-02  0.8324917E-01
        1   -1    0    0  501    0  0.00000000000E+00  0.00000000000E+00  0.10949923532E+04  0.10949923532E+04  0.50400001928E-02 0.  1.
       -1   -1    0    0    0  501  0.00000000000E+00  0.00000000000E+00 -0.17032201962E+04  0.17032201962E+04  0.50400001928E-02 0. -1.
    10030    2    1    2    0    0  0.00000000000E+00  0.00000000000E+00 -0.60822784295E+03  0.27982125494E+04  0.27313096424E+04 0.  0.
        4    1    3    3  502    0  0.11002832475E+04  0.79609496702E+03 -0.45123172064E+03  0.14310842392E+04  0.12699999809E+01 0.  1.
       -4    1    3    3    0  502 -0.11002832475E+04 -0.79609496702E+03 -0.15699612232E+03  0.13671283102E+04  0.12699999809E+01 0. -1.
</event>
<event>
 5   0  0.2287500E-07  0.3859051E+04  0.7818609E-02  0.8033600E-01
       -1   -1    0    0    0  501  0.00000000000E+00  0.00000000000E+00  0.24838130517E+04  0.24838130517E+04  0.50400001928E-02 0. -1.
        1   -1    0    0  501    0  0.00000000000E+00  0.00000000000E+00 -0.14989329107E+04  0.14989329107E+04  0.50400001928E-02 0.  1.
    10030    2    1    2    0    0  0.00000000000E+00  0.00000000000E+00  0.98488014105E+03  0.39827459624E+04  0.38590512447E+04 0.  0.
        3    1    3    3  502    0  0.16005298603E+04  0.85278233454E+03 -0.18756906481E+03  0.18232157602E+04  0.10100000352E+00 0. -1.
       -3    1    3    3    0  502 -0.16005298603E+04 -0.85278233454E+03  0.11724492059E+04  0.21595302022E+04  0.10100000352E+00 0.  1.
</event>
<event>
 5   0  0.7124627E-07  0.3379418E+04  0.7818609E-02  0.8142976E-01
        2   -1    0    0  501    0  0.00000000000E+00  0.00000000000E+00  0.13263641031E+04  0.13263641032E+04  0.25500000920E-02 0. -1.
       -2   -1    0    0    0  501  0.00000000000E+00  0.00000000000E+00 -0.21525884707E+04  0.21525884707E+04  0.25500000920E-02 0.  1.
    10030    2    1    2    0    0  0.00000000000E+00  0.00000000000E+00 -0.82622436758E+03  0.34789525739E+04  0.33794177466E+04 0.  0.
        2    1    3    3  502    0  0.93268459888E+03 -0.59485861992E+03  0.90175342024E+03  0.14272058610E+04  0.25500000920E-02 0. -1.
       -2    1    3    3    0  502 -0.93268459888E+03  0.59485861992E+03 -0.17279777878E+04  0.20517467129E+04  0.25500000920E-02 0.  1.
</event>
<event>
 5   0  0.2287500E-07  0.3727527E+04  0.7818609E-02  0.8061889E-01
       -1   -1    0    0    0  501  0.00000000000E+00  0.00000000000E+00  0.25555525506E+04  0.25555525506E+04  0.50400001928E-02 0. -1.
        1   -1    0    0  501    0  0.00000000000E+00  0.00000000000E+00 -0.13592421161E+04  0.13592421161E+04  0.50400001928E-02 0.  1.
    10030    2    1    2    0    0  0.00000000000E+00  0.00000000000E+00  0.11963104346E+04  0.39147946667E+04  0.37275271464E+04 0.  0.
        4    1    3    3  502    0  0.17160531066E+04 -0.52697919934E+03  0.11243949038E+04  0.21182093508E+04  0.12699999809E+01 0. -1.
       -4    1    3    3    0  502 -0.17160531066E+04  0.52697919934E+03  0.71915530757E+02  0.17965853160E+04  0.12699999809E+01 0.  1.
</event>
<event>
 5   0  0.7300916E-07  0.3715832E+04  0.7818609E-02  0.8064462E-01
       -2   -1    0    0    0  501  0.00000000000E+00  0.00000000000E+00  0.20788081886E+04  0.20788081886E+04  0.25500000920E-02 0.  1.
        2   -1    0    0  501    0  0.00000000000E+00  0.00000000000E+00 -0.16604960469E+04  0.16604960469E+04  0.25500000920E-02 0. -1.
    10030    2    1    2    0    0  0.00000000000E+00  0.00000000000E+00  0.41831214174E+03  0.37393042354E+04  0.37158324932E+04 0.  0.
        1    1    3    3  502    0  0.17263965048E+04 -0.36079240781E+03  0.79700070254E+03  0.19354136957E+04  0.50400001928E-02 0.  1.
       -1    1    3    3    0  502 -0.17263965048E+04  0.36079240781E+03 -0.37868856080E+03  0.18038905398E+04  0.50400001928E-02 0. -1.
</event>
<event>
 5   0  0.2287500E-07  0.3589109E+04  0.7818609E-02  0.8092991E-01
        1   -1    0    0  501    0  0.00000000000E+00  0.00000000000E+00  0.15545583489E+04  0.15545583490E+04  0.50400001928E-02 0.  1.
       -1   -1    0    0    0  501  0.00000000000E+00  0.00000000000E+00 -0.20716017598E+04  0.20716017598E+04  0.50400001928E-02 0. -1.
    10030    2    1    2    0    0  0.00000000000E+00  0.00000000000E+00 -0.51704341083E+03  0.36261601087E+04  0.35891089765E+04 0.  0.
        2    1    3    3  502    0 -0.83067702814E+02  0.12650893835E+04  0.10246581498E+04  0.16301152461E+04  0.25500000920E-02 0.  1.
       -2    1    3    3    0  502  0.83067702814E+02 -0.12650893835E+04 -0.15417015607E+04  0.19960448626E+04  0.25500000920E-02 0. -1.
</event>
<event>
 5   0  0.2287500E-07  0.3756086E+04  0.7818609E-02  0.8055645E-01
        1   -1    0    0  501    0  0.00000000000E+00  0.00000000000E+00  0.18315283502E+04  0.18315283502E+04  0.50400001928E-02 0. -1.
       -1   -1    0    0    0  501  0.00000000000E+00  0.00000000000E+00 -0.19257394506E+04  0.19257394506E+04  0.50400001928E-02 0.  1.
    10030    2    1    2    0    0  0.00000000000E+00  0.00000000000E+00 -0.94211100406E+02  0.37572678008E+04  0.37560864734E+04 0.  0.
        4    1    3    3  502    0 -0.84182070519E+03 -0.10538382106E+04 -0.13543477340E+04  0.19114121667E+04  0.12699999809E+01 0.  1.
       -4    1    3    3    0  502  0.84182070519E+03  0.10538382106E+04  0.12601366336E+04  0.18458556341E+04  0.12699999809E+01 0. -1.
</event>
<event>
 5   0  0.7074157E-07  0.3638467E+04  0.7818609E-02  0.8081737E-01
        2   -1    0    0  501    0  0.00000000000E+00  0.00000000000E+00  0.28330054048E+04  0.28330054048E+04  0.25500000920E-02 0.  1.
       -2   -1    0    0    0  501  0.00000000000E+00  0.00000000000E+00 -0.11682329962E+04  0.11682329962E+04  0.25500000920E-02 0. -1.
    10030    2    1    2    0    0  0.00000000000E+00  0.00000000000E+00  0.16647724086E+04  0.40012384011E+04  0.36384669258E+04 0.  0.
        3    1    3    3  502    0 -0.69977672849E+02  0.74561428029E+03 -0.99086044136E+03  0.12420313821E+04  0.10100000352E+00 0. -1.
       -3    1    3    3    0  502  0.69977672849E+02 -0.74561428029E+03  0.26556328499E+04  0.27592070190E+04  0.10100000352E+00 0.  1.
</event>
<event>
 5   0  0.2287500E-07  0.3639233E+04  0.7818609E-02  0.8081563E-01
        1   -1    0    0  501    0  0.00000000000E+00  0.00000000000E+00  0.11447381332E+04  0.11447381332E+04  0.50400001928E-02 0.  1.
       -1   -1    0    0    0  501  0.00000000000E+00  0.00000000000E+00 -0.28923689099E+04  0.28923689099E+04  0.50400001928E-02 0. -1.
    10030    2    1    2    0    0  0.00000000000E+00  0.00000000000E+00 -0.17476307767E+04  0.40371070431E+04  0.36392334283E+04 0.  0.
        3    1    3    3  502    0  0.57233384007E+03 -0.89916695397E+03 -0.25098171479E+04  0.27267653661E+04  0.10100000352E+00 0. -1.
       -3    1    3    3    0  502 -0.57233384007E+03  0.89916695397E+03  0.76218637126E+03  0.13103416769E+04  0.10100000352E+00 0.  1.
</event>
<event>
 5   0  0.7124627E-07  0.3561485E+04  0.7818609E-02  0.8099372E-01
        2   -1    0    0  501    0  0.00000000000E+00  0.00000000000E+00  0.17068388703E+04  0.17068388703E+04  0.25500000920E-02 0. -1.
       -2   -1    0    0    0  501  0.00000000000E+00  0.00000000000E+00 -0.18578456550E+04  0.18578456550E+04  0.25500000920E-02 0.  1.
    10030    2    1    2    0    0  0.00000000000E+00  0.00000000000E+00 -0.15100678470E+03  0.35646845253E+04  0.35614846224E+04 0.  0.
        2    1    3    3  502    0  0.16221106719E+04 -0.71153619465E+03  0.10773591843E+03  0.17745798986E+04  0.25500000920E-02 0.  1.
       -2    1    3    3    0  502 -0.16221106719E+04  0.71153619465E+03 -0.25874270313E+03  0.17901046267E+04  0.25500000920E-02 0. -1.
</event>
<event>
 5   0  0.7074157E-07  0.3698008E+04  0.7818609E-02  0.8068403E-01
        2   -1    0    0  501    0  0.00000000000E+00  0.00000000000E+00  0.26819784152E+04  0.26819784152E+04  0.25500000920E-02 0.  1.
       -2   -1    0    0    0  501  0.00000000000E+00  0.00000000000E+00 -0.12747368107E+04  0.12747368107E+04  0.25500000920E-02 0. -1.
    10030    2    1    2    0    0  0.00000000000E+00  0.00000000000E+00  0.14072416044E+04  0.39567152259E+04  0.36980084432E+04 0.  0.
        3    1    3    3  502    0  0.63067847761E+03  0.73313149529E+02 -0.11544402823E+04  0.13175213606E+04  0.10100000352E+00 0. -1.
       -3    1    3    3    0  502 -0.63067847761E+03 -0.73313149529E+02  0.25616818867E+04  0.26391938653E+04  0.10100000352E+00 0.  1.
</event>
<event>
 5   0  0.7124627E-07  0.3672482E+04  0.7818609E-02  0.8074088E-01
        2   -1    0    0  501    0  0.00000000000E+00  0.00000000000E+00  0.28622589274E+04  0.28622589274E+04  0.25500000920E-02 0. -1.
       -2   -1    0    0    0  501  0.00000000000E+00  0.00000000000E+00 -0.11780140779E+04  0.11780140779E+04  0.25500000920E-02 0.  1.
    10030    2    1    2    0    0  0.00000000000E+00  0.00000000000E+00  0.16842448496E+04  0.40402730053E+04  0.36724821639E+04 0.  0.
        2    1    3    3  502    0 -0.17103035090E+04 -0.48716105854E+03  0.33879151593E+03  0.18103159064E+04  0.25500000920E-02 0.  1.
       -2    1    3    3    0  502  0.17103035090E+04  0.48716105854E+03  0.13454533336E+04  0.22299570989E+04  0.25500000920E-02 0. -1.
</event>
<event>
 5   0  0.7124627E-07  0.3567980E+04  0.7818609E-02  0.8097866E-01
       -2   -1    0    0    0  501  0.00000000000E+00  0.00000000000E+00  0.14963692527E+04  0.14963692527E+04  0.25500000920E-02 0. -1.
        2   -1    0    0  501    0  0.00000000000E+00  0.00000000000E+00 -0.21268949156E+04  0.21268949156E+04  0.25500000920E-02 0.  1.
    10030    2    1    2    0    0  0.00000000000E+00  0.00000000000E+00 -0.63052566294E+03  0.36232641683E+04  0.35679799077E+04 0.  0.
        2    1    3    3  502    0  0.79441842303E+03  0.29806633873E+03  0.12783441969E+04  0.15343102877E+04  0.25500000920E-02 0. -1.
       -2    1    3    3    0  502 -0.79441842303E+03 -0.29806633873E+03 -0.19088698599E+04  0.20889538806E+04  0.25500000920E-02 0.  1.
</event>
<event>
 5   0  0.2345471E-07  0.3805834E+04  0.7818609E-02  0.8044904E-01
       -1   -1    0    0    0  501  0.00000000000E+00  0.00000000000E+00  0.24280101802E+04  0.24280101802E+04  0.50400001928E-02 0.  1.
        1   -1    0    0  501    0  0.00000000000E+00  0.00000000000E+00 -0.14913826550E+04  0.14913826550E+04  0.50400001928E-02 0. -1.
    10030    2    1    2    0    0  0.00000000000E+00  0.00000000000E+00  0.93662752525E+03  0.39193928352E+04  0.38058335586E+04 0.  0.
        5    1    3    3  502    0  0.50104581859E+03  0.14629435861E+04 -0.67374818271E+03  0.16867748967E+04  0.46999998093E+01 0. -1.
       -5    1    3    3    0  502 -0.50104581859E+03 -0.14629435861E+04  0.16103757080E+04  0.22326179385E+04  0.46999998093E+01 0.  1.
</event>
<event>
 5   0  0.2287500E-07  0.2844309E+04  0.7818609E-02  0.8289643E-01
        1   -1    0    0  501    0  0.00000000000E+00  0.00000000000E+00  0.22087332064E+04  0.22087332064E+04  0.50400001928E-02 0.  1.
       -1   -1    0    0    0  501  0.00000000000E+00  0.00000000000E+00 -0.91569361287E+03  0.91569361288E+03  0.50400001928E-02 0. -1.
    10030    2    1    2    0    0  0.00000000000E+00  0.00000000000E+00  0.12930395936E+04  0.31244268193E+04  0.28443086258E+04 0.  0.
        4    1    3    3  502    0 -0.30853303834E+03  0.13554137637E+04  0.31664132054E+03  0.14256936716E+04  0.12699999809E+01 0.  1.
       -4    1    3    3    0  502  0.30853303834E+03 -0.13554137637E+04  0.97639827303E+03  0.16987331477E+04  0.12699999809E+01 0. -1.
</event>
<event>
 5   0  0.7124627E-07  0.2821147E+04  0.7818609E-02  0.8296733E-01
        2   -1    0    0  501    0  0.00000000000E+00  0.00000000000E+00  0.22424884762E+04  0.22424884762E+04  0.25500000920E-02 0.  1.
       -2   -1    0    0    0  501  0.00000000000E+00  0.00000000000E+00 -0.88728087556E+03  0.88728087556E+03  0.25500000920E-02 0. -1.
    10030    2    1    2    0    0  0.00000000000E+00  0.00000000000E+00  0.13552076006E+04  0.31297693518E+04  0.28211466737E+04 0.  0.
        2    1    3    3  502    0  0.94461770849E+03 -0.79717547217E+03 -0.76398676435E+02  0.12383973944E+04  0.25500000920E-02 0. -1.
       -2    1    3    3    0  502 -0.94461770849E+03  0.79717547217E+03  0.14316062771E+04  0.18913719574E+04  0.25500000920E-02 0.  1.
</event>
<event>
 5   0  0.7124627E-07  0.3707455E+04  0.7818609E-02  0.8066312E-01
       -2   -1    0    0    0  501  0.00000000000E+00  0.00000000000E+00  0.14213923510E+04  0.14213923510E+04  0.25500000920E-02 0. -1.
        2   -1    0    0  501    0  0.00000000000E+00  0.00000000000E+00 -0.24175631961E+04  0.24175631961E+04  0.25500000920E-02 0.  1.
    10030    2    1    2    0    0  0.00000000000E+00  0.00000000000E+00 -0.99617084509E+03  0.38389555472E+04  0.37074551030E+04 0.  0.
        2    1    3    3  502    0 -0.11263752532E+04 -0.59640201827E+03  0.89572275362E+03  0.15577983919E+04  0.25500000920E-02 0. -1.
       -2    1    3    3    0  502  0.11263752532E+04  0.59640201827E+03 -0.18918935987E+04  0.22811571553E+04  0.25500000920E-02 0.  1.
</event>
<event>
 5   0  0.7074157E-07  0.3704279E+04  0.7818609E-02  0.8067014E-01
       -2   -1    0    0    0  501  0.00000000000E+00  0.00000000000E+00  0.13666671832E+04  0.13666671832E+04  0.25500000920E-02 0.  1.
        2   -1    0    0  501    0  0.00000000000E+00  0.00000000000E+00 -0.25100628290E+04  0.25100628290E+04  0.25500000920E-02 0. -1.
    10030    2    1    2    0    0  0.00000000000E+00  0.00000000000E+00 -0.11433956457E+04  0.38767300122E+04  0.37042788752E+04 0.  0.
        3    1    3    3  502    0  0.35952555331E+03 -0.12943015168E+04 -0.19061864179E+04  0.23319566269E+04  0.10100000352E+00 0. -1.
       -3    1    3    3    0  502 -0.35952555331E+03  0.12943015168E+04  0.76279077214E+03  0.15447733853E+04  0.10100000352E+00 0.  1.
</event>
<event>
 5   0  0.2287500E-07  0.3562314E+04  0.7818609E-02  0.8099179E-01
       -4   -1    0    0    0  501  0.00000000000E+00  0.00000000000E+00  0.20047965543E+04  0.20047969566E+04  0.12699999809E+01 0. -1.
        4   -1    0    0  501    0  0.00000000000E+00  0.00000000000E+00 -0.15824643484E+04  0.15824648580E+04  0.12699999809E+01 0.  1.
    10030    2    1    2    0    0  0.00000000000E+00  0.00000000000E+00  0.42233220590E+03  0.35872618146E+04  0.35623142526E+04 0.  0.
        3    1    3    3  502    0 -0.64016471032E+03 -0.57381197362E+03 -0.13597103490E+04  0.16086899268E+04  0.10100000352E+00 0.  1.
       -3    1    3    3    0  502  0.64016471032E+03  0.57381197362E+03  0.17820425549E+04  0.19785718878E+04  0.10100000352E+00 0. -1.
</event>
<event>
 5   0  0.2411746E-07  0.3645023E+04  0.7818609E-02  0.8080256E-01
       -1   -1    0    0    0  501  0.00000000000E+00  0.00000000000E+00  0.24897156187E+04  0.24897156187E+04  0.50400001928E-02 0. -1.
        1   -1    0    0  501    0  0.00000000000E+00  0.00000000000E+00 -0.13341075565E+04  0.13341075565E+04  0.50400001928E-02 0.  1.
    10030    2    1    2    0    0  0.00000000000E+00  0.00000000000E+00  0.11556080622E+04  0.38238231752E+04  0.36450231387E+04 0.  0.
        1    1    3    3  502    0  0.78848587346E+03  0.75054271001E+03 -0.95558166693E+03  0.14485029011E+04  0.50400001928E-02 0.  1.
       -1    1    3    3    0  502 -0.78848587346E+03 -0.75054271001E+03  0.21111897292E+04  0.23753202742E+04  0.50400001928E-02 0. -1.
</event>
<event>
 5   0  0.7124627E-07  0.3681550E+04  0.7818609E-02  0.8072063E-01
        2   -1    0    0  501    0  0.00000000000E+00  0.00000000000E+00  0.16688501196E+04  0.16688501196E+04  0.25500000920E-02 0.  1.
       -2   -1    0    0    0  501  0.00000000000E+00  0.00000000000E+00 -0.20304110807E+04  0.20304110807E+04  0.25500000920E-02 0. -1.
    10030    2    1    2    0    0  0.00000000000E+00  0.00000000000E+00 -0.36156096115E+03  0.36992612003E+04  0.36815495514E+04 0.  0.
        2    1    3    3  502    0 -0.32472982203E+03  0.11754656985E+04 -0.15662842017E+04  0.19850479254E+04  0.25500000920E-02 0. -1.
       -2    1    3    3    0  502  0.32472982203E+03 -0.11754656985E+04  0.12047232405E+04  0.17142132749E+04  0.25500000920E-02 0.  1.
</event>
<event>
 5   0  0.6949625E-07  0.3722266E+04  0.7818609E-02  0.8063045E-01
       -2   -1    0    0    0  501  0.00000000000E+00  0.00000000000E+00  0.14923803523E+04  0.14923803523E+04  0.25500000920E-02 0.  1.
        2   -1    0    0  501    0  0.00000000000E+00  0.00000000000E+00 -0.23210014358E+04  0.23210014358E+04  0.25500000920E-02 0. -1.
    10030    2    1    2    0    0  0.00000000000E+00  0.00000000000E+00 -0.82862108350E+03  0.38133817881E+04  0.37222664819E+04 0.  0.
        5    1    3    3  502    0 -0.61841643232E+03 -0.16874148685E+04 -0.90987336369E+03  0.20143732152E+04  0.46999998093E+01 0.  1.
       -5    1    3    3    0  502  0.61841643232E+03  0.16874148685E+04  0.81252280190E+02  0.17990085729E+04  0.46999998093E+01 0. -1.
</event>
<event>
 5   0  0.6949625E-07  0.3680507E+04  0.7818609E-02  0.8072295E-01
        2   -1    0    0  501    0  0.00000000000E+00  0.00000000000E+00  0.22707417700E+04  0.22707417700E+04  0.25500000920E-02 0.  1.
       -2   -1    0    0    0  501  0.00000000000E+00  0.00000000000E+00 -0.14913776766E+04  0.14913776766E+04  0.25500000920E-02 0. -1.
    10030    2    1    2    0    0  0.00000000000E+00  0.00000000000E+00  0.77936409333E+03  0.37621194466E+04  0.36805073483E+04 0.  0.
        5    1    3    3  502    0  0.13361939277E+03 -0.15961220439E+04  0.13158935339E+04  0.20729345392E+04  0.46999998093E+01 0.  1.
       -5    1    3    3    0  502 -0.13361939277E+03  0.15961220439E+04 -0.53652944059E+03  0.16891849075E+04  0.46999998093E+01 0. -1.
</event>
<event>
 5   0  0.2345471E-07  0.3693627E+04  0.7818609E-02  0.8069376E-01
        1   -1    0    0  501    0  0.00000000000E+00  0.00000000000E+00  0.12790868614E+04  0.12790868614E+04  0.50400001928E-02 0. -1.
       -1   -1    0    0    0  501  0.00000000000E+00  0.00000000000E+00 -0.26665274435E+04  0.26665274435E+04  0.50400001928E-02 0.  1.
    10030    2    1    2    0    0  0.00000000000E+00  0.00000000000E+00 -0.13874405821E+04  0.39456143049E+04  0.36936270621E+04 0.  0.
        5    1    3    3  502    0  0.13977030261E+04 -0.11703142698E+04 -0.10096846069E+04  0.20839132263E+04  0.46999998093E+01 0.  1.
       -5    1    3    3    0  502 -0.13977030261E+04  0.11703142698E+04 -0.37775597523E+03  0.18617010786E+04  0.46999998093E+01 0. -1.
</event>
<event>
 5   0  0.6939921E-07  0.3710505E+04  0.7818609E-02  0.8065638E-01
       -2   -1    0    0    0  501  0.00000000000E+00  0.00000000000E+00  0.11911457904E+04  0.11911457904E+04  0.25500000920E-02 0. -1.
        2   -1    0    0  501    0  0.00000000000E+00  0.00000000000E+00 -0.28896223070E+04  0.28896223070E+04  0.25500000920E-02 0.  1.
    10030    2    1    2    0    0  0.00000000000E+00  0.00000000000E+00 -0.16984765166E+04  0.40807680975E+04  0.37105047888E+04 0.  0.
        4    1    3    3  502    0 -0.50510646946E+03 -0.44292535376E+03 -0.27511541561E+04  0.28319897984E+04  0.12699999809E+01 0.  1.
       -4    1    3    3    0  502  0.50510646946E+03  0.44292535376E+03  0.10526776396E+04  0.12487782991E+04  0.12699999809E+01 0. -1.
</event>
<event>
 5   0  0.2287500E-07  0.3764668E+04  0.7818609E-02  0.8053780E-01
        1   -1    0    0  501    0  0.00000000000E+00  0.00000000000E+00  0.28410057893E+04  0.28410057893E+04  0.50400001928E-02 0. -1.
       -1   -1    0    0    0  501  0.00000000000E+00  0.00000000000E+00 -0.12471574062E+04  0.12471574062E+04  0.50400001928E-02 0.  1.
    10030    2    1    2    0    0  0.00000000000E+00  0.00000000000E+00  0.15938483831E+04  0.40881631955E+04  0.37646680657E+04 0.  0.
        3    1    3    3  502    0  0.56729658571E+03 -0.99985865370E+03 -0.82167100000E+03  0.14130413957E+04  0.10100000352E+00 0.  1.
       -3    1    3    3    0  502 -0.56729658571E+03  0.99985865370E+03  0.24155193831E+04  0.26751217998E+04  0.10100000352E+00 0. -1.
</event>
<event>
 5   0  0.2287500E-07  0.3697895E+04  0.7818609E-02  0.8068429E-01
       -1   -1    0    0    0  501  0.00000000000E+00  0.00000000000E+00  0.10887269700E+04  0.10887269700E+04  0.50400001928E-02 0. -1.
        1   -1    0    0  501    0  0.00000000000E+00  0.00000000000E+00 -0.31400031988E+04  0.31400031988E+04  0.50400001928E-02 0.  1.
    10030    2    1    2    0    0  0.00000000000E+00  0.00000000000E+00 -0.20512762288E+04  0.42287301688E+04  0.36978946272E+04 0.  0.
        2    1    3    3  502    0 -0.17275999612E+04 -0.13373816552E+03 -0.28796487212E+03  0.17565338854E+04  0.25500000920E-02 0. -1.
       -2    1    3    3    0  502  0.17275999612E+04  0.13373816552E+03 -0.17633113567E+04  0.24721962834E+04  0.25500000920E-02 0.  1.
</event>
<event>
 5   0  0.7124627E-07  0.3659755E+04  0.7818609E-02  0.8076939E-01
        2   -1    0    0  501    0  0.00000000000E+00  0.00000000000E+00  0.16365608629E+04  0.16365608629E+04  0.25500000920E-02 0. -1.
       -2   -1    0    0    0  501  0.00000000000E+00  0.00000000000E+00 -0.20460298463E+04  0.20460298463E+04  0.25500000920E-02 0.  1.
    10030    2    1    2    0    0  0.00000000000E+00  0.00000000000E+00 -0.40946898341E+03  0.36825907093E+04  0.36597553858E+04 0.  0.
        2    1    3    3  502    0 -0.92590189929E+03 -0.11337321914E+04  0.90021065913E+03  0.17184359865E+04  0.25500000920E-02 0. -1.
       -2    1    3    3    0  502  0.92590189929E+03  0.11337321914E+04 -0.13096796425E+04  0.19641547228E+04  0.25500000920E-02 0.  1.
</event>
<event>
 5   0  0.7074157E-07  0.3680164E+04  0.7818609E-02  0.8072372E-01
       -2   -1    0    0    0  501  0.00000000000E+00  0.00000000000E+00  0.20222321069E+04  0.20222321069E+04  0.25500000920E-02 0.  1.
        2   -1    0    0  501    0  0.00000000000E+00  0.00000000000E+00 -0.16743385322E+04  0.16743385322E+04  0.25500000920E-02 0. -1.
    10030    2    1    2    0    0  0.00000000000E+00  0.00000000000E+00  0.34789357476E+03  0.36965706391E+04  0.36801636582E+04 0.  0.
        3    1    3    3  502    0 -0.26343046277E+02 -0.11272779863E+04 -0.12866513508E+04  0.17108247494E+04  0.10100000352E+00 0. -1.
       -3    1    3    3    0  502  0.26343046277E+02  0.11272779863E+04  0.16345449256E+04  0.19857458897E+04  0.10100000352E+00 0.  1.
</event>
<event>
 5   0  0.2287500E-07  0.3792788E+04  0.7818609E-02  0.8047704E-01
       -1   -1    0    0    0  501  0.00000000000E+00  0.00000000000E+00  0.17863456385E+04  0.17863456385E+04  0.50400001928E-02 0. -1.
        1   -1    0    0  501    0  0.00000000000E+00  0.00000000000E+00 -0.20132214901E+04  0.20132214901E+04  0.50400001928E-02 0.  1.
    10030    2    1    2    0    0  0.00000000000E+00  0.00000000000E+00 -0.22687585158E+03  0.37995671286E+04  0.37927875913E+04 0.  0.
        4    1    3    3  502    0  0.78718869974E+03  0.10526927771E+04 -0.14828047133E+04  0.19815497881E+04  0.12699999809E+01 0.  1.
       -4    1    3    3    0  502 -0.78718869974E+03 -0.10526927771E+04  0.12559288617E+04  0.18180173406E+04  0.12699999809E+01 0. -1.
</event>
<event>
 5   0  0.7074157E-07  0.3683587E+04  0.7818609E-02  0.8071609E-01
       -2   -1    0    0    0  501  0.00000000000E+00  0.00000000000E+00  0.19567192952E+04  0.19567192952E+04  0.25500000920E-02 0. -1.
        2   -1    0    0  501    0  0.00000000000E+00  0.00000000000E+00 -0.17336175519E+04  0.17336175519E+04  0.25500000920E-02 0.  1.
    10030    2    1    2    0    0  0.00000000000E+00  0.00000000000E+00  0.22310174323E+03  0.36903368471E+04  0.36835867924E+04 0.  0.
        3    1    3    3  502    0  0.11616737940E+04  0.14289742818E+04  0.13897625097E+03  0.18468264429E+04  0.10100000352E+00 0.  1.
       -3    1    3    3    0  502 -0.11616737940E+04 -0.14289742818E+04  0.84125492264E+02  0.18435104042E+04  0.10100000352E+00 0. -1.
</event>
<event>
 5   0  0.2287500E-07  0.4119093E+04  0.7818609E-02  0.7980943E-01
        1   -1    0    0  501    0  0.00000000000E+00  0.00000000000E+00  0.17679084323E+04  0.17679084323E+04  0.50400001928E-02 0.  1.
       -1   -1    0    0    0  501  0.00000000000E+00  0.00000000000E+00 -0.23992937715E+04  0.23992937716E+04  0.50400001928E-02 0. -1.
    10030    2    1    2    0    0  0.00000000000E+00  0.00000000000E+00 -0.63138533922E+03  0.41672022039E+04  0.41190929537E+04 0.  0.
        3    1    3    3  502    0 -0.91086180565E+03 -0.17601953302E+04  0.25100580979E+03  0.19977389109E+04  0.10100000352E+00 0.  1.
       -3    1    3    3    0  502  0.91086180565E+03  0.17601953302E+04 -0.88239114901E+03  0.21694632930E+04  0.10100000352E+00 0. -1.
</event>
<event>
 5   0  0.7124627E-07  0.3804601E+04  0.7818609E-02  0.8045168E-01
       -2   -1    0    0    0  501  0.00000000000E+00  0.00000000000E+00  0.15588006039E+04  0.15588006039E+04  0.25500000920E-02 0.  1.
        2   -1    0    0  501    0  0.00000000000E+00  0.00000000000E+00 -0.23214945038E+04  0.23214945038E+04  0.25500000920E-02 0. -1.
    10030    2    1    2    0    0  0.00000000000E+00  0.00000000000E+00 -0.76269389987E+03  0.38802951076E+04  0.38046009170E+04 0.  0.
        2    1    3    3  502    0  0.20301040124E+03  0.78141696502E+03  0.13753977986E+04  0.15948494602E+04  0.25500000920E-02 0.  1.
       -2    1    3    3    0  502 -0.20301040124E+03 -0.78141696502E+03 -0.21380916985E+04  0.22854456474E+04  0.25500000920E-02 0. -1.
</event>
<event>
 5   0  0.7074157E-07  0.3711796E+04  0.7818609E-02  0.8065353E-01
       -2   -1    0    0    0  501  0.00000000000E+00  0.00000000000E+00  0.14213255988E+04  0.14213255988E+04  0.25500000920E-02 0.  1.
        2   -1    0    0  501    0  0.00000000000E+00  0.00000000000E+00 -0.24233413632E+04  0.24233413632E+04  0.25500000920E-02 0. -1.
    10030    2    1    2    0    0  0.00000000000E+00  0.00000000000E+00 -0.10020157644E+04  0.38446669619E+04  0.37117958532E+04 0.  0.
        3    1    3    3  502    0  0.71585768237E+03 -0.97751490414E+03  0.95515083496E+03  0.15428223284E+04  0.10100000352E+00 0.  1.
       -3    1    3    3    0  502 -0.71585768237E+03  0.97751490414E+03 -0.19571665993E+04  0.23018446336E+04  0.10100000352E+00 0. -1.
</event>
<event>
 5   0  0.7300916E-07  0.3919736E+04  0.7818609E-02  0.8020937E-01
       -2   -1    0    0    0  501  0.00000000000E+00  0.00000000000E+00  0.15531456505E+04  0.15531456505E+04  0.25500000920E-02 0.  1.
        2   -1    0    0  501    0  0.00000000000E+00  0.00000000000E+00 -0.24730989835E+04  0.24730989835E+04  0.25500000920E-02 0. -1.
    10030    2    1    2    0    0  0.00000000000E+00  0.00000000000E+00 -0.91995333297E+03  0.40262446340E+04  0.39197361796E+04 0.  0.
        1    1    3    3  502    0  0.17969195655E+04  0.27735083117E+03 -0.12114566343E+04  0.21848273583E+04  0.50400001928E-02 0. -1.
       -1    1    3    3    0  502 -0.17969195655E+04 -0.27735083117E+03  0.29150330133E+03  0.18414172757E+04  0.50400001928E-02 0.  1.
</event>
<event>
 5   0  0.2411746E-07  0.3703356E+04  0.7818609E-02  0.8067219E-01
        1   -1    0    0  501    0  0.00000000000E+00  0.00000000000E+00  0.10014462563E+04  0.10014462563E+04  0.50400001928E-02 0. -1.
       -1   -1    0    0    0  501  0.00000000000E+00  0.00000000000E+00 -0.34237591731E+04  0.34237591731E+04  0.50400001928E-02 0.  1.
    10030    2    1    2    0    0  0.00000000000E+00  0.00000000000E+00 -0.24223129167E+04  0.44252054294E+04  0.37033556710E+04 0.  0.
        1    1    3    3  502    0  0.10463227498E+04  0.11857421396E+04 -0.60099508598E+02  0.15825257246E+04  0.50400001928E-02 0. -1.
       -1    1    3    3    0  502 -0.10463227498E+04 -0.11857421396E+04 -0.23622134081E+04  0.28426797047E+04  0.50400001928E-02 0.  1.
</event>
<event>
 5   0  0.7074157E-07  0.3699817E+04  0.7818609E-02  0.8068002E-01
       -2   -1    0    0    0  501  0.00000000000E+00  0.00000000000E+00  0.14642556984E+04  0.14642556984E+04  0.25500000920E-02 0. -1.
        2   -1    0    0  501    0  0.00000000000E+00  0.00000000000E+00 -0.23371339151E+04  0.23371339151E+04  0.25500000920E-02 0.  1.
    10030    2    1    2    0    0  0.00000000000E+00  0.00000000000E+00 -0.87287821667E+03  0.38013896135E+04  0.36998171053E+04 0.  0.
        3    1    3    3  502    0  0.11247938229E+04 -0.13968332416E+04 -0.90261022672E+03  0.20077374033E+04  0.10100000352E+00 0.  1.
       -3    1    3    3    0  502 -0.11247938229E+04  0.13968332416E+04  0.29732010042E+02  0.17936522103E+04  0.10100000352E+00 0. -1.
</event>
<event>
 5   0  0.2287500E-07  0.3221906E+04  0.7818609E-02  0.8183056E-01
       -1   -1    0    0    0  501  0.00000000000E+00  0.00000000000E+00  0.14167423394E+04  0.14167423394E+04  0.50400001928E-02 0. -1.
        1   -1    0    0  501    0  0.00000000000E+00  0.00000000000E+00 -0.18317865979E+04  0.18317865979E+04  0.50400001928E-02 0.  1.
    10030    2    1    2    0    0  0.00000000000E+00  0.00000000000E+00 -0.41504425856E+03  0.32485289373E+04  0.32219060383E+04 0.  0.
        4    1    3    3  502    0 -0.29546999514E+03  0.52870627043E+03 -0.17126178717E+04  0.18165611539E+04  0.12699999809E+01 0.  1.
       -4    1    3    3    0  502  0.29546999514E+03 -0.52870627043E+03  0.12975736131E+04  0.14319677834E+04  0.12699999809E+01 0. -1.
</event>
<event>
 5   0  0.6949625E-07  0.3590028E+04  0.7818609E-02  0.8092780E-01
       -2   -1    0    0    0  501  0.00000000000E+00  0.00000000000E+00  0.11462159455E+04  0.11462159455E+04  0.25500000920E-02 0. -1.
        2   -1    0    0  501    0  0.00000000000E+00  0.00000000000E+00 -0.28110537322E+04  0.28110537322E+04  0.25500000920E-02 0.  1.
    10030    2    1    2    0    0  0.00000000000E+00  0.00000000000E+00 -0.16648377867E+04  0.39572696778E+04  0.35900276387E+04 0.  0.
        5    1    3    3  502    0 -0.15470582104E+04 -0.72936250498E+03 -0.14328346147E+04  0.22312319227E+04  0.46999998093E+01 0.  1.
       -5    1    3    3    0  502  0.15470582104E+04  0.72936250498E+03 -0.23200317203E+03  0.17260377550E+04  0.46999998093E+01 0. -1.
</event>
<event>
 5   0  0.2287500E-07  0.3716470E+04  0.7818609E-02  0.8064322E-01
        1   -1    0    0  501    0  0.00000000000E+00  0.00000000000E+00  0.32487924547E+04  0.32487924547E+04  0.50400001928E-02 0. -1.
       -1   -1    0    0    0  501  0.00000000000E+00  0.00000000000E+00 -0.10628679807E+04  0.10628679807E+04  0.50400001928E-02 0.  1.
    10030    2    1    2    0    0  0.00000000000E+00  0.00000000000E+00  0.21859244740E+04  0.43116604355E+04  0.37164700866E+04 0.  0.
        4    1    3    3  502    0 -0.81009428932E+03  0.15727347284E+04  0.43331903554E+03  0.18214044809E+04  0.12699999809E+01 0. -1.
       -4    1    3    3    0  502  0.81009428932E+03 -0.15727347284E+04  0.17526054385E+04  0.24902559546E+04  0.12699999809E+01 0.  1.
</event>
<event>
 5   0  0.2287500E-07  0.3642711E+04  0.7818609E-02  0.8080778E-01
        1   -1    0    0  501    0  0.00000000000E+00  0.00000000000E+00  0.27392619931E+04  0.27392619931E+04  0.50400001928E-02 0.  1.
       -1   -1    0    0    0  501  0.00000000000E+00  0.00000000000E+00 -0.12110330222E+04  0.12110330222E+04  0.50400001928E-02 0. -1.
    10030    2    1    2    0    0  0.00000000000E+00  0.00000000000E+00  0.15282289710E+04  0.39502950153E+04  0.36427114792E+04 0.  0.
        3    1    3    3  502    0 -0.56231995480E+03 -0.15132781711E+04 -0.15037109980E+03  0.16213654839E+04  0.10100000352E+00 0.  1.
       -3    1    3    3    0  502  0.56231995480E+03  0.15132781711E+04  0.16786000707E+04  0.23289295314E+04  0.10100000352E+00 0. -1.
</event>
<event>
 5   0  0.7300916E-07  0.3564948E+04  0.7818609E-02  0.8098568E-01
        2   -1    0    0  501    0  0.00000000000E+00  0.00000000000E+00  0.15640168947E+04  0.15640168947E+04  0.25500000920E-02 0. -1.
       -2   -1    0    0    0  501  0.00000000000E+00  0.00000000000E+00 -0.20314446720E+04  0.20314446720E+04  0.25500000920E-02 0.  1.
    10030    2    1    2    0    0  0.00000000000E+00  0.00000000000E+00 -0.46742777726E+03  0.35954615667E+04  0.35649481273E+04 0.  0.
        1    1    3    3  502    0  0.13508391134E+03 -0.17576956340E+04 -0.49954567384E+03  0.18322902295E+04  0.50400001928E-02 0. -1.
       -1    1    3    3    0  502 -0.13508391134E+03  0.17576956340E+04  0.32117896573E+02  0.17631713372E+04  0.50400001928E-02 0.  1.
</event>
<event>
 5   0  0.6939921E-07  0.3689746E+04  0.7818609E-02  0.8070238E-01
        2   -1    0    0  501    0  0.00000000000E+00  0.00000000000E+00  0.18530884964E+04  0.18530884964E+04  0.25500000920E-02 0.  1.
       -2   -1    0    0    0  501  0.00000000000E+00  0.00000000000E+00 -0.18366939646E+04  0.18366939646E+04  0.25500000920E-02 0. -1.
    10030    2    1    2    0    0  0.00000000000E+00  0.00000000000E+00  0.16394531789E+02  0.36897824610E+04  0.36897460386E+04 0.  0.
        4    1    3    3  502    0  0.10335100648E+04  0.14785422931E+04 -0.37823180386E+03  0.18431742394E+04  0.12699999809E+01 0. -1.
       -4    1    3    3    0  502 -0.10335100648E+04 -0.14785422931E+04  0.39462633565E+03  0.18466082216E+04  0.12699999809E+01 0.  1.
</event>
<event>
 5   0  0.7074157E-07  0.3685514E+04  0.7818609E-02  0.8071180E-01
       -2   -1    0    0    0  501  0.00000000000E+00  0.00000000000E+00  0.28955170805E+04  0.28955170805E+04  0.25500000920E-02 0.  1.
        2   -1    0    0  501    0  0.00000000000E+00  0.00000000000E+00 -0.11727625077E+04  0.11727625077E+04  0.25500000920E-02 0. -1.
    10030    2    1    2    0    0  0.00000000000E+00  0.00000000000E+00  0.17227545728E+04  0.40682795882E+04  0.36855142775E+04 0.  0.
        3    1    3    3  502    0  0.10417934330E+04  0.43834247854E+03  0.24679633106E+04  0.27144650667E+04  0.10100000352E+00 0.  1.
       -3    1    3    3    0  502 -0.10417934330E+04 -0.43834247854E+03 -0.74520873780E+03  0.13538145215E+04  0.10100000352E+00 0. -1.
</event>
<event>
 5   0  0.2287500E-07  0.3695444E+04  0.7818609E-02  0.8068972E-01
       -1   -1    0    0    0  501  0.00000000000E+00  0.00000000000E+00  0.13717644191E+04  0.13717644191E+04  0.50400001928E-02 0. -1.
        1   -1    0    0  501    0  0.00000000000E+00  0.00000000000E+00 -0.24888211969E+04  0.24888211969E+04  0.50400001928E-02 0.  1.
    10030    2    1    2    0    0  0.00000000000E+00  0.00000000000E+00 -0.11170567778E+04  0.38605856160E+04  0.36954438778E+04 0.  0.
        2    1    3    3  502    0  0.49024906083E+03  0.17573538129E+04 -0.86389157907E+03  0.20186493568E+04  0.25500000920E-02 0.  1.
       -2    1    3    3    0  502 -0.49024906083E+03 -0.17573538129E+04 -0.25316519869E+03  0.18419362592E+04  0.25500000920E-02 0. -1.
</event>
<event>
 5   0  0.2287500E-07  0.3646690E+04  0.7818609E-02  0.8079880E-01
        1   -1    0    0  501    0  0.00000000000E+00  0.00000000000E+00  0.18378243250E+04  0.18378243250E+04  0.50400001928E-02 0.  1.
       -1   -1    0    0    0  501  0.00000000000E+00  0.00000000000E+00 -0.18089794096E+04  0.18089794096E+04  0.50400001928E-02 0. -1.
    10030    2    1    2    0    0  0.00000000000E+00  0.00000000000E+00  0.28844915434E+02  0.36468037347E+04  0.36466896564E+04 0.  0.
        2    1    3    3  502    0 -0.75323862603E+02 -0.13871200031E+04 -0.11666355609E+04  0.18140601201E+04  0.25500000920E-02 0. -1.
       -2    1    3    3    0  502  0.75323862603E+02  0.13871200031E+04  0.11954804763E+04  0.18327436146E+04  0.25500000920E-02 0.  1.
</event>
<event>
 5   0  0.6949625E-07  0.3744827E+04  0.7818609E-02  0.8058100E-01
       -2   -1    0    0    0  501  0.00000000000E+00  0.00000000000E+00  0.14529913484E+04  0.14529913484E+04  0.25500000920E-02 0. -1.
        2   -1    0    0  501    0  0.00000000000E+00  0.00000000000E+00 -0.24129062668E+04  0.24129062668E+04  0.25500000920E-02 0.  1.
    10030    2    1    2    0    0  0.00000000000E+00  0.00000000000E+00 -0.95991491841E+03  0.38658976151E+04  0.37448267944E+04 0.  0.
        5    1    3    3  502    0 -0.37601313609E+03  0.16082710757E+04 -0.13905101704E+04  0.21590419995E+04  0.46999998093E+01 0.  1.
       -5    1    3    3    0  502  0.37601313609E+03 -0.16082710757E+04  0.43059525200E+03  0.17068556156E+04  0.46999998093E+01 0. -1.
</event>
<event>
 5   0  0.2411746E-07  0.3760634E+04  0.7818609E-02  0.8054656E-01
        1   -1    0    0  501    0  0.00000000000E+00  0.00000000000E+00  0.13309267670E+04  0.13309267670E+04  0.50400001928E-02 0.  1.
       -1   -1    0    0    0  501  0.00000000000E+00  0.00000000000E+00 -0.26564884027E+04  0.26564884028E+04  0.50400001928E-02 0. -1.
    10030    2    1    2    0    0  0.00000000000E+00  0.00000000000E+00 -0.13255616358E+04  0.39874151697E+04  0.37606337345E+04 0.  0.
        1    1    3    3  502    0  0.56527569358E+03  0.17815992335E+04 -0.87997261151E+03  0.20659100260E+04  0.50400001928E-02 0.  1.
       -1    1    3    3    0  502 -0.56527569358E+03 -0.17815992335E+04 -0.44558902429E+03  0.19215051437E+04  0.50400001928E-02 0. -1.
</event>
<event>
 5   0  0.7074157E-07  0.3681865E+04  0.7818609E-02  0.8071993E-01
       -2   -1    0    0    0  501  0.00000000000E+00  0.00000000000E+00  0.20560130571E+04  0.20560130571E+04  0.25500000920E-02 0.  1.
        2   -1    0    0  501    0  0.00000000000E+00  0.00000000000E+00 -0.16483518733E+04  0.16483518733E+04  0.25500000920E-02 0. -1.
    10030    2    1    2    0    0  0.00000000000E+00  0.00000000000E+00  0.40766118374E+03  0.37043649304E+04  0.36818652741E+04 0.  0.
        3    1    3    3  502    0 -0.13514601061E+04  0.31369607545E+03  0.14212594675E+04  0.19861591402E+04  0.10100000352E+00 0.  1.
       -3    1    3    3    0  502  0.13514601061E+04 -0.31369607545E+03 -0.10135982838E+04  0.17182057901E+04  0.10100000352E+00 0. -1.
</event>
<event>
 5   0  0.2287500E-07  0.3696887E+04  0.7818609E-02  0.8068652E-01
       -1   -1    0    0    0  501  0.00000000000E+00  0.00000000000E+00  0.19771607565E+04  0.19771607565E+04  0.50400001928E-02 0.  1.
        1   -1    0    0  501    0  0.00000000000E+00  0.00000000000E+00 -0.17281056506E+04  0.17281056506E+04  0.50400001928E-02 0. -1.
    10030    2    1    2    0    0  0.00000000000E+00  0.00000000000E+00  0.24905510588E+03  0.37052664071E+04  0.36968866228E+04 0.  0.
        2    1    3    3  502    0 -0.86295779772E+03  0.11435692546E+04  0.12952059125E+04  0.19313221265E+04  0.25500000920E-02 0.  1.
       -2    1    3    3    0  502  0.86295779772E+03 -0.11435692546E+04 -0.10461508066E+04  0.17739442806E+04  0.25500000920E-02 0. -1.
</event>
<event>
 5   0  0.2287500E-07  0.3681539E+04  0.7818609E-02  0.8072065E-01
        1   -1    0    0  501    0  0.00000000000E+00  0.00000000000E+00  0.22388945496E+04  0.22388945496E+04  0.50400001928E-02 0.  1.
       -1   -1    0    0    0  501  0.00000000000E+00  0.00000000000E+00 -0.15134396601E+04  0.15134396601E+04  0.50400001928E-02 0. -1.
    10030    2    1    2    0    0  0.00000000000E+00  0.00000000000E+00  0.72545488953E+03  0.37523342097E+04  0.36815387034E+04 0.  0.
        4    1    3    3  502    0 -0.22283818439E+03 -0.76964156416E+03  0.20518300429E+04  0.22027285651E+04  0.12699999809E+01 0.  1.
       -4    1    3    3    0  502  0.22283818439E+03  0.76964156416E+03 -0.13263751533E+04  0.15496056447E+04  0.12699999809E+01 0. -1.
</event>
<event>
 5   0  0.2287500E-07  0.3871074E+04  0.7818609E-02  0.8031072E-01
        3   -1    0    0  501    0  0.00000000000E+00  0.00000000000E+00  0.30061741413E+04  0.30061741430E+04  0.10100000352E+00 0.  1.
       -3   -1    0    0    0  501  0.00000000000E+00  0.00000000000E+00 -0.12462033092E+04  0.12462033133E+04  0.10100000352E+00 0. -1.
    10030    2    1    2    0    0  0.00000000000E+00  0.00000000000E+00  0.17599708322E+04  0.42523774563E+04  0.38710743600E+04 0.  0.
        1    1    3    3  502    0  0.73829080668E+03  0.10810022250E+04 -0.68616403707E+03  0.14779919524E+04  0.50400001928E-02 0. -1.
       -1    1    3    3    0  502 -0.73829080668E+03 -0.10810022250E+04  0.24461348692E+04  0.27743855039E+04  0.50400001928E-02 0.  1.
</event>
<event>
 5   0  0.6939921E-07  0.3463710E+04  0.7818609E-02  0.8122445E-01
        2   -1    0    0  501    0  0.00000000000E+00  0.00000000000E+00  0.13733349267E+04  0.13733349267E+04  0.25500000920E-02 0.  1.
       -2   -1    0    0    0  501  0.00000000000E+00  0.00000000000E+00 -0.21839691592E+04  0.21839691592E+04  0.25500000920E-02 0. -1.
    10030    2    1    2    0    0  0.00000000000E+00  0.00000000000E+00 -0.81063423253E+03  0.35573040859E+04  0.34637096444E+04 0.  0.
        4    1    3    3  502    0  0.99906289482E+03  0.54288720941E+03 -0.17469335617E+04  0.20843780060E+04  0.12699999809E+01 0. -1.
       -4    1    3    3    0  502 -0.99906289482E+03 -0.54288720941E+03  0.93629932921E+03  0.14729260799E+04  0.12699999809E+01 0.  1.
</event>
<event>
 5   0  0.2345471E-07  0.3642208E+04  0.7818609E-02  0.8080891E-01
        1   -1    0    0  501    0  0.00000000000E+00  0.00000000000E+00  0.16633379319E+04  0.16633379320E+04  0.50400001928E-02 0.  1.
       -1   -1    0    0    0  501  0.00000000000E+00  0.00000000000E+00 -0.19938340236E+04  0.19938340236E+04  0.50400001928E-02 0. -1.
    10030    2    1    2    0    0  0.00000000000E+00  0.00000000000E+00 -0.33049609168E+03  0.36571719556E+04  0.36422079905E+04 0.  0.
        5    1    3    3  502    0  0.22784215398E+03  0.81518695891E+03 -0.17843105844E+04  0.19748995358E+04  0.46999998093E+01 0. -1.
       -5    1    3    3    0  502 -0.22784215398E+03 -0.81518695891E+03  0.14538144927E+04  0.16822724198E+04  0.46999998093E+01 0.  1.
</event>
<event>
 5   0  0.7124627E-07  0.3702027E+04  0.7818609E-02  0.8067513E-01
        2   -1    0    0  501    0  0.00000000000E+00  0.00000000000E+00  0.24691247012E+04  0.24691247012E+04  0.25500000920E-02 0.  1.
       -2   -1    0    0    0  501  0.00000000000E+00  0.00000000000E+00 -0.13876377905E+04  0.13876377905E+04  0.25500000920E-02 0. -1.
    10030    2    1    2    0    0  0.00000000000E+00  0.00000000000E+00  0.10814869107E+04  0.38567624917E+04  0.37020268745E+04 0.  0.
        2    1    3    3  502    0  0.38056028031E+02 -0.97836293777E+03 -0.10957770514E+04  0.14694793791E+04  0.25500000920E-02 0. -1.
       -2    1    3    3    0  502 -0.38056028031E+02  0.97836293777E+03  0.21772639620E+04  0.23872831126E+04  0.25500000920E-02 0.  1.
</event>
<event>
 5   0  0.2287500E-07  0.3510552E+04  0.7818609E-02  0.8111294E-01
       -1   -1    0    0    0  501  0.00000000000E+00  0.00000000000E+00  0.11368577279E+04  0.11368577279E+04  0.50400001928E-02 0. -1.
        1   -1    0    0  501    0  0.00000000000E+00  0.00000000000E+00 -0.27100969790E+04  0.27100969790E+04  0.50400001928E-02 0.  1.
    10030    2    1    2    0    0  0.00000000000E+00  0.00000000000E+00 -0.15732392511E+04  0.38469547069E+04  0.35105524886E+04 0.  0.
        2    1    3    3  502    0 -0.42986250657E+03  0.46081755950E+03 -0.25818555852E+04  0.26576517568E+04  0.25500000920E-02 0.  1.
       -2    1    3    3    0  502  0.42986250657E+03 -0.46081755950E+03  0.10086163340E+04  0.11893029501E+04  0.25500000920E-02 0. -1.
</event>
<event>
 5   0  0.2411746E-07  0.2644774E+04  0.7818609E-02  0.8353150E-01
       -1   -1    0    0    0  501  0.00000000000E+00  0.00000000000E+00  0.11290383987E+04  0.11290383988E+04  0.50400001928E-02 0.  1.
        1   -1    0    0  501    0  0.00000000000E+00  0.00000000000E+00 -0.15488461122E+04  0.15488461123E+04  0.50400001928E-02 0. -1.
    10030    2    1    2    0    0  0.00000000000E+00  0.00000000000E+00 -0.41980771351E+03  0.26778845110E+04  0.26447735135E+04 0.  0.
        1    1    3    3  502    0  0.11619397210E+04 -0.21663769403E+03  0.39053887269E+03  0.12448117998E+04  0.50400001928E-02 0.  1.
       -1    1    3    3    0  502 -0.11619397210E+04  0.21663769403E+03 -0.81034658620E+03  0.14330727112E+04  0.50400001928E-02 0. -1.
</event>
<event>
 5   0  0.7124627E-07  0.3714117E+04  0.7818609E-02  0.8064840E-01
       -2   -1    0    0    0  501  0.00000000000E+00  0.00000000000E+00  0.16919354369E+04  0.16919354369E+04  0.25500000920E-02 0. -1.
        2   -1    0    0  501    0  0.00000000000E+00  0.00000000000E+00 -0.20382968491E+04  0.20382968491E+04  0.25500000920E-02 0.  1.
    10030    2    1    2    0    0  0.00000000000E+00  0.00000000000E+00 -0.34636141222E+03  0.37302322860E+04  0.37141172141E+04 0.  0.
        2    1    3    3  502    0  0.88290957938E+03  0.55823403444E+03  0.13689004742E+04  0.17219300424E+04  0.25500000920E-02 0. -1.
       -2    1    3    3    0  502 -0.88290957938E+03 -0.55823403444E+03 -0.17152618865E+04  0.20083022436E+04  0.25500000920E-02 0.  1.
</event>
<event>
 5   0  0.6939921E-07  0.4042426E+04  0.7818609E-02  0.7996042E-01
       -2   -1    0    0    0  501  0.00000000000E+00  0.00000000000E+00  0.13551664150E+04  0.13551664150E+04  0.25500000920E-02 0.  1.
        2   -1    0    0  501    0  0.00000000000E+00  0.00000000000E+00 -0.30146122276E+04  0.30146122276E+04  0.25500000920E-02 0. -1.
    10030    2    1    2    0    0  0.00000000000E+00  0.00000000000E+00 -0.16594458126E+04  0.43697786426E+04  0.40424256307E+04 0.  0.
        4    1    3    3  502    0 -0.60461635260E+03  0.17943996106E+03  0.12460783419E+04  0.13965931693E+04  0.12699999809E+01 0.  1.
       -4    1    3    3    0  502  0.60461635260E+03 -0.17943996106E+03 -0.29055241545E+04  0.29731854733E+04  0.12699999809E+01 0. -1.
</event>
<event>
 5   0  0.2287500E-07  0.3725582E+04  0.7818609E-02  0.8062316E-01
       -1   -1    0    0    0  501  0.00000000000E+00  0.00000000000E+00  0.25658438366E+04  0.25658438366E+04  0.50400001928E-02 0. -1.
        1   -1    0    0  501    0  0.00000000000E+00  0.00000000000E+00 -0.13523777314E+04  0.13523777314E+04  0.50400001928E-02 0.  1.
    10030    2    1    2    0    0  0.00000000000E+00  0.00000000000E+00  0.12134661051E+04  0.39182215680E+04  0.37255818697E+04 0.  0.
        2    1    3    3  502    0 -0.53090171025E+03 -0.12777274669E+04 -0.70497233773E+03  0.15528780064E+04  0.25500000920E-02 0.  1.
       -2    1    3    3    0  502  0.53090171025E+03  0.12777274669E+04  0.19184384429E+04  0.23653435617E+04  0.25500000920E-02 0. -1.
</event>
<event>
 5   0  0.2411746E-07  0.3678271E+04  0.7818609E-02  0.8072794E-01
        1   -1    0    0  501    0  0.00000000000E+00  0.00000000000E+00  0.17274749085E+04  0.17274749085E+04  0.50400001928E-02 0.  1.
       -1   -1    0    0    0  501  0.00000000000E+00  0.00000000000E+00 -0.19580133259E+04  0.19580133259E+04  0.50400001928E-02 0. -1.
    10030    2    1    2    0    0  0.00000000000E+00  0.00000000000E+00 -0.23053841748E+03  0.36854882344E+04  0.36782707301E+04 0.  0.
        1    1    3    3  502    0 -0.45248752251E+03 -0.17445591851E+04  0.25176526300E+03  0.18197850027E+04  0.50400001928E-02 0. -1.
       -1    1    3    3    0  502  0.45248752251E+03  0.17445591851E+04 -0.48230368048E+03  0.18657032317E+04  0.50400001928E-02 0.  1.
</event>
<event>
 5   0  0.2287500E-07  0.3593655E+04  0.7818609E-02  0.8091947E-01
        1   -1    0    0  501    0  0.00000000000E+00  0.00000000000E+00  0.20835917098E+04  0.20835917098E+04  0.50400001928E-02 0.  1.
       -1   -1    0    0    0  501  0.00000000000E+00  0.00000000000E+00 -0.15495309835E+04  0.15495309835E+04  0.50400001928E-02 0. -1.
    10030    2    1    2    0    0  0.00000000000E+00  0.00000000000E+00  0.53406072634E+03  0.36331226933E+04  0.35936554711E+04 0.  0.
        4    1    3    3  502    0 -0.68953520089E+03 -0.71011312881E+02 -0.14089111440E+04  0.15702017783E+04  0.12699999809E+01 0. -1.
       -4    1    3    3    0  502  0.68953520089E+03  0.71011312881E+02  0.19429718704E+04  0.20629209150E+04  0.12699999809E+01 0.  1.
</event>
<event>
 5   0  0.6939921E-07  0.3764246E+04  0.7818609E-02  0.8053871E-01
       -2   -1    0    0    0  501  0.00000000000E+00  0.00000000000E+00  0.17478520668E+04  0.17478520668E+04  0.25500000920E-02 0.  1.
        2   -1    0    0  501    0  0.00000000000E+00  0.00000000000E+00 -0.20267087050E+04  0.20267087050E+04  0.25500000920E-02 0. -1.
    10030    2    1    2    0    0  0.00000000000E+00  0.00000000000E+00 -0.27885663827E+03  0.37745607718E+04  0.37642460062E+04 0.  0.
        4    1    3    3  502    0 -0.10535783087E+04  0.15574348352E+03  0.14166300081E+04  0.17723220582E+04  0.12699999809E+01 0.  1.
       -4    1    3    3    0  502  0.10535783087E+04 -0.15574348352E+03 -0.16954866464E+04  0.20022387136E+04  0.12699999809E+01 0. -1.
</event>
<event>
 5   0  0.2287500E-07  0.2645517E+04  0.7818609E-02  0.8352902E-01
       -1   -1    0    0    0  501  0.00000000000E+00  0.00000000000E+00  0.12751984818E+04  0.12751984818E+04  0.50400001928E-02 0. -1.
        1   -1    0    0  501    0  0.00000000000E+00  0.00000000000E+00 -0.13720922869E+04  0.13720922869E+04  0.50400001928E-02 0.  1.
    10030    2    1    2    0    0  0.00000000000E+00  0.00000000000E+00 -0.96893805111E+02  0.26472907687E+04  0.26455169636E+04 0.  0.
        3    1    3    3  502    0  0.14114445882E+03 -0.96802985216E+03 -0.93937326229E+03  0.13562542863E+04  0.10100000352E+00 0.  1.
       -3    1    3    3    0  502 -0.14114445882E+03  0.96802985216E+03  0.84247945718E+03  0.12910364824E+04  0.10100000352E+00 0. -1.
</event>
<event>
 5   0  0.2411746E-07  0.3651518E+04  0.7818609E-02  0.8078792E-01
        1   -1    0    0  501    0  0.00000000000E+00  0.00000000000E+00  0.20548166119E+04  0.20548166119E+04  0.50400001928E-02 0.  1.
       -1   -1    0    0    0  501  0.00000000000E+00  0.00000000000E+00 -0.16222356039E+04  0.16222356039E+04  0.50400001928E-02 0. -1.
    10030    2    1    2    0    0  0.00000000000E+00  0.00000000000E+00  0.43258100792E+03  0.36770522158E+04  0.36515184060E+04 0.  0.
        1    1    3    3  502    0 -0.15240334515E+03 -0.13616681232E+04  0.14313888683E+04  0.19814744383E+04  0.50400001928E-02 0.  1.
       -1    1    3    3    0  502  0.15240334515E+03  0.13616681232E+04 -0.99880786040E+03  0.16955777775E+04  0.50400001928E-02 0. -1.
</event>
<event>
 5   0  0.2411746E-07  0.3478038E+04  0.7818609E-02  0.8119015E-01
        1   -1    0    0  501    0  0.00000000000E+00  0.00000000000E+00  0.10923355969E+04  0.10923355970E+04  0.50400001928E-02 0. -1.
       -1   -1    0    0    0  501  0.00000000000E+00  0.00000000000E+00 -0.27685506681E+04  0.27685506681E+04  0.50400001928E-02 0.  1.
    10030    2    1    2    0    0  0.00000000000E+00  0.00000000000E+00 -0.16762150711E+04  0.38608862650E+04  0.34780376345E+04 0.  0.
        1    1    3    3  502    0 -0.51325589710E+03  0.92765288083E+03  0.69211325428E+03  0.12660932983E+04  0.50400001928E-02 0. -1.
       -1    1    3    3    0  502  0.51325589710E+03 -0.92765288083E+03 -0.23683283254E+04  0.25947929667E+04  0.50400001928E-02 0.  1.
</event>
<event>
 5   0  0.6939921E-07  0.3259943E+04  0.7818609E-02  0.8173163E-01
       -2   -1    0    0    0  501  0.00000000000E+00  0.00000000000E+00  0.12743066530E+04  0.12743066530E+04  0.25500000920E-02 0. -1.
        2   -1    0    0  501    0  0.00000000000E+00  0.00000000000E+00 -0.20849036991E+04  0.20849036991E+04  0.25500000920E-02 0.  1.
    10030    2    1    2    0    0  0.00000000000E+00  0.00000000000E+00 -0.81059704608E+03  0.33592103521E+04  0.32599427324E+04 0.  0.
        4    1    3    3  502    0 -0.79532375088E+03 -0.14023120930E+04 -0.65300560378E+03  0.17393783390E+04  0.12699999809E+01 0.  1.
       -4    1    3    3    0  502  0.79532375088E+03  0.14023120930E+04 -0.15759144230E+03  0.16198320130E+04  0.12699999809E+01 0. -1.
</event>
<event>
 5   0  0.7074157E-07  0.3343328E+04  0.7818609E-02  0.8151957E-01
        2   -1    0    0  501    0  0.00000000000E+00  0.00000000000E+00  0.11864369200E+04  0.11864369200E+04  0.25500000920E-02 0. -1.
       -2   -1    0    0    0  501  0.00000000000E+00  0.00000000000E+00 -0.23553388709E+04  0.23553388709E+04  0.25500000920E-02 0.  1.
    10030    2    1    2    0    0  0.00000000000E+00  0.00000000000E+00 -0.11689019509E+04  0.35417757910E+04  0.33433282792E+04 0.  0.
        3    1    3    3  502    0  0.36268638700E+03 -0.92850120704E+03  0.83714241867E+03  0.13017155396E+04  0.10100000352E+00 0. -1.
       -3    1    3    3    0  502 -0.36268638700E+03  0.92850120704E+03 -0.20060443695E+04  0.22400602513E+04  0.10100000352E+00 0.  1.
</event>
<event>
 5   0  0.6949625E-07  0.3646046E+04  0.7818609E-02  0.8080025E-01
       -2   -1    0    0    0  501  0.00000000000E+00  0.00000000000E+00  0.24098777189E+04  0.24098777189E+04  0.25500000920E-02 0.  1.
        2   -1    0    0  501    0  0.00000000000E+00  0.00000000000E+00 -0.13790794716E+04  0.13790794716E+04  0.25500000920E-02 0. -1.
    10030    2    1    2    0    0  0.00000000000E+00  0.00000000000E+00  0.10307982472E+04  0.37889571905E+04  0.36460460179E+04 0.  0.
        5    1    3    3  502    0 -0.36236023700E+03 -0.15837128786E+04  0.13748209069E+04  0.21282871139E+04  0.46999998093E+01 0.  1.
       -5    1    3    3    0  502  0.36236023700E+03  0.15837128786E+04 -0.34402265962E+03  0.16606700766E+04  0.46999998093E+01 0. -1.
</event>
<event>
 5   0  0.7074157E-07  0.3634965E+04  0.7818609E-02  0.8082529E-01
       -2   -1    0    0    0  501  0.00000000000E+00  0.00000000000E+00  0.10545976185E+04  0.10545976185E+04  0.25500000920E-02 0. -1.
        2   -1    0    0  501    0  0.00000000000E+00  0.00000000000E+00 -0.31322309135E+04  0.31322309135E+04  0.25500000920E-02 0.  1.
    10030    2    1    2    0    0  0.00000000000E+00  0.00000000000E+00 -0.20776332950E+04  0.41868285320E+04  0.36349653434E+04 0.  0.
        3    1    3    3  502    0  0.17005096171E+04 -0.44297022366E+03 -0.50438214947E+03  0.18282114045E+04  0.10100000352E+00 0. -1.
       -3    1    3    3    0  502 -0.17005096171E+04  0.44297022366E+03 -0.15732511455E+04  0.23586171274E+04  0.10100000352E+00 0.  1.
</event>
<event>
 5   0  0.2345471E-07  0.3816376E+04  0.7818609E-02  0.8042650E-01
        1   -1    0    0  501    0  0.00000000000E+00  0.00000000000E+00  0.17513399703E+04  0.17513399703E+04  0.50400001928E-02 0. -1.
       -1   -1    0    0    0  501  0.00000000000E+00  0.00000000000E+00 -0.20790828176E+04  0.20790828176E+04  0.50400001928E-02 0.  1.
    10030    2    1    2    0    0  0.00000000000E+00  0.00000000000E+00 -0.32774284725E+03  0.38304227879E+04  0.38163756838E+04 0.  0.
        5    1    3    3  502    0  0.49260373591E+03 -0.94457092002E+03 -0.17528239211E+04  0.20511670951E+04  0.46999998093E+01 0.  1.
       -5    1    3    3    0  502 -0.49260373591E+03  0.94457092002E+03  0.14250810738E+04  0.17792556928E+04  0.46999998093E+01 0. -1.
</event>
<event>
 5   0  0.6949625E-07  0.3862111E+04  0.7818609E-02  0.8032956E-01
       -2   -1    0    0    0  501  0.00000000000E+00  0.00000000000E+00  0.22299739594E+04  0.22299739594E+04  0.25500000920E-02 0.  1.
        2   -1    0    0  501    0  0.00000000000E+00  0.00000000000E+00 -0.16722053795E+04  0.16722053795E+04  0.25500000920E-02 0. -1.
    10030    2    1    2    0    0  0.00000000000E+00  0.00000000000E+00  0.55776857987E+03  0.39021793388E+04  0.38621105375E+04 0.  0.
        5    1    3    3  502    0  0.30106017554E+03 -0.91031242512E+03  0.19724746006E+04  0.21931675906E+04  0.46999998093E+01 0.  1.
       -5    1    3    3    0  502 -0.30106017554E+03  0.91031242512E+03 -0.14147060207E+04  0.17090117482E+04  0.46999998093E+01 0. -1.
</event>
<event>
 5   0  0.7124627E-07  0.3260909E+04  0.7818609E-02  0.8172914E-01
       -2   -1    0    0    0  501  0.00000000000E+00  0.00000000000E+00  0.15930813360E+04  0.15930813360E+04  0.25500000920E-02 0. -1.
        2   -1    0    0  501    0  0.00000000000E+00  0.00000000000E+00 -0.16687045356E+04  0.16687045356E+04  0.25500000920E-02 0.  1.
    10030    2    1    2    0    0  0.00000000000E+00  0.00000000000E+00 -0.75623199648E+02  0.32617858716E+04  0.32609091069E+04 0.  0.
        2    1    3    3  502    0  0.66442102477E+03 -0.14260896819E+04  0.39031629791E+03  0.16209669619E+04  0.25500000920E-02 0. -1.
       -2    1    3    3    0  502 -0.66442102477E+03  0.14260896819E+04 -0.46593949756E+03  0.16408189097E+04  0.25500000920E-02 0.  1.
</event>
<event>
 5   0  0.6949625E-07  0.3712613E+04  0.7818609E-02  0.8065172E-01
       -2   -1    0    0    0  501  0.00000000000E+00  0.00000000000E+00  0.16623463575E+04  0.16623463575E+04  0.25500000920E-02 0.  1.
        2   -1    0    0  501    0  0.00000000000E+00  0.00000000000E+00 -0.20728975299E+04  0.20728975299E+04  0.25500000920E-02 0. -1.
    10030    2    1    2    0    0  0.00000000000E+00  0.00000000000E+00 -0.41055117239E+03  0.37352438874E+04  0.37126129119E+04 0.  0.
        5    1    3    3  502    0  0.64306141935E+03 -0.17404217886E+04 -0.26268105655E+03  0.18739315406E+04  0.46999998093E+01 0.  1.
       -5    1    3    3    0  502 -0.64306141935E+03  0.17404217886E+04 -0.14787011585E+03  0.18613123468E+04  0.46999998093E+01 0. -1.
</event>
<event>
 5   0  0.2411746E-07  0.3687340E+04  0.7818609E-02  0.8070773E-01
       -1   -1    0    0    0  501  0.00000000000E+00  0.00000000000E+00  0.26663502925E+04  0.26663502925E+04  0.50400001928E-02 0. -1.
        1   -1    0    0  501    0  0.00000000000E+00  0.00000000000E+00 -0.12748206639E+04  0.12748206639E+04  0.50400001928E-02 0.  1.
    10030    2    1    2    0    0  0.00000000000E+00  0.00000000000E+00  0.13915296285E+04  0.39411709564E+04  0.36873396644E+04 0.  0.
        1    1    3    3  502    0 -0.11456934219E+04 -0.93724652234E+03 -0.47902154594E+03  0.15557975775E+04  0.50400001928E-02 0.  1.
       -1    1    3    3    0  502  0.11456934219E+04  0.93724652234E+03  0.18705511745E+04  0.23853733789E+04  0.50400001928E-02 0. -1.
</event>
<event>
 5   0  0.7124627E-07  0.3564053E+04  0.7818609E-02  0.8098776E-01
        2   -1    0    0  501    0  0.00000000000E+00  0.00000000000E+00  0.24896082735E+04  0.24896082735E+04  0.25500000920E-02 0. -1.
       -2   -1    0    0    0  501  0.00000000000E+00  0.00000000000E+00 -0.12755496885E+04  0.12755496885E+04  0.25500000920E-02 0.  1.
    10030    2    1    2    0    0  0.00000000000E+00  0.00000000000E+00  0.12140585850E+04  0.37651579620E+04  0.35640533429E+04 0.  0.
        2    1    3    3  502    0  0.52348824782E+02 -0.36019559536E+03  0.24499209938E+04  0.24768112851E+04  0.25500000920E-02 0. -1.
       -2    1    3    3    0  502 -0.52348824782E+02  0.36019559536E+03 -0.12358624088E+04  0.12883466769E+04  0.25500000920E-02 0.  1.
</event>
<event>
 5   0  0.2345471E-07  0.2667206E+04  0.7818609E-02  0.8345724E-01
       -1   -1    0    0    0  501  0.00000000000E+00  0.00000000000E+00  0.80636155001E+03  0.80636155003E+03  0.50400001928E-02 0. -1.
        1   -1    0    0  501    0  0.00000000000E+00  0.00000000000E+00 -0.22055832810E+04  0.22055832811E+04  0.50400001928E-02 0.  1.
    10030    2    1    2    0    0  0.00000000000E+00  0.00000000000E+00 -0.13992217310E+04  0.30119448311E+04  0.26672064436E+04 0.  0.
        5    1    3    3  502    0  0.15364339029E+02  0.12710062498E+04 -0.11552219232E+04  0.17176299752E+04  0.46999998093E+01 0.  1.
       -5    1    3    3    0  502 -0.15364339029E+02 -0.12710062498E+04 -0.24399980786E+03  0.12943148559E+04  0.46999998093E+01 0. -1.
</event>
<event>
 5   0  0.2287500E-07  0.3806713E+04  0.7818609E-02  0.8044716E-01
       -1   -1    0    0    0  501  0.00000000000E+00  0.00000000000E+00  0.24700531501E+04  0.24700531501E+04  0.50400001928E-02 0. -1.
        1   -1    0    0  501    0  0.00000000000E+00  0.00000000000E+00 -0.14666750905E+04  0.14666750905E+04  0.50400001928E-02 0.  1.
    10030    2    1    2    0    0  0.00000000000E+00  0.00000000000E+00  0.10033780597E+04  0.39367282406E+04  0.38067127170E+04 0.  0.
        3    1    3    3  502    0  0.11529979297E+04  0.12715597304E+04 -0.34889707575E+03  0.17515700253E+04  0.10100000352E+00 0.  1.
       -3    1    3    3    0  502 -0.11529979297E+04 -0.12715597304E+04  0.13522751354E+04  0.21851582153E+04  0.10100000352E+00 0. -1.
</event>
<event>
 5   0  0.6939921E-07  0.3636167E+04  0.7818609E-02  0.8082257E-01
        2   -1    0    0  501    0  0.00000000000E+00  0.00000000000E+00  0.32668330500E+04  0.32668330500E+04  0.25500000920E-02 0. -1.
       -2   -1    0    0    0  501  0.00000000000E+00  0.00000000000E+00 -0.10118140141E+04  0.10118140141E+04  0.25500000920E-02 0.  1.
    10030    2    1    2    0    0  0.00000000000E+00  0.00000000000E+00  0.22550190359E+04  0.42786470641E+04  0.36361669168E+04 0.  0.
        4    1    3    3  502    0  0.48897351462E+03  0.17353386353E+04  0.14032939278E+04  0.22846730046E+04  0.12699999809E+01 0. -1.
       -4    1    3    3    0  502 -0.48897351462E+03 -0.17353386353E+04  0.85172510804E+03  0.19939740595E+04  0.12699999809E+01 0.  1.
</event>
<event>
 5   0  0.2345471E-07  0.3687945E+04  0.7818609E-02  0.8070639E-01
        1   -1    0    0  501    0  0.00000000000E+00  0.00000000000E+00  0.22239353676E+04  0.22239353676E+04  0.50400001928E-02 0.  1.
       -1   -1    0    0    0  501  0.00000000000E+00  0.00000000000E+00 -0.15289268688E+04  0.15289268688E+04  0.50400001928E-02 0. -1.
    10030    2    1    2    0    0  0.00000000000E+00  0.00000000000E+00  0.69500849877E+03  0.37528622364E+04  0.36879449768E+04 0.  0.
        5    1    3    3  502    0 -0.73167829701E+03  0.14363744611E+04 -0.56362671546E+03  0.17076949046E+04  0.46999998093E+01 0. -1.
       -5    1    3    3    0  502  0.73167829701E+03 -0.14363744611E+04  0.12586352142E+04  0.20451673318E+04  0.46999998093E+01 0.  1.
</event>
<event>
 5   0  0.2287500E-07  0.3747092E+04  0.7818609E-02  0.8057605E-01
        1   -1    0    0  501    0  0.00000000000E+00  0.00000000000E+00  0.23807336919E+04  0.23807336920E+04  0.50400001928E-02 0.  1.
       -1   -1    0    0    0  501  0.00000000000E+00  0.00000000000E+00 -0.14744083780E+04  0.14744083780E+04  0.50400001928E-02 0. -1.
    10030    2    1    2    0    0  0.00000000000E+00  0.00000000000E+00  0.90632531399E+03  0.38551420699E+04  0.37470915127E+04 0.  0.
        4    1    3    3  502    0 -0.12460705492E+04 -0.72792129199E+03  0.16824432072E+04  0.22165689656E+04  0.12699999809E+01 0.  1.
       -4    1    3    3    0  502  0.12460705492E+04  0.72792129199E+03 -0.77611789323E+03  0.16385731043E+04  0.12699999809E+01 0. -1.
</event>
<event>
 5   0  0.2345471E-07  0.3763422E+04  0.7818609E-02  0.8054050E-01
        1   -1    0    0  501    0  0.00000000000E+00  0.00000000000E+00  0.12406640090E+04  0.12406640090E+04  0.50400001928E-02 0. -1.
       -1   -1    0    0    0  501  0.00000000000E+00  0.00000000000E+00 -0.28539847425E+04  0.28539847425E+04  0.50400001928E-02 0.  1.
    10030    2    1    2    0    0  0.00000000000E+00  0.00000000000E+00 -0.16133207335E+04  0.40946487515E+04  0.37634219282E+04 0.  0.
        5    1    3    3  502    0 -0.98880574896E+03  0.51637963091E+03  0.84211042166E+03  0.13976969574E+04  0.46999998093E+01 0. -1.
       -5    1    3    3    0  502  0.98880574896E+03 -0.51637963091E+03 -0.24554311551E+04  0.26969517941E+04  0.46999998093E+01 0.  1.
</event>
<event>
 5   0  0.7074157E-07  0.3675840E+04  0.7818609E-02  0.8073337E-01
       -2   -1    0    0    0  501  0.00000000000E+00  0.00000000000E+00  0.17250073074E+04  0.17250073074E+04  0.25500000920E-02 0. -1.
        2   -1    0    0  501    0  0.00000000000E+00  0.00000000000E+00 -0.19582236627E+04  0.19582236627E+04  0.25500000920E-02 0.  1.
    10030    2    1    2    0    0  0.00000000000E+00  0.00000000000E+00 -0.23321635527E+03  0.36832309701E+04  0.36758401095E+04 0.  0.
        3    1    3    3  502    0  0.98770191474E+03  0.13014347308E+04  0.72690549104E+03  0.17882055346E+04  0.10100000352E+00 0. -1.
       -3    1    3    3    0  502 -0.98770191474E+03 -0.13014347308E+04 -0.96012184631E+03  0.18950254354E+04  0.10100000352E+00 0.  1.
</event>
<event>
 5   0  0.2287500E-07  0.3676554E+04  0.7818609E-02  0.8073178E-01
       -1   -1    0    0    0  501  0.00000000000E+00  0.00000000000E+00  0.22765544535E+04  0.22765544535E+04  0.50400001928E-02 0. -1.
        1   -1    0    0  501    0  0.00000000000E+00  0.00000000000E+00 -0.14843754170E+04  0.14843754170E+04  0.50400001928E-02 0.  1.
    10030    2    1    2    0    0  0.00000000000E+00  0.00000000000E+00  0.79217903654E+03  0.37609298705E+04  0.36765535308E+04 0.  0.
        4    1    3    3  502    0  0.14179063214E+04 -0.46315842226E+03 -0.70294419999E+03  0.16489712616E+04  0.12699999809E+01 0.  1.
       -4    1    3    3    0  502 -0.14179063214E+04  0.46315842226E+03  0.14951232365E+04  0.21119586089E+04  0.12699999809E+01 0. -1.
</event>
<event>
 5   0  0.2287500E-07  0.3760559E+04  0.7818609E-02  0.8054672E-01
        3   -1    0    0  501    0  0.00000000000E+00  0.00000000000E+00  0.24521327051E+04  0.24521327072E+04  0.10100000352E+00 0.  1.
       -3   -1    0    0    0  501  0.00000000000E+00  0.00000000000E+00 -0.14417860614E+04  0.14417860649E+04  0.10100000352E+00 0. -1.
    10030    2    1    2    0    0  0.00000000000E+00  0.00000000000E+00  0.10103466437E+04  0.38939187722E+04  0.37605588765E+04 0.  0.
        4    1    3    3  502    0 -0.35459492236E+03  0.16197492817E+04 -0.41290553087E+03  0.17087474608E+04  0.12699999809E+01 0. -1.
       -4    1    3    3    0  502  0.35459492236E+03 -0.16197492817E+04  0.14232521746E+04  0.21851713113E+04  0.12699999809E+01 0.  1.
</event>
<event>
 5   0  0.6949625E-07  0.3619450E+04  0.7818609E-02  0.8086051E-01
       -2   -1    0    0    0  501  0.00000000000E+00  0.00000000000E+00  0.13481271861E+04  0.13481271862E+04  0.25500000920E-02 0. -1.
        2   -1    0    0  501    0  0.00000000000E+00  0.00000000000E+00 -0.24293732964E+04  0.24293732964E+04  0.25500000920E-02 0.  1.
    10030    2    1    2    0    0  0.00000000000E+00  0.00000000000E+00 -0.10812461103E+04  0.37775004826E+04  0.36194497848E+04 0.  0.
        5    1    3    3  502    0  0.23442270897E+03 -0.20652328319E+03 -0.24010093329E+04  0.24212545880E+04  0.46999998093E+01 0.  1.
       -5    1    3    3    0  502 -0.23442270897E+03  0.20652328319E+03  0.13197632226E+04  0.13562458946E+04  0.46999998093E+01 0. -1.
</event>
<event>
 5   0  0.2345471E-07  0.3756335E+04  0.7818609E-02  0.8055591E-01
        1   -1    0    0  501    0  0.00000000000E+00  0.00000000000E+00  0.19033392214E+04  0.19033392214E+04  0.50400001928E-02 0.  1.
       -1   -1    0    0    0  501  0.00000000000E+00  0.00000000000E+00 -0.18533291318E+04  0.18533291318E+04  0.50400001928E-02 0. -1.
    10030    2    1    2    0    0  0.00000000000E+00  0.00000000000E+00  0.50010089620E+02  0.37566683531E+04  0.37563354624E+04 0.  0.
        5    1    3    3  502    0  0.99505215371E+03 -0.18210234767E+02  0.16179523837E+04  0.18995400515E+04  0.46999998093E+01 0.  1.
       -5    1    3    3    0  502 -0.99505215371E+03  0.18210234767E+02 -0.15679422941E+04  0.18571283017E+04  0.46999998093E+01 0. -1.
</event>
<event>
 5   0  0.6939921E-07  0.3685946E+04  0.7818609E-02  0.8071083E-01
        2   -1    0    0  501    0  0.00000000000E+00  0.00000000000E+00  0.15154434863E+04  0.15154434863E+04  0.25500000920E-02 0.  1.
       -2   -1    0    0    0  501  0.00000000000E+00  0.00000000000E+00 -0.22412909293E+04  0.22412909293E+04  0.25500000920E-02 0. -1.
    10030    2    1    2    0    0  0.00000000000E+00  0.00000000000E+00 -0.72584744302E+03  0.37567344156E+04  0.36859461416E+04 0.  0.
        4    1    3    3  502    0 -0.63508279326E+03  0.16856295945E+04  0.34266647704E+02  0.18016251276E+04  0.12699999809E+01 0.  1.
       -4    1    3    3    0  502  0.63508279326E+03 -0.16856295945E+04 -0.76011409072E+03  0.19551092880E+04  0.12699999809E+01 0. -1.
</event>
<event>
 5   0  0.2287500E-07  0.2895118E+04  0.7818609E-02  0.8274331E-01
       -1   -1    0    0    0  501  0.00000000000E+00  0.00000000000E+00  0.13814993661E+04  0.13814993661E+04  0.50400001928E-02 0. -1.
        1   -1    0    0  501    0  0.00000000000E+00  0.00000000000E+00 -0.15167776016E+04  0.15167776016E+04  0.50400001928E-02 0.  1.
    10030    2    1    2    0    0  0.00000000000E+00  0.00000000000E+00 -0.13527823549E+03  0.28982769677E+04  0.28951181635E+04 0.  0.
        4    1    3    3  502    0  0.10675624327E+03  0.46636798880E+03  0.13000614974E+04  0.13853005112E+04  0.12699999809E+01 0. -1.
       -4    1    3    3    0  502 -0.10675624327E+03 -0.46636798880E+03 -0.14353397329E+04  0.15129764565E+04  0.12699999809E+01 0.  1.
</event>
<event>
 5   0  0.2287500E-07  0.3544409E+04  0.7818609E-02  0.8103346E-01
       -1   -1    0    0    0  501  0.00000000000E+00  0.00000000000E+00  0.19010116547E+04  0.19010116547E+04  0.50400001928E-02 0.  1.
        1   -1    0    0  501    0  0.00000000000E+00  0.00000000000E+00 -0.16521245512E+04  0.16521245512E+04  0.50400001928E-02 0. -1.
    10030    2    1    2    0    0  0.00000000000E+00  0.00000000000E+00  0.24888710343E+03  0.35531362059E+04  0.35444085695E+04 0.  0.
        2    1    3    3  502    0  0.17249144617E+04 -0.17900300718E+03 -0.24160767870E+03  0.17509272535E+04  0.25500000920E-02 0. -1.
       -2    1    3    3    0  502 -0.17249144617E+04  0.17900300718E+03  0.49049478213E+03  0.18022089524E+04  0.25500000920E-02 0.  1.
</event>
<event>
 5   0  0.2287500E-07  0.3530148E+04  0.7818609E-02  0.8106682E-01
        1   -1    0    0  501    0  0.00000000000E+00  0.00000000000E+00  0.18337991581E+04  0.18337991581E+04  0.50400001928E-02 0. -1.
       -1   -1    0    0    0  501  0.00000000000E+00  0.00000000000E+00 -0.16989246529E+04  0.16989246529E+04  0.50400001928E-02 0.  1.
    10030    2    1    2    0    0  0.00000000000E+00  0.00000000000E+00  0.13487450517E+03  0.35327238110E+04  0.35301482112E+04 0.  0.
        3    1    3    3  502    0 -0.51113811080E+03 -0.16326437328E+04 -0.36727450453E+03  0.17497652124E+04  0.10100000352E+00 0.  1.
       -3    1    3    3    0  502  0.51113811080E+03  0.16326437328E+04  0.50214900970E+03  0.17829585987E+04  0.10100000352E+00 0. -1.
</event>
<event>
 5   0  0.7074157E-07  0.3300497E+04  0.7818609E-02  0.8162769E-01
       -2   -1    0    0    0  501  0.00000000000E+00  0.00000000000E+00  0.11605688627E+04  0.11605688627E+04  0.25500000920E-02 0.  1.
        2   -1    0    0  501    0  0.00000000000E+00  0.00000000000E+00 -0.23465387878E+04  0.23465387878E+04  0.25500000920E-02 0. -1.
    10030    2    1    2    0    0  0.00000000000E+00  0.00000000000E+00 -0.11859699251E+04  0.35071076506E+04  0.33004968428E+04 0.  0.
        3    1    3    3  502    0  0.45176310107E+03 -0.15783527799E+04 -0.77089492330E+03  0.18137161824E+04  0.10100000352E+00 0. -1.
       -3    1    3    3    0  502 -0.45176310107E+03  0.15783527799E+04 -0.41507500181E+03  0.16933914682E+04  0.10100000352E+00 0.  1.
</event>
<event>
 5   0  0.2287500E-07  0.3704687E+04  0.7818609E-02  0.8066924E-01
       -1   -1    0    0    0  501  0.00000000000E+00  0.00000000000E+00  0.22340657248E+04  0.22340657248E+04  0.50400001928E-02 0.  1.
        1   -1    0    0  501    0  0.00000000000E+00  0.00000000000E+00 -0.15358443800E+04  0.15358443800E+04  0.50400001928E-02 0. -1.
    10030    2    1    2    0    0  0.00000000000E+00  0.00000000000E+00  0.69822134484E+03  0.37699101048E+04  0.37046874567E+04 0.  0.
        2    1    3    3  502    0 -0.12294164014E+04  0.11980454789E+04  0.10573520907E+04  0.20161277493E+04  0.25500000920E-02 0.  1.
       -2    1    3    3    0  502  0.12294164014E+04 -0.11980454789E+04 -0.35913074586E+03  0.17537823555E+04  0.25500000920E-02 0. -1.
</event>
<event>
 5   0  0.2287500E-07  0.2973813E+04  0.7818609E-02  0.8251248E-01
        1   -1    0    0  501    0  0.00000000000E+00  0.00000000000E+00  0.15983063373E+04  0.15983063373E+04  0.50400001928E-02 0.  1.
       -1   -1    0    0    0  501  0.00000000000E+00  0.00000000000E+00 -0.13832715094E+04  0.13832715094E+04  0.50400001928E-02 0. -1.
    10030    2    1    2    0    0  0.00000000000E+00  0.00000000000E+00  0.21503482796E+03  0.29815778467E+04  0.29738134573E+04 0.  0.
        2    1    3    3  502    0  0.13814280308E+04 -0.31739140855E+03 -0.34288919037E+03  0.14583050804E+04  0.25500000920E-02 0. -1.
       -2    1    3    3    0  502 -0.13814280308E+04  0.31739140855E+03  0.55792401834E+03  0.15232727664E+04  0.25500000920E-02 0.  1.
</event>
<event>
 5   0  0.6949625E-07  0.3721534E+04  0.7818609E-02  0.8063206E-01
       -2   -1    0    0    0  501  0.00000000000E+00  0.00000000000E+00  0.12809922518E+04  0.12809922518E+04  0.25500000920E-02 0. -1.
        2   -1    0    0  501    0  0.00000000000E+00  0.00000000000E+00 -0.27029462165E+04  0.27029462165E+04  0.25500000920E-02 0.  1.
    10030    2    1    2    0    0  0.00000000000E+00  0.00000000000E+00 -0.14219539647E+04  0.39839384683E+04  0.37215336410E+04 0.  0.
        5    1    3    3  502    0  0.62462126658E+03  0.13900936225E+04  0.43197420060E+03  0.15840251911E+04  0.46999998093E+01 0. -1.
       -5    1    3    3    0  502 -0.62462126658E+03 -0.13900936225E+04 -0.18539281653E+04  0.23999132772E+04  0.46999998093E+01 0.  1.
</event>
<event>
 5   0  0.6939921E-07  0.3693260E+04  0.7818609E-02  0.8069457E-01
        2   -1    0    0  501    0  0.00000000000E+00  0.00000000000E+00  0.12832512551E+04  0.12832512551E+04  0.25500000920E-02 0.  1.
       -2   -1    0    0    0  501  0.00000000000E+00  0.00000000000E+00 -0.26573458788E+04  0.26573458788E+04  0.25500000920E-02 0. -1.
    10030    2    1    2    0    0  0.00000000000E+00  0.00000000000E+00 -0.13740946237E+04  0.39405971339E+04  0.36932600418E+04 0.  0.
        4    1    3    3  502    0  0.83755332074E+03  0.78593061730E+03  0.85576981933E+03  0.14323149433E+04  0.12699999809E+01 0.  1.
       -4    1    3    3    0  502 -0.83755332074E+03 -0.78593061730E+03 -0.22298644430E+04  0.25082821906E+04  0.12699999809E+01 0. -1.
</event>
<event>
 5   0  0.2287500E-07  0.3634306E+04  0.7818609E-02  0.8082678E-01
       -1   -1    0    0    0  501  0.00000000000E+00  0.00000000000E+00  0.14643531112E+04  0.14643531112E+04  0.50400001928E-02 0. -1.
        1   -1    0    0  501    0  0.00000000000E+00  0.00000000000E+00 -0.22549508158E+04  0.22549508158E+04  0.50400001928E-02 0.  1.
    10030    2    1    2    0    0  0.00000000000E+00  0.00000000000E+00 -0.79059770455E+03  0.37193039270E+04  0.36343055693E+04 0.  0.
        2    1    3    3  502    0  0.59477687848E+03 -0.47302357783E+02 -0.21518470827E+04  0.22330344636E+04  0.25500000920E-02 0.  1.
       -2    1    3    3    0  502 -0.59477687848E+03  0.47302357783E+02  0.13612493782E+04  0.14862694634E+04  0.25500000920E-02 0. -1.
</event>
<event>
 5   0  0.2287500E-07  0.3739879E+04  0.7818609E-02  0.8059181E-01
        1   -1    0    0  501    0  0.00000000000E+00  0.00000000000E+00  0.17020044438E+04  0.17020044438E+04  0.50400001928E-02 0. -1.
       -1   -1    0    0    0  501  0.00000000000E+00  0.00000000000E+00 -0.20544445757E+04  0.20544445757E+04  0.50400001928E-02 0.  1.
    10030    2    1    2    0    0  0.00000000000E+00  0.00000000000E+00 -0.35244013187E+03  0.37564490195E+04  0.37398790340E+04 0.  0.
        3    1    3    3  502    0 -0.29384067951E+03  0.93256890631E+02 -0.20287437703E+04  0.20520332571E+04  0.10100000352E+00 0.  1.
       -3    1    3    3    0  502  0.29384067951E+03 -0.93256890631E+02  0.16763036384E+04  0.17044157624E+04  0.10100000352E+00 0. -1.
</event>
<event>
 5   0  0.2287500E-07  0.3719737E+04  0.7818609E-02  0.8063602E-01
        1   -1    0    0  501    0  0.00000000000E+00  0.00000000000E+00  0.15172652637E+04  0.15172652637E+04  0.50400001928E-02 0. -1.
       -1   -1    0    0    0  501  0.00000000000E+00  0.00000000000E+00 -0.22798331864E+04  0.22798331864E+04  0.50400001928E-02 0.  1.
    10030    2    1    2    0    0  0.00000000000E+00  0.00000000000E+00 -0.76256792270E+03  0.37970984500E+04  0.37197374642E+04 0.  0.
        3    1    3    3  502    0  0.30860307467E+03 -0.70572106170E+03  0.13468008577E+04  0.15514994795E+04  0.10100000352E+00 0. -1.
       -3    1    3    3    0  502 -0.30860307467E+03  0.70572106170E+03 -0.21093687804E+04  0.22455989705E+04  0.10100000352E+00 0.  1.
</event>
<event>
 5   0  0.7124627E-07  0.3246570E+04  0.7818609E-02  0.8176625E-01
       -2   -1    0    0    0  501  0.00000000000E+00  0.00000000000E+00  0.14566991118E+04  0.14566991118E+04  0.25500000920E-02 0.  1.
        2   -1    0    0  501    0  0.00000000000E+00  0.00000000000E+00 -0.18089214847E+04  0.18089214847E+04  0.25500000920E-02 0. -1.
    10030    2    1    2    0    0  0.00000000000E+00  0.00000000000E+00 -0.35222237295E+03  0.32656205965E+04  0.32465700793E+04 0.  0.
        2    1    3    3  502    0 -0.74426667513E+03 -0.93717312382E+03  0.92705947731E+03  0.15138248321E+04  0.25500000920E-02 0.  1.
       -2    1    3    3    0  502  0.74426667513E+03  0.93717312382E+03 -0.12792818503E+04  0.17517957644E+04  0.25500000920E-02 0. -1.
</event>
<event>
 5   0  0.2411746E-07  0.3724447E+04  0.7818609E-02  0.8062566E-01
        1   -1    0    0  501    0  0.00000000000E+00  0.00000000000E+00  0.28405167096E+04  0.28405167096E+04  0.50400001928E-02 0.  1.
       -1   -1    0    0    0  501  0.00000000000E+00  0.00000000000E+00 -0.12208608447E+04  0.12208608447E+04  0.50400001928E-02 0. -1.
    10030    2    1    2    0    0  0.00000000000E+00  0.00000000000E+00  0.16196558649E+04  0.40613775543E+04  0.37244466056E+04 0.  0.
        1    1    3    3  502    0  0.40123203170E+01  0.16075778962E+04  0.18348373958E+04  0.24394571240E+04  0.50400001928E-02 0.  1.
       -1    1    3    3    0  502 -0.40123203170E+01 -0.16075778962E+04 -0.21518153091E+03  0.16219204303E+04  0.50400001928E-02 0. -1.
</event>
<event>
 5   0  0.6949625E-07  0.3637609E+04  0.7818609E-02  0.8081931E-01
        2   -1    0    0  501    0  0.00000000000E+00  0.00000000000E+00  0.16472655244E+04  0.16472655244E+04  0.25500000920E-02 0.  1.
       -2   -1    0    0    0  501  0.00000000000E+00  0.00000000000E+00 -0.20082073343E+04  0.20082073343E+04  0.25500000920E-02 0. -1.
    10030    2    1    2    0    0  0.00000000000E+00  0.00000000000E+00 -0.36094180989E+03  0.36554728587E+04  0.36376094940E+04 0.  0.
        5    1    3    3  502    0  0.16054619026E+04  0.83756352406E+03 -0.35162475871E+03  0.18446361805E+04  0.46999998093E+01 0.  1.
       -5    1    3    3    0  502 -0.16054619026E+04 -0.83756352406E+03 -0.93170511802E+01  0.18108366782E+04  0.46999998093E+01 0. -1.
</event>
<event>
 5   0  0.2287500E-07  0.3686370E+04  0.7818609E-02  0.8070989E-01
        1   -1    0    0  501    0  0.00000000000E+00  0.00000000000E+00  0.26638307922E+04  0.26638307922E+04  0.50400001928E-02 0. -1.
       -1   -1    0    0    0  501  0.00000000000E+00  0.00000000000E+00 -0.12753553348E+04  0.12753553348E+04  0.50400001928E-02 0.  1.
    10030    2    1    2    0    0  0.00000000000E+00  0.00000000000E+00  0.13884754574E+04  0.39391861269E+04  0.36863699281E+04 0.  0.
        3    1    3    3  502    0 -0.15714391883E+04  0.80102076252E+03  0.12659790949E+04  0.21711191730E+04  0.10100000352E+00 0. -1.
       -3    1    3    3    0  502  0.15714391883E+04 -0.80102076252E+03  0.12249636252E+03  0.17680669539E+04  0.10100000352E+00 0.  1.
</event>
<event>
 5   0  0.7124627E-07  0.3668344E+04  0.7818609E-02  0.8075014E-01
       -2   -1    0    0    0  501  0.00000000000E+00  0.00000000000E+00  0.13446402323E+04  0.13446402323E+04  0.25500000920E-02 0.  1.
        2   -1    0    0  501    0  0.00000000000E+00  0.00000000000E+00 -0.25019235290E+04  0.25019235290E+04  0.25500000920E-02 0. -1.
    10030    2    1    2    0    0  0.00000000000E+00  0.00000000000E+00 -0.11572832967E+04  0.38465637613E+04  0.36683440598E+04 0.  0.
        2    1    3    3  502    0  0.59651386132E+02 -0.15151636511E+04  0.50343715422E+03  0.15977259295E+04  0.25500000920E-02 0.  1.
       -2    1    3    3    0  502 -0.59651386132E+02  0.15151636511E+04 -0.16607204510E+04  0.22488378318E+04  0.25500000920E-02 0. -1.
</event>
<event>
 5   0  0.6949625E-07  0.3484549E+04  0.7818609E-02  0.8117461E-01
        2   -1    0    0  501    0  0.00000000000E+00  0.00000000000E+00  0.19385963915E+04  0.19385963915E+04  0.25500000920E-02 0. -1.
       -2   -1    0    0    0  501  0.00000000000E+00  0.00000000000E+00 -0.15658339590E+04  0.15658339590E+04  0.25500000920E-02 0.  1.
    10030    2    1    2    0    0  0.00000000000E+00  0.00000000000E+00  0.37276243254E+03  0.35044303505E+04  0.34845487872E+04 0.  0.
        5    1    3    3  502    0  0.53783588360E+03 -0.99412854922E+03 -0.11470566364E+04  0.16103788459E+04  0.46999998093E+01 0.  1.
       -5    1    3    3    0  502 -0.53783588360E+03  0.99412854922E+03  0.15198190689E+04  0.18940515047E+04  0.46999998093E+01 0. -1.
</event>
<event>
 5   0  0.2411746E-07  0.3734308E+04  0.7818609E-02  0.8060401E-01
        1   -1    0    0  501    0  0.00000000000E+00  0.00000000000E+00  0.21275836248E+04  0.21275836248E+04  0.50400001928E-02 0.  1.
       -1   -1    0    0    0  501  0.00000000000E+00  0.00000000000E+00 -0.16386022859E+04  0.16386022859E+04  0.50400001928E-02 0. -1.
    10030    2    1    2    0    0  0.00000000000E+00  0.00000000000E+00  0.48898133891E+03  0.37661859107E+04  0.37343076419E+04 0.  0.
        1    1    3    3  502    0  0.16098144390E+04  0.90546934683E+03  0.52048003000E+03  0.19189259307E+04  0.50400001928E-02 0.  1.
       -1    1    3    3    0  502 -0.16098144390E+04 -0.90546934683E+03 -0.31498691091E+02  0.18472599800E+04  0.50400001928E-02 0. -1.
</event>
<event>
 5   0  0.2287500E-07  0.3700742E+04  0.7818609E-02  0.8067797E-01
       -1   -1    0    0    0  501  0.00000000000E+00  0.00000000000E+00  0.17473201769E+04  0.17473201769E+04  0.50400001928E-02 0.  1.
        1   -1    0    0  501    0  0.00000000000E+00  0.00000000000E+00 -0.19594993248E+04  0.19594993248E+04  0.50400001928E-02 0. -1.
    10030    2    1    2    0    0  0.00000000000E+00  0.00000000000E+00 -0.21217914790E+03  0.37068195016E+04  0.37007419292E+04 0.  0.
        4    1    3    3  502    0 -0.71660572812E+03 -0.68201091845E+03  0.14601946759E+04  0.17637553025E+04  0.12699999809E+01 0.  1.
       -4    1    3    3    0  502  0.71660572812E+03  0.68201091845E+03 -0.16723738238E+04  0.19430641992E+04  0.12699999809E+01 0. -1.
</event>
<event>
 5   0  0.7074157E-07  0.3701676E+04  0.7818609E-02  0.8067591E-01
        2   -1    0    0  501    0  0.00000000000E+00  0.00000000000E+00  0.23505868310E+04  0.23505868310E+04  0.25500000920E-02 0. -1.
       -2   -1    0    0    0  501  0.00000000000E+00  0.00000000000E+00 -0.14573384485E+04  0.14573384485E+04  0.25500000920E-02 0.  1.
    10030    2    1    2    0    0  0.00000000000E+00  0.00000000000E+00  0.89324838255E+03  0.38079252795E+04  0.37016756018E+04 0.  0.
        3    1    3    3  502    0  0.66801328352E+03  0.34884625679E+03  0.21856087539E+04  0.23118869118E+04  0.10100000352E+00 0. -1.
       -3    1    3    3    0  502 -0.66801328352E+03 -0.34884625679E+03 -0.12923603714E+04  0.14960383676E+04  0.10100000352E+00 0.  1.
</event>
<event>
 5   0  0.2345471E-07  0.3626918E+04  0.7818609E-02  0.8084353E-01
        1   -1    0    0  501    0  0.00000000000E+00  0.00000000000E+00  0.16068877971E+04  0.16068877971E+04  0.50400001928E-02 0.  1.
       -1   -1    0    0    0  501  0.00000000000E+00  0.00000000000E+00 -0.20465859539E+04  0.20465859539E+04  0.50400001928E-02 0. -1.
    10030    2    1    2    0    0  0.00000000000E+00  0.00000000000E+00 -0.43969815678E+03  0.36534737510E+04  0.36269182483E+04 0.  0.
        5    1    3    3  502    0  0.24763268721E+03  0.81679820734E+03  0.13919068971E+04  0.16327609009E+04  0.46999998093E+01 0.  1.
       -5    1    3    3    0  502 -0.24763268721E+03 -0.81679820734E+03 -0.18316050539E+04  0.20207128501E+04  0.46999998093E+01 0. -1.
</event>
<event>
 5   0  0.7300916E-07  0.3531031E+04  0.7818609E-02  0.8106475E-01
       -2   -1    0    0    0  501  0.00000000000E+00  0.00000000000E+00  0.18744288632E+04  0.18744288632E+04  0.25500000920E-02 0.  1.
        2   -1    0    0  501    0  0.00000000000E+00  0.00000000000E+00 -0.16629308727E+04  0.16629308727E+04  0.25500000920E-02 0. -1.
    10030    2    1    2    0    0  0.00000000000E+00  0.00000000000E+00  0.21149799046E+03  0.35373597360E+04  0.35310313651E+04 0.  0.
        1    1    3    3  502    0  0.94277001039E+03  0.53958584557E+03 -0.12885346891E+04  0.16853159414E+04  0.50400001928E-02 0. -1.
       -1    1    3    3    0  502 -0.94277001039E+03 -0.53958584557E+03  0.15000326796E+04  0.18520437946E+04  0.50400001928E-02 0.  1.
</event>
<event>
 5   0  0.2411746E-07  0.3738021E+04  0.7818609E-02  0.8059588E-01
       -1   -1    0    0    0  501  0.00000000000E+00  0.00000000000E+00  0.16376755898E+04  0.16376755899E+04  0.50400001928E-02 0.  1.
        1   -1    0    0  501    0  0.00000000000E+00  0.00000000000E+00 -0.21330237312E+04  0.21330237312E+04  0.50400001928E-02 0. -1.
    10030    2    1    2    0    0  0.00000000000E+00  0.00000000000E+00 -0.49534814138E+03  0.37706993211E+04  0.37380213468E+04 0.  0.
        1    1    3    3  502    0  0.65111229580E+03  0.15068916386E+04  0.65374364269E+03  0.17669324782E+04  0.50400001928E-02 0.  1.
       -1    1    3    3    0  502 -0.65111229580E+03 -0.15068916386E+04 -0.11490917841E+04  0.20037668428E+04  0.50400001928E-02 0. -1.
</event>
<event>
 5   0  0.7124627E-07  0.2847448E+04  0.7818609E-02  0.8288687E-01
       -2   -1    0    0    0  501  0.00000000000E+00  0.00000000000E+00  0.11256537807E+04  0.11256537807E+04  0.25500000920E-02 0.  1.
        2   -1    0    0  501    0  0.00000000000E+00  0.00000000000E+00 -0.18007228416E+04  0.18007228416E+04  0.25500000920E-02 0. -1.
    10030    2    1    2    0    0  0.00000000000E+00  0.00000000000E+00 -0.67506906092E+03  0.29263766222E+04  0.28474483135E+04 0.  0.
        2    1    3    3  502    0  0.12475294941E+04  0.70595562432E+02  0.36378626682E+03  0.13014046335E+04  0.25500000920E-02 0.  1.
       -2    1    3    3    0  502 -0.12475294941E+04 -0.70595562432E+02 -0.10388553277E+04  0.16249719887E+04  0.25500000920E-02 0. -1.
</event>
<event>
 5   0  0.2287500E-07  0.3711987E+04  0.7818609E-02  0.8065310E-01
        1   -1    0    0  501    0  0.00000000000E+00  0.00000000000E+00  0.20117401300E+04  0.20117401300E+04  0.50400001928E-02 0.  1.
       -1   -1    0    0    0  501  0.00000000000E+00  0.00000000000E+00 -0.17123048803E+04  0.17123048803E+04  0.50400001928E-02 0. -1.
    10030    2    1    2    0    0  0.00000000000E+00  0.00000000000E+00  0.29943524967E+03  0.37240450102E+04  0.37119873073E+04 0.  0.
        3    1    3    3  502    0  0.66470779181E+03  0.15635518797E+04  0.89925994594E+03  0.19222901419E+04  0.10100000352E+00 0.  1.
       -3    1    3    3    0  502 -0.66470779181E+03 -0.15635518797E+04 -0.59982469627E+03  0.18017548683E+04  0.10100000352E+00 0. -1.
</event>
<event>
 5   0  0.6939921E-07  0.3714093E+04  0.7818609E-02  0.8064846E-01
       -2   -1    0    0    0  501  0.00000000000E+00  0.00000000000E+00  0.17766999086E+04  0.17766999086E+04  0.25500000920E-02 0.  1.
        2   -1    0    0  501    0  0.00000000000E+00  0.00000000000E+00 -0.19410266074E+04  0.19410266074E+04  0.25500000920E-02 0. -1.
    10030    2    1    2    0    0  0.00000000000E+00  0.00000000000E+00 -0.16432669886E+03  0.37177265160E+04  0.37140930500E+04 0.  0.
        4    1    3    3  502    0 -0.10615995461E+03  0.10621052844E+04 -0.16032823867E+04  0.19260980234E+04  0.12699999809E+01 0. -1.
       -4    1    3    3    0  502  0.10615995461E+03 -0.10621052844E+04  0.14389556879E+04  0.17916284926E+04  0.12699999809E+01 0.  1.
</event>
<event>
 5   0  0.7300916E-07  0.3452482E+04  0.7818609E-02  0.8125144E-01
        2   -1    0    0  501    0  0.00000000000E+00  0.00000000000E+00  0.14790514138E+04  0.14790514138E+04  0.25500000920E-02 0.  1.
       -2   -1    0    0    0  501  0.00000000000E+00  0.00000000000E+00 -0.20147428226E+04  0.20147428226E+04  0.25500000920E-02 0. -1.
    10030    2    1    2    0    0  0.00000000000E+00  0.00000000000E+00 -0.53569140887E+03  0.34937942364E+04  0.34524821333E+04 0.  0.
        1    1    3    3  502    0  0.46297983523E+03  0.85971173674E+03  0.11727238059E+04  0.15260195684E+04  0.50400001928E-02 0.  1.
       -1    1    3    3    0  502 -0.46297983523E+03 -0.85971173674E+03 -0.17084152148E+04  0.19677746680E+04  0.50400001928E-02 0. -1.
</event>
<event>
 5   0  0.2287500E-07  0.3648135E+04  0.7818609E-02  0.8079554E-01
       -1   -1    0    0    0  501  0.00000000000E+00  0.00000000000E+00  0.13316231649E+04  0.13316231649E+04  0.50400001928E-02 0. -1.
        1   -1    0    0  501    0  0.00000000000E+00  0.00000000000E+00 -0.24986216486E+04  0.24986216486E+04  0.50400001928E-02 0.  1.
    10030    2    1    2    0    0  0.00000000000E+00  0.00000000000E+00 -0.11669984837E+04  0.38302448134E+04  0.36481351222E+04 0.  0.
        3    1    3    3  502    0 -0.12053382623E+04 -0.10805949458E+04  0.29911747202E+03  0.16462068630E+04  0.10100000352E+00 0. -1.
       -3    1    3    3    0  502  0.12053382623E+04  0.10805949458E+04 -0.14661159557E+04  0.21840379505E+04  0.10100000352E+00 0.  1.
</event>
<event>
 5   0  0.2345471E-07  0.3705884E+04  0.7818609E-02  0.8066659E-01
       -1   -1    0    0    0  501  0.00000000000E+00  0.00000000000E+00  0.29780192028E+04  0.29780192028E+04  0.50400001928E-02 0. -1.
        1   -1    0    0  501    0  0.00000000000E+00  0.00000000000E+00 -0.11529116853E+04  0.11529116853E+04  0.50400001928E-02 0.  1.
    10030    2    1    2    0    0  0.00000000000E+00  0.00000000000E+00  0.18251075176E+04  0.41309308881E+04  0.37058835049E+04 0.  0.
        5    1    3    3  502    0 -0.27970290214E+03  0.34984475682E+03 -0.10916503876E+04  0.11799778498E+04  0.46999998093E+01 0.  1.
       -5    1    3    3    0  502  0.27970290214E+03 -0.34984475682E+03  0.29167579051E+04  0.29509530383E+04  0.46999998093E+01 0. -1.
</event>
<event>
 5   0  0.2287500E-07  0.3540846E+04  0.7818609E-02  0.8104178E-01
       -1   -1    0    0    0  501  0.00000000000E+00  0.00000000000E+00  0.24512358579E+04  0.24512358579E+04  0.50400001928E-02 0. -1.
        1   -1    0    0  501    0  0.00000000000E+00  0.00000000000E+00 -0.12787010256E+04  0.12787010256E+04  0.50400001928E-02 0.  1.
    10030    2    1    2    0    0  0.00000000000E+00  0.00000000000E+00  0.11725348323E+04  0.37299368835E+04  0.35408461166E+04 0.  0.
        3    1    3    3  502    0  0.10161977123E+04  0.13517099738E+04  0.34240020520E+02  0.16914343123E+04  0.10100000352E+00 0.  1.
       -3    1    3    3    0  502 -0.10161977123E+04 -0.13517099738E+04  0.11382948117E+04  0.20385025711E+04  0.10100000352E+00 0. -1.
</event>
<event>
 5   0  0.2287500E-07  0.2878040E+04  0.7818609E-02  0.8279441E-01
       -3   -1    0    0    0  501  0.00000000000E+00  0.00000000000E+00  0.14150648585E+04  0.14150648621E+04  0.10100000352E+00 0. -1.
        3   -1    0    0  501    0  0.00000000000E+00  0.00000000000E+00 -0.14633807152E+04  0.14633807187E+04  0.10100000352E+00 0.  1.
    10030    2    1    2    0    0  0.00000000000E+00  0.00000000000E+00 -0.48315856681E+02  0.28784455809E+04  0.28780400518E+04 0.  0.
        2    1    3    3  502    0 -0.13612870544E+04 -0.41300457363E+03  0.19290585930E+03  0.14355792882E+04  0.25500000920E-02 0. -1.
       -2    1    3    3    0  502  0.13612870544E+04  0.41300457363E+03 -0.24122171598E+03  0.14428662926E+04  0.25500000920E-02 0.  1.
</event>
<event>
 5   0  0.7124627E-07  0.3667033E+04  0.7818609E-02  0.8075307E-01
        2   -1    0    0  501    0  0.00000000000E+00  0.00000000000E+00  0.18660867934E+04  0.18660867934E+04  0.25500000920E-02 0. -1.
       -2   -1    0    0    0  501  0.00000000000E+00  0.00000000000E+00 -0.18015144003E+04  0.18015144003E+04  0.25500000920E-02 0.  1.
    10030    2    1    2    0    0  0.00000000000E+00  0.00000000000E+00  0.64572393133E+02  0.36676011937E+04  0.36670327135E+04 0.  0.
        2    1    3    3  502    0  0.12604857048E+04  0.55580315017E+03 -0.11778769480E+04  0.18124942644E+04  0.25500000920E-02 0.  1.
       -2    1    3    3    0  502 -0.12604857048E+04 -0.55580315017E+03  0.12424493412E+04  0.18551069293E+04  0.25500000920E-02 0. -1.
</event>
<event>
 5   0  0.2287500E-07  0.3759338E+04  0.7818609E-02  0.8054937E-01
       -1   -1    0    0    0  501  0.00000000000E+00  0.00000000000E+00  0.13583944995E+04  0.13583944995E+04  0.50400001928E-02 0.  1.
        1   -1    0    0  501    0  0.00000000000E+00  0.00000000000E+00 -0.26009795292E+04  0.26009795292E+04  0.50400001928E-02 0. -1.
    10030    2    1    2    0    0  0.00000000000E+00  0.00000000000E+00 -0.12425850297E+04  0.39593740287E+04  0.37593383917E+04 0.  0.
        3    1    3    3  502    0 -0.17830395005E+04 -0.53978038394E+03 -0.35785609850E+03  0.18970117872E+04  0.10100000352E+00 0.  1.
       -3    1    3    3    0  502  0.17830395005E+04  0.53978038394E+03 -0.88472893119E+03  0.20623622415E+04  0.10100000352E+00 0. -1.
</event>
<event>
 5   0  0.7300916E-07  0.3432044E+04  0.7818609E-02  0.8130086E-01
       -2   -1    0    0    0  501  0.00000000000E+00  0.00000000000E+00  0.15946188248E+04  0.15946188248E+04  0.25500000920E-02 0. -1.
        2   -1    0    0  501    0  0.00000000000E+00  0.00000000000E+00 -0.18466677123E+04  0.18466677123E+04  0.25500000920E-02 0.  1.
    10030    2    1    2    0    0  0.00000000000E+00  0.00000000000E+00 -0.25204888747E+03  0.34412865371E+04  0.34320437627E+04 0.  0.
        1    1    3    3  502    0  0.22717325027E+02 -0.15211861743E+04  0.66996966151E+03  0.16623425643E+04  0.50400001928E-02 0. -1.
       -1    1    3    3    0  502 -0.22717325027E+02  0.15211861743E+04 -0.92201854898E+03  0.17789439728E+04  0.50400001928E-02 0.  1.
</event>
<event>
 5   0  0.6939921E-07  0.3166846E+04  0.7818609E-02  0.8197628E-01
       -2   -1    0    0    0  501  0.00000000000E+00  0.00000000000E+00  0.15181582885E+04  0.15181582885E+04  0.25500000920E-02 0.  1.
        2   -1    0    0  501    0  0.00000000000E+00  0.00000000000E+00 -0.16514937508E+04  0.16514937508E+04  0.25500000920E-02 0. -1.
    10030    2    1    2    0    0  0.00000000000E+00  0.00000000000E+00 -0.13333546225E+03  0.31696520393E+04  0.31668463343E+04 0.  0.
        4    1    3    3  502    0  0.12040609793E+04  0.34234060883E+02  0.96200374188E+03  0.15415536400E+04  0.12699999809E+01 0.  1.
       -4    1    3    3    0  502 -0.12040609793E+04 -0.34234060883E+02 -0.10953392041E+04  0.16280983993E+04  0.12699999809E+01 0. -1.
</event>
<event>
 5   0  0.2345471E-07  0.3627393E+04  0.7818609E-02  0.8084246E-01
        1   -1    0    0  501    0  0.00000000000E+00  0.00000000000E+00  0.18099102578E+04  0.18099102578E+04  0.50400001928E-02 0.  1.
       -1   -1    0    0    0  501  0.00000000000E+00  0.00000000000E+00 -0.18174905405E+04  0.18174905406E+04  0.50400001928E-02 0. -1.
    10030    2    1    2    0    0  0.00000000000E+00  0.00000000000E+00 -0.75802827401E+01  0.36274007984E+04  0.36273928780E+04 0.  0.
        5    1    3    3  502    0 -0.10558601550E+04 -0.13065011229E+04 -0.68766796250E+03  0.18151295181E+04  0.46999998093E+01 0. -1.
       -5    1    3    3    0  502  0.10558601550E+04  0.13065011229E+04  0.68008767976E+03  0.18122712802E+04  0.46999998093E+01 0.  1.
</event>
<event>
 5   0  0.7074157E-07  0.3676616E+04  0.7818609E-02  0.8073164E-01
        2   -1    0    0  501    0  0.00000000000E+00  0.00000000000E+00  0.29011224608E+04  0.29011224608E+04  0.25500000920E-02 0.  1.
       -2   -1    0    0    0  501  0.00000000000E+00  0.00000000000E+00 -0.11648515000E+04  0.11648515000E+04  0.25500000920E-02 0. -1.
    10030    2    1    2    0    0  0.00000000000E+00  0.00000000000E+00  0.17362709608E+04  0.40659739608E+04  0.36766162977E+04 0.  0.
        3    1    3    3  502    0  0.12707093196E+04  0.12307563250E+04  0.14209903924E+04  0.22690696358E+04  0.10100000352E+00 0. -1.
       -3    1    3    3    0  502 -0.12707093196E+04 -0.12307563250E+04  0.31528056845E+03  0.17969043251E+04  0.10100000352E+00 0.  1.
</event>
<event>
 5   0  0.7300916E-07  0.3606716E+04  0.7818609E-02  0.8088955E-01
       -2   -1    0    0    0  501  0.00000000000E+00  0.00000000000E+00  0.10483099383E+04  0.10483099383E+04  0.25500000920E-02 0.  1.
        2   -1    0    0  501    0  0.00000000000E+00  0.00000000000E+00 -0.31022311641E+04  0.31022311641E+04  0.25500000920E-02 0. -1.
    10030    2    1    2    0    0  0.00000000000E+00  0.00000000000E+00 -0.20539212259E+04  0.41505411024E+04  0.36067158248E+04 0.  0.
        1    1    3    3  502    0 -0.31563977033E+03  0.17755132520E+04 -0.10213244146E+04  0.20724814432E+04  0.50400001928E-02 0. -1.
       -1    1    3    3    0  502  0.31563977033E+03 -0.17755132520E+04 -0.10325968113E+04  0.20780596592E+04  0.50400001928E-02 0.  1.
</event>
<event>
 5   0  0.2287500E-07  0.3138115E+04  0.7818609E-02  0.8205355E-01
       -1   -1    0    0    0  501  0.00000000000E+00  0.00000000000E+00  0.20160169536E+04  0.20160169536E+04  0.50400001928E-02 0. -1.
        1   -1    0    0  501    0  0.00000000000E+00  0.00000000000E+00 -0.12211909772E+04  0.12211909772E+04  0.50400001928E-02 0.  1.
    10030    2    1    2    0    0  0.00000000000E+00  0.00000000000E+00  0.79482597642E+03  0.32372079308E+04  0.31381151755E+04 0.  0.
        2    1    3    3  502    0 -0.12980751026E+04  0.15624156460E+03  0.12922913462E+04  0.18383218766E+04  0.25500000920E-02 0. -1.
       -2    1    3    3    0  502  0.12980751026E+04 -0.15624156460E+03 -0.49746536981E+03  0.13988860542E+04  0.25500000920E-02 0.  1.
</event>
<event>
 5   0  0.2345471E-07  0.3694596E+04  0.7818609E-02  0.8069161E-01
        1   -1    0    0  501    0  0.00000000000E+00  0.00000000000E+00  0.16232711137E+04  0.16232711138E+04  0.50400001928E-02 0.  1.
       -1   -1    0    0    0  501  0.00000000000E+00  0.00000000000E+00 -0.21022423255E+04  0.21022423255E+04  0.50400001928E-02 0. -1.
    10030    2    1    2    0    0  0.00000000000E+00  0.00000000000E+00 -0.47897121179E+03  0.37255134393E+04  0.36945956429E+04 0.  0.
        5    1    3    3  502    0 -0.11429064696E+04  0.10508925597E+04  0.76982857813E+03  0.17329940854E+04  0.46999998093E+01 0.  1.
       -5    1    3    3    0  502  0.11429064696E+04 -0.10508925597E+04 -0.12487997899E+04  0.19925193539E+04  0.46999998093E+01 0. -1.
</event>
<event>
 5   0  0.2411746E-07  0.3731782E+04  0.7818609E-02  0.8060955E-01
       -1   -1    0    0    0  501  0.00000000000E+00  0.00000000000E+00  0.36267928020E+04  0.36267928020E+04  0.50400001928E-02 0. -1.
        1   -1    0    0  501    0  0.00000000000E+00  0.00000000000E+00 -0.95995245606E+03  0.95995245607E+03  0.50400001928E-02 0.  1.
    10030    2    1    2    0    0  0.00000000000E+00  0.00000000000E+00  0.26668403459E+04  0.45867452580E+04  0.37317816967E+04 0.  0.
        1    1    3    3  502    0 -0.76383994656E+03  0.14962049958E+04  0.33529458495E+03  0.17130392033E+04  0.50400001928E-02 0.  1.
       -1    1    3    3    0  502  0.76383994656E+03 -0.14962049958E+04  0.23315457609E+04  0.28737060547E+04  0.50400001928E-02 0. -1.
</event>
<event>
 5   0  0.6949625E-07  0.3668918E+04  0.7818609E-02  0.8074885E-01
       -2   -1    0    0    0  501  0.00000000000E+00  0.00000000000E+00  0.12946218635E+04  0.12946218635E+04  0.25500000920E-02 0.  1.
        2   -1    0    0  501    0  0.00000000000E+00  0.00000000000E+00 -0.25993999952E+04  0.25993999952E+04  0.25500000920E-02 0. -1.
    10030    2    1    2    0    0  0.00000000000E+00  0.00000000000E+00 -0.13047781317E+04  0.38940218587E+04  0.36689181326E+04 0.  0.
        5    1    3    3  502    0  0.85212205544E+03  0.83259367722E+02 -0.23743276183E+04  0.25239845184E+04  0.46999998093E+01 0. -1.
       -5    1    3    3    0  502 -0.85212205544E+03 -0.83259367722E+02  0.10695494866E+04  0.13700373404E+04  0.46999998093E+01 0.  1.
</event>
<event>
 5   0  0.7074157E-07  0.3744246E+04  0.7818609E-02  0.8058227E-01
       -2   -1    0    0    0  501  0.00000000000E+00  0.00000000000E+00  0.25844616053E+04  0.25844616053E+04  0.25500000920E-02 0. -1.
        2   -1    0    0  501    0  0.00000000000E+00  0.00000000000E+00 -0.13561216297E+04  0.13561216297E+04  0.25500000920E-02 0.  1.
    10030    2    1    2    0    0  0.00000000000E+00  0.00000000000E+00  0.12283399756E+04  0.39405832351E+04  0.37442458702E+04 0.  0.
        3    1    3    3  502    0  0.60357507514E+03 -0.15332807129E+04 -0.32101477376E+03  0.16787802450E+04  0.10100000352E+00 0.  1.
       -3    1    3    3    0  502 -0.60357507514E+03  0.15332807129E+04  0.15493547494E+04  0.22618029900E+04  0.10100000352E+00 0. -1.
</event>
<event>
 5   0  0.6939921E-07  0.3691452E+04  0.7818609E-02  0.8069859E-01
        2   -1    0    0  501    0  0.00000000000E+00  0.00000000000E+00  0.14781005409E+04  0.14781005409E+04  0.25500000920E-02 0. -1.
       -2   -1    0    0    0  501  0.00000000000E+00  0.00000000000E+00 -0.23047847657E+04  0.23047847657E+04  0.25500000920E-02 0.  1.
    10030    2    1    2    0    0  0.00000000000E+00  0.00000000000E+00 -0.82668422474E+03  0.37828853066E+04  0.36914515350E+04 0.  0.
        4    1    3    3  502    0  0.31801629092E+03  0.80836924008E+03 -0.20822082714E+04  0.22561445184E+04  0.12699999809E+01 0.  1.
       -4    1    3    3    0  502 -0.31801629092E+03 -0.80836924008E+03  0.12555240467E+04  0.15267407882E+04  0.12699999809E+01 0. -1.
</event>
<event>
 5   0  0.7074157E-07  0.3172991E+04  0.7818609E-02  0.8195987E-01
        2   -1    0    0  501    0  0.00000000000E+00  0.00000000000E+00  0.98435275563E+03  0.98435275563E+03  0.25500000920E-02 0. -1.
       -2   -1    0    0    0  501  0.00000000000E+00  0.00000000000E+00 -0.25569780797E+04  0.25569780797E+04  0.25500000920E-02 0.  1.
    10030    2    1    2    0    0  0.00000000000E+00  0.00000000000E+00 -0.15726253241E+04  0.35413308353E+04  0.31729912819E+04 0.  0.
        3    1    3    3  502    0 -0.46154645820E+03  0.14872303588E+04 -0.44762309432E+03  0.16202610031E+04  0.10100000352E+00 0. -1.
       -3    1    3    3    0  502  0.46154645820E+03 -0.14872303588E+04 -0.11250022297E+04  0.19210698323E+04  0.10100000352E+00 0.  1.
</event>
<event>
 5   0  0.2345471E-07  0.3600574E+04  0.7818609E-02  0.8090360E-01
       -1   -1    0    0    0  501  0.00000000000E+00  0.00000000000E+00  0.14744566723E+04  0.14744566723E+04  0.50400001928E-02 0.  1.
        1   -1    0    0  501    0  0.00000000000E+00  0.00000000000E+00 -0.21981204885E+04  0.21981204885E+04  0.50400001928E-02 0. -1.
    10030    2    1    2    0    0  0.00000000000E+00  0.00000000000E+00 -0.72366381623E+03  0.36725771608E+04  0.36005740769E+04 0.  0.
        5    1    3    3  502    0 -0.13165511972E+04  0.10469792077E+04  0.29250976461E+03  0.17073536741E+04  0.46999998093E+01 0.  1.
       -5    1    3    3    0  502  0.13165511972E+04 -0.10469792077E+04 -0.10161735808E+04  0.19652234867E+04  0.46999998093E+01 0. -1.
</event>
<event>
 5   0  0.2287500E-07  0.3727200E+04  0.7818609E-02  0.8061960E-01
        1   -1    0    0  501    0  0.00000000000E+00  0.00000000000E+00  0.17735794382E+04  0.17735794382E+04  0.50400001928E-02 0.  1.
       -1   -1    0    0    0  501  0.00000000000E+00  0.00000000000E+00 -0.19581900840E+04  0.19581900840E+04  0.50400001928E-02 0. -1.
    10030    2    1    2    0    0  0.00000000000E+00  0.00000000000E+00 -0.18461064581E+03  0.37317695222E+04  0.37272003805E+04 0.  0.
        4    1    3    3  502    0  0.56925046866E+03 -0.15385622304E+04  0.79296421962E+03  0.18220904751E+04  0.12699999809E+01 0.  1.
       -4    1    3    3    0  502 -0.56925046866E+03  0.15385622304E+04 -0.97757486544E+03  0.19096790472E+04  0.12699999809E+01 0. -1.
</event>
<event>
 5   0  0.2345471E-07  0.3594091E+04  0.7818609E-02  0.8091846E-01
        1   -1    0    0  501    0  0.00000000000E+00  0.00000000000E+00  0.20584154886E+04  0.20584154886E+04  0.50400001928E-02 0.  1.
       -1   -1    0    0    0  501  0.00000000000E+00  0.00000000000E+00 -0.15688636016E+04  0.15688636016E+04  0.50400001928E-02 0. -1.
    10030    2    1    2    0    0  0.00000000000E+00  0.00000000000E+00  0.48955188700E+03  0.36272790902E+04  0.35940913383E+04 0.  0.
        5    1    3    3  502    0 -0.21114600648E+03 -0.68016080372E+03  0.19099048657E+04  0.20383719094E+04  0.46999998093E+01 0.  1.
       -5    1    3    3    0  502  0.21114600648E+03  0.68016080372E+03 -0.14203529787E+04  0.15889071808E+04  0.46999998093E+01 0. -1.
</event>
<event>
 5   0  0.2287500E-07  0.3649878E+04  0.7818609E-02  0.8079161E-01
       -1   -1    0    0    0  501  0.00000000000E+00  0.00000000000E+00  0.12978951583E+04  0.12978951583E+04  0.50400001928E-02 0. -1.
        1   -1    0    0  501    0  0.00000000000E+00  0.00000000000E+00 -0.25660031896E+04  0.25660031896E+04  0.50400001928E-02 0.  1.
    10030    2    1    2    0    0  0.00000000000E+00  0.00000000000E+00 -0.12681080313E+04  0.38638983479E+04  0.36498784177E+04 0.  0.
        4    1    3    3  502    0 -0.11599393991E+04  0.51634281399E+03 -0.20217708535E+04  0.23873894337E+04  0.12699999809E+01 0.  1.
       -4    1    3    3    0  502  0.11599393991E+04 -0.51634281399E+03  0.75366282222E+03  0.14765089142E+04  0.12699999809E+01 0. -1.
</event>
<event>
 5   0  0.7074157E-07  0.3681972E+04  0.7818609E-02  0.8071969E-01
       -2   -1    0    0    0  501  0.00000000000E+00  0.00000000000E+00  0.12333915153E+04  0.12333915153E+04  0.25500000920E-02 0.  1.
        2   -1    0    0  501    0  0.00000000000E+00  0.00000000000E+00 -0.27478940256E+04  0.27478940256E+04  0.25500000920E-02 0. -1.
    10030    2    1    2    0    0  0.00000000000E+00  0.00000000000E+00 -0.15145025103E+04  0.39812855409E+04  0.36819718500E+04 0.  0.
        3    1    3    3  502    0 -0.64054774853E+03  0.10996216200E+04 -0.21957187590E+04  0.25378435736E+04  0.10100000352E+00 0. -1.
       -3    1    3    3    0  502  0.64054774853E+03 -0.10996216200E+04  0.68121624869E+03  0.14434419673E+04  0.10100000352E+00 0.  1.
</event>
<event>
 5   0  0.2287500E-07  0.3678995E+04  0.7818609E-02  0.8072633E-01
        1   -1    0    0  501    0  0.00000000000E+00  0.00000000000E+00  0.12012641929E+04  0.12012641929E+04  0.50400001928E-02 0. -1.
       -1   -1    0    0    0  501  0.00000000000E+00  0.00000000000E+00 -0.28168252661E+04  0.28168252661E+04  0.50400001928E-02 0.  1.
    10030    2    1    2    0    0  0.00000000000E+00  0.00000000000E+00 -0.16155610732E+04  0.40180894590E+04  0.36789951508E+04 0.  0.
        3    1    3    3  502    0 -0.53000866399E+03 -0.16993991223E+04 -0.30149771362E+03  0.18054826065E+04  0.10100000352E+00 0. -1.
       -3    1    3    3    0  502  0.53000866399E+03  0.16993991223E+04 -0.13140633595E+04  0.22126068525E+04  0.10100000352E+00 0.  1.
</event>
<event>
 5   0  0.6949625E-07  0.3780259E+04  0.7818609E-02  0.8050405E-01
       -2   -1    0    0    0  501  0.00000000000E+00  0.00000000000E+00  0.23285345109E+04  0.23285345109E+04  0.25500000920E-02 0.  1.
        2   -1    0    0  501    0  0.00000000000E+00  0.00000000000E+00 -0.15342651658E+04  0.15342651658E+04  0.25500000920E-02 0. -1.
    10030    2    1    2    0    0  0.00000000000E+00  0.00000000000E+00  0.79426934512E+03  0.38627996768E+04  0.37802589264E+04 0.  0.
        5    1    3    3  502    0  0.10568388371E+03  0.31052920644E+03  0.22992216287E+04  0.23225071925E+04  0.46999998093E+01 0.  1.
       -5    1    3    3    0  502 -0.10568388371E+03 -0.31052920644E+03 -0.15049522836E+04  0.15402924843E+04  0.46999998093E+01 0. -1.
</event>
<event>
 5   0  0.7074157E-07  0.3739482E+04  0.7818609E-02  0.8059268E-01
       -2   -1    0    0    0  501  0.00000000000E+00  0.00000000000E+00  0.16042662258E+04  0.16042662258E+04  0.25500000920E-02 0.  1.
        2   -1    0    0  501    0  0.00000000000E+00  0.00000000000E+00 -0.21791461724E+04  0.21791461724E+04  0.25500000920E-02 0. -1.
    10030    2    1    2    0    0  0.00000000000E+00  0.00000000000E+00 -0.57487994659E+03  0.37834123981E+04  0.37394815712E+04 0.  0.
        3    1    3    3  502    0 -0.12642232159E+04 -0.14718679098E+03  0.10983245285E+04  0.16811427873E+04  0.10100000352E+00 0.  1.
       -3    1    3    3    0  502  0.12642232159E+04  0.14718679098E+03 -0.16732044751E+04  0.21022696109E+04  0.10100000352E+00 0. -1.
</event>
<event>
 5   0  0.2287500E-07  0.3480969E+04  0.7818609E-02  0.8118315E-01
        1   -1    0    0  501    0  0.00000000000E+00  0.00000000000E+00  0.24660065772E+04  0.24660065772E+04  0.50400001928E-02 0.  1.
       -1   -1    0    0    0  501  0.00000000000E+00  0.00000000000E+00 -0.12284180698E+04  0.12284180698E+04  0.50400001928E-02 0. -1.
    10030    2    1    2    0    0  0.00000000000E+00  0.00000000000E+00  0.12375885074E+04  0.36944246470E+04  0.34809694280E+04 0.  0.
        3    1    3    3  502    0  0.39829153671E+03 -0.16816455124E+04  0.39943375598E+03  0.17737291544E+04  0.10100000352E+00 0.  1.
       -3    1    3    3    0  502 -0.39829153671E+03  0.16816455124E+04  0.83815475140E+03  0.19206954925E+04  0.10100000352E+00 0. -1.
</event>
<event>
 5   0  0.6939921E-07  0.3108734E+04  0.7818609E-02  0.8213345E-01
       -2   -1    0    0    0  501  0.00000000000E+00  0.00000000000E+00  0.75212496631E+03  0.75212496631E+03  0.25500000920E-02 0. -1.
        2   -1    0    0  501    0  0.00000000000E+00  0.00000000000E+00 -0.32123072600E+04  0.32123072600E+04  0.25500000920E-02 0.  1.
    10030    2    1    2    0    0  0.00000000000E+00  0.00000000000E+00 -0.24601822937E+04  0.39644322263E+04  0.31087338192E+04 0.  0.
        4    1    3    3  502    0  0.58837395425E+03  0.59546963644E+03  0.44009871333E+03  0.94575709796E+03  0.12699999809E+01 0. -1.
       -4    1    3    3    0  502 -0.58837395425E+03 -0.59546963644E+03 -0.29002810070E+04  0.30186751284E+04  0.12699999809E+01 0.  1.
</event>
<event>
 5   0  0.6949625E-07  0.3689016E+04  0.7818609E-02  0.8070400E-01
        2   -1    0    0  501    0  0.00000000000E+00  0.00000000000E+00  0.24590455431E+04  0.24590455431E+04  0.25500000920E-02 0. -1.
       -2   -1    0    0    0  501  0.00000000000E+00  0.00000000000E+00 -0.13835486438E+04  0.13835486438E+04  0.25500000920E-02 0.  1.
    10030    2    1    2    0    0  0.00000000000E+00  0.00000000000E+00  0.10754968993E+04  0.38425941869E+04  0.36890156553E+04 0.  0.
        5    1    3    3  502    0 -0.13275361473E+04 -0.95852474808E+03 -0.34675853663E+03  0.16737339955E+04  0.46999998093E+01 0. -1.
       -5    1    3    3    0  502  0.13275361473E+04  0.95852474808E+03  0.14222554359E+04  0.21688601914E+04  0.46999998093E+01 0.  1.
</event>
<event>
 5   0  0.2287500E-07  0.3698675E+04  0.7818609E-02  0.8068256E-01
        1   -1    0    0  501    0  0.00000000000E+00  0.00000000000E+00  0.26673038518E+04  0.26673038518E+04  0.50400001928E-02 0. -1.
       -1   -1    0    0    0  501  0.00000000000E+00  0.00000000000E+00 -0.12822117862E+04  0.12822117862E+04  0.50400001928E-02 0.  1.
    10030    2    1    2    0    0  0.00000000000E+00  0.00000000000E+00  0.13850920657E+04  0.39495156380E+04  0.36986745930E+04 0.  0.
        2    1    3    3  502    0 -0.15168909398E+04 -0.72905181294E+03  0.15110653112E+04  0.22618118940E+04  0.25500000920E-02 0. -1.
       -2    1    3    3    0  502  0.15168909398E+04  0.72905181294E+03 -0.12597324552E+03  0.16877037440E+04  0.25500000920E-02 0.  1.
</event>
<event>
 5   0  0.2287500E-07  0.3487160E+04  0.7818609E-02  0.8116840E-01
        1   -1    0    0  501    0  0.00000000000E+00  0.00000000000E+00  0.16891006418E+04  0.16891006418E+04  0.50400001928E-02 0.  1.
       -1   -1    0    0    0  501  0.00000000000E+00  0.00000000000E+00 -0.17998163808E+04  0.17998163808E+04  0.50400001928E-02 0. -1.
    10030    2    1    2    0    0  0.00000000000E+00  0.00000000000E+00 -0.11071573902E+03  0.34889170226E+04  0.34871598781E+04 0.  0.
        4    1    3    3  502    0  0.91100923511E+03  0.14743310670E+04 -0.24645010348E+03  0.17505225471E+04  0.12699999809E+01 0. -1.
       -4    1    3    3    0  502 -0.91100923511E+03 -0.14743310670E+04  0.13573436445E+03  0.17383944754E+04  0.12699999809E+01 0.  1.
</event>
<event>
 5   0  0.2287500E-07  0.3528272E+04  0.7818609E-02  0.8107122E-01
        1   -1    0    0  501    0  0.00000000000E+00  0.00000000000E+00  0.21699246205E+04  0.21699246205E+04  0.50400001928E-02 0. -1.
       -1   -1    0    0    0  501  0.00000000000E+00  0.00000000000E+00 -0.14342321720E+04  0.14342321720E+04  0.50400001928E-02 0.  1.
    10030    2    1    2    0    0  0.00000000000E+00  0.00000000000E+00  0.73569244856E+03  0.36041567925E+04  0.35282719292E+04 0.  0.
        3    1    3    3  502    0  0.14220710569E+04  0.77240072007E+03 -0.34960328345E+03  0.16556302212E+04  0.10100000352E+00 0.  1.
       -3    1    3    3    0  502 -0.14220710569E+04 -0.77240072007E+03  0.10852957320E+04  0.19485265714E+04  0.10100000352E+00 0. -1.
</event>
<event>
 5   0  0.2345471E-07  0.3698668E+04  0.7818609E-02  0.8068257E-01
        1   -1    0    0  501    0  0.00000000000E+00  0.00000000000E+00  0.17634524617E+04  0.17634524617E+04  0.50400001928E-02 0.  1.
       -1   -1    0    0    0  501  0.00000000000E+00  0.00000000000E+00 -0.19393985538E+04  0.19393985538E+04  0.50400001928E-02 0. -1.
    10030    2    1    2    0    0  0.00000000000E+00  0.00000000000E+00 -0.17594609207E+03  0.37028510156E+04  0.36986684923E+04 0.  0.
        5    1    3    3  502    0  0.17558938320E+04  0.49368641860E+03 -0.39348306265E+03  0.18659422392E+04  0.46999998093E+01 0. -1.
       -5    1    3    3    0  502 -0.17558938320E+04 -0.49368641860E+03  0.21753697058E+03  0.18369087764E+04  0.46999998093E+01 0.  1.
</event>
<event>
 5   0  0.7300916E-07  0.3748542E+04  0.7818609E-02  0.8057289E-01
       -2   -1    0    0    0  501  0.00000000000E+00  0.00000000000E+00  0.18904184311E+04  0.18904184311E+04  0.25500000920E-02 0. -1.
        2   -1    0    0  501    0  0.00000000000E+00  0.00000000000E+00 -0.18582616079E+04  0.18582616079E+04  0.25500000920E-02 0.  1.
    10030    2    1    2    0    0  0.00000000000E+00  0.00000000000E+00  0.32156823196E+02  0.37486800390E+04  0.37485421131E+04 0.  0.
        1    1    3    3  502    0  0.38655873058E+03  0.47459727966E+03 -0.17554894552E+04  0.18591432051E+04  0.50400001928E-02 0.  1.
       -1    1    3    3    0  502 -0.38655873058E+03 -0.47459727966E+03  0.17876462784E+04  0.18895368339E+04  0.50400001928E-02 0. -1.
</event>
<event>
 5   0  0.2411746E-07  0.3719317E+04  0.7818609E-02  0.8063694E-01
        1   -1    0    0  501    0  0.00000000000E+00  0.00000000000E+00  0.14751507584E+04  0.14751507584E+04  0.50400001928E-02 0. -1.
       -1   -1    0    0    0  501  0.00000000000E+00  0.00000000000E+00 -0.23443903937E+04  0.23443903937E+04  0.50400001928E-02 0.  1.
    10030    2    1    2    0    0  0.00000000000E+00  0.00000000000E+00 -0.86923963539E+03  0.38195411521E+04  0.37193167476E+04 0.  0.
        1    1    3    3  502    0 -0.95958866708E+03  0.13623296906E+04 -0.12824431932E+04  0.21027156583E+04  0.50400001928E-02 0.  1.
       -1    1    3    3    0  502  0.95958866708E+03 -0.13623296906E+04  0.41320355782E+03  0.17168254938E+04  0.50400001928E-02 0. -1.
</event>
<event>
 5   0  0.7300916E-07  0.3700491E+04  0.7818609E-02  0.8067853E-01
       -2   -1    0    0    0  501  0.00000000000E+00  0.00000000000E+00  0.26781152498E+04  0.26781152498E+04  0.25500000920E-02 0.  1.
        2   -1    0    0  501    0  0.00000000000E+00  0.00000000000E+00 -0.12782902031E+04  0.12782902032E+04  0.25500000920E-02 0. -1.
    10030    2    1    2    0    0  0.00000000000E+00  0.00000000000E+00  0.13998250466E+04  0.39564054529E+04  0.37004910413E+04 0.  0.
        1    1    3    3  502    0 -0.12632162116E+04  0.11433910332E+04  0.14711521078E+04  0.22510768037E+04  0.50400001928E-02 0.  1.
       -1    1    3    3    0  502  0.12632162116E+04 -0.11433910332E+04 -0.71327061161E+02  0.17053286492E+04  0.50400001928E-02 0. -1.
</event>
<event>
 5   0  0.2287500E-07  0.3665892E+04  0.7818609E-02  0.8075563E-01
        1   -1    0    0  501    0  0.00000000000E+00  0.00000000000E+00  0.29187958387E+04  0.29187958387E+04  0.50400001928E-02 0. -1.
       -1   -1    0    0    0  501  0.00000000000E+00  0.00000000000E+00 -0.11510539388E+04  0.11510539388E+04  0.50400001928E-02 0.  1.
    10030    2    1    2    0    0  0.00000000000E+00  0.00000000000E+00  0.17677418998E+04  0.40698497775E+04  0.36658922225E+04 0.  0.
        3    1    3    3  502    0  0.15784377326E+02  0.14693735069E+04  0.21002214758E+04  0.25632475314E+04  0.10100000352E+00 0. -1.
       -3    1    3    3    0  502 -0.15784377326E+02 -0.14693735069E+04 -0.33247957597E+03  0.15066022462E+04  0.10100000352E+00 0.  1.
</event>
<event>
 5   0  0.2287500E-07  0.3701283E+04  0.7818609E-02  0.8067678E-01
       -1   -1    0    0    0  501  0.00000000000E+00  0.00000000000E+00  0.30758945629E+04  0.30758945629E+04  0.50400001928E-02 0.  1.
        1   -1    0    0  501    0  0.00000000000E+00  0.00000000000E+00 -0.11134560750E+04  0.11134560750E+04  0.50400001928E-02 0. -1.
    10030    2    1    2    0    0  0.00000000000E+00  0.00000000000E+00  0.19624384879E+04  0.41893506380E+04  0.37012827437E+04 0.  0.
        2    1    3    3  502    0  0.11071474751E+04 -0.34366380696E+03  0.26140071443E+04  0.28595303276E+04  0.25500000920E-02 0.  1.
       -2    1    3    3    0  502 -0.11071474751E+04  0.34366380696E+03 -0.65156865640E+03  0.13298203104E+04  0.25500000920E-02 0. -1.
</event>
<event>
 5   0  0.2345471E-07  0.3704496E+04  0.7818609E-02  0.8066966E-01
       -1   -1    0    0    0  501  0.00000000000E+00  0.00000000000E+00  0.14500640722E+04  0.14500640722E+04  0.50400001928E-02 0. -1.
        1   -1    0    0  501    0  0.00000000000E+00  0.00000000000E+00 -0.23659803403E+04  0.23659803403E+04  0.50400001928E-02 0.  1.
    10030    2    1    2    0    0  0.00000000000E+00  0.00000000000E+00 -0.91591626812E+03  0.38160444124E+04  0.37044962340E+04 0.  0.
        5    1    3    3  502    0  0.14291535851E+04  0.18017480330E+03  0.74151735484E+03  0.16201274663E+04  0.46999998093E+01 0. -1.
       -5    1    3    3    0  502 -0.14291535851E+04 -0.18017480330E+03 -0.16574336230E+04  0.21959169461E+04  0.46999998093E+01 0.  1.
</event>
<event>
 5   0  0.6949625E-07  0.3738203E+04  0.7818609E-02  0.8059548E-01
       -2   -1    0    0    0  501  0.00000000000E+00  0.00000000000E+00  0.14021163887E+04  0.14021163887E+04  0.25500000920E-02 0. -1.
        2   -1    0    0  501    0  0.00000000000E+00  0.00000000000E+00 -0.24916190480E+04  0.24916190480E+04  0.25500000920E-02 0.  1.
    10030    2    1    2    0    0  0.00000000000E+00  0.00000000000E+00 -0.10895026593E+04  0.38937354367E+04  0.37382027240E+04 0.  0.
        5    1    3    3  502    0  0.14968142780E+04 -0.11174264088E+04 -0.61402440963E+03  0.19662509574E+04  0.46999998093E+01 0. -1.
       -5    1    3    3    0  502 -0.14968142780E+04  0.11174264088E+04 -0.47547824964E+03  0.19274844792E+04  0.46999998093E+01 0.  1.
</event>
<event>
 5   0  0.6949625E-07  0.3760181E+04  0.7818609E-02  0.8054754E-01
        2   -1    0    0  501    0  0.00000000000E+00  0.00000000000E+00  0.22474091311E+04  0.22474091311E+04  0.25500000920E-02 0. -1.
       -2   -1    0    0    0  501  0.00000000000E+00  0.00000000000E+00 -0.15728066942E+04  0.15728066942E+04  0.25500000920E-02 0.  1.
    10030    2    1    2    0    0  0.00000000000E+00  0.00000000000E+00  0.67460243689E+03  0.38202158253E+04  0.37601809138E+04 0.  0.
        5    1    3    3  502    0 -0.15686305778E+04  0.10273308418E+04  0.47626028756E+03  0.19346463500E+04  0.46999998093E+01 0.  1.
       -5    1    3    3    0  502  0.15686305778E+04 -0.10273308418E+04  0.19834214933E+03  0.18855694753E+04  0.46999998093E+01 0. -1.
</event>
<event>
 5   0  0.6949625E-07  0.3685782E+04  0.7818609E-02  0.8071120E-01
       -2   -1    0    0    0  501  0.00000000000E+00  0.00000000000E+00  0.13020407307E+04  0.13020407307E+04  0.25500000920E-02 0.  1.
        2   -1    0    0  501    0  0.00000000000E+00  0.00000000000E+00 -0.26084030958E+04  0.26084030958E+04  0.25500000920E-02 0. -1.
    10030    2    1    2    0    0  0.00000000000E+00  0.00000000000E+00 -0.13063623651E+04  0.39104438265E+04  0.36857819105E+04 0.  0.
        5    1    3    3  502    0 -0.13249194872E+04  0.12530687869E+04 -0.93514736019E+03  0.20494183828E+04  0.46999998093E+01 0. -1.
       -5    1    3    3    0  502  0.13249194872E+04 -0.12530687869E+04 -0.37121500489E+03  0.18610254437E+04  0.46999998093E+01 0.  1.
</event>
<event>
 5   0  0.2287500E-07  0.3721005E+04  0.7818609E-02  0.8063323E-01
        1   -1    0    0  501    0  0.00000000000E+00  0.00000000000E+00  0.18269606175E+04  0.18269606175E+04  0.50400001928E-02 0. -1.
       -1   -1    0    0    0  501  0.00000000000E+00  0.00000000000E+00 -0.18946602088E+04  0.18946602088E+04  0.50400001928E-02 0.  1.
    10030    2    1    2    0    0  0.00000000000E+00  0.00000000000E+00 -0.67699591360E+02  0.37216208263E+04  0.37210050175E+04 0.  0.
        4    1    3    3  502    0  0.11768397130E+04  0.28372916906E+03  0.13791876196E+04  0.18351060064E+04  0.12699999809E+01 0. -1.
       -4    1    3    3    0  502 -0.11768397130E+04 -0.28372916906E+03 -0.14468872110E+04  0.18865148199E+04  0.12699999809E+01 0.  1.
</event>
<event>
 5   0  0.7124627E-07  0.3608353E+04  0.7818609E-02  0.8088581E-01
       -2   -1    0    0    0  501  0.00000000000E+00  0.00000000000E+00  0.23680955385E+04  0.23680955385E+04  0.25500000920E-02 0. -1.
        2   -1    0    0  501    0  0.00000000000E+00  0.00000000000E+00 -0.13745445302E+04  0.13745445302E+04  0.25500000920E-02 0.  1.
    10030    2    1    2    0    0  0.00000000000E+00  0.00000000000E+00  0.99355100827E+03  0.37426400687E+04  0.36083529591E+04 0.  0.
        2    1    3    3  502    0  0.77147680078E+03  0.21919988392E+02 -0.11946798616E+04  0.14222928361E+04  0.25500000920E-02 0.  1.
       -2    1    3    3    0  502 -0.77147680078E+03 -0.21919988392E+02  0.21882308698E+04  0.23203472326E+04  0.25500000920E-02 0. -1.
</event>
<event>
 5   0  0.7074157E-07  0.3689183E+04  0.7818609E-02  0.8070363E-01
       -2   -1    0    0    0  501  0.00000000000E+00  0.00000000000E+00  0.14790651762E+04  0.14790651762E+04  0.25500000920E-02 0. -1.
        2   -1    0    0  501    0  0.00000000000E+00  0.00000000000E+00 -0.23004516042E+04  0.23004516042E+04  0.25500000920E-02 0.  1.
    10030    2    1    2    0    0  0.00000000000E+00  0.00000000000E+00 -0.82138642809E+03  0.37795167804E+04  0.36891830300E+04 0.  0.
        3    1    3    3  502    0 -0.61788098977E+02  0.23292739166E+03  0.14628689130E+04  0.14825850417E+04  0.10100000352E+00 0. -1.
       -3    1    3    3    0  502  0.61788098977E+02 -0.23292739166E+03 -0.22842553411E+04  0.22969317387E+04  0.10100000352E+00 0.  1.
</event>
<event>
 5   0  0.2287500E-07  0.3691306E+04  0.7818609E-02  0.8069891E-01
       -1   -1    0    0    0  501  0.00000000000E+00  0.00000000000E+00  0.15638080787E+04  0.15638080787E+04  0.50400001928E-02 0.  1.
        1   -1    0    0  501    0  0.00000000000E+00  0.00000000000E+00 -0.21782950839E+04  0.21782950839E+04  0.50400001928E-02 0. -1.
    10030    2    1    2    0    0  0.00000000000E+00  0.00000000000E+00 -0.61448700515E+03  0.37421031626E+04  0.36913062457E+04 0.  0.
        3    1    3    3  502    0  0.17035284644E+04  0.13632068625E+03 -0.10138597195E+04  0.19870843212E+04  0.10100000352E+00 0. -1.
       -3    1    3    3    0  502 -0.17035284644E+04 -0.13632068625E+03  0.39937271437E+03  0.17550188414E+04  0.10100000352E+00 0.  1.
</event>
<event>
 5   0  0.7074157E-07  0.3662157E+04  0.7818609E-02  0.8076400E-01
        2   -1    0    0  501    0  0.00000000000E+00  0.00000000000E+00  0.19857267792E+04  0.19857267792E+04  0.25500000920E-02 0. -1.
       -2   -1    0    0    0  501  0.00000000000E+00  0.00000000000E+00 -0.16884746480E+04  0.16884746480E+04  0.25500000920E-02 0.  1.
    10030    2    1    2    0    0  0.00000000000E+00  0.00000000000E+00  0.29725213116E+03  0.36742014272E+04  0.36621574649E+04 0.  0.
        3    1    3    3  502    0 -0.11566854349E+04  0.25334349815E+03 -0.12526581173E+04  0.17237333008E+04  0.10100000352E+00 0.  1.
       -3    1    3    3    0  502  0.11566854349E+04 -0.25334349815E+03  0.15499102484E+04  0.19504681263E+04  0.10100000352E+00 0. -1.
</event>
<event>
 5   0  0.2287500E-07  0.3674486E+04  0.7818609E-02  0.8073640E-01
       -1   -1    0    0    0  501  0.00000000000E+00  0.00000000000E+00  0.15844507300E+04  0.15844507300E+04  0.50400001928E-02 0.  1.
        1   -1    0    0  501    0  0.00000000000E+00  0.00000000000E+00 -0.21303671982E+04  0.21303671982E+04  0.50400001928E-02 0. -1.
    10030    2    1    2    0    0  0.00000000000E+00  0.00000000000E+00 -0.54591646821E+03  0.37148179281E+04  0.36744860115E+04 0.  0.
        4    1    3    3  502    0  0.41776183581E+03 -0.17852322506E+04 -0.39206954928E+03  0.18749131405E+04  0.12699999809E+01 0.  1.
       -4    1    3    3    0  502 -0.41776183581E+03  0.17852322506E+04 -0.15384691894E+03  0.18399047876E+04  0.12699999809E+01 0. -1.
</event>
<event>
 5   0  0.6949625E-07  0.3734292E+04  0.7818609E-02  0.8060405E-01
       -2   -1    0    0    0  501  0.00000000000E+00  0.00000000000E+00  0.12883230515E+04  0.12883230515E+04  0.25500000920E-02 0.  1.
        2   -1    0    0  501    0  0.00000000000E+00  0.00000000000E+00 -0.27060245934E+04  0.27060245934E+04  0.25500000920E-02 0. -1.
    10030    2    1    2    0    0  0.00000000000E+00  0.00000000000E+00 -0.14177015419E+04  0.39943476449E+04  0.37342918266E+04 0.  0.
        5    1    3    3  502    0  0.14487321409E+04 -0.11443193813E+04 -0.41026962380E+03  0.18911993329E+04  0.46999998093E+01 0. -1.
       -5    1    3    3    0  502 -0.14487321409E+04  0.11443193813E+04 -0.10074319181E+04  0.21031483120E+04  0.46999998093E+01 0.  1.
</event>
<event>
 5   0  0.2287500E-07  0.3727149E+04  0.7818609E-02  0.8061972E-01
        1   -1    0    0  501    0  0.00000000000E+00  0.00000000000E+00  0.18242658788E+04  0.18242658788E+04  0.50400001928E-02 0. -1.
       -1   -1    0    0    0  501  0.00000000000E+00  0.00000000000E+00 -0.19037299408E+04  0.19037299408E+04  0.50400001928E-02 0.  1.
    10030    2    1    2    0    0  0.00000000000E+00  0.00000000000E+00 -0.79464061998E+02  0.37279958195E+04  0.37271488156E+04 0.  0.
        3    1    3    3  502    0  0.79761531092E+03 -0.16684741684E+04 -0.26981327868E+03  0.18689022046E+04  0.10100000352E+00 0.  1.
       -3    1    3    3    0  502 -0.79761531092E+03  0.16684741684E+04  0.19034921668E+03  0.18590936150E+04  0.10100000352E+00 0. -1.
</event>
<event>
 5   0  0.7124627E-07  0.3753520E+04  0.7818609E-02  0.8056203E-01
       -2   -1    0    0    0  501  0.00000000000E+00  0.00000000000E+00  0.16128269833E+04  0.16128269833E+04  0.25500000920E-02 0.  1.
        2   -1    0    0  501    0  0.00000000000E+00  0.00000000000E+00 -0.21838850827E+04  0.21838850827E+04  0.25500000920E-02 0. -1.
    10030    2    1    2    0    0  0.00000000000E+00  0.00000000000E+00 -0.57105809939E+03  0.37967120661E+04  0.37535203689E+04 0.  0.
        2    1    3    3  502    0  0.35653370392E+03 -0.15576570754E+04  0.71008209250E+03  0.17486075673E+04  0.25500000920E-02 0.  1.
       -2    1    3    3    0  502 -0.35653370392E+03  0.15576570754E+04 -0.12811401919E+04  0.20481044987E+04  0.25500000920E-02 0. -1.
</event>
<event>
 5   0  0.2345471E-07  0.3658692E+04  0.7818609E-02  0.8077178E-01
       -1   -1    0    0    0  501  0.00000000000E+00  0.00000000000E+00  0.12631670704E+04  0.12631670705E+04  0.50400001928E-02 0.  1.
        1   -1    0    0  501    0  0.00000000000E+00  0.00000000000E+00 -0.26492986135E+04  0.26492986135E+04  0.50400001928E-02 0. -1.
    10030    2    1    2    0    0  0.00000000000E+00  0.00000000000E+00 -0.13861315430E+04  0.39124656839E+04  0.36586919894E+04 0.  0.
        5    1    3    3  502    0  0.11762048365E+04  0.45718796560E+02 -0.21905300594E+04  0.24867633697E+04  0.46999998093E+01 0. -1.
       -5    1    3    3    0  502 -0.11762048365E+04 -0.45718796560E+02  0.80439851635E+03  0.14257023143E+04  0.46999998093E+01 0.  1.
</event>
<event>
 5   0  0.2287500E-07  0.3679805E+04  0.7818609E-02  0.8072452E-01
        1   -1    0    0  501    0  0.00000000000E+00  0.00000000000E+00  0.18942373131E+04  0.18942373131E+04  0.50400001928E-02 0. -1.
       -1   -1    0    0    0  501  0.00000000000E+00  0.00000000000E+00 -0.17871266718E+04  0.17871266718E+04  0.50400001928E-02 0.  1.
    10030    2    1    2    0    0  0.00000000000E+00  0.00000000000E+00  0.10711064133E+03  0.36813639849E+04  0.36798054432E+04 0.  0.
        2    1    3    3  502    0 -0.10106636509E+04  0.95254730923E+03 -0.11537924444E+04  0.18055537645E+04  0.25500000920E-02 0.  1.
       -2    1    3    3    0  502  0.10106636509E+04 -0.95254730923E+03  0.12609030858E+04  0.18758102205E+04  0.25500000920E-02 0. -1.
</event>
<event>
 5   0  0.2345471E-07  0.2660284E+04  0.7818609E-02  0.8348008E-01
       -1   -1    0    0    0  501  0.00000000000E+00  0.00000000000E+00  0.79459309029E+03  0.79459309030E+03  0.50400001928E-02 0.  1.
        1   -1    0    0  501    0  0.00000000000E+00  0.00000000000E+00 -0.22266463805E+04  0.22266463805E+04  0.50400001928E-02 0. -1.
    10030    2    1    2    0    0  0.00000000000E+00  0.00000000000E+00 -0.14320532902E+04  0.30212394708E+04  0.26602840664E+04 0.  0.
        5    1    3    3  502    0 -0.61670775592E+03 -0.50039518553E+03  0.49577000068E+03  0.93623382842E+03  0.46999998093E+01 0.  1.
       -5    1    3    3    0  502  0.61670775592E+03  0.50039518553E+03 -0.19278232909E+04  0.20850056424E+04  0.46999998093E+01 0. -1.
</event>
<event>
 5   0  0.7074157E-07  0.2693737E+04  0.7818609E-02  0.8337040E-01
        2   -1    0    0  501    0  0.00000000000E+00  0.00000000000E+00  0.22880047302E+04  0.22880047302E+04  0.25500000920E-02 0.  1.
       -2   -1    0    0    0  501  0.00000000000E+00  0.00000000000E+00 -0.79285473705E+03  0.79285473705E+03  0.25500000920E-02 0. -1.
    10030    2    1    2    0    0  0.00000000000E+00  0.00000000000E+00  0.14951499931E+04  0.30808594672E+04  0.26937374696E+04 0.  0.
        3    1    3    3  502    0 -0.14741355486E+03 -0.12132844316E+04  0.10032552133E+03  0.12263176948E+04  0.10100000352E+00 0. -1.
       -3    1    3    3    0  502  0.14741355486E+03  0.12132844316E+04  0.13948244718E+04  0.18545417724E+04  0.10100000352E+00 0.  1.
</event>
<event>
 5   0  0.2345471E-07  0.3701335E+04  0.7818609E-02  0.8067666E-01
       -1   -1    0    0    0  501  0.00000000000E+00  0.00000000000E+00  0.26715334647E+04  0.26715334647E+04  0.50400001928E-02 0.  1.
        1   -1    0    0  501    0  0.00000000000E+00  0.00000000000E+00 -0.12820243362E+04  0.12820243363E+04  0.50400001928E-02 0. -1.
    10030    2    1    2    0    0  0.00000000000E+00  0.00000000000E+00  0.13895091284E+04  0.39535578009E+04  0.37013353897E+04 0.  0.
        5    1    3    3  502    0  0.75294549353E+03 -0.64220581228E+03  0.23651596282E+04  0.25638559590E+04  0.46999998093E+01 0.  1.
       -5    1    3    3    0  502 -0.75294549353E+03  0.64220581228E+03 -0.97565049983E+03  0.13897018419E+04  0.46999998093E+01 0. -1.
</event>
<event>
 5   0  0.7300916E-07  0.3633391E+04  0.7818609E-02  0.8082886E-01
       -2   -1    0    0    0  501  0.00000000000E+00  0.00000000000E+00  0.13328871572E+04  0.13328871572E+04  0.25500000920E-02 0. -1.
        2   -1    0    0  501    0  0.00000000000E+00  0.00000000000E+00 -0.24761160007E+04  0.24761160007E+04  0.25500000920E-02 0.  1.
    10030    2    1    2    0    0  0.00000000000E+00  0.00000000000E+00 -0.11432288435E+04  0.38090031578E+04  0.36333913728E+04 0.  0.
        1    1    3    3  502    0  0.16848570339E+04 -0.65764081518E+03 -0.75059571189E+03  0.19582207713E+04  0.50400001928E-02 0. -1.
       -1    1    3    3    0  502 -0.16848570339E+04  0.65764081518E+03 -0.39263313159E+03  0.18507823866E+04  0.50400001928E-02 0.  1.
</event>
<event>
 5   0  0.6949625E-07  0.3681814E+04  0.7818609E-02  0.8072004E-01
        2   -1    0    0  501    0  0.00000000000E+00  0.00000000000E+00  0.22145630667E+04  0.22145630667E+04  0.25500000920E-02 0. -1.
       -2   -1    0    0    0  501  0.00000000000E+00  0.00000000000E+00 -0.15302970289E+04  0.15302970289E+04  0.25500000920E-02 0.  1.
    10030    2    1    2    0    0  0.00000000000E+00  0.00000000000E+00  0.68426603779E+03  0.37448600956E+04  0.36818143795E+04 0.  0.
        5    1    3    3  502    0  0.68874014986E+03  0.10809830175E+04  0.16861338827E+04  0.21180077523E+04  0.46999998093E+01 0. -1.
       -5    1    3    3    0  502 -0.68874014986E+03 -0.10809830175E+04 -0.10018678449E+04  0.16268523433E+04  0.46999998093E+01 0.  1.
</event>
<event>
 5   0  0.6949625E-07  0.2991075E+04  0.7818609E-02  0.8246284E-01
        2   -1    0    0  501    0  0.00000000000E+00  0.00000000000E+00  0.18611176463E+04  0.18611176463E+04  0.25500000920E-02 0.  1.
       -2   -1    0    0    0  501  0.00000000000E+00  0.00000000000E+00 -0.12017680676E+04  0.12017680676E+04  0.25500000920E-02 0. -1.
    10030    2    1    2    0    0  0.00000000000E+00  0.00000000000E+00  0.65934957870E+03  0.30628857140E+04  0.29910745611E+04 0.  0.
        5    1    3    3  502    0 -0.16712021190E+03  0.11122043340E+04 -0.67973064069E+03  0.13141474346E+04  0.46999998093E+01 0. -1.
       -5    1    3    3    0  502  0.16712021190E+03 -0.11122043340E+04  0.13390802194E+04  0.17487382794E+04  0.46999998093E+01 0.  1.
</event>
<event>
 5   0  0.2345471E-07  0.3637566E+04  0.7818609E-02  0.8081941E-01
        1   -1    0    0  501    0  0.00000000000E+00  0.00000000000E+00  0.16881451264E+04  0.16881451264E+04  0.50400001928E-02 0.  1.
       -1   -1    0    0    0  501  0.00000000000E+00  0.00000000000E+00 -0.19595303654E+04  0.19595303654E+04  0.50400001928E-02 0. -1.
    10030    2    1    2    0    0  0.00000000000E+00  0.00000000000E+00 -0.27138523900E+03  0.36476754919E+04  0.36375660195E+04 0.  0.
        5    1    3    3  502    0  0.22547136587E+02  0.55824555537E+03 -0.18713417776E+04  0.19529691784E+04  0.46999998093E+01 0. -1.
       -5    1    3    3    0  502 -0.22547136587E+02 -0.55824555537E+03  0.15999565386E+04  0.16947063134E+04  0.46999998093E+01 0.  1.
</event>
<event>
 5   0  0.2345471E-07  0.3699998E+04  0.7818609E-02  0.8067962E-01
        1   -1    0    0  501    0  0.00000000000E+00  0.00000000000E+00  0.23139023058E+04  0.23139023058E+04  0.50400001928E-02 0. -1.
       -1   -1    0    0    0  501  0.00000000000E+00  0.00000000000E+00 -0.14791013963E+04  0.14791013963E+04  0.50400001928E-02 0.  1.
    10030    2    1    2    0    0  0.00000000000E+00  0.00000000000E+00  0.83480090955E+03  0.37930037021E+04  0.36999979089E+04 0.  0.
        5    1    3    3  502    0 -0.14048485961E+04  0.78294580819E+03 -0.51984046506E+03  0.16902248121E+04  0.46999998093E+01 0.  1.
       -5    1    3    3    0  502  0.14048485961E+04 -0.78294580819E+03  0.13546413746E+04  0.21027788900E+04  0.46999998093E+01 0. -1.
</event>
<event>
 5   0  0.6949625E-07  0.3657210E+04  0.7818609E-02  0.8077511E-01
       -2   -1    0    0    0  501  0.00000000000E+00  0.00000000000E+00  0.30974948305E+04  0.30974948305E+04  0.25500000920E-02 0. -1.
        2   -1    0    0  501    0  0.00000000000E+00  0.00000000000E+00 -0.10795164646E+04  0.10795164646E+04  0.25500000920E-02 0.  1.
    10030    2    1    2    0    0  0.00000000000E+00  0.00000000000E+00  0.20179783659E+04  0.41770112951E+04  0.36572102311E+04 0.  0.
        5    1    3    3  502    0 -0.15749470648E+04  0.65983381684E+03  0.26184406945E+03  0.17275483581E+04  0.46999998093E+01 0.  1.
       -5    1    3    3    0  502  0.15749470648E+04 -0.65983381684E+03  0.17561342965E+04  0.24494629371E+04  0.46999998093E+01 0. -1.
</event>
<event>
 5   0  0.2287500E-07  0.3676135E+04  0.7818609E-02  0.8073271E-01
       -1   -1    0    0    0  501  0.00000000000E+00  0.00000000000E+00  0.26764697277E+04  0.26764697277E+04  0.50400001928E-02 0.  1.
        1   -1    0    0  501    0  0.00000000000E+00  0.00000000000E+00 -0.12622944403E+04  0.12622944403E+04  0.50400001928E-02 0. -1.
    10030    2    1    2    0    0  0.00000000000E+00  0.00000000000E+00  0.14141752874E+04  0.39387641681E+04  0.36761353931E+04 0.  0.
        4    1    3    3  502    0 -0.30780868838E+03  0.16306244916E+04  0.15540069966E+04  0.22734603096E+04  0.12699999809E+01 0. -1.
       -4    1    3    3    0  502  0.30780868838E+03 -0.16306244916E+04 -0.13983170922E+03  0.16653038584E+04  0.12699999809E+01 0.  1.
</event>
<event>
 5   0  0.7300916E-07  0.3798990E+04  0.7818609E-02  0.8046372E-01
        2   -1    0    0  501    0  0.00000000000E+00  0.00000000000E+00  0.31192428235E+04  0.31192428235E+04  0.25500000920E-02 0. -1.
       -2   -1    0    0    0  501  0.00000000000E+00  0.00000000000E+00 -0.11567171235E+04  0.11567171235E+04  0.25500000920E-02 0.  1.
    10030    2    1    2    0    0  0.00000000000E+00  0.00000000000E+00  0.19625257000E+04  0.42759599470E+04  0.37989901744E+04 0.  0.
        1    1    3    3  502    0 -0.14776516486E+04 -0.27351887577E+03 -0.32642028127E+03  0.15377962056E+04  0.50400001928E-02 0.  1.
       -1    1    3    3    0  502  0.14776516486E+04  0.27351887577E+03  0.22889459813E+04  0.27381637415E+04  0.50400001928E-02 0. -1.
</event>
<event>
 5   0  0.2345471E-07  0.3843859E+04  0.7818609E-02  0.8036808E-01
        1   -1    0    0  501    0  0.00000000000E+00  0.00000000000E+00  0.23027001711E+04  0.23027001711E+04  0.50400001928E-02 0. -1.
       -1   -1    0    0    0  501  0.00000000000E+00  0.00000000000E+00 -0.16041222276E+04  0.16041222276E+04  0.50400001928E-02 0.  1.
    10030    2    1    2    0    0  0.00000000000E+00  0.00000000000E+00  0.69857794345E+03  0.39068223987E+04  0.38438587529E+04 0.  0.
        5    1    3    3  502    0  0.14474120248E+04 -0.99440019461E+03  0.11430794798E+04  0.20953486831E+04  0.46999998093E+01 0. -1.
       -5    1    3    3    0  502 -0.14474120248E+04  0.99440019461E+03 -0.44450153634E+03  0.18114737156E+04  0.46999998093E+01 0.  1.
</event>
<event>
 5   0  0.2411746E-07  0.3751059E+04  0.7818609E-02  0.8056740E-01
       -1   -1    0    0    0  501  0.00000000000E+00  0.00000000000E+00  0.29088658130E+04  0.29088658130E+04  0.50400001928E-02 0. -1.
        1   -1    0    0  501    0  0.00000000000E+00  0.00000000000E+00 -0.12092722384E+04  0.12092722384E+04  0.50400001928E-02 0.  1.
    10030    2    1    2    0    0  0.00000000000E+00  0.00000000000E+00  0.16995935746E+04  0.41181380515E+04  0.37510588761E+04 0.  0.
        1    1    3    3  502    0 -0.84231540831E+03  0.10698615037E+04  0.22657860557E+04  0.26434608631E+04  0.50400001928E-02 0. -1.
       -1    1    3    3    0  502  0.84231540831E+03 -0.10698615037E+04 -0.56619248109E+03  0.14746771884E+04  0.50400001928E-02 0.  1.
</event>
<event>
 5   0  0.2411746E-07  0.3677435E+04  0.7818609E-02  0.8072981E-01
        1   -1    0    0  501    0  0.00000000000E+00  0.00000000000E+00  0.14136917065E+04  0.14136917065E+04  0.50400001928E-02 0.  1.
       -1   -1    0    0    0  501  0.00000000000E+00  0.00000000000E+00 -0.23915269151E+04  0.23915269151E+04  0.50400001928E-02 0. -1.
    10030    2    1    2    0    0  0.00000000000E+00  0.00000000000E+00 -0.97783520856E+03  0.38052186216E+04  0.36774348482E+04 0.  0.
        1    1    3    3  502    0  0.84705783592E+03 -0.15871050723E+04 -0.88222026654E+03  0.20036771413E+04  0.50400001928E-02 0. -1.
       -1    1    3    3    0  502 -0.84705783592E+03  0.15871050723E+04 -0.95614942013E+02  0.18015414803E+04  0.50400001928E-02 0.  1.
</event>
<event>
 5   0  0.2287500E-07  0.3704631E+04  0.7818609E-02  0.8066936E-01
       -1   -1    0    0    0  501  0.00000000000E+00  0.00000000000E+00  0.17608175224E+04  0.17608175224E+04  0.50400001928E-02 0.  1.
        1   -1    0    0  501    0  0.00000000000E+00  0.00000000000E+00 -0.19485677420E+04  0.19485677420E+04  0.50400001928E-02 0. -1.
    10030    2    1    2    0    0  0.00000000000E+00  0.00000000000E+00 -0.18775021961E+03  0.37093852644E+04  0.37046307366E+04 0.  0.
        4    1    3    3  502    0  0.12878175959E+04  0.12839162445E+04  0.25893420824E+03  0.18368352186E+04  0.12699999809E+01 0.  1.
       -4    1    3    3    0  502 -0.12878175959E+04 -0.12839162445E+04 -0.44668442784E+03  0.18725500458E+04  0.12699999809E+01 0. -1.
</event>
<event>
 5   0  0.6939921E-07  0.3780258E+04  0.7818609E-02  0.8050405E-01
       -2   -1    0    0    0  501  0.00000000000E+00  0.00000000000E+00  0.13393467646E+04  0.13393467646E+04  0.25500000920E-02 0.  1.
        2   -1    0    0  501    0  0.00000000000E+00  0.00000000000E+00 -0.26674108577E+04  0.26674108577E+04  0.25500000920E-02 0. -1.
    10030    2    1    2    0    0  0.00000000000E+00  0.00000000000E+00 -0.13280640931E+04  0.40067576223E+04  0.37802582463E+04 0.  0.
        4    1    3    3  502    0  0.38819450324E+03 -0.18427667398E+04 -0.49278990269E+03  0.19466195649E+04  0.12699999809E+01 0.  1.
       -4    1    3    3    0  502 -0.38819450324E+03  0.18427667398E+04 -0.83527419041E+03  0.20601380574E+04  0.12699999809E+01 0. -1.
</event>
<event>
 5   0  0.7300916E-07  0.3484857E+04  0.7818609E-02  0.8117388E-01
       -2   -1    0    0    0  501  0.00000000000E+00  0.00000000000E+00  0.14856463381E+04  0.14856463381E+04  0.25500000920E-02 0.  1.
        2   -1    0    0  501    0  0.00000000000E+00  0.00000000000E+00 -0.20435932703E+04  0.20435932703E+04  0.25500000920E-02 0. -1.
    10030    2    1    2    0    0  0.00000000000E+00  0.00000000000E+00 -0.55794693218E+03  0.35292396083E+04  0.34848568742E+04 0.  0.
        1    1    3    3  502    0  0.12908966916E+04  0.15959070955E+03  0.89517724737E+03  0.15789951764E+04  0.50400001928E-02 0.  1.
       -1    1    3    3    0  502 -0.12908966916E+04 -0.15959070955E+03 -0.14531241796E+04  0.19502444319E+04  0.50400001928E-02 0. -1.
</event>
<event>
 5   0  0.2287500E-07  0.3597409E+04  0.7818609E-02  0.8091085E-01
        1   -1    0    0  501    0  0.00000000000E+00  0.00000000000E+00  0.21507309737E+04  0.21507309737E+04  0.50400001928E-02 0. -1.
       -1   -1    0    0    0  501  0.00000000000E+00  0.00000000000E+00 -0.15042967626E+04  0.15042967626E+04  0.50400001928E-02 0.  1.
    10030    2    1    2    0    0  0.00000000000E+00  0.00000000000E+00  0.64643421111E+03  0.36550277363E+04  0.35974088680E+04 0.  0.
        4    1    3    3  502    0 -0.93253903299E+03 -0.15161257288E+04  0.58634339070E+03  0.18740508153E+04  0.12699999809E+01 0. -1.
       -4    1    3    3    0  502  0.93253903299E+03  0.15161257288E+04  0.60090820403E+02  0.17809769210E+04  0.12699999809E+01 0.  1.
</event>
<event>
 5   0  0.6949625E-07  0.3700879E+04  0.7818609E-02  0.8067767E-01
        2   -1    0    0  501    0  0.00000000000E+00  0.00000000000E+00  0.20568522213E+04  0.20568522213E+04  0.25500000920E-02 0. -1.
       -2   -1    0    0    0  501  0.00000000000E+00  0.00000000000E+00 -0.16647414054E+04  0.16647414054E+04  0.25500000920E-02 0.  1.
    10030    2    1    2    0    0  0.00000000000E+00  0.00000000000E+00  0.39211081582E+03  0.37215936267E+04  0.37008793861E+04 0.  0.
        5    1    3    3  502    0  0.48634838767E+03  0.11402648662E+04 -0.11854484756E+04  0.17152401865E+04  0.46999998093E+01 0.  1.
       -5    1    3    3    0  502 -0.48634838767E+03 -0.11402648662E+04  0.15775592914E+04  0.20063534402E+04  0.46999998093E+01 0. -1.
</event>
<event>
 5   0  0.7074157E-07  0.3699969E+04  0.7818609E-02  0.8067969E-01
        2   -1    0    0  501    0  0.00000000000E+00  0.00000000000E+00  0.18465532819E+04  0.18465532819E+04  0.25500000920E-02 0.  1.
       -2   -1    0    0    0  501  0.00000000000E+00  0.00000000000E+00 -0.18534220386E+04  0.18534220386E+04  0.25500000920E-02 0. -1.
    10030    2    1    2    0    0  0.00000000000E+00  0.00000000000E+00 -0.68687567268E+01  0.36999753205E+04  0.36999689448E+04 0.  0.
        3    1    3    3  502    0 -0.43559209582E+03 -0.10141006726E+04  0.14812573360E+04  0.18472314294E+04  0.10100000352E+00 0.  1.
       -3    1    3    3    0  502  0.43559209582E+03  0.10141006726E+04 -0.14881260927E+04  0.18527438911E+04  0.10100000352E+00 0. -1.
</event>
<event>
 5   0  0.6939921E-07  0.3688198E+04  0.7818609E-02  0.8070582E-01
       -2   -1    0    0    0  501  0.00000000000E+00  0.00000000000E+00  0.12377490959E+04  0.12377490959E+04  0.25500000920E-02 0. -1.
        2   -1    0    0  501    0  0.00000000000E+00  0.00000000000E+00 -0.27474887641E+04  0.27474887641E+04  0.25500000920E-02 0.  1.
    10030    2    1    2    0    0  0.00000000000E+00  0.00000000000E+00 -0.15097396682E+04  0.39852378601E+04  0.36881983319E+04 0.  0.
        4    1    3    3  502    0 -0.10471261741E+04  0.26140018683E+03  0.86084927491E+03  0.13805311909E+04  0.12699999809E+01 0. -1.
       -4    1    3    3    0  502  0.10471261741E+04 -0.26140018683E+03 -0.23705889431E+04  0.26047066691E+04  0.12699999809E+01 0.  1.
</event>
<event>
 5   0  0.7124627E-07  0.3887915E+04  0.7818609E-02  0.8027547E-01
       -2   -1    0    0    0  501  0.00000000000E+00  0.00000000000E+00  0.17989861682E+04  0.17989861682E+04  0.25500000920E-02 0. -1.
        2   -1    0    0  501    0  0.00000000000E+00  0.00000000000E+00 -0.21006112253E+04  0.21006112253E+04  0.25500000920E-02 0.  1.
    10030    2    1    2    0    0  0.00000000000E+00  0.00000000000E+00 -0.30162505716E+03  0.38995973935E+04  0.38879148854E+04 0.  0.
        2    1    3    3  502    0 -0.12969490607E+03 -0.14231656964E+04 -0.14726302583E+04  0.20520383148E+04  0.25500000920E-02 0.  1.
       -2    1    3    3    0  502  0.12969490607E+03  0.14231656964E+04  0.11710052011E+04  0.18475590786E+04  0.25500000920E-02 0. -1.
</event>
<event>
 5   0  0.7124627E-07  0.3708963E+04  0.7818609E-02  0.8065979E-01
        2   -1    0    0  501    0  0.00000000000E+00  0.00000000000E+00  0.19328733753E+04  0.19328733753E+04  0.25500000920E-02 0.  1.
       -2   -1    0    0    0  501  0.00000000000E+00  0.00000000000E+00 -0.17792685254E+04  0.17792685254E+04  0.25500000920E-02 0. -1.
    10030    2    1    2    0    0  0.00000000000E+00  0.00000000000E+00  0.15360484984E+03  0.37121419007E+04  0.37089625290E+04 0.  0.
        2    1    3    3  502    0 -0.13450060680E+04  0.52386125516E+03  0.12421152348E+04  0.19042904700E+04  0.25500000920E-02 0.  1.
       -2    1    3    3    0  502  0.13450060680E+04 -0.52386125516E+03 -0.10885103849E+04  0.18078514308E+04  0.25500000920E-02 0. -1.
</event>
<event>
 5   0  0.7124627E-07  0.3691743E+04  0.7818609E-02  0.8069794E-01
       -2   -1    0    0    0  501  0.00000000000E+00  0.00000000000E+00  0.15098625272E+04  0.15098625272E+04  0.25500000920E-02 0. -1.
        2   -1    0    0  501    0  0.00000000000E+00  0.00000000000E+00 -0.22566574291E+04  0.22566574291E+04  0.25500000920E-02 0.  1.
    10030    2    1    2    0    0  0.00000000000E+00  0.00000000000E+00 -0.74679490185E+03  0.37665199563E+04  0.36917434845E+04 0.  0.
        2    1    3    3  502    0  0.15486094086E+03 -0.63436463347E+03  0.13880846749E+04  0.15340076480E+04  0.25500000920E-02 0. -1.
       -2    1    3    3    0  502 -0.15486094086E+03  0.63436463347E+03 -0.21348795768E+04  0.22325123083E+04  0.25500000920E-02 0.  1.
</event>
<event>
 5   0  0.7074157E-07  0.3778553E+04  0.7818609E-02  0.8050773E-01
        2   -1    0    0  501    0  0.00000000000E+00  0.00000000000E+00  0.29836418367E+04  0.29836418367E+04  0.25500000920E-02 0. -1.
       -2   -1    0    0    0  501  0.00000000000E+00  0.00000000000E+00 -0.11963117332E+04  0.11963117332E+04  0.25500000920E-02 0.  1.
    10030    2    1    2    0    0  0.00000000000E+00  0.00000000000E+00  0.17873301035E+04  0.41799535699E+04  0.37785530230E+04 0.  0.
        3    1    3    3  502    0 -0.17384031216E+04 -0.68727713334E+03  0.11965592898E+04  0.22194930537E+04  0.10100000352E+00 0. -1.
       -3    1    3    3    0  502  0.17384031216E+04  0.68727713334E+03  0.59077081378E+03  0.19604605163E+04  0.10100000352E+00 0.  1.
</event>
<event>
 5   0  0.6939921E-07  0.3643686E+04  0.7818609E-02  0.8080558E-01
        2   -1    0    0  501    0  0.00000000000E+00  0.00000000000E+00  0.18279046102E+04  0.18279046102E+04  0.25500000920E-02 0.  1.
       -2   -1    0    0    0  501  0.00000000000E+00  0.00000000000E+00 -0.18158012968E+04  0.18158012968E+04  0.25500000920E-02 0. -1.
    10030    2    1    2    0    0  0.00000000000E+00  0.00000000000E+00  0.12103313434E+02  0.36437059071E+04  0.36436858052E+04 0.  0.
        4    1    3    3  502    0  0.25126721058E+03  0.11985375579E+04  0.13549410280E+04  0.18263335651E+04  0.12699999809E+01 0.  1.
       -4    1    3    3    0  502 -0.25126721058E+03 -0.11985375579E+04 -0.13428377145E+04  0.18173723420E+04  0.12699999809E+01 0. -1.
</event>
<event>
 5   0  0.7300916E-07  0.3663790E+04  0.7818609E-02  0.8076034E-01
       -2   -1    0    0    0  501  0.00000000000E+00  0.00000000000E+00  0.15573509215E+04  0.15573509215E+04  0.25500000920E-02 0. -1.
        2   -1    0    0  501    0  0.00000000000E+00  0.00000000000E+00 -0.21548380936E+04  0.21548380936E+04  0.25500000920E-02 0.  1.
    10030    2    1    2    0    0  0.00000000000E+00  0.00000000000E+00 -0.59748717213E+03  0.37121890151E+04  0.36637898906E+04 0.  0.
        1    1    3    3  502    0  0.38538936413E+03  0.12443192034E+03 -0.21089139637E+04  0.21474464768E+04  0.50400001928E-02 0.  1.
       -1    1    3    3    0  502 -0.38538936413E+03 -0.12443192034E+03  0.15114267915E+04  0.15647425382E+04  0.50400001928E-02 0. -1.
</event>
<event>
 5   0  0.2411746E-07  0.2836722E+04  0.7818609E-02  0.8291957E-01
        1   -1    0    0  501    0  0.00000000000E+00  0.00000000000E+00  0.13900330140E+04  0.13900330140E+04  0.50400001928E-02 0. -1.
       -1   -1    0    0    0  501  0.00000000000E+00  0.00000000000E+00 -0.14472665390E+04  0.14472665390E+04  0.50400001928E-02 0.  1.
    10030    2    1    2    0    0  0.00000000000E+00  0.00000000000E+00 -0.57233524933E+02  0.28372995530E+04  0.28367222418E+04 0.  0.
        1    1    3    3  502    0 -0.88951440888E+03  0.37224362307E+03  0.10117617730E+04  0.13976634373E+04  0.50400001928E-02 0. -1.
       -1    1    3    3    0  502  0.88951440888E+03 -0.37224362307E+03 -0.10689952980E+04  0.14396361157E+04  0.50400001928E-02 0.  1.
</event>
<event>
 5   0  0.2287500E-07  0.3394746E+04  0.7818609E-02  0.8139197E-01
        1   -1    0    0  501    0  0.00000000000E+00  0.00000000000E+00  0.20286062318E+04  0.20286062318E+04  0.50400001928E-02 0.  1.
       -1   -1    0    0    0  501  0.00000000000E+00  0.00000000000E+00 -0.14202242405E+04  0.14202242406E+04  0.50400001928E-02 0. -1.
    10030    2    1    2    0    0  0.00000000000E+00  0.00000000000E+00  0.60838199124E+03  0.34488304724E+04  0.33947463793E+04 0.  0.
        3    1    3    3  502    0 -0.16907964750E+04 -0.49341805201E+02  0.44731987711E+03  0.17496635152E+04  0.10100000352E+00 0. -1.
       -3    1    3    3    0  502  0.16907964750E+04  0.49341805201E+02  0.16106211412E+03  0.16991669572E+04  0.10100000352E+00 0.  1.
</event>
<event>
 5   0  0.2411746E-07  0.3676277E+04  0.7818609E-02  0.8073239E-01
       -1   -1    0    0    0  501  0.00000000000E+00  0.00000000000E+00  0.17500125326E+04  0.17500125326E+04  0.50400001928E-02 0. -1.
        1   -1    0    0  501    0  0.00000000000E+00  0.00000000000E+00 -0.19307027195E+04  0.19307027195E+04  0.50400001928E-02 0.  1.
    10030    2    1    2    0    0  0.00000000000E+00  0.00000000000E+00 -0.18069018691E+03  0.36807152521E+04  0.36762774410E+04 0.  0.
        1    1    3    3  502    0 -0.21036820057E+03 -0.18012032587E+04  0.21029391878E+03  0.18255989404E+04  0.50400001928E-02 0.  1.
       -1    1    3    3    0  502  0.21036820057E+03  0.18012032587E+04 -0.39098410569E+03  0.18551163117E+04  0.50400001928E-02 0. -1.
</event>
<event>
 5   0  0.6939921E-07  0.3500593E+04  0.7818609E-02  0.8113650E-01
        2   -1    0    0  501    0  0.00000000000E+00  0.00000000000E+00  0.23146630589E+04  0.23146630589E+04  0.25500000920E-02 0. -1.
       -2   -1    0    0    0  501  0.00000000000E+00  0.00000000000E+00 -0.13235348208E+04  0.13235348208E+04  0.25500000920E-02 0.  1.
    10030    2    1    2    0    0  0.00000000000E+00  0.00000000000E+00  0.99112823806E+03  0.36381978798E+04  0.35005926110E+04 0.  0.
        4    1    3    3  502    0 -0.80025252985E+03 -0.94305843387E+03 -0.79157407868E+03  0.14684530827E+04  0.12699999809E+01 0.  1.
       -4    1    3    3    0  502  0.80025252985E+03  0.94305843387E+03  0.17827023167E+04  0.21697447970E+04  0.12699999809E+01 0. -1.
</event>
<event>
 5   0  0.7124627E-07  0.3643954E+04  0.7818609E-02  0.8080497E-01
        2   -1    0    0  501    0  0.00000000000E+00  0.00000000000E+00  0.23230885960E+04  0.23230885960E+04  0.25500000920E-02 0.  1.
       -2   -1    0    0    0  501  0.00000000000E+00  0.00000000000E+00 -0.14289595022E+04  0.14289595022E+04  0.25500000920E-02 0. -1.
    10030    2    1    2    0    0  0.00000000000E+00  0.00000000000E+00  0.89412909379E+03  0.37520480982E+04  0.36439536351E+04 0.  0.
        2    1    3    3  502    0  0.94932387475E+03 -0.15324348948E+04  0.17458851363E+03  0.18110918461E+04  0.25500000920E-02 0. -1.
       -2    1    3    3    0  502 -0.94932387475E+03  0.15324348948E+04  0.71954058017E+03  0.19409562521E+04  0.25500000920E-02 0.  1.
</event>
<event>
 5   0  0.7124627E-07  0.3689584E+04  0.7818609E-02  0.8070274E-01
       -2   -1    0    0    0  501  0.00000000000E+00  0.00000000000E+00  0.11836354518E+04  0.11836354518E+04  0.25500000920E-02 0.  1.
        2   -1    0    0  501    0  0.00000000000E+00  0.00000000000E+00 -0.28752579989E+04  0.28752579989E+04  0.25500000920E-02 0. -1.
    10030    2    1    2    0    0  0.00000000000E+00  0.00000000000E+00 -0.16916225471E+04  0.40588934507E+04  0.36895838793E+04 0.  0.
        2    1    3    3  502    0  0.15775826119E+04 -0.84170823768E+03 -0.13451353104E+04  0.22375496995E+04  0.25500000920E-02 0. -1.
       -2    1    3    3    0  502 -0.15775826119E+04  0.84170823768E+03 -0.34648723670E+03  0.18213437511E+04  0.25500000920E-02 0.  1.
</event>
<event>
 5   0  0.7300916E-07  0.3693672E+04  0.7818609E-02  0.8069366E-01
       -2   -1    0    0    0  501  0.00000000000E+00  0.00000000000E+00  0.20972369292E+04  0.20972369292E+04  0.25500000920E-02 0.  1.
        2   -1    0    0  501    0  0.00000000000E+00  0.00000000000E+00 -0.16263321122E+04  0.16263321122E+04  0.25500000920E-02 0. -1.
    10030    2    1    2    0    0  0.00000000000E+00  0.00000000000E+00  0.47090481700E+03  0.37235690415E+04  0.36936723000E+04 0.  0.
        1    1    3    3  502    0 -0.54188427068E+03  0.10574844618E+03  0.20120969598E+04  0.20864696194E+04  0.50400001928E-02 0.  1.
       -1    1    3    3    0  502  0.54188427068E+03 -0.10574844618E+03 -0.15411921428E+04  0.16370994221E+04  0.50400001928E-02 0. -1.
</event>
<event>
 5   0  0.6949625E-07  0.3684230E+04  0.7818609E-02  0.8071466E-01
       -2   -1    0    0    0  501  0.00000000000E+00  0.00000000000E+00  0.11981722968E+04  0.11981722968E+04  0.25500000920E-02 0.  1.
        2   -1    0    0  501    0  0.00000000000E+00  0.00000000000E+00 -0.28321369157E+04  0.28321369158E+04  0.25500000920E-02 0. -1.
    10030    2    1    2    0    0  0.00000000000E+00  0.00000000000E+00 -0.16339646190E+04  0.40303092125E+04  0.36842301736E+04 0.  0.
        5    1    3    3  502    0 -0.14655465378E+04  0.80010926851E+03 -0.16681204526E+04  0.23602223264E+04  0.46999998093E+01 0. -1.
       -5    1    3    3    0  502  0.14655465378E+04 -0.80010926851E+03  0.34155833560E+02  0.16700868861E+04  0.46999998093E+01 0.  1.
</event>
<event>
 5   0  0.2287500E-07  0.3679861E+04  0.7818609E-02  0.8072440E-01
       -1   -1    0    0    0  501  0.00000000000E+00  0.00000000000E+00  0.15589986413E+04  0.15589986413E+04  0.50400001928E-02 0.  1.
        1   -1    0    0  501    0  0.00000000000E+00  0.00000000000E+00 -0.21714862737E+04  0.21714862737E+04  0.50400001928E-02 0. -1.
    10030    2    1    2    0    0  0.00000000000E+00  0.00000000000E+00 -0.61248763238E+03  0.37304849150E+04  0.36798609487E+04 0.  0.
        2    1    3    3  502    0  0.17322878723E+04 -0.56441462165E+03 -0.45885800258E+02  0.18224957186E+04  0.25500000920E-02 0.  1.
       -2    1    3    3    0  502 -0.17322878723E+04  0.56441462165E+03 -0.56660183212E+03  0.19079891965E+04  0.25500000920E-02 0. -1.
</event>
<event>
 5   0  0.2287500E-07  0.3676056E+04  0.7818609E-02  0.8073289E-01
        1   -1    0    0  501    0  0.00000000000E+00  0.00000000000E+00  0.15040081113E+04  0.15040081113E+04  0.50400001928E-02 0. -1.
       -1   -1    0    0    0  501  0.00000000000E+00  0.00000000000E+00 -0.22462297200E+04  0.22462297200E+04  0.50400001928E-02 0.  1.
    10030    2    1    2    0    0  0.00000000000E+00  0.00000000000E+00 -0.74222160872E+03  0.37502378314E+04  0.36760564298E+04 0.  0.
        3    1    3    3  502    0  0.34561824900E+03  0.14976166223E+04  0.65721819667E+03  0.16715990218E+04  0.10100000352E+00 0. -1.
       -3    1    3    3    0  502 -0.34561824900E+03 -0.14976166223E+04 -0.13994398054E+04  0.20786388096E+04  0.10100000352E+00 0.  1.
</event>
<event>
 5   0  0.2411746E-07  0.3740927E+04  0.7818609E-02  0.8058952E-01
       -1   -1    0    0    0  501  0.00000000000E+00  0.00000000000E+00  0.25244067006E+04  0.25244067006E+04  0.50400001928E-02 0.  1.
        1   -1    0    0  501    0  0.00000000000E+00  0.00000000000E+00 -0.13859231137E+04  0.13859231137E+04  0.50400001928E-02 0. -1.
    10030    2    1    2    0    0  0.00000000000E+00  0.00000000000E+00  0.11384835869E+04  0.39103298142E+04  0.37409269411E+04 0.  0.
        1    1    3    3  502    0  0.15763454739E+04  0.35786103571E+03 -0.41449399335E+03  0.16687524815E+04  0.50400001928E-02 0. -1.
       -1    1    3    3    0  502 -0.15763454739E+04 -0.35786103571E+03  0.15529775803E+04  0.22415773328E+04  0.50400001928E-02 0.  1.
</event>
<event>
 5   0  0.2287500E-07  0.3528507E+04  0.7818609E-02  0.8107067E-01
       -1   -1    0    0    0  501  0.00000000000E+00  0.00000000000E+00  0.14357965910E+04  0.14357965910E+04  0.50400001928E-02 0.  1.
        1   -1    0    0  501    0  0.00000000000E+00  0.00000000000E+00 -0.21678489754E+04  0.21678489754E+04  0.50400001928E-02 0. -1.
    10030    2    1    2    0    0  0.00000000000E+00  0.00000000000E+00 -0.73205238440E+03  0.36036455663E+04  0.35285068619E+04 0.  0.
        2    1    3    3  502    0 -0.13891525583E+04 -0.10875306227E+04 -0.37732907760E+03  0.18041188759E+04  0.25500000920E-02 0. -1.
       -2    1    3    3    0  502  0.13891525583E+04  0.10875306227E+04 -0.35472330680E+03  0.17995266905E+04  0.25500000920E-02 0.  1.
</event>
<event>
 5   0  0.7074157E-07  0.3679941E+04  0.7818609E-02  0.8072422E-01
       -2   -1    0    0    0  501  0.00000000000E+00  0.00000000000E+00  0.13442022086E+04  0.13442022086E+04  0.25500000920E-02 0. -1.
        2   -1    0    0  501    0  0.00000000000E+00  0.00000000000E+00 -0.25185877936E+04  0.25185877936E+04  0.25500000920E-02 0.  1.
    10030    2    1    2    0    0  0.00000000000E+00  0.00000000000E+00 -0.11743855851E+04  0.38627900022E+04  0.36799409097E+04 0.  0.
        3    1    3    3  502    0  0.58062878435E+03 -0.17316302830E+04 -0.35290288457E+03  0.18601649600E+04  0.10100000352E+00 0.  1.
       -3    1    3    3    0  502 -0.58062878435E+03  0.17316302830E+04 -0.82148270049E+03  0.20026250422E+04  0.10100000352E+00 0. -1.
</event>
<event>
 5   0  0.2287500E-07  0.3653331E+04  0.7818609E-02  0.8078384E-01
        1   -1    0    0  501    0  0.00000000000E+00  0.00000000000E+00  0.16375360265E+04  0.16375360265E+04  0.50400001928E-02 0. -1.
       -1   -1    0    0    0  501  0.00000000000E+00  0.00000000000E+00 -0.20376390911E+04  0.20376390911E+04  0.50400001928E-02 0.  1.
    10030    2    1    2    0    0  0.00000000000E+00  0.00000000000E+00 -0.40010306460E+03  0.36751751177E+04  0.36533313131E+04 0.  0.
        2    1    3    3  502    0  0.42908043640E+03 -0.50919104191E+03  0.15110956013E+04  0.16513011398E+04  0.25500000920E-02 0. -1.
       -2    1    3    3    0  502 -0.42908043640E+03  0.50919104191E+03 -0.19111986659E+04  0.20238739779E+04  0.25500000920E-02 0.  1.
</event>
<event>
 5   0  0.6949625E-07  0.3718979E+04  0.7818609E-02  0.8063769E-01
        2   -1    0    0  501    0  0.00000000000E+00  0.00000000000E+00  0.14567224734E+04  0.14567224734E+04  0.25500000920E-02 0.  1.
       -2   -1    0    0    0  501  0.00000000000E+00  0.00000000000E+00 -0.23736168481E+04  0.23736168481E+04  0.25500000920E-02 0. -1.
    10030    2    1    2    0    0  0.00000000000E+00  0.00000000000E+00 -0.91689437472E+03  0.38303393215E+04  0.37189788953E+04 0.  0.
        5    1    3    3  502    0 -0.24151130727E+03 -0.94507729837E+03  0.11720485737E+04  0.15248668009E+04  0.46999998093E+01 0.  1.
       -5    1    3    3    0  502  0.24151130727E+03  0.94507729837E+03 -0.20889429484E+04  0.23054725206E+04  0.46999998093E+01 0. -1.
</event>
<event>
 5   0  0.6939921E-07  0.3730832E+04  0.7818609E-02  0.8061163E-01
        2   -1    0    0  501    0  0.00000000000E+00  0.00000000000E+00  0.24540233324E+04  0.24540233324E+04  0.25500000920E-02 0.  1.
       -2   -1    0    0    0  501  0.00000000000E+00  0.00000000000E+00 -0.14179885930E+04  0.14179885930E+04  0.25500000920E-02 0. -1.
    10030    2    1    2    0    0  0.00000000000E+00  0.00000000000E+00  0.10360347394E+04  0.38720119254E+04  0.37308321282E+04 0.  0.
        4    1    3    3  502    0 -0.44658911540E+03 -0.13726222156E+04  0.17443585461E+04  0.22641382323E+04  0.12699999809E+01 0.  1.
       -4    1    3    3    0  502  0.44658911540E+03  0.13726222156E+04 -0.70832380664E+03  0.16078736931E+04  0.12699999809E+01 0. -1.
</event>
<event>
 5   0  0.2345471E-07  0.3553510E+04  0.7818609E-02  0.8101225E-01
        1   -1    0    0  501    0  0.00000000000E+00  0.00000000000E+00  0.24839872105E+04  0.24839872105E+04  0.50400001928E-02 0. -1.
       -1   -1    0    0    0  501  0.00000000000E+00  0.00000000000E+00 -0.12708834835E+04  0.12708834835E+04  0.50400001928E-02 0.  1.
    10030    2    1    2    0    0  0.00000000000E+00  0.00000000000E+00  0.12131037270E+04  0.37548706940E+04  0.35535099938E+04 0.  0.
        5    1    3    3  502    0  0.33726446533E+03  0.20971152128E+03 -0.12233746146E+04  0.12862323971E+04  0.46999998093E+01 0.  1.
       -5    1    3    3    0  502 -0.33726446533E+03 -0.20971152128E+03  0.24364783416E+04  0.24686382969E+04  0.46999998093E+01 0. -1.
</event>
<event>
 5   0  0.2287500E-07  0.3458212E+04  0.7818609E-02  0.8123765E-01
        1   -1    0    0  501    0  0.00000000000E+00  0.00000000000E+00  0.22935829977E+04  0.22935829977E+04  0.50400001928E-02 0.  1.
       -1   -1    0    0    0  501  0.00000000000E+00  0.00000000000E+00 -0.13035531057E+04  0.13035531057E+04  0.50400001928E-02 0. -1.
    10030    2    1    2    0    0  0.00000000000E+00  0.00000000000E+00  0.99002989202E+03  0.35971361034E+04  0.34582118153E+04 0.  0.
        3    1    3    3  502    0  0.64954040787E+03  0.12236078523E+04  0.15713235474E+04  0.20947975125E+04  0.10100000352E+00 0.  1.
       -3    1    3    3    0  502 -0.64954040787E+03 -0.12236078523E+04 -0.58129365534E+03  0.15023385909E+04  0.10100000352E+00 0. -1.
</event>
<event>
 5   0  0.2287500E-07  0.3727505E+04  0.7818609E-02  0.8061894E-01
        1   -1    0    0  501    0  0.00000000000E+00  0.00000000000E+00  0.20788734852E+04  0.20788734852E+04  0.50400001928E-02 0.  1.
       -1   -1    0    0    0  501  0.00000000000E+00  0.00000000000E+00 -0.16708919465E+04  0.16708919465E+04  0.50400001928E-02 0. -1.
    10030    2    1    2    0    0  0.00000000000E+00  0.00000000000E+00  0.40798153869E+03  0.37497654318E+04  0.37275047763E+04 0.  0.
        4    1    3    3  502    0  0.26325178828E+03 -0.14710949288E+04 -0.91627979256E+03  0.17529951696E+04  0.12699999809E+01 0. -1.
       -4    1    3    3    0  502 -0.26325178828E+03  0.14710949288E+04  0.13242613313E+04  0.19967702622E+04  0.12699999809E+01 0.  1.
</event>
<event>
 5   0  0.2345471E-07  0.3333123E+04  0.7818609E-02  0.8154518E-01
       -1   -1    0    0    0  501  0.00000000000E+00  0.00000000000E+00  0.11383029018E+04  0.11383029018E+04  0.50400001928E-02 0. -1.
        1   -1    0    0  501    0  0.00000000000E+00  0.00000000000E+00 -0.24399715479E+04  0.24399715479E+04  0.50400001928E-02 0.  1.
    10030    2    1    2    0    0  0.00000000000E+00  0.00000000000E+00 -0.13016686461E+04  0.35782744497E+04  0.33331226759E+04 0.  0.
        5    1    3    3  502    0  0.12073959214E+04 -0.56021941397E+03 -0.17274686237E+04  0.21807844090E+04  0.46999998093E+01 0. -1.
       -5    1    3    3    0  502 -0.12073959214E+04  0.56021941397E+03  0.42579997761E+03  0.13974900406E+04  0.46999998093E+01 0.  1.
</event>
<event>
 5   0  0.7124627E-07  0.3749248E+04  0.7818609E-02  0.8057135E-01
        2   -1    0    0  501    0  0.00000000000E+00  0.00000000000E+00  0.18912333618E+04  0.18912333618E+04  0.25500000920E-02 0.  1.
       -2   -1    0    0    0  501  0.00000000000E+00  0.00000000000E+00 -0.18581606969E+04  0.18581606969E+04  0.25500000920E-02 0. -1.
    10030    2    1    2    0    0  0.00000000000E+00  0.00000000000E+00  0.33072664902E+02  0.37493940586E+04  0.37492481921E+04 0.  0.
        2    1    3    3  502    0  0.17448856166E+04  0.64736154589E+03 -0.20822275116E+03  0.18727144738E+04  0.25500000920E-02 0. -1.
       -2    1    3    3    0  502 -0.17448856166E+04 -0.64736154589E+03  0.24129541606E+03  0.18766795848E+04  0.25500000920E-02 0.  1.
</event>
<event>
 5   0  0.2287500E-07  0.3699790E+04  0.7818609E-02  0.8068008E-01
       -1   -1    0    0    0  501  0.00000000000E+00  0.00000000000E+00  0.15924375566E+04  0.15924375566E+04  0.50400001928E-02 0. -1.
        1   -1    0    0  501    0  0.00000000000E+00  0.00000000000E+00 -0.21489772465E+04  0.21489772465E+04  0.50400001928E-02 0.  1.
    10030    2    1    2    0    0  0.00000000000E+00  0.00000000000E+00 -0.55653968994E+03  0.37414148031E+04  0.36997903052E+04 0.  0.
        2    1    3    3  502    0 -0.41711135921E+03  0.14562759005E+04 -0.13520020330E+04  0.20304262808E+04  0.25500000920E-02 0.  1.
       -2    1    3    3    0  502  0.41711135921E+03 -0.14562759005E+04  0.79546234310E+03  0.17109885223E+04  0.25500000920E-02 0. -1.
</event>
<event>
 5   0  0.6949625E-07  0.2751537E+04  0.7818609E-02  0.8318474E-01
       -2   -1    0    0    0  501  0.00000000000E+00  0.00000000000E+00  0.13876645440E+04  0.13876645440E+04  0.25500000920E-02 0.  1.
        2   -1    0    0  501    0  0.00000000000E+00  0.00000000000E+00 -0.13639742748E+04  0.13639742748E+04  0.25500000920E-02 0. -1.
    10030    2    1    2    0    0  0.00000000000E+00  0.00000000000E+00  0.23690269266E+02  0.27516388188E+04  0.27515368361E+04 0.  0.
        5    1    3    3  502    0  0.25800987011E+03  0.20460811994E+03  0.13476652354E+04  0.13873201695E+04  0.46999998093E+01 0.  1.
       -5    1    3    3    0  502 -0.25800987011E+03 -0.20460811994E+03 -0.13239749662E+04  0.13643186493E+04  0.46999998093E+01 0. -1.
</event>
<event>
 5   0  0.2411746E-07  0.3729578E+04  0.7818609E-02  0.8061438E-01
        1   -1    0    0  501    0  0.00000000000E+00  0.00000000000E+00  0.17357004279E+04  0.17357004279E+04  0.50400001928E-02 0. -1.
       -1   -1    0    0    0  501  0.00000000000E+00  0.00000000000E+00 -0.20034785529E+04  0.20034785529E+04  0.50400001928E-02 0.  1.
    10030    2    1    2    0    0  0.00000000000E+00  0.00000000000E+00 -0.26777812500E+03  0.37391789809E+04  0.37295783042E+04 0.  0.
        1    1    3    3  502    0  0.93791832286E+03 -0.14162855594E+04  0.63743070720E+03  0.18143520806E+04  0.50400001928E-02 0.  1.
       -1    1    3    3    0  502 -0.93791832286E+03  0.14162855594E+04 -0.90520883220E+03  0.19248269002E+04  0.50400001928E-02 0. -1.
</event>
<event>
 5   0  0.7074157E-07  0.2957148E+04  0.7818609E-02  0.8256075E-01
        2   -1    0    0  501    0  0.00000000000E+00  0.00000000000E+00  0.17011676736E+04  0.17011676736E+04  0.25500000920E-02 0.  1.
       -2   -1    0    0    0  501  0.00000000000E+00  0.00000000000E+00 -0.12851058009E+04  0.12851058009E+04  0.25500000920E-02 0. -1.
    10030    2    1    2    0    0  0.00000000000E+00  0.00000000000E+00  0.41606187266E+03  0.29862734745E+04  0.29571475754E+04 0.  0.
        3    1    3    3  502    0  0.11813931930E+04 -0.10073485319E+03 -0.68403994032E+03  0.13688491653E+04  0.10100000352E+00 0. -1.
       -3    1    3    3    0  502 -0.11813931930E+04  0.10073485319E+03  0.11001018130E+04  0.16174243093E+04  0.10100000352E+00 0.  1.
</event>
<event>
 5   0  0.6949625E-07  0.3065651E+04  0.7818609E-02  0.8225228E-01
       -2   -1    0    0    0  501  0.00000000000E+00  0.00000000000E+00  0.13539514600E+04  0.13539514600E+04  0.25500000920E-02 0.  1.
        2   -1    0    0  501    0  0.00000000000E+00  0.00000000000E+00 -0.17353316160E+04  0.17353316160E+04  0.25500000920E-02 0. -1.
    10030    2    1    2    0    0  0.00000000000E+00  0.00000000000E+00 -0.38138015598E+03  0.30892830759E+04  0.30656514968E+04 0.  0.
        5    1    3    3  502    0  0.13352296482E+04  0.61393938248E+03 -0.62967744932E+03  0.15988356885E+04  0.46999998093E+01 0. -1.
       -5    1    3    3    0  502 -0.13352296482E+04 -0.61393938248E+03  0.24829729334E+03  0.14904473874E+04  0.46999998093E+01 0.  1.
</event>
<event>
 5   0  0.6949625E-07  0.3864550E+04  0.7818609E-02  0.8032443E-01
       -2   -1    0    0    0  501  0.00000000000E+00  0.00000000000E+00  0.16410410180E+04  0.16410410180E+04  0.25500000920E-02 0. -1.
        2   -1    0    0  501    0  0.00000000000E+00  0.00000000000E+00 -0.22751941872E+04  0.22751941872E+04  0.25500000920E-02 0.  1.
    10030    2    1    2    0    0  0.00000000000E+00  0.00000000000E+00 -0.63415316919E+03  0.39162352053E+04  0.38645501602E+04 0.  0.
        5    1    3    3  502    0  0.17664285429E+04 -0.54048155662E+03  0.25731509390E+03  0.18651067685E+04  0.46999998093E+01 0.  1.
       -5    1    3    3    0  502 -0.17664285429E+04  0.54048155662E+03 -0.89146826308E+03  0.20511284368E+04  0.46999998093E+01 0. -1.
</event>
<event>
 5   0  0.7074157E-07  0.3749667E+04  0.7818609E-02  0.8057043E-01
        2   -1    0    0  501    0  0.00000000000E+00  0.00000000000E+00  0.31103317377E+04  0.31103317377E+04  0.25500000920E-02 0. -1.
       -2   -1    0    0    0  501  0.00000000000E+00  0.00000000000E+00 -0.11301047929E+04  0.11301047929E+04  0.25500000920E-02 0.  1.
    10030    2    1    2    0    0  0.00000000000E+00  0.00000000000E+00  0.19802269448E+04  0.42404365306E+04  0.37496670809E+04 0.  0.
        3    1    3    3  502    0 -0.15080608368E+04  0.97032924887E+03  0.37151457335E+03  0.18313408823E+04  0.10100000352E+00 0.  1.
       -3    1    3    3    0  502  0.15080608368E+04 -0.97032924887E+03  0.16087123714E+04  0.24090956483E+04  0.10100000352E+00 0. -1.
</event>
<event>
 5   0  0.2411746E-07  0.3402885E+04  0.7818609E-02  0.8137199E-01
        1   -1    0    0  501    0  0.00000000000E+00  0.00000000000E+00  0.17687414502E+04  0.17687414502E+04  0.50400001928E-02 0. -1.
       -1   -1    0    0    0  501  0.00000000000E+00  0.00000000000E+00 -0.16367042069E+04  0.16367042069E+04  0.50400001928E-02 0.  1.
    10030    2    1    2    0    0  0.00000000000E+00  0.00000000000E+00  0.13203724331E+03  0.34054456571E+04  0.34028849951E+04 0.  0.
        1    1    3    3  502    0 -0.24535598789E+03  0.40709475638E+03 -0.15689123201E+04  0.16393326599E+04  0.50400001928E-02 0.  1.
       -1    1    3    3    0  502  0.24535598789E+03 -0.40709475638E+03  0.17009495635E+04  0.17661129972E+04  0.50400001928E-02 0. -1.
</event>
<event>
 5   0  0.2287500E-07  0.3695044E+04  0.7818609E-02  0.8069061E-01
        1   -1    0    0  501    0  0.00000000000E+00  0.00000000000E+00  0.29473903340E+04  0.29473903340E+04  0.50400001928E-02 0. -1.
       -1   -1    0    0    0  501  0.00000000000E+00  0.00000000000E+00 -0.11580882947E+04  0.11580882947E+04  0.50400001928E-02 0.  1.
    10030    2    1    2    0    0  0.00000000000E+00  0.00000000000E+00  0.17893020393E+04  0.41054786287E+04  0.36950443817E+04 0.  0.
        4    1    3    3  502    0  0.25311913160E+03 -0.14171095170E+04  0.21813279939E+04  0.26135152779E+04  0.12699999809E+01 0. -1.
       -4    1    3    3    0  502 -0.25311913160E+03  0.14171095170E+04 -0.39202595460E+03  0.14919633508E+04  0.12699999809E+01 0.  1.
</event>
<event>
 5   0  0.2345471E-07  0.3639746E+04  0.7818609E-02  0.8081448E-01
       -1   -1    0    0    0  501  0.00000000000E+00  0.00000000000E+00  0.18003249539E+04  0.18003249539E+04  0.50400001928E-02 0.  1.
        1   -1    0    0  501    0  0.00000000000E+00  0.00000000000E+00 -0.18396334619E+04  0.18396334619E+04  0.50400001928E-02 0. -1.
    10030    2    1    2    0    0  0.00000000000E+00  0.00000000000E+00 -0.39308507934E+02  0.36399584158E+04  0.36397461601E+04 0.  0.
        5    1    3    3  502    0  0.15396856233E+04 -0.17706972262E+03 -0.97361261910E+03  0.18302811608E+04  0.46999998093E+01 0. -1.
       -5    1    3    3    0  502 -0.15396856233E+04  0.17706972262E+03  0.93430411117E+03  0.18096772551E+04  0.46999998093E+01 0.  1.
</event>
<event>
 5   0  0.7124627E-07  0.3600507E+04  0.7818609E-02  0.8090376E-01
       -2   -1    0    0    0  501  0.00000000000E+00  0.00000000000E+00  0.10316620841E+04  0.10316620841E+04  0.25500000920E-02 0.  1.
        2   -1    0    0  501    0  0.00000000000E+00  0.00000000000E+00 -0.31414475212E+04  0.31414475212E+04  0.25500000920E-02 0. -1.
    10030    2    1    2    0    0  0.00000000000E+00  0.00000000000E+00 -0.21097854372E+04  0.41731096053E+04  0.36005067959E+04 0.  0.
        2    1    3    3  502    0  0.77985762241E+03 -0.13414387536E+04 -0.21129050073E+04  0.26214506310E+04  0.25500000920E-02 0. -1.
       -2    1    3    3    0  502 -0.77985762241E+03  0.13414387536E+04  0.31195701426E+01  0.15516589743E+04  0.25500000920E-02 0.  1.
</event>
<event>
 5   0  0.2287500E-07  0.3689009E+04  0.7818609E-02  0.8070402E-01
       -1   -1    0    0    0  501  0.00000000000E+00  0.00000000000E+00  0.17354543510E+04  0.17354543510E+04  0.50400001928E-02 0. -1.
        1   -1    0    0  501    0  0.00000000000E+00  0.00000000000E+00 -0.19604065471E+04  0.19604065471E+04  0.50400001928E-02 0.  1.
    10030    2    1    2    0    0  0.00000000000E+00  0.00000000000E+00 -0.22495219607E+03  0.36958608981E+04  0.36890085778E+04 0.  0.
        3    1    3    3  502    0  0.28007764572E+03  0.78120233619E+03 -0.17627989114E+04  0.19483789646E+04  0.10100000352E+00 0.  1.
       -3    1    3    3    0  502 -0.28007764572E+03 -0.78120233619E+03  0.15378467153E+04  0.17474819334E+04  0.10100000352E+00 0. -1.
</event>
<event>
 5   0  0.2287500E-07  0.3685783E+04  0.7818609E-02  0.8071120E-01
        1   -1    0    0  501    0  0.00000000000E+00  0.00000000000E+00  0.17499108127E+04  0.17499108127E+04  0.50400001928E-02 0.  1.
       -1   -1    0    0    0  501  0.00000000000E+00  0.00000000000E+00 -0.19408122075E+04  0.19408122075E+04  0.50400001928E-02 0. -1.
    10030    2    1    2    0    0  0.00000000000E+00  0.00000000000E+00 -0.19090139480E+03  0.36907230201E+04  0.36857825585E+04 0.  0.
        4    1    3    3  502    0 -0.92166713093E+03 -0.29361571784E+03  0.14752710865E+04  0.17641164592E+04  0.12699999809E+01 0.  1.
       -4    1    3    3    0  502  0.92166713093E+03  0.29361571784E+03 -0.16661724813E+04  0.19266065609E+04  0.12699999809E+01 0. -1.
</event>
<event>
 5   0  0.6939921E-07  0.3897863E+04  0.7818609E-02  0.8025474E-01
       -2   -1    0    0    0  501  0.00000000000E+00  0.00000000000E+00  0.16032306026E+04  0.16032306026E+04  0.25500000920E-02 0.  1.
        2   -1    0    0  501    0  0.00000000000E+00  0.00000000000E+00 -0.23691754421E+04  0.23691754421E+04  0.25500000920E-02 0. -1.
    10030    2    1    2    0    0  0.00000000000E+00  0.00000000000E+00 -0.76594483947E+03  0.39724060448E+04  0.38978632977E+04 0.  0.
        4    1    3    3  502    0  0.17071905839E+04 -0.47544774191E+03  0.44357592085E+03  0.18268309872E+04  0.12699999809E+01 0.  1.
       -4    1    3    3    0  502 -0.17071905839E+04  0.47544774191E+03 -0.12095207603E+04  0.21455750576E+04  0.12699999809E+01 0. -1.
</event>
<event>
 5   0  0.2287500E-07  0.3576661E+04  0.7818609E-02  0.8095859E-01
       -1   -1    0    0    0  501  0.00000000000E+00  0.00000000000E+00  0.14120877920E+04  0.14120877920E+04  0.50400001928E-02 0. -1.
        1   -1    0    0  501    0  0.00000000000E+00  0.00000000000E+00 -0.22648206870E+04  0.22648206870E+04  0.50400001928E-02 0.  1.
    10030    2    1    2    0    0  0.00000000000E+00  0.00000000000E+00 -0.85273289506E+03  0.36769084790E+04  0.35766608132E+04 0.  0.
        4    1    3    3  502    0 -0.17065765959E+04 -0.44138846457E+03 -0.73630730165E+03  0.19103343973E+04  0.12699999809E+01 0.  1.
       -4    1    3    3    0  502  0.17065765959E+04  0.44138846457E+03 -0.11642559341E+03  0.17665740817E+04  0.12699999809E+01 0. -1.
</event>
<event>
 5   0  0.2287500E-07  0.3699594E+04  0.7818609E-02  0.8068052E-01
        1   -1    0    0  501    0  0.00000000000E+00  0.00000000000E+00  0.27679091533E+04  0.27679091533E+04  0.50400001928E-02 0.  1.
       -1   -1    0    0    0  501  0.00000000000E+00  0.00000000000E+00 -0.12362217174E+04  0.12362217174E+04  0.50400001928E-02 0. -1.
    10030    2    1    2    0    0  0.00000000000E+00  0.00000000000E+00  0.15316874359E+04  0.40041308708E+04  0.36995942519E+04 0.  0.
        4    1    3    3  502    0  0.25276898384E+03  0.35323822065E+03  0.27119308686E+04  0.27464959583E+04  0.12699999809E+01 0.  1.
       -4    1    3    3    0  502 -0.25276898384E+03 -0.35323822065E+03 -0.11802434327E+04  0.12576349125E+04  0.12699999809E+01 0. -1.
</event>
<event>
 5   0  0.2411746E-07  0.3751888E+04  0.7818609E-02  0.8056559E-01
        1   -1    0    0  501    0  0.00000000000E+00  0.00000000000E+00  0.13570609957E+04  0.13570609957E+04  0.50400001928E-02 0.  1.
       -1   -1    0    0    0  501  0.00000000000E+00  0.00000000000E+00 -0.25932254703E+04  0.25932254703E+04  0.50400001928E-02 0. -1.
    10030    2    1    2    0    0  0.00000000000E+00  0.00000000000E+00 -0.12361644746E+04  0.39502864661E+04  0.37518875990E+04 0.  0.
        1    1    3    3  502    0 -0.29966988437E+03  0.17353190084E+04 -0.12988250053E+04  0.21881682968E+04  0.50400001928E-02 0. -1.
       -1    1    3    3    0  502  0.29966988437E+03 -0.17353190084E+04  0.62660530680E+02  0.17621181693E+04  0.50400001928E-02 0.  1.
</event>
<event>
 5   0  0.7300916E-07  0.3730234E+04  0.7818609E-02  0.8061294E-01
       -2   -1    0    0    0  501  0.00000000000E+00  0.00000000000E+00  0.15047805912E+04  0.15047805912E+04  0.25500000920E-02 0. -1.
        2   -1    0    0  501    0  0.00000000000E+00  0.00000000000E+00 -0.23117405707E+04  0.23117405707E+04  0.25500000920E-02 0.  1.
    10030    2    1    2    0    0  0.00000000000E+00  0.00000000000E+00 -0.80695997949E+03  0.38165211619E+04  0.37302344928E+04 0.  0.
        1    1    3    3  502    0 -0.34412218361E+03  0.13950998879E+04 -0.16200771872E+04  0.21654962173E+04  0.50400001928E-02 0.  1.
       -1    1    3    3    0  502  0.34412218361E+03 -0.13950998879E+04  0.81311720772E+03  0.16510249447E+04  0.50400001928E-02 0. -1.
</event>
<event>
 5   0  0.2287500E-07  0.3735672E+04  0.7818609E-02  0.8060102E-01
        1   -1    0    0  501    0  0.00000000000E+00  0.00000000000E+00  0.18090630708E+04  0.18090630708E+04  0.50400001928E-02 0.  1.
       -1   -1    0    0    0  501  0.00000000000E+00  0.00000000000E+00 -0.19285186600E+04  0.19285186601E+04  0.50400001928E-02 0. -1.
    10030    2    1    2    0    0  0.00000000000E+00  0.00000000000E+00 -0.11945558921E+03  0.37375817309E+04  0.37356723033E+04 0.  0.
        3    1    3    3  502    0 -0.62787952026E+02  0.14722504395E+04 -0.12080723516E+04  0.19054927186E+04  0.10100000352E+00 0. -1.
       -3    1    3    3    0  502  0.62787952026E+02 -0.14722504395E+04  0.10886167624E+04  0.18320890123E+04  0.10100000352E+00 0.  1.
</event>
<event>
 5   0  0.7124627E-07  0.3112604E+04  0.7818609E-02  0.8212287E-01
        2   -1    0    0  501    0  0.00000000000E+00  0.00000000000E+00  0.20779281601E+04  0.20779281601E+04  0.25500000920E-02 0.  1.
       -2   -1    0    0    0  501  0.00000000000E+00  0.00000000000E+00 -0.11656204970E+04  0.11656204970E+04  0.25500000920E-02 0. -1.
    10030    2    1    2    0    0  0.00000000000E+00  0.00000000000E+00  0.91230766313E+03  0.32435486571E+04  0.31126038326E+04 0.  0.
        2    1    3    3  502    0 -0.68629565782E+02 -0.10870902799E+04  0.16144925750E+04  0.19475783857E+04  0.25500000920E-02 0. -1.
       -2    1    3    3    0  502  0.68629565782E+02  0.10870902799E+04 -0.70218491185E+03  0.12959702714E+04  0.25500000920E-02 0.  1.
</event>
<event>
 5   0  0.7074157E-07  0.3417766E+04  0.7818609E-02  0.8133560E-01
       -2   -1    0    0    0  501  0.00000000000E+00  0.00000000000E+00  0.15833718125E+04  0.15833718125E+04  0.25500000920E-02 0.  1.
        2   -1    0    0  501    0  0.00000000000E+00  0.00000000000E+00 -0.18443431542E+04  0.18443431542E+04  0.25500000920E-02 0. -1.
    10030    2    1    2    0    0  0.00000000000E+00  0.00000000000E+00 -0.26097134168E+03  0.34277149667E+04  0.34177659153E+04 0.  0.
        3    1    3    3  502    0  0.59289722621E+03 -0.91257915834E+03  0.11909054426E+04  0.16132524987E+04  0.10100000352E+00 0.  1.
       -3    1    3    3    0  502 -0.59289722621E+03  0.91257915834E+03 -0.14518767843E+04  0.18144624680E+04  0.10100000352E+00 0. -1.
</event>
<event>
 5   0  0.2345471E-07  0.3695307E+04  0.7818609E-02  0.8069003E-01
       -1   -1    0    0    0  501  0.00000000000E+00  0.00000000000E+00  0.18387248197E+04  0.18387248197E+04  0.50400001928E-02 0.  1.
        1   -1    0    0  501    0  0.00000000000E+00  0.00000000000E+00 -0.18566252537E+04  0.18566252538E+04  0.50400001928E-02 0. -1.
    10030    2    1    2    0    0  0.00000000000E+00  0.00000000000E+00 -0.17900434060E+02  0.36953500735E+04  0.36953067180E+04 0.  0.
        5    1    3    3  502    0  0.10680175740E+04 -0.14929405252E+04  0.20145162117E+03  0.18466558412E+04  0.46999998093E+01 0.  1.
       -5    1    3    3    0  502 -0.10680175740E+04  0.14929405252E+04 -0.21935205523E+03  0.18486942322E+04  0.46999998093E+01 0. -1.
</event>
<event>
 5   0  0.6939921E-07  0.3768885E+04  0.7818609E-02  0.8052865E-01
       -2   -1    0    0    0  501  0.00000000000E+00  0.00000000000E+00  0.28280624268E+04  0.28280624268E+04  0.25500000920E-02 0. -1.
        2   -1    0    0  501    0  0.00000000000E+00  0.00000000000E+00 -0.12556736276E+04  0.12556736276E+04  0.25500000920E-02 0.  1.
    10030    2    1    2    0    0  0.00000000000E+00  0.00000000000E+00  0.15723887991E+04  0.40837360544E+04  0.37688849315E+04 0.  0.
        4    1    3    3  502    0 -0.33899708235E+03 -0.18347053757E+04  0.10729927294E+04  0.21522959480E+04  0.12699999809E+01 0.  1.
       -4    1    3    3    0  502  0.33899708235E+03  0.18347053757E+04  0.49939606975E+03  0.19314401065E+04  0.12699999809E+01 0. -1.
</event>
<event>
 5   0  0.6939921E-07  0.3629263E+04  0.7818609E-02  0.8083821E-01
       -2   -1    0    0    0  501  0.00000000000E+00  0.00000000000E+00  0.23526040446E+04  0.23526040446E+04  0.25500000920E-02 0. -1.
        2   -1    0    0  501    0  0.00000000000E+00  0.00000000000E+00 -0.13996777723E+04  0.13996777723E+04  0.25500000920E-02 0.  1.
    10030    2    1    2    0    0  0.00000000000E+00  0.00000000000E+00  0.95292627233E+03  0.37522818169E+04  0.36292630592E+04 0.  0.
        4    1    3    3  502    0 -0.12333644109E+04 -0.12185826019E+04  0.10301092212E+04  0.20167443934E+04  0.12699999809E+01 0.  1.
       -4    1    3    3    0  502  0.12333644109E+04  0.12185826019E+04 -0.77182948894E+02  0.17355374235E+04  0.12699999809E+01 0. -1.
</event>
<event>
 5   0  0.7124627E-07  0.3315040E+04  0.7818609E-02  0.8159079E-01
        2   -1    0    0  501    0  0.00000000000E+00  0.00000000000E+00  0.18193648310E+04  0.18193648310E+04  0.25500000920E-02 0. -1.
       -2   -1    0    0    0  501  0.00000000000E+00  0.00000000000E+00 -0.15100719158E+04  0.15100719158E+04  0.25500000920E-02 0.  1.
    10030    2    1    2    0    0  0.00000000000E+00  0.00000000000E+00  0.30929291520E+03  0.33294367468E+04  0.33150395086E+04 0.  0.
        2    1    3    3  502    0  0.11327008407E+04 -0.11730104079E+04 -0.14397821892E+03  0.16369771956E+04  0.25500000920E-02 0.  1.
       -2    1    3    3    0  502 -0.11327008407E+04  0.11730104079E+04  0.45327113412E+03  0.16924595512E+04  0.25500000920E-02 0. -1.
</event>
<event>
 5   0  0.2345471E-07  0.3696797E+04  0.7818609E-02  0.8068672E-01
       -1   -1    0    0    0  501  0.00000000000E+00  0.00000000000E+00  0.29288090510E+04  0.29288090510E+04  0.50400001928E-02 0.  1.
        1   -1    0    0  501    0  0.00000000000E+00  0.00000000000E+00 -0.11665411313E+04  0.11665411313E+04  0.50400001928E-02 0. -1.
    10030    2    1    2    0    0  0.00000000000E+00  0.00000000000E+00  0.17622679197E+04  0.40953501823E+04  0.36967965720E+04 0.  0.
        5    1    3    3  502    0 -0.73100719169E+03 -0.40009903700E+03  0.27088881897E+04  0.28341750242E+04  0.46999998093E+01 0.  1.
       -5    1    3    3    0  502  0.73100719169E+03  0.40009903700E+03 -0.94662027000E+03  0.12611751581E+04  0.46999998093E+01 0. -1.
</event>
<event>
 5   0  0.7074157E-07  0.3014654E+04  0.7818609E-02  0.8239559E-01
        2   -1    0    0  501    0  0.00000000000E+00  0.00000000000E+00  0.22154701556E+04  0.22154701556E+04  0.25500000920E-02 0. -1.
       -2   -1    0    0    0  501  0.00000000000E+00  0.00000000000E+00 -0.10255317098E+04  0.10255317098E+04  0.25500000920E-02 0.  1.
    10030    2    1    2    0    0  0.00000000000E+00  0.00000000000E+00  0.11899384458E+04  0.32410018654E+04  0.30146541405E+04 0.  0.
        3    1    3    3  502    0 -0.35381449343E+03  0.14647129686E+04  0.55380450868E+03  0.16053872493E+04  0.10100000352E+00 0. -1.
       -3    1    3    3    0  502  0.35381449343E+03 -0.14647129686E+04  0.63613393708E+03  0.16356146161E+04  0.10100000352E+00 0.  1.
</event>
<event>
 5   0  0.2287500E-07  0.3664448E+04  0.7818609E-02  0.8075887E-01
       -3   -1    0    0    0  501  0.00000000000E+00  0.00000000000E+00  0.19131867338E+04  0.19131867365E+04  0.10100000352E+00 0. -1.
        3   -1    0    0  501    0  0.00000000000E+00  0.00000000000E+00 -0.17546876868E+04  0.17546876897E+04  0.10100000352E+00 0.  1.
    10030    2    1    2    0    0  0.00000000000E+00  0.00000000000E+00  0.15849904698E+03  0.36678744262E+04  0.36644482338E+04 0.  0.
        3    1    3    3  502    0 -0.72489370520E+03 -0.57784876177E+03 -0.15026284286E+04  0.17655798707E+04  0.10100000352E+00 0.  1.
       -3    1    3    3    0  502  0.72489370520E+03  0.57784876177E+03  0.16611274756E+04  0.19022945554E+04  0.10100000352E+00 0. -1.
</event>
<event>
 5   0  0.2287500E-07  0.3809060E+04  0.7818609E-02  0.8044214E-01
        1   -1    0    0  501    0  0.00000000000E+00  0.00000000000E+00  0.22987390730E+04  0.22987390730E+04  0.50400001928E-02 0.  1.
       -1   -1    0    0    0  501  0.00000000000E+00  0.00000000000E+00 -0.15779231730E+04  0.15779231730E+04  0.50400001928E-02 0. -1.
    10030    2    1    2    0    0  0.00000000000E+00  0.00000000000E+00  0.72081589998E+03  0.38766622459E+04  0.38090595437E+04 0.  0.
        3    1    3    3  502    0  0.62286051667E+03  0.17820724192E+04  0.61686488728E+03  0.19860160195E+04  0.10100000352E+00 0.  1.
       -3    1    3    3    0  502 -0.62286051667E+03 -0.17820724192E+04  0.10395101271E+03  0.18906462264E+04  0.10100000352E+00 0. -1.
</event>
<event>
 5   0  0.2287500E-07  0.3697423E+04  0.7818609E-02  0.8068533E-01
        3   -1    0    0  501    0  0.00000000000E+00  0.00000000000E+00  0.20764502268E+04  0.20764502292E+04  0.10100000352E+00 0.  1.
       -3   -1    0    0    0  501  0.00000000000E+00  0.00000000000E+00 -0.16459508954E+04  0.16459508985E+04  0.10100000352E+00 0. -1.
    10030    2    1    2    0    0  0.00000000000E+00  0.00000000000E+00  0.43049933136E+03  0.37224011278E+04  0.36974234923E+04 0.  0.
        5    1    3    3  502    0  0.52036135570E+03  0.17483572718E+04 -0.87085439651E+02  0.18262352132E+04  0.46999998093E+01 0.  1.
       -5    1    3    3    0  502 -0.52036135570E+03 -0.17483572718E+04  0.51758477102E+03  0.18961659145E+04  0.46999998093E+01 0. -1.
</event>
<event>
 5   0  0.6939921E-07  0.3688052E+04  0.7818609E-02  0.8070615E-01
       -2   -1    0    0    0  501  0.00000000000E+00  0.00000000000E+00  0.19279427872E+04  0.19279427872E+04  0.25500000920E-02 0.  1.
        2   -1    0    0  501    0  0.00000000000E+00  0.00000000000E+00 -0.17637615018E+04  0.17637615018E+04  0.25500000920E-02 0. -1.
    10030    2    1    2    0    0  0.00000000000E+00  0.00000000000E+00  0.16418128543E+03  0.36917042890E+04  0.36880516621E+04 0.  0.
        4    1    3    3  502    0  0.14911915422E+04  0.10757887258E+04 -0.57532464654E+02  0.18396426815E+04  0.12699999809E+01 0. -1.
       -4    1    3    3    0  502 -0.14911915422E+04 -0.10757887258E+04  0.22171375008E+03  0.18520616075E+04  0.12699999809E+01 0.  1.
</event>
<event>
 5   0  0.2287500E-07  0.3699865E+04  0.7818609E-02  0.8067992E-01
        1   -1    0    0  501    0  0.00000000000E+00  0.00000000000E+00  0.10535875769E+04  0.10535875769E+04  0.50400001928E-02 0.  1.
       -1   -1    0    0    0  501  0.00000000000E+00  0.00000000000E+00 -0.32481875699E+04  0.32481875699E+04  0.50400001928E-02 0. -1.
    10030    2    1    2    0    0  0.00000000000E+00  0.00000000000E+00 -0.21945999930E+04  0.43017751468E+04  0.36998649008E+04 0.  0.
        4    1    3    3  502    0  0.21704990420E+03 -0.16312212087E+04 -0.11467335491E+03  0.16495893076E+04  0.12699999809E+01 0.  1.
       -4    1    3    3    0  502 -0.21704990420E+03  0.16312212087E+04 -0.20799266381E+04  0.26521858391E+04  0.12699999809E+01 0. -1.
</event>
<event>
 5   0  0.2287500E-07  0.3724462E+04  0.7818609E-02  0.8062562E-01
        1   -1    0    0  501    0  0.00000000000E+00  0.00000000000E+00  0.23165806822E+04  0.23165806822E+04  0.50400001928E-02 0. -1.
       -1   -1    0    0    0  501  0.00000000000E+00  0.00000000000E+00 -0.14969926140E+04  0.14969926140E+04  0.50400001928E-02 0.  1.
    10030    2    1    2    0    0  0.00000000000E+00  0.00000000000E+00  0.81958806823E+03  0.38135732962E+04  0.37244619321E+04 0.  0.
        3    1    3    3  502    0 -0.13357976754E+04 -0.94363903800E+03  0.13216598118E+04  0.21027588383E+04  0.10100000352E+00 0. -1.
       -3    1    3    3    0  502  0.13357976754E+04  0.94363903800E+03 -0.50207174354E+03  0.17108144579E+04  0.10100000352E+00 0.  1.
</event>
<event>
 5   0  0.7124627E-07  0.3752546E+04  0.7818609E-02  0.8056416E-01
       -2   -1    0    0    0  501  0.00000000000E+00  0.00000000000E+00  0.14086397840E+04  0.14086397840E+04  0.25500000920E-02 0.  1.
        2   -1    0    0  501    0  0.00000000000E+00  0.00000000000E+00 -0.24991486606E+04  0.24991486606E+04  0.25500000920E-02 0. -1.
    10030    2    1    2    0    0  0.00000000000E+00  0.00000000000E+00 -0.10905088766E+04  0.39077884446E+04  0.37525459248E+04 0.  0.
        2    1    3    3  502    0  0.54030253181E+03  0.16364811545E+04 -0.13178378147E+04  0.21694916227E+04  0.25500000920E-02 0. -1.
       -2    1    3    3    0  502 -0.54030253181E+03 -0.16364811545E+04  0.22732893814E+03  0.17382968219E+04  0.25500000920E-02 0.  1.
</event>
<event>
 5   0  0.2287500E-07  0.3674539E+04  0.7818609E-02  0.8073628E-01
       -1   -1    0    0    0  501  0.00000000000E+00  0.00000000000E+00  0.11348962881E+04  0.11348962881E+04  0.50400001928E-02 0.  1.
        1   -1    0    0  501    0  0.00000000000E+00  0.00000000000E+00 -0.29743334395E+04  0.29743334395E+04  0.50400001928E-02 0. -1.
    10030    2    1    2    0    0  0.00000000000E+00  0.00000000000E+00 -0.18394371514E+04  0.41092297276E+04  0.36745394161E+04 0.  0.
        3    1    3    3  502    0 -0.76243120276E+02  0.18344868843E+04 -0.99393875355E+03  0.20878384511E+04  0.10100000352E+00 0.  1.
       -3    1    3    3    0  502  0.76243120276E+02 -0.18344868843E+04 -0.84549839781E+03  0.20213912765E+04  0.10100000352E+00 0. -1.
</event>
<event>
 5   0  0.6939921E-07  0.3606804E+04  0.7818609E-02  0.8088935E-01
       -2   -1    0    0    0  501  0.00000000000E+00  0.00000000000E+00  0.15414902792E+04  0.15414902792E+04  0.25500000920E-02 0.  1.
        2   -1    0    0  501    0  0.00000000000E+00  0.00000000000E+00 -0.21098149554E+04  0.21098149554E+04  0.25500000920E-02 0. -1.
    10030    2    1    2    0    0  0.00000000000E+00  0.00000000000E+00 -0.56832467617E+03  0.36513052346E+04  0.36068042612E+04 0.  0.
        4    1    3    3  502    0  0.16649618866E+04  0.69083840359E+03 -0.22962889703E+03  0.18171645019E+04  0.12699999809E+01 0.  1.
       -4    1    3    3    0  502 -0.16649618866E+04 -0.69083840359E+03 -0.33869577915E+03  0.18341407327E+04  0.12699999809E+01 0. -1.
</event>
<event>
 5   0  0.7300916E-07  0.3748864E+04  0.7818609E-02  0.8057218E-01
        2   -1    0    0  501    0  0.00000000000E+00  0.00000000000E+00  0.19640536422E+04  0.19640536422E+04  0.25500000920E-02 0. -1.
       -2   -1    0    0    0  501  0.00000000000E+00  0.00000000000E+00 -0.17889003556E+04  0.17889003556E+04  0.25500000920E-02 0.  1.
    10030    2    1    2    0    0  0.00000000000E+00  0.00000000000E+00  0.17515328658E+03  0.37529539979E+04  0.37488644996E+04 0.  0.
        1    1    3    3  502    0  0.12590423983E+04 -0.12725380197E+04  0.64402063019E+03  0.19024466733E+04  0.50400001928E-02 0. -1.
       -1    1    3    3    0  502 -0.12590423983E+04  0.12725380197E+04 -0.46886734361E+03  0.18505073246E+04  0.50400001928E-02 0.  1.
</event>
<event>
 5   0  0.7300916E-07  0.3660040E+04  0.7818609E-02  0.8076876E-01
        2   -1    0    0  501    0  0.00000000000E+00  0.00000000000E+00  0.23817797979E+04  0.23817797979E+04  0.25500000920E-02 0.  1.
       -2   -1    0    0    0  501  0.00000000000E+00  0.00000000000E+00 -0.14060801021E+04  0.14060801021E+04  0.25500000920E-02 0. -1.
    10030    2    1    2    0    0  0.00000000000E+00  0.00000000000E+00  0.97569969578E+03  0.37878599001E+04  0.36600399897E+04 0.  0.
        1    1    3    3  502    0 -0.89941209091E+03 -0.86420188525E+03  0.18737143406E+04  0.22509092469E+04  0.50400001928E-02 0.  1.
       -1    1    3    3    0  502  0.89941209091E+03  0.86420188525E+03 -0.89801464483E+03  0.15369506531E+04  0.50400001928E-02 0. -1.
</event>
<event>
 5   0  0.7074157E-07  0.3856530E+04  0.7818609E-02  0.8034131E-01
        2   -1    0    0  501    0  0.00000000000E+00  0.00000000000E+00  0.29579357582E+04  0.29579357582E+04  0.25500000920E-02 0.  1.
       -2   -1    0    0    0  501  0.00000000000E+00  0.00000000000E+00 -0.12570270623E+04  0.12570270623E+04  0.25500000920E-02 0. -1.
    10030    2    1    2    0    0  0.00000000000E+00  0.00000000000E+00  0.17009086958E+04  0.42149628205E+04  0.38565296818E+04 0.  0.
        3    1    3    3  502    0  0.15564467895E+03  0.16372143752E+04 -0.24984510818E+03  0.16634658892E+04  0.10100000352E+00 0. -1.
       -3    1    3    3    0  502 -0.15564467895E+03 -0.16372143752E+04  0.19507538040E+04  0.25514969313E+04  0.10100000352E+00 0.  1.
</event>
<event>
 5   0  0.6949625E-07  0.3702392E+04  0.7818609E-02  0.8067432E-01
        2   -1    0    0  501    0  0.00000000000E+00  0.00000000000E+00  0.13592866815E+04  0.13592866815E+04  0.25500000920E-02 0. -1.
       -2   -1    0    0    0  501  0.00000000000E+00  0.00000000000E+00 -0.25211209881E+04  0.25211209881E+04  0.25500000920E-02 0.  1.
    10030    2    1    2    0    0  0.00000000000E+00  0.00000000000E+00 -0.11618343065E+04  0.38804076696E+04  0.37023917576E+04 0.  0.
        5    1    3    3  502    0  0.69187345240E+03 -0.83279754721E+03 -0.21546675312E+04  0.24114010220E+04  0.46999998093E+01 0.  1.
       -5    1    3    3    0  502 -0.69187345240E+03  0.83279754721E+03  0.99283322469E+03  0.14690066476E+04  0.46999998093E+01 0. -1.
</event>
<event>
 5   0  0.2287500E-07  0.3711303E+04  0.7818609E-02  0.8065461E-01
        1   -1    0    0  501    0  0.00000000000E+00  0.00000000000E+00  0.13669006952E+04  0.13669006952E+04  0.50400001928E-02 0. -1.
       -1   -1    0    0    0  501  0.00000000000E+00  0.00000000000E+00 -0.25191613475E+04  0.25191613475E+04  0.50400001928E-02 0.  1.
    10030    2    1    2    0    0  0.00000000000E+00  0.00000000000E+00 -0.11522606523E+04  0.38860620427E+04  0.37113034891E+04 0.  0.
        3    1    3    3  502    0 -0.16797168755E+04 -0.77896170621E+03 -0.70528034700E+03  0.19813254401E+04  0.10100000352E+00 0. -1.
       -3    1    3    3    0  502  0.16797168755E+04  0.77896170621E+03 -0.44698030530E+03  0.19047366025E+04  0.10100000352E+00 0.  1.
</event>
<event>
 5   0  0.2287500E-07  0.3443407E+04  0.7818609E-02  0.8127334E-01
        1   -1    0    0  501    0  0.00000000000E+00  0.00000000000E+00  0.26161570280E+04  0.26161570280E+04  0.50400001928E-02 0.  1.
       -1   -1    0    0    0  501  0.00000000000E+00  0.00000000000E+00 -0.11330600706E+04  0.11330600706E+04  0.50400001928E-02 0. -1.
    10030    2    1    2    0    0  0.00000000000E+00  0.00000000000E+00  0.14830969574E+04  0.37492170987E+04  0.34434070726E+04 0.  0.
        4    1    3    3  502    0  0.31968324441E+03  0.16239675190E+04  0.12577795830E+04  0.20788167240E+04  0.12699999809E+01 0.  1.
       -4    1    3    3    0  502 -0.31968324441E+03 -0.16239675190E+04  0.22531737443E+03  0.16704003747E+04  0.12699999809E+01 0. -1.
</event>
<event>
 5   0  0.6939921E-07  0.3579400E+04  0.7818609E-02  0.8095227E-01
       -2   -1    0    0    0  501  0.00000000000E+00  0.00000000000E+00  0.17245951512E+04  0.17245951512E+04  0.25500000920E-02 0.  1.
        2   -1    0    0  501    0  0.00000000000E+00  0.00000000000E+00 -0.18572630781E+04  0.18572630781E+04  0.25500000920E-02 0. -1.
    10030    2    1    2    0    0  0.00000000000E+00  0.00000000000E+00 -0.13266792685E+03  0.35818582293E+04  0.35794004520E+04 0.  0.
        4    1    3    3  502    0 -0.14606043271E+04 -0.74470513662E+03  0.65184577363E+03  0.17643285596E+04  0.12699999809E+01 0.  1.
       -4    1    3    3    0  502  0.14606043271E+04  0.74470513662E+03 -0.78451370048E+03  0.18175296696E+04  0.12699999809E+01 0. -1.
</event>
<event>
 5   0  0.2287500E-07  0.2760909E+04  0.7818609E-02  0.8315508E-01
       -1   -1    0    0    0  501  0.00000000000E+00  0.00000000000E+00  0.11369394559E+04  0.11369394559E+04  0.50400001928E-02 0.  1.
        1   -1    0    0  501    0  0.00000000000E+00  0.00000000000E+00 -0.16761272953E+04  0.16761272953E+04  0.50400001928E-02 0. -1.
    10030    2    1    2    0    0  0.00000000000E+00  0.00000000000E+00 -0.53918783937E+03  0.28130667512E+04  0.27609094554E+04 0.  0.
        3    1    3    3  502    0 -0.73843812896E+03 -0.84474578307E+03  0.54981832641E+03  0.12494744938E+04  0.10100000352E+00 0.  1.
       -3    1    3    3    0  502  0.73843812896E+03  0.84474578307E+03 -0.10890061658E+04  0.15635922575E+04  0.10100000352E+00 0. -1.
</event>
<event>
 5   0  0.2287500E-07  0.3443720E+04  0.7818609E-02  0.8127259E-01
       -1   -1    0    0    0  501  0.00000000000E+00  0.00000000000E+00  0.10808054130E+04  0.10808054130E+04  0.50400001928E-02 0. -1.
        1   -1    0    0  501    0  0.00000000000E+00  0.00000000000E+00 -0.27431404174E+04  0.27431404175E+04  0.50400001928E-02 0.  1.
    10030    2    1    2    0    0  0.00000000000E+00  0.00000000000E+00 -0.16623350045E+04  0.38239458304E+04  0.34437195076E+04 0.  0.
        2    1    3    3  502    0  0.12168985549E+04  0.49180466948E+03  0.40637460283E+03  0.13739920828E+04  0.25500000920E-02 0. -1.
       -2    1    3    3    0  502 -0.12168985549E+04 -0.49180466948E+03 -0.20687096073E+04  0.24499537476E+04  0.25500000920E-02 0.  1.
</event>
<event>
 5   0  0.2287500E-07  0.3234042E+04  0.7818609E-02  0.8179884E-01
        1   -1    0    0  501    0  0.00000000000E+00  0.00000000000E+00  0.30058977468E+04  0.30058977468E+04  0.50400001928E-02 0.  1.
       -1   -1    0    0    0  501  0.00000000000E+00  0.00000000000E+00 -0.86987550966E+03  0.86987550967E+03  0.50400001928E-02 0. -1.
    10030    2    1    2    0    0  0.00000000000E+00  0.00000000000E+00  0.21360222372E+04  0.38757732565E+04  0.32340419506E+04 0.  0.
        3    1    3    3  502    0 -0.11201889830E+04  0.11364382883E+04  0.13815362945E+04  0.21106771150E+04  0.10100000352E+00 0.  1.
       -3    1    3    3    0  502  0.11201889830E+04 -0.11364382883E+04  0.75448594268E+03  0.17650961415E+04  0.10100000352E+00 0. -1.
</event>
<event>
 5   0  0.2287500E-07  0.3776786E+04  0.7818609E-02  0.8051155E-01
        1   -1    0    0  501    0  0.00000000000E+00  0.00000000000E+00  0.16945407025E+04  0.16945407026E+04  0.50400001928E-02 0.  1.
       -1   -1    0    0    0  501  0.00000000000E+00  0.00000000000E+00 -0.21044214546E+04  0.21044214546E+04  0.50400001928E-02 0. -1.
    10030    2    1    2    0    0  0.00000000000E+00  0.00000000000E+00 -0.40988075205E+03  0.37989621572E+04  0.37767858346E+04 0.  0.
        3    1    3    3  502    0  0.18569558050E+04  0.20083560110E+03  0.74916209459E+02  0.18692865615E+04  0.10100000352E+00 0.  1.
       -3    1    3    3    0  502 -0.18569558050E+04 -0.20083560110E+03 -0.48479696151E+03  0.19296755957E+04  0.10100000352E+00 0. -1.
</event>
<event>
 5   0  0.2345471E-07  0.3568253E+04  0.7818609E-02  0.8097803E-01
        1   -1    0    0  501    0  0.00000000000E+00  0.00000000000E+00  0.13634092533E+04  0.13634092533E+04  0.50400001928E-02 0.  1.
       -1   -1    0    0    0  501  0.00000000000E+00  0.00000000000E+00 -0.23346670010E+04  0.23346670010E+04  0.50400001928E-02 0. -1.
    10030    2    1    2    0    0  0.00000000000E+00  0.00000000000E+00 -0.97125774770E+03  0.36980762544E+04  0.35682525654E+04 0.  0.
        5    1    3    3  502    0 -0.12545445743E+04 -0.45468497550E+03 -0.17129723949E+04  0.21713859702E+04  0.46999998093E+01 0. -1.
       -5    1    3    3    0  502  0.12545445743E+04  0.45468497550E+03  0.74171464722E+03  0.15266902842E+04  0.46999998093E+01 0.  1.
</event>
<event>
 5   0  0.2287500E-07  0.3655316E+04  0.7818609E-02  0.8077937E-01
        1   -1    0    0  501    0  0.00000000000E+00  0.00000000000E+00  0.20994995771E+04  0.20994995771E+04  0.50400001928E-02 0.  1.
       -1   -1    0    0    0  501  0.00000000000E+00  0.00000000000E+00 -0.15910146829E+04  0.15910146829E+04  0.50400001928E-02 0. -1.
    10030    2    1    2    0    0  0.00000000000E+00  0.00000000000E+00  0.50848489423E+03  0.36905142600E+04  0.36553164863E+04 0.  0.
        2    1    3    3  502    0  0.45725553479E+03  0.17648953730E+04  0.12496120346E+03  0.18274445557E+04  0.25500000920E-02 0.  1.
       -2    1    3    3    0  502 -0.45725553479E+03 -0.17648953730E+04  0.38352369077E+03  0.18630697043E+04  0.25500000920E-02 0. -1.
</event>
<event>
 5   0  0.2287500E-07  0.3728465E+04  0.7818609E-02  0.8061683E-01
       -1   -1    0    0    0  501  0.00000000000E+00  0.00000000000E+00  0.18675158754E+04  0.18675158754E+04  0.50400001928E-02 0. -1.
        1   -1    0    0  501    0  0.00000000000E+00  0.00000000000E+00 -0.18609548881E+04  0.18609548881E+04  0.50400001928E-02 0.  1.
    10030    2    1    2    0    0  0.00000000000E+00  0.00000000000E+00  0.65609873052E+01  0.37284707636E+04  0.37284649909E+04 0.  0.
        2    1    3    3  502    0  0.13220533641E+04  0.46464813615E+01 -0.13110716125E+04  0.18619225173E+04  0.25500000920E-02 0.  1.
       -2    1    3    3    0  502 -0.13220533641E+04 -0.46464813615E+01  0.13176325998E+04  0.18665482462E+04  0.25500000920E-02 0. -1.
</event>
<event>
 5   0  0.6949625E-07  0.3680931E+04  0.7818609E-02  0.8072201E-01
        2   -1    0    0  501    0  0.00000000000E+00  0.00000000000E+00  0.12316149466E+04  0.12316149466E+04  0.25500000920E-02 0. -1.
       -2   -1    0    0    0  501  0.00000000000E+00  0.00000000000E+00 -0.27503016033E+04  0.27503016033E+04  0.25500000920E-02 0.  1.
    10030    2    1    2    0    0  0.00000000000E+00  0.00000000000E+00 -0.15186866567E+04  0.39819165498E+04  0.36809306226E+04 0.  0.
        5    1    3    3  502    0 -0.97163541411E+03 -0.14996720031E+04 -0.28262923494E+03  0.18091414730E+04  0.46999998093E+01 0. -1.
       -5    1    3    3    0  502  0.97163541411E+03  0.14996720031E+04 -0.12360574218E+04  0.21727750769E+04  0.46999998093E+01 0.  1.
</event>
<event>
 5   0  0.2287500E-07  0.3317927E+04  0.7818609E-02  0.8158349E-01
        1   -1    0    0  501    0  0.00000000000E+00  0.00000000000E+00  0.19622660798E+04  0.19622660798E+04  0.50400001928E-02 0. -1.
       -1   -1    0    0    0  501  0.00000000000E+00  0.00000000000E+00 -0.14025418674E+04  0.14025418674E+04  0.50400001928E-02 0.  1.
    10030    2    1    2    0    0  0.00000000000E+00  0.00000000000E+00  0.55972421240E+03  0.33648079472E+04  0.33179272637E+04 0.  0.
        3    1    3    3  502    0 -0.24147531236E+03  0.70956991187E+03 -0.12210360462E+04  0.14327347356E+04  0.10100000352E+00 0.  1.
       -3    1    3    3    0  502  0.24147531236E+03 -0.70956991187E+03  0.17807602586E+04  0.19320732116E+04  0.10100000352E+00 0. -1.
</event>
<event>
 5   0  0.6949625E-07  0.3693140E+04  0.7818609E-02  0.8069484E-01
       -2   -1    0    0    0  501  0.00000000000E+00  0.00000000000E+00  0.14627571223E+04  0.14627571223E+04  0.25500000920E-02 0.  1.
        2   -1    0    0  501    0  0.00000000000E+00  0.00000000000E+00 -0.23310917778E+04  0.23310917778E+04  0.25500000920E-02 0. -1.
    10030    2    1    2    0    0  0.00000000000E+00  0.00000000000E+00 -0.86833465554E+03  0.37938489001E+04  0.36931401818E+04 0.  0.
        5    1    3    3  502    0  0.29729780721E+03 -0.18214365529E+04 -0.37099313164E+03  0.18824651647E+04  0.46999998093E+01 0.  1.
       -5    1    3    3    0  502 -0.29729780721E+03  0.18214365529E+04 -0.49734152390E+03  0.19113837354E+04  0.46999998093E+01 0. -1.
</event>
<event>
 5   0  0.2287500E-07  0.3759315E+04  0.7818609E-02  0.8054942E-01
        1   -1    0    0  501    0  0.00000000000E+00  0.00000000000E+00  0.21899007112E+04  0.21899007112E+04  0.50400001928E-02 0.  1.
       -1   -1    0    0    0  501  0.00000000000E+00  0.00000000000E+00 -0.16133667587E+04  0.16133667587E+04  0.50400001928E-02 0. -1.
    10030    2    1    2    0    0  0.00000000000E+00  0.00000000000E+00  0.57653395252E+03  0.38032674699E+04  0.37593153697E+04 0.  0.
        3    1    3    3  502    0 -0.10932713598E+04  0.11399045510E+04 -0.74270989631E+03  0.17453488625E+04  0.10100000352E+00 0. -1.
       -3    1    3    3    0  502  0.10932713598E+04 -0.11399045510E+04  0.13192438488E+04  0.20579186074E+04  0.10100000352E+00 0.  1.
</event>
<event>
 5   0  0.6939921E-07  0.3711115E+04  0.7818609E-02  0.8065503E-01
        2   -1    0    0  501    0  0.00000000000E+00  0.00000000000E+00  0.26057946977E+04  0.26057946977E+04  0.25500000920E-02 0.  1.
       -2   -1    0    0    0  501  0.00000000000E+00  0.00000000000E+00 -0.13213218863E+04  0.13213218863E+04  0.25500000920E-02 0. -1.
    10030    2    1    2    0    0  0.00000000000E+00  0.00000000000E+00  0.12844728114E+04  0.39271165841E+04  0.37111149621E+04 0.  0.
        4    1    3    3  502    0  0.13410327951E+03 -0.40906541018E+03  0.25522209209E+04  0.25882719025E+04  0.12699999809E+01 0.  1.
       -4    1    3    3    0  502 -0.13410327951E+03  0.40906541018E+03 -0.12677481095E+04  0.13388446816E+04  0.12699999809E+01 0. -1.
</event>
<event>
 5   0  0.2287500E-07  0.3811888E+04  0.7818609E-02  0.8043609E-01
        1   -1    0    0  501    0  0.00000000000E+00  0.00000000000E+00  0.22329002081E+04  0.22329002081E+04  0.50400001928E-02 0. -1.
       -1   -1    0    0    0  501  0.00000000000E+00  0.00000000000E+00 -0.16268626872E+04  0.16268626872E+04  0.50400001928E-02 0.  1.
    10030    2    1    2    0    0  0.00000000000E+00  0.00000000000E+00  0.60603752085E+03  0.38597628953E+04  0.38118877386E+04 0.  0.
        4    1    3    3  502    0  0.70637149821E+03 -0.13462402405E+04 -0.86089483098E+03  0.17471305050E+04  0.12699999809E+01 0.  1.
       -4    1    3    3    0  502 -0.70637149821E+03  0.13462402405E+04  0.14669323518E+04  0.21126323903E+04  0.12699999809E+01 0. -1.
</event>
<event>
 5   0  0.6939921E-07  0.3684570E+04  0.7818609E-02  0.8071390E-01
       -2   -1    0    0    0  501  0.00000000000E+00  0.00000000000E+00  0.24790969220E+04  0.24790969220E+04  0.25500000920E-02 0. -1.
        2   -1    0    0  501    0  0.00000000000E+00  0.00000000000E+00 -0.13690529013E+04  0.13690529013E+04  0.25500000920E-02 0.  1.
    10030    2    1    2    0    0  0.00000000000E+00  0.00000000000E+00  0.11100440207E+04  0.38481498233E+04  0.36845704410E+04 0.  0.
        4    1    3    3  502    0 -0.11933295305E+04  0.12758807266E+04  0.11658875080E+04  0.21002862403E+04  0.12699999809E+01 0. -1.
       -4    1    3    3    0  502  0.11933295305E+04 -0.12758807266E+04 -0.55843487305E+02  0.17478635830E+04  0.12699999809E+01 0.  1.
</event>
<event>
 5   0  0.7124627E-07  0.3705134E+04  0.7818609E-02  0.8066825E-01
        2   -1    0    0  501    0  0.00000000000E+00  0.00000000000E+00  0.22959952967E+04  0.22959952967E+04  0.25500000920E-02 0. -1.
       -2   -1    0    0    0  501  0.00000000000E+00  0.00000000000E+00 -0.14947784449E+04  0.14947784449E+04  0.25500000920E-02 0.  1.
    10030    2    1    2    0    0  0.00000000000E+00  0.00000000000E+00  0.80121685178E+03  0.37907737416E+04  0.37051338864E+04 0.  0.
        2    1    3    3  502    0  0.18449861507E+04  0.16740212188E+03  0.39791850453E+03  0.18948183298E+04  0.25500000920E-02 0.  1.
       -2    1    3    3    0  502 -0.18449861507E+04 -0.16740212188E+03  0.40329834725E+03  0.18959554118E+04  0.25500000920E-02 0. -1.
</event>
<event>
 5   0  0.2411746E-07  0.3650452E+04  0.7818609E-02  0.8079032E-01
        1   -1    0    0  501    0  0.00000000000E+00  0.00000000000E+00  0.16896339652E+04  0.16896339652E+04  0.50400001928E-02 0.  1.
       -1   -1    0    0    0  501  0.00000000000E+00  0.00000000000E+00 -0.19716997469E+04  0.19716997469E+04  0.50400001928E-02 0. -1.
    10030    2    1    2    0    0  0.00000000000E+00  0.00000000000E+00 -0.28206578165E+03  0.36613337121E+04  0.36504524989E+04 0.  0.
        1    1    3    3  502    0 -0.83218647670E+03  0.13422640317E+04 -0.10587706120E+04  0.19013685260E+04  0.50400001928E-02 0. -1.
       -1    1    3    3    0  502  0.83218647670E+03 -0.13422640317E+04  0.77670483037E+03  0.17599651861E+04  0.50400001928E-02 0.  1.
</event>
<event>
 5   0  0.2411746E-07  0.3209853E+04  0.7818609E-02  0.8186220E-01
       -1   -1    0    0    0  501  0.00000000000E+00  0.00000000000E+00  0.16774838037E+04  0.16774838037E+04  0.50400001928E-02 0. -1.
        1   -1    0    0  501    0  0.00000000000E+00  0.00000000000E+00 -0.15355071212E+04  0.15355071212E+04  0.50400001928E-02 0.  1.
    10030    2    1    2    0    0  0.00000000000E+00  0.00000000000E+00  0.14197668250E+03  0.32129909249E+04  0.32098525363E+04 0.  0.
        1    1    3    3  502    0  0.75944984279E+03  0.36319559211E+03 -0.12967711760E+04  0.15460564624E+04  0.50400001928E-02 0.  1.
       -1    1    3    3    0  502 -0.75944984279E+03 -0.36319559211E+03  0.14387478585E+04  0.16669344625E+04  0.50400001928E-02 0. -1.
</event>
<event>
 5   0  0.6949625E-07  0.3688955E+04  0.7818609E-02  0.8070414E-01
        2   -1    0    0  501    0  0.00000000000E+00  0.00000000000E+00  0.25660666977E+04  0.25660666977E+04  0.25500000920E-02 0.  1.
       -2   -1    0    0    0  501  0.00000000000E+00  0.00000000000E+00 -0.13258024468E+04  0.13258024468E+04  0.25500000920E-02 0. -1.
    10030    2    1    2    0    0  0.00000000000E+00  0.00000000000E+00  0.12402642509E+04  0.38918691444E+04  0.36889551401E+04 0.  0.
        5    1    3    3  502    0  0.17743184852E+04  0.51516124370E+02  0.11489157543E+04  0.21144477999E+04  0.46999998093E+01 0.  1.
       -5    1    3    3    0  502 -0.17743184852E+04 -0.51516124370E+02  0.91348496618E+02  0.17774213445E+04  0.46999998093E+01 0. -1.
</event>
<event>
 5   0  0.7074157E-07  0.3677640E+04  0.7818609E-02  0.8072935E-01
       -2   -1    0    0    0  501  0.00000000000E+00  0.00000000000E+00  0.12567598524E+04  0.12567598524E+04  0.25500000920E-02 0. -1.
        2   -1    0    0  501    0  0.00000000000E+00  0.00000000000E+00 -0.26904571203E+04  0.26904571203E+04  0.25500000920E-02 0.  1.
    10030    2    1    2    0    0  0.00000000000E+00  0.00000000000E+00 -0.14336972679E+04  0.39472169726E+04  0.36776397286E+04 0.  0.
        3    1    3    3  502    0  0.17828757549E+04  0.69847875043E+01 -0.11999104045E+04  0.21490648510E+04  0.10100000352E+00 0.  1.
       -3    1    3    3    0  502 -0.17828757549E+04 -0.69847875043E+01 -0.23378686338E+03  0.17981521216E+04  0.10100000352E+00 0. -1.
</event>
<event>
 5   0  0.7074157E-07  0.3729668E+04  0.7818609E-02  0.8061419E-01
       -2   -1    0    0    0  501  0.00000000000E+00  0.00000000000E+00  0.17357163950E+04  0.17357163950E+04  0.25500000920E-02 0.  1.
        2   -1    0    0  501    0  0.00000000000E+00  0.00000000000E+00 -0.20035560388E+04  0.20035560388E+04  0.25500000920E-02 0. -1.
    10030    2    1    2    0    0  0.00000000000E+00  0.00000000000E+00 -0.26783964386E+03  0.37392724338E+04  0.37296675803E+04 0.  0.
        3    1    3    3  502    0 -0.16906322726E+04 -0.56989245565E+03 -0.67807918014E+03  0.19086137055E+04  0.10100000352E+00 0. -1.
       -3    1    3    3    0  502  0.16906322726E+04  0.56989245565E+03  0.41023953628E+03  0.18306587283E+04  0.10100000352E+00 0.  1.
</event>
<event>
 5   0  0.2287500E-07  0.3706867E+04  0.7818609E-02  0.8066442E-01
       -1   -1    0    0    0  501  0.00000000000E+00  0.00000000000E+00  0.14436992571E+04  0.14436992571E+04  0.50400001928E-02 0. -1.
        1   -1    0    0  501    0  0.00000000000E+00  0.00000000000E+00 -0.23794544126E+04  0.23794544126E+04  0.50400001928E-02 0.  1.
    10030    2    1    2    0    0  0.00000000000E+00  0.00000000000E+00 -0.93575515548E+03  0.38231536697E+04  0.37068674472E+04 0.  0.
        2    1    3    3  502    0 -0.73920961451E+03  0.76614455649E+03 -0.20326430971E+04  0.22945688693E+04  0.25500000920E-02 0.  1.
       -2    1    3    3    0  502  0.73920961451E+03 -0.76614455649E+03  0.10968879416E+04  0.15285848004E+04  0.25500000920E-02 0. -1.
</event>
<event>
 5   0  0.6939921E-07  0.3659899E+04  0.7818609E-02  0.8076907E-01
       -2   -1    0    0    0  501  0.00000000000E+00  0.00000000000E+00  0.11502148424E+04  0.11502148424E+04  0.25500000920E-02 0.  1.
        2   -1    0    0  501    0  0.00000000000E+00  0.00000000000E+00 -0.29113826488E+04  0.29113826488E+04  0.25500000920E-02 0. -1.
    10030    2    1    2    0    0  0.00000000000E+00  0.00000000000E+00 -0.17611678064E+04  0.40615974911E+04  0.36598991977E+04 0.  0.
        4    1    3    3  502    0  0.15050976435E+04 -0.95314226646E+03 -0.41645237807E+03  0.18295445588E+04  0.12699999809E+01 0.  1.
       -4    1    3    3    0  502 -0.15050976435E+04  0.95314226646E+03 -0.13447154284E+04  0.22320529323E+04  0.12699999809E+01 0. -1.
</event>
<event>
 5   0  0.2411746E-07  0.3730172E+04  0.7818609E-02  0.8061308E-01
        1   -1    0    0  501    0  0.00000000000E+00  0.00000000000E+00  0.18588373134E+04  0.18588373134E+04  0.50400001928E-02 0.  1.
       -1   -1    0    0    0  501  0.00000000000E+00  0.00000000000E+00 -0.18713553043E+04  0.18713553043E+04  0.50400001928E-02 0. -1.
    10030    2    1    2    0    0  0.00000000000E+00  0.00000000000E+00 -0.12517990879E+02  0.37301926177E+04  0.37301716133E+04 0.  0.
        1    1    3    3  502    0 -0.13660434171E+04  0.70381121998E+03  0.10506860345E+04  0.18615493531E+04  0.50400001928E-02 0.  1.
       -1    1    3    3    0  502  0.13660434171E+04 -0.70381121998E+03 -0.10632040253E+04  0.18686432646E+04  0.50400001928E-02 0. -1.
</event>
<event>
 5   0  0.7074157E-07  0.3654734E+04  0.7818609E-02  0.8078068E-01
       -2   -1    0    0    0  501  0.00000000000E+00  0.00000000000E+00  0.19507715797E+04  0.19507715797E+04  0.25500000920E-02 0.  1.
        2   -1    0    0  501    0  0.00000000000E+00  0.00000000000E+00 -0.17117686131E+04  0.17117686131E+04  0.25500000920E-02 0. -1.
    10030    2    1    2    0    0  0.00000000000E+00  0.00000000000E+00  0.23900296653E+03  0.36625401928E+04  0.36547336765E+04 0.  0.
        3    1    3    3  502    0  0.12677778157E+04  0.10816586447E+04  0.87078509681E+03  0.18802959099E+04  0.10100000352E+00 0.  1.
       -3    1    3    3    0  502 -0.12677778157E+04 -0.10816586447E+04 -0.63178213028E+03  0.17822442829E+04  0.10100000352E+00 0. -1.
</event>
<event>
 5   0  0.2411746E-07  0.3397388E+04  0.7818609E-02  0.8138548E-01
        1   -1    0    0  501    0  0.00000000000E+00  0.00000000000E+00  0.24918513304E+04  0.24918513304E+04  0.50400001928E-02 0.  1.
       -1   -1    0    0    0  501  0.00000000000E+00  0.00000000000E+00 -0.11579991102E+04  0.11579991102E+04  0.50400001928E-02 0. -1.
    10030    2    1    2    0    0  0.00000000000E+00  0.00000000000E+00  0.13338522202E+04  0.36498504406E+04  0.33973881871E+04 0.  0.
        1    1    3    3  502    0 -0.76652811991E+03 -0.14243345103E+04  0.12243965443E+04  0.20286549863E+04  0.50400001928E-02 0. -1.
       -1    1    3    3    0  502  0.76652811991E+03  0.14243345103E+04  0.10945567591E+03  0.16211954543E+04  0.50400001928E-02 0.  1.
</event>
<event>
 5   0  0.6949625E-07  0.3690601E+04  0.7818609E-02  0.8070048E-01
        2   -1    0    0  501    0  0.00000000000E+00  0.00000000000E+00  0.18249158785E+04  0.18249158785E+04  0.25500000920E-02 0. -1.
       -2   -1    0    0    0  501  0.00000000000E+00  0.00000000000E+00 -0.18659133240E+04  0.18659133240E+04  0.25500000920E-02 0.  1.
    10030    2    1    2    0    0  0.00000000000E+00  0.00000000000E+00 -0.40997445529E+02  0.36908292025E+04  0.36906014972E+04 0.  0.
        5    1    3    3  502    0  0.54828494375E+03 -0.17596692626E+04 -0.11028437880E+03  0.18464119334E+04  0.46999998093E+01 0. -1.
       -5    1    3    3    0  502 -0.54828494375E+03  0.17596692626E+04  0.69286933267E+02  0.18444172691E+04  0.46999998093E+01 0.  1.
</event>
<event>
 5   0  0.2287500E-07  0.3772057E+04  0.7818609E-02  0.8052178E-01
        1   -1    0    0  501    0  0.00000000000E+00  0.00000000000E+00  0.21595260668E+04  0.21595260668E+04  0.50400001928E-02 0.  1.
       -1   -1    0    0    0  501  0.00000000000E+00  0.00000000000E+00 -0.16471685230E+04  0.16471685230E+04  0.50400001928E-02 0. -1.
    10030    2    1    2    0    0  0.00000000000E+00  0.00000000000E+00  0.51235754387E+03  0.38066945898E+04  0.37720569252E+04 0.  0.
        4    1    3    3  502    0 -0.25567972718E+02  0.16095646436E+04 -0.73557094325E+03  0.17698639181E+04  0.12699999809E+01 0. -1.
       -4    1    3    3    0  502  0.25567972718E+02 -0.16095646436E+04  0.12479284871E+04  0.20368306717E+04  0.12699999809E+01 0.  1.
</event>
<event>
 5   0  0.7124627E-07  0.2663426E+04  0.7818609E-02  0.8346970E-01
        2   -1    0    0  501    0  0.00000000000E+00  0.00000000000E+00  0.96072612970E+03  0.96072612970E+03  0.25500000920E-02 0. -1.
       -2   -1    0    0    0  501  0.00000000000E+00  0.00000000000E+00 -0.18459577604E+04  0.18459577604E+04  0.25500000920E-02 0.  1.
    10030    2    1    2    0    0  0.00000000000E+00  0.00000000000E+00 -0.88523163068E+03  0.28066838901E+04  0.26634262556E+04 0.  0.
        2    1    3    3  502    0  0.80496762424E+03 -0.97896302026E+03 -0.87340514584E+03  0.15392134420E+04  0.25500000920E-02 0.  1.
       -2    1    3    3    0  502 -0.80496762424E+03  0.97896302026E+03 -0.11826484845E+02  0.12674704481E+04  0.25500000920E-02 0. -1.
</event>
<event>
 5   0  0.7074157E-07  0.2881190E+04  0.7818609E-02  0.8278496E-01
       -2   -1    0    0    0  501  0.00000000000E+00  0.00000000000E+00  0.10734400836E+04  0.10734400836E+04  0.25500000920E-02 0.  1.
        2   -1    0    0  501    0  0.00000000000E+00  0.00000000000E+00 -0.19333305520E+04  0.19333305520E+04  0.25500000920E-02 0. -1.
    10030    2    1    2    0    0  0.00000000000E+00  0.00000000000E+00 -0.85989046842E+03  0.30067706357E+04  0.28811903856E+04 0.  0.
        3    1    3    3  502    0  0.13069767976E+04 -0.50786772925E+03 -0.77479722791E+03  0.16020077198E+04  0.10100000352E+00 0. -1.
       -3    1    3    3    0  502 -0.13069767976E+04  0.50786772925E+03 -0.85093240502E+02  0.14047629158E+04  0.10100000352E+00 0.  1.
</event>
<event>
 5   0  0.2345471E-07  0.3753342E+04  0.7818609E-02  0.8056242E-01
       -1   -1    0    0    0  501  0.00000000000E+00  0.00000000000E+00  0.13691088093E+04  0.13691088093E+04  0.50400001928E-02 0. -1.
        1   -1    0    0  501    0  0.00000000000E+00  0.00000000000E+00 -0.25723986634E+04  0.25723986634E+04  0.50400001928E-02 0.  1.
    10030    2    1    2    0    0  0.00000000000E+00  0.00000000000E+00 -0.12032898541E+04  0.39415074727E+04  0.37533418022E+04 0.  0.
        5    1    3    3  502    0  0.75133523331E+02  0.13038332568E+04  0.81359964872E+03  0.15386983741E+04  0.46999998093E+01 0. -1.
       -5    1    3    3    0  502 -0.75133523331E+02 -0.13038332568E+04 -0.20168895028E+04  0.24028090986E+04  0.46999998093E+01 0.  1.
</event>
<event>
 5   0  0.6949625E-07  0.3587488E+04  0.7818609E-02  0.8093364E-01
        2   -1    0    0  501    0  0.00000000000E+00  0.00000000000E+00  0.16202704177E+04  0.16202704177E+04  0.25500000920E-02 0.  1.
       -2   -1    0    0    0  501  0.00000000000E+00  0.00000000000E+00 -0.19857903611E+04  0.19857903611E+04  0.25500000920E-02 0. -1.
    10030    2    1    2    0    0  0.00000000000E+00  0.00000000000E+00 -0.36551994338E+03  0.36060607789E+04  0.35874879110E+04 0.  0.
        5    1    3    3  502    0  0.36368105995E+03 -0.21052229280E+03  0.15700890219E+04  0.16253569379E+04  0.46999998093E+01 0.  1.
       -5    1    3    3    0  502 -0.36368105995E+03  0.21052229280E+03 -0.19356089652E+04  0.19807038409E+04  0.46999998093E+01 0. -1.
</event>
<event>
 5   0  0.6939921E-07  0.3634140E+04  0.7818609E-02  0.8082716E-01
        2   -1    0    0  501    0  0.00000000000E+00  0.00000000000E+00  0.26350891060E+04  0.26350891060E+04  0.25500000920E-02 0. -1.
       -2   -1    0    0    0  501  0.00000000000E+00  0.00000000000E+00 -0.12529910724E+04  0.12529910724E+04  0.25500000920E-02 0.  1.
    10030    2    1    2    0    0  0.00000000000E+00  0.00000000000E+00  0.13820980336E+04  0.38880801784E+04  0.36341398568E+04 0.  0.
        4    1    3    3  502    0  0.14966717931E+04 -0.25157109961E+03 -0.37798553492E+03  0.15640297797E+04  0.12699999809E+01 0.  1.
       -4    1    3    3    0  502 -0.14966717931E+04  0.25157109961E+03  0.17600835685E+04  0.23240503986E+04  0.12699999809E+01 0. -1.
</event>
<event>
 5   0  0.7124627E-07  0.3645422E+04  0.7818609E-02  0.8080166E-01
        2   -1    0    0  501    0  0.00000000000E+00  0.00000000000E+00  0.13362009966E+04  0.13362009966E+04  0.25500000920E-02 0. -1.
       -2   -1    0    0    0  501  0.00000000000E+00  0.00000000000E+00 -0.24863593417E+04  0.24863593417E+04  0.25500000920E-02 0.  1.
    10030    2    1    2    0    0  0.00000000000E+00  0.00000000000E+00 -0.11501583451E+04  0.38225603383E+04  0.36454222419E+04 0.  0.
        2    1    3    3  502    0  0.68610737555E+03 -0.15449268933E+04  0.13976017626E+03  0.16961943707E+04  0.25500000920E-02 0. -1.
       -2    1    3    3    0  502 -0.68610737555E+03  0.15449268933E+04 -0.12899185213E+04  0.21263659676E+04  0.25500000920E-02 0.  1.
</event>
<event>
 5   0  0.2287500E-07  0.2691551E+04  0.7818609E-02  0.8337752E-01
       -1   -1    0    0    0  501  0.00000000000E+00  0.00000000000E+00  0.88297063536E+03  0.88297063538E+03  0.50400001928E-02 0. -1.
        1   -1    0    0  501    0  0.00000000000E+00  0.00000000000E+00 -0.20511567477E+04  0.20511567477E+04  0.50400001928E-02 0.  1.
    10030    2    1    2    0    0  0.00000000000E+00  0.00000000000E+00 -0.11681861124E+04  0.29341273831E+04  0.26915506139E+04 0.  0.
        2    1    3    3  502    0 -0.45651852156E+03  0.50522599038E+03 -0.18495067670E+04  0.19708723305E+04  0.25500000920E-02 0.  1.
       -2    1    3    3    0  502  0.45651852156E+03 -0.50522599038E+03  0.68132065466E+03  0.96325505260E+03  0.25500000920E-02 0. -1.
</event>
<event>
 5   0  0.7124627E-07  0.3919506E+04  0.7818609E-02  0.8020985E-01
        2   -1    0    0  501    0  0.00000000000E+00  0.00000000000E+00  0.14815278439E+04  0.14815278439E+04  0.25500000920E-02 0. -1.
       -2   -1    0    0    0  501  0.00000000000E+00  0.00000000000E+00 -0.25923447737E+04  0.25923447737E+04  0.25500000920E-02 0.  1.
    10030    2    1    2    0    0  0.00000000000E+00  0.00000000000E+00 -0.11108169297E+04  0.40738726176E+04  0.39195055623E+04 0.  0.
        2    1    3    3  502    0 -0.16854306482E+04  0.80244325819E+03  0.64782073129E+02  0.18678298556E+04  0.25500000920E-02 0.  1.
       -2    1    3    3    0  502  0.16854306482E+04 -0.80244325819E+03 -0.11755990029E+04  0.22060427620E+04  0.25500000920E-02 0. -1.
</event>
<event>
 5   0  0.6949625E-07  0.3640012E+04  0.7818609E-02  0.8081387E-01
        2   -1    0    0  501    0  0.00000000000E+00  0.00000000000E+00  0.27583913453E+04  0.27583913453E+04  0.25500000920E-02 0. -1.
       -2   -1    0    0    0  501  0.00000000000E+00  0.00000000000E+00 -0.12008528661E+04  0.12008528661E+04  0.25500000920E-02 0.  1.
    10030    2    1    2    0    0  0.00000000000E+00  0.00000000000E+00  0.15575384792E+04  0.39592442114E+04  0.36400121718E+04 0.  0.
        5    1    3    3  502    0 -0.15687233922E+04  0.85233699343E+03  0.11633735905E+04  0.21309227186E+04  0.46999998093E+01 0. -1.
       -5    1    3    3    0  502  0.15687233922E+04 -0.85233699343E+03  0.39416488877E+03  0.18283214928E+04  0.46999998093E+01 0.  1.
</event>
<event>
 5   0  0.6939921E-07  0.3754055E+04  0.7818609E-02  0.8056087E-01
        2   -1    0    0  501    0  0.00000000000E+00  0.00000000000E+00  0.17758862922E+04  0.17758862922E+04  0.25500000920E-02 0.  1.
       -2   -1    0    0    0  501  0.00000000000E+00  0.00000000000E+00 -0.19839285681E+04  0.19839285681E+04  0.25500000920E-02 0. -1.
    10030    2    1    2    0    0  0.00000000000E+00  0.00000000000E+00 -0.20804227594E+03  0.37598148603E+04  0.37540546340E+04 0.  0.
        4    1    3    3  502    0  0.57213413079E+03 -0.13394977571E+04 -0.12897457611E+04  0.19455172696E+04  0.12699999809E+01 0. -1.
       -4    1    3    3    0  502 -0.57213413079E+03  0.13394977571E+04  0.10817034852E+04  0.18142975907E+04  0.12699999809E+01 0.  1.
</event>
<event>
 5   0  0.7124627E-07  0.3743943E+04  0.7818609E-02  0.8058293E-01
       -2   -1    0    0    0  501  0.00000000000E+00  0.00000000000E+00  0.26322430767E+04  0.26322430767E+04  0.25500000920E-02 0. -1.
        2   -1    0    0  501    0  0.00000000000E+00  0.00000000000E+00 -0.13312893401E+04  0.13312893401E+04  0.25500000920E-02 0.  1.
    10030    2    1    2    0    0  0.00000000000E+00  0.00000000000E+00  0.13009537366E+04  0.39635324169E+04  0.37439429209E+04 0.  0.
        2    1    3    3  502    0  0.97368405642E+03 -0.13519716258E+04  0.15539910077E+04  0.22783274503E+04  0.25500000920E-02 0. -1.
       -2    1    3    3    0  502 -0.97368405642E+03  0.13519716258E+04 -0.25303727103E+03  0.16852049666E+04  0.25500000920E-02 0.  1.
</event>
<event>
 5   0  0.6949625E-07  0.3680182E+04  0.7818609E-02  0.8072368E-01
        2   -1    0    0  501    0  0.00000000000E+00  0.00000000000E+00  0.15058393803E+04  0.15058393803E+04  0.25500000920E-02 0.  1.
       -2   -1    0    0    0  501  0.00000000000E+00  0.00000000000E+00 -0.22485362819E+04  0.22485362819E+04  0.25500000920E-02 0. -1.
    10030    2    1    2    0    0  0.00000000000E+00  0.00000000000E+00 -0.74269690161E+03  0.37543756622E+04  0.36801817788E+04 0.  0.
        5    1    3    3  502    0  0.12073312965E+04 -0.67415068965E+03  0.86712137466E+03  0.16321916493E+04  0.46999998093E+01 0.  1.
       -5    1    3    3    0  502 -0.12073312965E+04  0.67415068965E+03 -0.16098182763E+04  0.21221840128E+04  0.46999998093E+01 0. -1.
</event>
<event>
 5   0  0.2411746E-07  0.3743527E+04  0.7818609E-02  0.8058383E-01
        1   -1    0    0  501    0  0.00000000000E+00  0.00000000000E+00  0.19884367647E+04  0.19884367647E+04  0.50400001928E-02 0. -1.
       -1   -1    0    0    0  501  0.00000000000E+00  0.00000000000E+00 -0.17619365955E+04  0.17619365955E+04  0.50400001928E-02 0.  1.
    10030    2    1    2    0    0  0.00000000000E+00  0.00000000000E+00  0.22650016923E+03  0.37503733601E+04  0.37435274827E+04 0.  0.
        1    1    3    3  502    0 -0.95133654704E+03 -0.11048010579E+04  0.12892250018E+04  0.19462085470E+04  0.50400001928E-02 0. -1.
       -1    1    3    3    0  502  0.95133654704E+03  0.11048010579E+04 -0.10627248325E+04  0.18041648131E+04  0.50400001928E-02 0.  1.
</event>
<event>
 5   0  0.7074157E-07  0.3692435E+04  0.7818609E-02  0.8069640E-01
       -2   -1    0    0    0  501  0.00000000000E+00  0.00000000000E+00  0.18255282605E+04  0.18255282605E+04  0.25500000920E-02 0. -1.
        2   -1    0    0  501    0  0.00000000000E+00  0.00000000000E+00 -0.18671408072E+04  0.18671408072E+04  0.25500000920E-02 0.  1.
    10030    2    1    2    0    0  0.00000000000E+00  0.00000000000E+00 -0.41612546697E+02  0.36926690677E+04  0.36924345952E+04 0.  0.
        3    1    3    3  502    0  0.14497052475E+04  0.80259156135E+03 -0.83493399670E+03  0.18555089081E+04  0.10100000352E+00 0.  1.
       -3    1    3    3    0  502 -0.14497052475E+04 -0.80259156135E+03  0.79332145000E+03  0.18371601596E+04  0.10100000352E+00 0. -1.
</event>
<event>
 5   0  0.2411746E-07  0.4089909E+04  0.7818609E-02  0.7986651E-01
       -1   -1    0    0    0  501  0.00000000000E+00  0.00000000000E+00  0.24324138228E+04  0.24324138228E+04  0.50400001928E-02 0. -1.
        1   -1    0    0  501    0  0.00000000000E+00  0.00000000000E+00 -0.17192137172E+04  0.17192137172E+04  0.50400001928E-02 0.  1.
    10030    2    1    2    0    0  0.00000000000E+00  0.00000000000E+00  0.71320010562E+03  0.41516275400E+04  0.40899091481E+04 0.  0.
        1    1    3    3  502    0  0.36889185782E+03  0.18264857910E+04  0.12117543265E+04  0.22227190770E+04  0.50400001928E-02 0. -1.
       -1    1    3    3    0  502 -0.36889185782E+03 -0.18264857910E+04 -0.49855422092E+03  0.19289084630E+04  0.50400001928E-02 0.  1.
</event>
<event>
 5   0  0.7124627E-07  0.3676765E+04  0.7818609E-02  0.8073131E-01
       -2   -1    0    0    0  501  0.00000000000E+00  0.00000000000E+00  0.28054688443E+04  0.28054688443E+04  0.25500000920E-02 0.  1.
        2   -1    0    0  501    0  0.00000000000E+00  0.00000000000E+00 -0.12046647926E+04  0.12046647926E+04  0.25500000920E-02 0. -1.
    10030    2    1    2    0    0  0.00000000000E+00  0.00000000000E+00  0.16008040517E+04  0.40101336369E+04  0.36767646340E+04 0.  0.
        2    1    3    3  502    0 -0.27995469180E+03 -0.63995663477E+03 -0.10542904828E+04  0.12646926686E+04  0.25500000920E-02 0. -1.
       -2    1    3    3    0  502  0.27995469180E+03  0.63995663477E+03  0.26550945345E+04  0.27454409684E+04  0.25500000920E-02 0.  1.
</event>
<event>
 5   0  0.6949625E-07  0.3676748E+04  0.7818609E-02  0.8073134E-01
        2   -1    0    0  501    0  0.00000000000E+00  0.00000000000E+00  0.14812317856E+04  0.14812317856E+04  0.25500000920E-02 0.  1.
       -2   -1    0    0    0  501  0.00000000000E+00  0.00000000000E+00 -0.22816270327E+04  0.22816270327E+04  0.25500000920E-02 0. -1.
    10030    2    1    2    0    0  0.00000000000E+00  0.00000000000E+00 -0.80039524712E+03  0.37628588183E+04  0.36767477389E+04 0.  0.
        5    1    3    3  502    0 -0.73068190492E+03  0.38802247373E+02  0.13257744080E+04  0.15142990231E+04  0.46999998093E+01 0.  1.
       -5    1    3    3    0  502  0.73068190492E+03 -0.38802247373E+02 -0.21261696551E+04  0.22485597952E+04  0.46999998093E+01 0. -1.
</event>
<event>
 5   0  0.2287500E-07  0.3085983E+04  0.7818609E-02  0.8219595E-01
       -1   -1    0    0    0  501  0.00000000000E+00  0.00000000000E+00  0.19132637976E+04  0.19132637976E+04  0.50400001928E-02 0.  1.
        1   -1    0    0  501    0  0.00000000000E+00  0.00000000000E+00 -0.12443775576E+04  0.12443775576E+04  0.50400001928E-02 0. -1.
    10030    2    1    2    0    0  0.00000000000E+00  0.00000000000E+00  0.66888623998E+03  0.31576413552E+04  0.30859828460E+04 0.  0.
        3    1    3    3  502    0  0.73391140325E+03 -0.11630056881E+04  0.10504156493E+04  0.17304858350E+04  0.10100000352E+00 0.  1.
       -3    1    3    3    0  502 -0.73391140325E+03  0.11630056881E+04 -0.38152940933E+03  0.14271555202E+04  0.10100000352E+00 0. -1.
</event>
<event>
 5   0  0.2287500E-07  0.3326521E+04  0.7818609E-02  0.8156180E-01
       -1   -1    0    0    0  501  0.00000000000E+00  0.00000000000E+00  0.22560121957E+04  0.22560121957E+04  0.50400001928E-02 0. -1.
        1   -1    0    0  501    0  0.00000000000E+00  0.00000000000E+00 -0.12262499022E+04  0.12262499023E+04  0.50400001928E-02 0.  1.
    10030    2    1    2    0    0  0.00000000000E+00  0.00000000000E+00  0.10297622935E+04  0.34822620980E+04  0.33265205452E+04 0.  0.
        4    1    3    3  502    0  0.55756383219E+02 -0.40062186261E+03 -0.11739796446E+04  0.12417070789E+04  0.12699999809E+01 0.  1.
       -4    1    3    3    0  502 -0.55756383219E+02  0.40062186261E+03  0.22037419380E+04  0.22405550191E+04  0.12699999809E+01 0. -1.
</event>
<event>
 5   0  0.2345471E-07  0.3720303E+04  0.7818609E-02  0.8063477E-01
        1   -1    0    0  501    0  0.00000000000E+00  0.00000000000E+00  0.16878712547E+04  0.16878712547E+04  0.50400001928E-02 0. -1.
       -1   -1    0    0    0  501  0.00000000000E+00  0.00000000000E+00 -0.20500160199E+04  0.20500160199E+04  0.50400001928E-02 0.  1.
    10030    2    1    2    0    0  0.00000000000E+00  0.00000000000E+00 -0.36214476521E+03  0.37378872747E+04  0.37203027360E+04 0.  0.
        5    1    3    3  502    0 -0.13591507749E+04  0.10459416192E+04 -0.90479388287E+03  0.19390613090E+04  0.46999998093E+01 0. -1.
       -5    1    3    3    0  502  0.13591507749E+04 -0.10459416192E+04  0.54264911766E+03  0.17988259656E+04  0.46999998093E+01 0.  1.
</event>
<event>
 5   0  0.2287500E-07  0.3766927E+04  0.7818609E-02  0.8053290E-01
       -3   -1    0    0    0  501  0.00000000000E+00  0.00000000000E+00  0.17335446563E+04  0.17335446593E+04  0.10100000352E+00 0.  1.
        3   -1    0    0  501    0  0.00000000000E+00  0.00000000000E+00 -0.20463473733E+04  0.20463473757E+04  0.10100000352E+00 0. -1.
    10030    2    1    2    0    0  0.00000000000E+00  0.00000000000E+00 -0.31280271693E+03  0.37798920350E+04  0.37669268982E+04 0.  0.
        3    1    3    3  502    0  0.90565362730E+03 -0.62923115370E+03 -0.16885141770E+04  0.20167351024E+04  0.10100000352E+00 0. -1.
       -3    1    3    3    0  502 -0.90565362730E+03  0.62923115370E+03  0.13757114600E+04  0.17631569326E+04  0.10100000352E+00 0.  1.
</event>
<event>
 5   0  0.2287500E-07  0.3685815E+04  0.7818609E-02  0.8071113E-01
       -1   -1    0    0    0  501  0.00000000000E+00  0.00000000000E+00  0.17543098247E+04  0.17543098247E+04  0.50400001928E-02 0. -1.
        1   -1    0    0  501    0  0.00000000000E+00  0.00000000000E+00 -0.19359799609E+04  0.19359799609E+04  0.50400001928E-02 0.  1.
    10030    2    1    2    0    0  0.00000000000E+00  0.00000000000E+00 -0.18167013621E+03  0.36902897856E+04  0.36858153322E+04 0.  0.
        3    1    3    3  502    0  0.10088529988E+04 -0.14479131790E+04  0.44091390913E+03  0.18189672984E+04  0.10100000352E+00 0. -1.
       -3    1    3    3    0  502 -0.10088529988E+04  0.14479131790E+04 -0.62258404534E+03  0.18713224872E+04  0.10100000352E+00 0.  1.
</event>
<event>
 5   0  0.6949625E-07  0.3833456E+04  0.7818609E-02  0.8039013E-01
        2   -1    0    0  501    0  0.00000000000E+00  0.00000000000E+00  0.20487016746E+04  0.20487016746E+04  0.25500000920E-02 0.  1.
       -2   -1    0    0    0  501  0.00000000000E+00  0.00000000000E+00 -0.17932562303E+04  0.17932562303E+04  0.25500000920E-02 0. -1.
    10030    2    1    2    0    0  0.00000000000E+00  0.00000000000E+00  0.25544544431E+03  0.38419579049E+04  0.38334564257E+04 0.  0.
        5    1    3    3  502    0  0.13566459662E+04 -0.10399871689E+04  0.99668845250E+03  0.19787550506E+04  0.46999998093E+01 0.  1.
       -5    1    3    3    0  502 -0.13566459662E+04  0.10399871689E+04 -0.74124300819E+03  0.18632028543E+04  0.46999998093E+01 0. -1.
</event>
<event>
 5   0  0.2287500E-07  0.3682583E+04  0.7818609E-02  0.8071833E-01
        3   -1    0    0  501    0  0.00000000000E+00  0.00000000000E+00  0.24059774730E+04  0.24059774751E+04  0.10100000352E+00 0. -1.
       -3   -1    0    0    0  501  0.00000000000E+00  0.00000000000E+00 -0.14091381276E+04  0.14091381312E+04  0.10100000352E+00 0.  1.
    10030    2    1    2    0    0  0.00000000000E+00  0.00000000000E+00  0.99683934539E+03  0.38151156063E+04  0.36825831163E+04 0.  0.
        3    1    3    3  502    0 -0.53537462274E+03 -0.92883503031E+02 -0.13241854051E+04  0.14313351561E+04  0.10100000352E+00 0.  1.
       -3    1    3    3    0  502  0.53537462274E+03  0.92883503031E+02  0.23210247505E+04  0.23837804501E+04  0.10100000352E+00 0. -1.
</event>
<event>
 5   0  0.6949625E-07  0.3541640E+04  0.7818609E-02  0.8103992E-01
       -2   -1    0    0    0  501  0.00000000000E+00  0.00000000000E+00  0.12797245495E+04  0.12797245495E+04  0.25500000920E-02 0.  1.
        2   -1    0    0  501    0  0.00000000000E+00  0.00000000000E+00 -0.24503738391E+04  0.24503738391E+04  0.25500000920E-02 0. -1.
    10030    2    1    2    0    0  0.00000000000E+00  0.00000000000E+00 -0.11706492895E+04  0.37300983886E+04  0.35416400480E+04 0.  0.
        5    1    3    3  502    0  0.66097925734E+03 -0.85061428740E+03  0.89493244821E+03  0.14004872086E+04  0.46999998093E+01 0.  1.
       -5    1    3    3    0  502 -0.66097925734E+03  0.85061428740E+03 -0.20655817378E+04  0.23296111800E+04  0.46999998093E+01 0. -1.
</event>
<event>
 5   0  0.2287500E-07  0.3764085E+04  0.7818609E-02  0.8053906E-01
       -1   -1    0    0    0  501  0.00000000000E+00  0.00000000000E+00  0.29963987044E+04  0.29963987044E+04  0.50400001928E-02 0.  1.
        1   -1    0    0  501    0  0.00000000000E+00  0.00000000000E+00 -0.11821136169E+04  0.11821136169E+04  0.50400001928E-02 0. -1.
    10030    2    1    2    0    0  0.00000000000E+00  0.00000000000E+00  0.18142850875E+04  0.41785123213E+04  0.37640848610E+04 0.  0.
        4    1    3    3  502    0 -0.10999633796E+04  0.14310894123E+04  0.14988851867E+04  0.23461872811E+04  0.12699999809E+01 0.  1.
       -4    1    3    3    0  502  0.10999633796E+04 -0.14310894123E+04  0.31539990080E+03  0.18323250401E+04  0.12699999809E+01 0. -1.
</event>
<event>
 5   0  0.2345471E-07  0.3608473E+04  0.7818609E-02  0.8088554E-01
       -1   -1    0    0    0  501  0.00000000000E+00  0.00000000000E+00  0.10404804421E+04  0.10404804421E+04  0.50400001928E-02 0. -1.
        1   -1    0    0  501    0  0.00000000000E+00  0.00000000000E+00 -0.31286219743E+04  0.31286219743E+04  0.50400001928E-02 0.  1.
    10030    2    1    2    0    0  0.00000000000E+00  0.00000000000E+00 -0.20881415322E+04  0.41691024164E+04  0.36084733475E+04 0.  0.
        5    1    3    3  502    0  0.58697526561E+03  0.12428403978E+04 -0.23944422580E+04  0.27608998594E+04  0.46999998093E+01 0.  1.
       -5    1    3    3    0  502 -0.58697526561E+03 -0.12428403978E+04  0.30630072582E+03  0.14082025569E+04  0.46999998093E+01 0. -1.
</event>
<event>
 5   0  0.7074157E-07  0.3710852E+04  0.7818609E-02  0.8065561E-01
       -2   -1    0    0    0  501  0.00000000000E+00  0.00000000000E+00  0.26444114933E+04  0.26444114933E+04  0.25500000920E-02 0.  1.
        2   -1    0    0  501    0  0.00000000000E+00  0.00000000000E+00 -0.13018417611E+04  0.13018417611E+04  0.25500000920E-02 0. -1.
    10030    2    1    2    0    0  0.00000000000E+00  0.00000000000E+00  0.13425697322E+04  0.39462532544E+04  0.37108518243E+04 0.  0.
        3    1    3    3  502    0 -0.13306375618E+04  0.63685705064E+03 -0.52545725535E+03  0.15659784676E+04  0.10100000352E+00 0. -1.
       -3    1    3    3    0  502  0.13306375618E+04 -0.63685705064E+03  0.18680269876E+04  0.23802747867E+04  0.10100000352E+00 0.  1.
</event>
<event>
 5   0  0.6949625E-07  0.3701558E+04  0.7818609E-02  0.8067617E-01
        2   -1    0    0  501    0  0.00000000000E+00  0.00000000000E+00  0.23953384366E+04  0.23953384366E+04  0.25500000920E-02 0. -1.
       -2   -1    0    0    0  501  0.00000000000E+00  0.00000000000E+00 -0.14300200496E+04  0.14300200496E+04  0.25500000920E-02 0.  1.
    10030    2    1    2    0    0  0.00000000000E+00  0.00000000000E+00  0.96531838699E+03  0.38253584862E+04  0.37015575046E+04 0.  0.
        5    1    3    3  502    0  0.17749195097E+04 -0.13701463181E+03 -0.40480367817E+02  0.17806664555E+04  0.46999998093E+01 0. -1.
       -5    1    3    3    0  502 -0.17749195097E+04  0.13701463181E+03  0.10057987548E+04  0.20446920307E+04  0.46999998093E+01 0.  1.
</event>
<event>
 5   0  0.6939921E-07  0.3766246E+04  0.7818609E-02  0.8053437E-01
       -2   -1    0    0    0  501  0.00000000000E+00  0.00000000000E+00  0.14273447773E+04  0.14273447773E+04  0.25500000920E-02 0.  1.
        2   -1    0    0  501    0  0.00000000000E+00  0.00000000000E+00 -0.24844402409E+04  0.24844402409E+04  0.25500000920E-02 0. -1.
    10030    2    1    2    0    0  0.00000000000E+00  0.00000000000E+00 -0.10570954636E+04  0.39117850182E+04  0.37662463023E+04 0.  0.
        4    1    3    3  502    0 -0.48281944590E+02 -0.18464284866E+01  0.14267004104E+04  0.14275189069E+04  0.12699999809E+01 0.  1.
       -4    1    3    3    0  502  0.48281944590E+02  0.18464284866E+01 -0.24837958740E+04  0.24842661113E+04  0.12699999809E+01 0. -1.
</event>
<event>
 5   0  0.2287500E-07  0.3728790E+04  0.7818609E-02  0.8061611E-01
       -1   -1    0    0    0  501  0.00000000000E+00  0.00000000000E+00  0.17675396451E+04  0.17675396451E+04  0.50400001928E-02 0.  1.
        1   -1    0    0  501    0  0.00000000000E+00  0.00000000000E+00 -0.19665573168E+04  0.19665573168E+04  0.50400001928E-02 0. -1.
    10030    2    1    2    0    0  0.00000000000E+00  0.00000000000E+00 -0.19901767164E+03  0.37340969619E+04  0.37287896276E+04 0.  0.
        3    1    3    3  502    0  0.16246152496E+04 -0.51638952222E+02  0.81498683521E+03  0.18183082364E+04  0.10100000352E+00 0.  1.
       -3    1    3    3    0  502 -0.16246152496E+04  0.51638952222E+02 -0.10140045069E+04  0.19157887255E+04  0.10100000352E+00 0. -1.
</event>
<event>
 5   0  0.2287500E-07  0.3715739E+04  0.7818609E-02  0.8064483E-01
        1   -1    0    0  501    0  0.00000000000E+00  0.00000000000E+00  0.15675984038E+04  0.15675984038E+04  0.50400001928E-02 0. -1.
       -1   -1    0    0    0  501  0.00000000000E+00  0.00000000000E+00 -0.22018895858E+04  0.22018895858E+04  0.50400001928E-02 0.  1.
    10030    2    1    2    0    0  0.00000000000E+00  0.00000000000E+00 -0.63429118195E+03  0.37694879896E+04  0.37157387422E+04 0.  0.
        4    1    3    3  502    0 -0.51567203601E+03 -0.79334627104E+03  0.13048448397E+04  0.16118119069E+04  0.12699999809E+01 0. -1.
       -4    1    3    3    0  502  0.51567203601E+03  0.79334627104E+03 -0.19391360217E+04  0.21576760827E+04  0.12699999809E+01 0.  1.
</event>
<event>
 5   0  0.2287500E-07  0.3668435E+04  0.7818609E-02  0.8074993E-01
        1   -1    0    0  501    0  0.00000000000E+00  0.00000000000E+00  0.12382809681E+04  0.12382809681E+04  0.50400001928E-02 0.  1.
       -1   -1    0    0    0  501  0.00000000000E+00  0.00000000000E+00 -0.27169551462E+04  0.27169551462E+04  0.50400001928E-02 0. -1.
    10030    2    1    2    0    0  0.00000000000E+00  0.00000000000E+00 -0.14786741781E+04  0.39552361142E+04  0.36684350062E+04 0.  0.
        4    1    3    3  502    0 -0.14812058001E+04 -0.20413444234E+03  0.40613078853E+03  0.15493822392E+04  0.12699999809E+01 0.  1.
       -4    1    3    3    0  502  0.14812058001E+04  0.20413444234E+03 -0.18848049667E+04  0.24058538750E+04  0.12699999809E+01 0. -1.
</event>
<event>
 5   0  0.2287500E-07  0.3760520E+04  0.7818609E-02  0.8054681E-01
        1   -1    0    0  501    0  0.00000000000E+00  0.00000000000E+00  0.17836805056E+04  0.17836805057E+04  0.50400001928E-02 0.  1.
       -1   -1    0    0    0  501  0.00000000000E+00  0.00000000000E+00 -0.19820689520E+04  0.19820689520E+04  0.50400001928E-02 0. -1.
    10030    2    1    2    0    0  0.00000000000E+00  0.00000000000E+00 -0.19838844639E+03  0.37657494577E+04  0.37605200442E+04 0.  0.
        4    1    3    3  502    0  0.10650548808E+04  0.55517739662E+03 -0.15478615113E+04  0.19591938934E+04  0.12699999809E+01 0. -1.
       -4    1    3    3    0  502 -0.10650548808E+04 -0.55517739662E+03  0.13494730649E+04  0.18065555643E+04  0.12699999809E+01 0.  1.
</event>
<event>
 5   0  0.2411746E-07  0.3698053E+04  0.7818609E-02  0.8068393E-01
        1   -1    0    0  501    0  0.00000000000E+00  0.00000000000E+00  0.13305374894E+04  0.13305374894E+04  0.50400001928E-02 0.  1.
       -1   -1    0    0    0  501  0.00000000000E+00  0.00000000000E+00 -0.25695624516E+04  0.25695624516E+04  0.50400001928E-02 0. -1.
    10030    2    1    2    0    0  0.00000000000E+00  0.00000000000E+00 -0.12390249623E+04  0.39000999410E+04  0.36980530949E+04 0.  0.
        1    1    3    3  502    0 -0.11483863870E+04  0.96945759821E+03 -0.17555174339E+04  0.23109480283E+04  0.50400001928E-02 0. -1.
       -1    1    3    3    0  502  0.11483863870E+04 -0.96945759821E+03  0.51649247166E+03  0.15891519127E+04  0.50400001928E-02 0.  1.
</event>
<event>
 5   0  0.2345471E-07  0.3624528E+04  0.7818609E-02  0.8084896E-01
        1   -1    0    0  501    0  0.00000000000E+00  0.00000000000E+00  0.20647351191E+04  0.20647351191E+04  0.50400001928E-02 0. -1.
       -1   -1    0    0    0  501  0.00000000000E+00  0.00000000000E+00 -0.15906648679E+04  0.15906648679E+04  0.50400001928E-02 0.  1.
    10030    2    1    2    0    0  0.00000000000E+00  0.00000000000E+00  0.47407025122E+03  0.36553999871E+04  0.36245284469E+04 0.  0.
        5    1    3    3  502    0 -0.19474839857E+03  0.17620192919E+04 -0.14252211014E+03  0.17784750675E+04  0.46999998093E+01 0.  1.
       -5    1    3    3    0  502  0.19474839857E+03 -0.17620192919E+04  0.61659236136E+03  0.18769249196E+04  0.46999998093E+01 0. -1.
</event>
<event>
 5   0  0.6939921E-07  0.3786884E+04  0.7818609E-02  0.8048975E-01
       -2   -1    0    0    0  501  0.00000000000E+00  0.00000000000E+00  0.13791455507E+04  0.13791455507E+04  0.25500000920E-02 0. -1.
        2   -1    0    0  501    0  0.00000000000E+00  0.00000000000E+00 -0.25995243863E+04  0.25995243863E+04  0.25500000920E-02 0.  1.
    10030    2    1    2    0    0  0.00000000000E+00  0.00000000000E+00 -0.12203788356E+04  0.39786699370E+04  0.37868839387E+04 0.  0.
        4    1    3    3  502    0 -0.16905508326E+04 -0.84954025842E+03 -0.68768193511E+03  0.20131042757E+04  0.12699999809E+01 0. -1.
       -4    1    3    3    0  502  0.16905508326E+04  0.84954025842E+03 -0.53269690052E+03  0.19655656613E+04  0.12699999809E+01 0.  1.
</event>
<event>
 5   0  0.2345471E-07  0.3741755E+04  0.7818609E-02  0.8058771E-01
       -1   -1    0    0    0  501  0.00000000000E+00  0.00000000000E+00  0.12824309722E+04  0.12824309722E+04  0.50400001928E-02 0. -1.
        1   -1    0    0  501    0  0.00000000000E+00  0.00000000000E+00 -0.27293338990E+04  0.27293338990E+04  0.50400001928E-02 0.  1.
    10030    2    1    2    0    0  0.00000000000E+00  0.00000000000E+00 -0.14469029268E+04  0.40117648712E+04  0.37417548426E+04 0.  0.
        5    1    3    3  502    0 -0.78093665580E+02  0.30380507118E+03  0.12540291666E+04  0.12926745076E+04  0.46999998093E+01 0. -1.
       -5    1    3    3    0  502  0.78093665580E+02 -0.30380507118E+03 -0.27009320935E+04  0.27190903636E+04  0.46999998093E+01 0.  1.
</event>
<event>
 5   0  0.6939921E-07  0.3000395E+04  0.7818609E-02  0.8243618E-01
        2   -1    0    0  501    0  0.00000000000E+00  0.00000000000E+00  0.19272219738E+04  0.19272219738E+04  0.25500000920E-02 0.  1.
       -2   -1    0    0    0  501  0.00000000000E+00  0.00000000000E+00 -0.11677910873E+04  0.11677910873E+04  0.25500000920E-02 0. -1.
    10030    2    1    2    0    0  0.00000000000E+00  0.00000000000E+00  0.75943088648E+03  0.30950130610E+04  0.30003950701E+04 0.  0.
        4    1    3    3  502    0 -0.19968851399E+03  0.95830708109E+03 -0.79295589913E+03  0.12597653096E+04  0.12699999809E+01 0. -1.
       -4    1    3    3    0  502  0.19968851399E+03 -0.95830708109E+03  0.15523867856E+04  0.18352477515E+04  0.12699999809E+01 0.  1.
</event>
<event>
 5   0  0.2411746E-07  0.3642196E+04  0.7818609E-02  0.8080894E-01
        1   -1    0    0  501    0  0.00000000000E+00  0.00000000000E+00  0.13401771010E+04  0.13401771010E+04  0.50400001928E-02 0.  1.
       -1   -1    0    0    0  501  0.00000000000E+00  0.00000000000E+00 -0.24745961715E+04  0.24745961715E+04  0.50400001928E-02 0. -1.
    10030    2    1    2    0    0  0.00000000000E+00  0.00000000000E+00 -0.11344190705E+04  0.38147732725E+04  0.36421955595E+04 0.  0.
        1    1    3    3  502    0  0.72563384366E+03  0.16344522610E+04 -0.20678432099E+03  0.18002051061E+04  0.50400001928E-02 0.  1.
       -1    1    3    3    0  502 -0.72563384366E+03 -0.16344522610E+04 -0.92763474949E+03  0.20145681664E+04  0.50400001928E-02 0. -1.
</event>
<event>
 5   0  0.7300916E-07  0.3630112E+04  0.7818609E-02  0.8083629E-01
        2   -1    0    0  501    0  0.00000000000E+00  0.00000000000E+00  0.21551900485E+04  0.21551900485E+04  0.25500000920E-02 0.  1.
       -2   -1    0    0    0  501  0.00000000000E+00  0.00000000000E+00 -0.15286021824E+04  0.15286021824E+04  0.25500000920E-02 0. -1.
    10030    2    1    2    0    0  0.00000000000E+00  0.00000000000E+00  0.62658786606E+03  0.36837922309E+04  0.36301119606E+04 0.  0.
        1    1    3    3  502    0  0.16334950765E+04 -0.74521038927E+03  0.58327990101E+03  0.18878188822E+04  0.50400001928E-02 0.  1.
       -1    1    3    3    0  502 -0.16334950765E+04  0.74521038927E+03  0.43307965047E+02  0.17959733486E+04  0.50400001928E-02 0. -1.
</event>
<event>
 5   0  0.2287500E-07  0.3724729E+04  0.7818609E-02  0.8062504E-01
        1   -1    0    0  501    0  0.00000000000E+00  0.00000000000E+00  0.10651045725E+04  0.10651045726E+04  0.50400001928E-02 0.  1.
       -1   -1    0    0    0  501  0.00000000000E+00  0.00000000000E+00 -0.32563955253E+04  0.32563955253E+04  0.50400001928E-02 0. -1.
    10030    2    1    2    0    0  0.00000000000E+00  0.00000000000E+00 -0.21912909527E+04  0.43215000978E+04  0.37247291252E+04 0.  0.
        3    1    3    3  502    0 -0.13445001283E+04 -0.38872860149E+03 -0.25211624463E+04  0.28835829469E+04  0.10100000352E+00 0. -1.
       -3    1    3    3    0  502  0.13445001283E+04  0.38872860149E+03  0.32987149355E+03  0.14379171510E+04  0.10100000352E+00 0.  1.
</event>
<event>
 5   0  0.7124627E-07  0.3703904E+04  0.7818609E-02  0.8067097E-01
        2   -1    0    0  501    0  0.00000000000E+00  0.00000000000E+00  0.11266799739E+04  0.11266799739E+04  0.25500000920E-02 0.  1.
       -2   -1    0    0    0  501  0.00000000000E+00  0.00000000000E+00 -0.30440992629E+04  0.30440992629E+04  0.25500000920E-02 0. -1.
    10030    2    1    2    0    0  0.00000000000E+00  0.00000000000E+00 -0.19174192890E+04  0.41707792368E+04  0.37039037126E+04 0.  0.
        2    1    3    3  502    0 -0.16390233489E+04 -0.86106120047E+03 -0.90960369520E+03  0.20628142940E+04  0.25500000920E-02 0.  1.
       -2    1    3    3    0  502  0.16390233489E+04  0.86106120047E+03 -0.10078155938E+04  0.21079649428E+04  0.25500000920E-02 0. -1.
</event>
<event>
 5   0  0.2411746E-07  0.3682188E+04  0.7818609E-02  0.8071921E-01
       -1   -1    0    0    0  501  0.00000000000E+00  0.00000000000E+00  0.15100485754E+04  0.15100485754E+04  0.50400001928E-02 0. -1.
        1   -1    0    0  501    0  0.00000000000E+00  0.00000000000E+00 -0.22447134610E+04  0.22447134610E+04  0.50400001928E-02 0.  1.
    10030    2    1    2    0    0  0.00000000000E+00  0.00000000000E+00 -0.73466488567E+03  0.37547620364E+04  0.36821875911E+04 0.  0.
        1    1    3    3  502    0 -0.15471495983E+04  0.23811314183E+03  0.62092169071E+03  0.16840170705E+04  0.50400001928E-02 0. -1.
       -1    1    3    3    0  502  0.15471495983E+04 -0.23811314183E+03 -0.13555865764E+04  0.20707449659E+04  0.50400001928E-02 0.  1.
</event>
<event>
 5   0  0.2287500E-07  0.3719618E+04  0.7818609E-02  0.8063628E-01
        1   -1    0    0  501    0  0.00000000000E+00  0.00000000000E+00  0.11013806416E+04  0.11013806416E+04  0.50400001928E-02 0. -1.
       -1   -1    0    0    0  501  0.00000000000E+00  0.00000000000E+00 -0.31405036617E+04  0.31405036617E+04  0.50400001928E-02 0.  1.
    10030    2    1    2    0    0  0.00000000000E+00  0.00000000000E+00 -0.20391230201E+04  0.42418843034E+04  0.37196182266E+04 0.  0.
        3    1    3    3  502    0  0.15370889028E+03 -0.12155687007E+04 -0.26151785598E+04  0.28879737878E+04  0.10100000352E+00 0.  1.
       -3    1    3    3    0  502 -0.15370889028E+03  0.12155687007E+04  0.57605553970E+03  0.13539105155E+04  0.10100000352E+00 0. -1.
</event>
<event>
 5   0  0.2411746E-07  0.3470105E+04  0.7818609E-02  0.8120911E-01
       -1   -1    0    0    0  501  0.00000000000E+00  0.00000000000E+00  0.98758613966E+03  0.98758613968E+03  0.50400001928E-02 0. -1.
        1   -1    0    0  501    0  0.00000000000E+00  0.00000000000E+00 -0.30482483715E+04  0.30482483715E+04  0.50400001928E-02 0.  1.
    10030    2    1    2    0    0  0.00000000000E+00  0.00000000000E+00 -0.20606622318E+04  0.40358345111E+04  0.34701053828E+04 0.  0.
        1    1    3    3  502    0 -0.10865018112E+04  0.11981267347E+04 -0.17607413303E+04  0.23908584003E+04  0.50400001928E-02 0.  1.
       -1    1    3    3    0  502  0.10865018112E+04 -0.11981267347E+04 -0.29992090154E+03  0.16449761109E+04  0.50400001928E-02 0. -1.
</event>
<event>
 5   0  0.6949625E-07  0.3560192E+04  0.7818609E-02  0.8099672E-01
        2   -1    0    0  501    0  0.00000000000E+00  0.00000000000E+00  0.15054627504E+04  0.15054627504E+04  0.25500000920E-02 0.  1.
       -2   -1    0    0    0  501  0.00000000000E+00  0.00000000000E+00 -0.21048287346E+04  0.21048287346E+04  0.25500000920E-02 0. -1.
    10030    2    1    2    0    0  0.00000000000E+00  0.00000000000E+00 -0.59936598422E+03  0.36102914849E+04  0.35601917116E+04 0.  0.
        5    1    3    3  502    0  0.62358291654E+03 -0.52985124215E+03  0.13034241142E+04  0.15390043873E+04  0.46999998093E+01 0.  1.
       -5    1    3    3    0  502 -0.62358291654E+03  0.52985124215E+03 -0.19027900984E+04  0.20712870977E+04  0.46999998093E+01 0. -1.
</event>
<event>
 5   0  0.7074157E-07  0.3643946E+04  0.7818609E-02  0.8080499E-01
        2   -1    0    0  501    0  0.00000000000E+00  0.00000000000E+00  0.16844547535E+04  0.16844547535E+04  0.25500000920E-02 0.  1.
       -2   -1    0    0    0  501  0.00000000000E+00  0.00000000000E+00 -0.19707184139E+04  0.19707184139E+04  0.25500000920E-02 0. -1.
    10030    2    1    2    0    0  0.00000000000E+00  0.00000000000E+00 -0.28626366040E+03  0.36551731673E+04  0.36439462126E+04 0.  0.
        3    1    3    3  502    0 -0.74860428721E+03 -0.66713312538E+03  0.13827752664E+04  0.17080815066E+04  0.10100000352E+00 0.  1.
       -3    1    3    3    0  502  0.74860428721E+03  0.66713312538E+03 -0.16690389268E+04  0.19470916607E+04  0.10100000352E+00 0. -1.
</event>
<event>
 5   0  0.7300916E-07  0.3713273E+04  0.7818609E-02  0.8065027E-01
       -2   -1    0    0    0  501  0.00000000000E+00  0.00000000000E+00  0.16854391874E+04  0.16854391874E+04  0.25500000920E-02 0. -1.
        2   -1    0    0  501    0  0.00000000000E+00  0.00000000000E+00 -0.20452232409E+04  0.20452232409E+04  0.25500000920E-02 0.  1.
    10030    2    1    2    0    0  0.00000000000E+00  0.00000000000E+00 -0.35978405349E+03  0.37306624283E+04  0.37132731638E+04 0.  0.
        1    1    3    3  502    0  0.17959026414E+04 -0.79839825110E+01 -0.65302130267E+03  0.19109596708E+04  0.50400001928E-02 0. -1.
       -1    1    3    3    0  502 -0.17959026414E+04  0.79839825110E+01  0.29323724918E+03  0.18197027575E+04  0.50400001928E-02 0.  1.
</event>
<event>
 5   0  0.2287500E-07  0.3703994E+04  0.7818609E-02  0.8067077E-01
        1   -1    0    0  501    0  0.00000000000E+00  0.00000000000E+00  0.18818298231E+04  0.18818298231E+04  0.50400001928E-02 0.  1.
       -1   -1    0    0    0  501  0.00000000000E+00  0.00000000000E+00 -0.18226368482E+04  0.18226368483E+04  0.50400001928E-02 0. -1.
    10030    2    1    2    0    0  0.00000000000E+00  0.00000000000E+00  0.59192974862E+02  0.37044666714E+04  0.37039937245E+04 0.  0.
        2    1    3    3  502    0 -0.56860999415E+03 -0.14170789390E+04  0.10778058494E+04  0.18689824756E+04  0.25500000920E-02 0. -1.
       -2    1    3    3    0  502  0.56860999415E+03  0.14170789390E+04 -0.10186128746E+04  0.18354841958E+04  0.25500000920E-02 0.  1.
</event>
<event>
 5   0  0.2411746E-07  0.3525064E+04  0.7818609E-02  0.8107876E-01
        1   -1    0    0  501    0  0.00000000000E+00  0.00000000000E+00  0.24735644173E+04  0.24735644173E+04  0.50400001928E-02 0.  1.
       -1   -1    0    0    0  501  0.00000000000E+00  0.00000000000E+00 -0.12558879927E+04  0.12558879927E+04  0.50400001928E-02 0. -1.
    10030    2    1    2    0    0  0.00000000000E+00  0.00000000000E+00  0.12176764246E+04  0.37294524099E+04  0.35250644537E+04 0.  0.
        1    1    3    3  502    0 -0.17455567960E+03 -0.17294561251E+04  0.91734759681E+03  0.19654553638E+04  0.50400001928E-02 0.  1.
       -1    1    3    3    0  502  0.17455567960E+03  0.17294561251E+04  0.30032882780E+03  0.17639970461E+04  0.50400001928E-02 0. -1.
</event>
<event>
 5   0  0.6949625E-07  0.3645775E+04  0.7818609E-02  0.8080086E-01
        2   -1    0    0  501    0  0.00000000000E+00  0.00000000000E+00  0.19151497140E+04  0.19151497140E+04  0.25500000920E-02 0. -1.
       -2   -1    0    0    0  501  0.00000000000E+00  0.00000000000E+00 -0.17350697619E+04  0.17350697619E+04  0.25500000920E-02 0.  1.
    10030    2    1    2    0    0  0.00000000000E+00  0.00000000000E+00  0.18007995216E+03  0.36502194759E+04  0.36457747370E+04 0.  0.
        5    1    3    3  502    0 -0.22559305425E+02  0.83621134291E+03  0.17116249481E+04  0.19051090219E+04  0.46999998093E+01 0. -1.
       -5    1    3    3    0  502  0.22559305425E+02 -0.83621134291E+03 -0.15315449959E+04  0.17451104540E+04  0.46999998093E+01 0.  1.
</event>
<event>
 5   0  0.2345471E-07  0.3758811E+04  0.7818609E-02  0.8055052E-01
        1   -1    0    0  501    0  0.00000000000E+00  0.00000000000E+00  0.15772416108E+04  0.15772416108E+04  0.50400001928E-02 0.  1.
       -1   -1    0    0    0  501  0.00000000000E+00  0.00000000000E+00 -0.22394573372E+04  0.22394573372E+04  0.50400001928E-02 0. -1.
    10030    2    1    2    0    0  0.00000000000E+00  0.00000000000E+00 -0.66221572642E+03  0.38166989480E+04  0.37588111407E+04 0.  0.
        5    1    3    3  502    0 -0.32168066742E+03 -0.13913962757E+04 -0.15716768659E+04  0.21235941958E+04  0.46999998093E+01 0. -1.
       -5    1    3    3    0  502  0.32168066742E+03  0.13913962757E+04  0.90946113945E+03  0.16931047522E+04  0.46999998093E+01 0.  1.
</event>
<event>
 5   0  0.2287500E-07  0.3729698E+04  0.7818609E-02  0.8061412E-01
        1   -1    0    0  501    0  0.00000000000E+00  0.00000000000E+00  0.29429234286E+04  0.29429234286E+04  0.50400001928E-02 0. -1.
       -1   -1    0    0    0  501  0.00000000000E+00  0.00000000000E+00 -0.11817031919E+04  0.11817031919E+04  0.50400001928E-02 0.  1.
    10030    2    1    2    0    0  0.00000000000E+00  0.00000000000E+00  0.17612202367E+04  0.41246266206E+04  0.37296981161E+04 0.  0.
        4    1    3    3  502    0  0.10362566173E+04 -0.33139085486E+03 -0.79436696748E+03  0.13470961983E+04  0.12699999809E+01 0.  1.
       -4    1    3    3    0  502 -0.10362566173E+04  0.33139085486E+03  0.25555872042E+04  0.27775304223E+04  0.12699999809E+01 0. -1.
</event>
<event>
 5   0  0.7074157E-07  0.3849017E+04  0.7818609E-02  0.8035717E-01
        2   -1    0    0  501    0  0.00000000000E+00  0.00000000000E+00  0.18495770482E+04  0.18495770482E+04  0.25500000920E-02 0.  1.
       -2   -1    0    0    0  501  0.00000000000E+00  0.00000000000E+00 -0.20024756716E+04  0.20024756716E+04  0.25500000920E-02 0. -1.
    10030    2    1    2    0    0  0.00000000000E+00  0.00000000000E+00 -0.15289862337E+03  0.38520527198E+04  0.38490170391E+04 0.  0.
        3    1    3    3  502    0 -0.18992372079E+03 -0.91725605931E+03 -0.17589365316E+04  0.19928089297E+04  0.10100000352E+00 0. -1.
       -3    1    3    3    0  502  0.18992372079E+03  0.91725605931E+03  0.16060379082E+04  0.18592437901E+04  0.10100000352E+00 0.  1.
</event>
<event>
 5   0  0.2287500E-07  0.3580519E+04  0.7818609E-02  0.8094969E-01
       -3   -1    0    0    0  501  0.00000000000E+00  0.00000000000E+00  0.21544680983E+04  0.21544681007E+04  0.10100000352E+00 0. -1.
        3   -1    0    0  501    0  0.00000000000E+00  0.00000000000E+00 -0.14876192611E+04  0.14876192645E+04  0.10100000352E+00 0.  1.
    10030    2    1    2    0    0  0.00000000000E+00  0.00000000000E+00  0.66684883721E+03  0.36420873652E+04  0.35805185384E+04 0.  0.
        4    1    3    3  502    0  0.35997995711E+03 -0.60325920861E+03  0.20084089101E+04  0.21277253595E+04  0.12699999809E+01 0. -1.
       -4    1    3    3    0  502 -0.35997995711E+03  0.60325920861E+03 -0.13415600729E+04  0.15143620057E+04  0.12699999809E+01 0.  1.
</event>
<event>
 5   0  0.6949625E-07  0.3680790E+04  0.7818609E-02  0.8072232E-01
       -2   -1    0    0    0  501  0.00000000000E+00  0.00000000000E+00  0.27464462605E+04  0.27464462605E+04  0.25500000920E-02 0.  1.
        2   -1    0    0  501    0  0.00000000000E+00  0.00000000000E+00 -0.12332498561E+04  0.12332498561E+04  0.25500000920E-02 0. -1.
    10030    2    1    2    0    0  0.00000000000E+00  0.00000000000E+00  0.15131964043E+04  0.39796961166E+04  0.36807903801E+04 0.  0.
        5    1    3    3  502    0  0.17071621885E+04 -0.28086092938E+02  0.14992864836E+04  0.22722397797E+04  0.46999998093E+01 0.  1.
       -5    1    3    3    0  502 -0.17071621885E+04  0.28086092938E+02  0.13909920748E+02  0.17074563369E+04  0.46999998093E+01 0. -1.
</event>
<event>
 5   0  0.6939921E-07  0.3728463E+04  0.7818609E-02  0.8061683E-01
        2   -1    0    0  501    0  0.00000000000E+00  0.00000000000E+00  0.26467308253E+04  0.26467308253E+04  0.25500000920E-02 0. -1.
       -2   -1    0    0    0  501  0.00000000000E+00  0.00000000000E+00 -0.13130761731E+04  0.13130761731E+04  0.25500000920E-02 0.  1.
    10030    2    1    2    0    0  0.00000000000E+00  0.00000000000E+00  0.13336546522E+04  0.39598069984E+04  0.37284630525E+04 0.  0.
        4    1    3    3  502    0 -0.18394450472E+04 -0.55588659735E+02  0.35050563705E+03  0.18733670210E+04  0.12699999809E+01 0.  1.
       -4    1    3    3    0  502  0.18394450472E+04  0.55588659735E+02  0.98314901514E+03  0.20864399775E+04  0.12699999809E+01 0. -1.
</event>
<event>
 5   0  0.7300916E-07  0.3755916E+04  0.7818609E-02  0.8055682E-01
        2   -1    0    0  501    0  0.00000000000E+00  0.00000000000E+00  0.30021785269E+04  0.30021785269E+04  0.25500000920E-02 0.  1.
       -2   -1    0    0    0  501  0.00000000000E+00  0.00000000000E+00 -0.11747224511E+04  0.11747224511E+04  0.25500000920E-02 0. -1.
    10030    2    1    2    0    0  0.00000000000E+00  0.00000000000E+00  0.18274560758E+04  0.41769009780E+04  0.37559161427E+04 0.  0.
        1    1    3    3  502    0  0.13440239263E+04  0.54086291703E+03 -0.41510676421E+03  0.15070655709E+04  0.50400001928E-02 0.  1.
       -1    1    3    3    0  502 -0.13440239263E+04 -0.54086291703E+03  0.22425628400E+04  0.26698354070E+04  0.50400001928E-02 0. -1.
</event>
<event>
 5   0  0.7300916E-07  0.3684417E+04  0.7818609E-02  0.8071424E-01
        2   -1    0    0  501    0  0.00000000000E+00  0.00000000000E+00  0.18935224638E+04  0.18935224638E+04  0.25500000920E-02 0. -1.
       -2   -1    0    0    0  501  0.00000000000E+00  0.00000000000E+00 -0.17922855449E+04  0.17922855449E+04  0.25500000920E-02 0.  1.
    10030    2    1    2    0    0  0.00000000000E+00  0.00000000000E+00  0.10123691892E+03  0.36858080087E+04  0.36844174252E+04 0.  0.
        1    1    3    3  502    0 -0.18387189044E+04 -0.76555275164E+02  0.13422644336E+03  0.18452004383E+04  0.50400001928E-02 0. -1.
       -1    1    3    3    0  502  0.18387189044E+04  0.76555275164E+02 -0.32989524443E+02  0.18406075704E+04  0.50400001928E-02 0.  1.
</event>
<event>
 5   0  0.2287500E-07  0.3715024E+04  0.7818609E-02  0.8064641E-01
        1   -1    0    0  501    0  0.00000000000E+00  0.00000000000E+00  0.22312989278E+04  0.22312989278E+04  0.50400001928E-02 0.  1.
       -1   -1    0    0    0  501  0.00000000000E+00  0.00000000000E+00 -0.15463414762E+04  0.15463414762E+04  0.50400001928E-02 0. -1.
    10030    2    1    2    0    0  0.00000000000E+00  0.00000000000E+00  0.68495745164E+03  0.37776404040E+04  0.37150235950E+04 0.  0.
        2    1    3    3  502    0 -0.53005781190E+03 -0.14095793984E+04  0.14482236884E+04  0.20893126181E+04  0.25500000920E-02 0.  1.
       -2    1    3    3    0  502  0.53005781190E+03  0.14095793984E+04 -0.76326623676E+03  0.16883277859E+04  0.25500000920E-02 0. -1.
</event>
<event>
 5   0  0.7300916E-07  0.3753701E+04  0.7818609E-02  0.8056164E-01
       -2   -1    0    0    0  501  0.00000000000E+00  0.00000000000E+00  0.18278262269E+04  0.18278262269E+04  0.25500000920E-02 0.  1.
        2   -1    0    0  501    0  0.00000000000E+00  0.00000000000E+00 -0.19271894149E+04  0.19271894149E+04  0.25500000920E-02 0. -1.
    10030    2    1    2    0    0  0.00000000000E+00  0.00000000000E+00 -0.99363187947E+02  0.37550156418E+04  0.37537007642E+04 0.  0.
        1    1    3    3  502    0  0.18706696674E+03  0.30962998641E+03 -0.18919842678E+04  0.19262578354E+04  0.50400001928E-02 0. -1.
       -1    1    3    3    0  502 -0.18706696674E+03 -0.30962998641E+03  0.17926210799E+04  0.18287578064E+04  0.50400001928E-02 0.  1.
</event>
<event>
 5   0  0.2345471E-07  0.3735446E+04  0.7818609E-02  0.8060152E-01
        1   -1    0    0  501    0  0.00000000000E+00  0.00000000000E+00  0.19731832367E+04  0.19731832367E+04  0.50400001928E-02 0.  1.
       -1   -1    0    0    0  501  0.00000000000E+00  0.00000000000E+00 -0.17678991178E+04  0.17678991178E+04  0.50400001928E-02 0. -1.
    10030    2    1    2    0    0  0.00000000000E+00  0.00000000000E+00  0.20528411892E+03  0.37410823544E+04  0.37354458386E+04 0.  0.
        5    1    3    3  502    0  0.11906636742E+04  0.10815095500E+04 -0.84801304730E+03  0.18183759540E+04  0.46999998093E+01 0. -1.
       -5    1    3    3    0  502 -0.11906636742E+04 -0.10815095500E+04  0.10532971662E+04  0.19227064004E+04  0.46999998093E+01 0.  1.
</event>
<event>
 5   0  0.2287500E-07  0.3488313E+04  0.7818609E-02  0.8116565E-01
       -1   -1    0    0    0  501  0.00000000000E+00  0.00000000000E+00  0.27089092872E+04  0.27089092872E+04  0.50400001928E-02 0.  1.
        1   -1    0    0  501    0  0.00000000000E+00  0.00000000000E+00 -0.11229914899E+04  0.11229914899E+04  0.50400001928E-02 0. -1.
    10030    2    1    2    0    0  0.00000000000E+00  0.00000000000E+00  0.15859177973E+04  0.38319007771E+04  0.34883131031E+04 0.  0.
        3    1    3    3  502    0 -0.10686509209E+04 -0.69389834794E+03 -0.51539291932E+03  0.13744597409E+04  0.10100000352E+00 0. -1.
       -3    1    3    3    0  502  0.10686509209E+04  0.69389834794E+03  0.21013107167E+04  0.24574410361E+04  0.10100000352E+00 0.  1.
</event>
<event>
 5   0  0.6939921E-07  0.3697846E+04  0.7818609E-02  0.8068439E-01
       -2   -1    0    0    0  501  0.00000000000E+00  0.00000000000E+00  0.16874877545E+04  0.16874877545E+04  0.25500000920E-02 0. -1.
        2   -1    0    0  501    0  0.00000000000E+00  0.00000000000E+00 -0.20258026031E+04  0.20258026031E+04  0.25500000920E-02 0.  1.
    10030    2    1    2    0    0  0.00000000000E+00  0.00000000000E+00 -0.33831484864E+03  0.37132903575E+04  0.36978464466E+04 0.  0.
        4    1    3    3  502    0 -0.12057208518E+04 -0.11181025911E+04  0.67971285587E+03  0.17793053015E+04  0.12699999809E+01 0. -1.
       -4    1    3    3    0  502  0.12057208518E+04  0.11181025911E+04 -0.10180277045E+04  0.19339850560E+04  0.12699999809E+01 0.  1.
</event>
<event>
 5   0  0.2287500E-07  0.3619315E+04  0.7818609E-02  0.8086082E-01
       -1   -1    0    0    0  501  0.00000000000E+00  0.00000000000E+00  0.13911566936E+04  0.13911566936E+04  0.50400001928E-02 0. -1.
        1   -1    0    0  501    0  0.00000000000E+00  0.00000000000E+00 -0.23540560658E+04  0.23540560658E+04  0.50400001928E-02 0.  1.
    10030    2    1    2    0    0  0.00000000000E+00  0.00000000000E+00 -0.96289937223E+03  0.37452127594E+04  0.36193153237E+04 0.  0.
        4    1    3    3  502    0 -0.11778548251E+04  0.13478345800E+04 -0.75690311519E+03  0.19434258367E+04  0.12699999809E+01 0. -1.
       -4    1    3    3    0  502  0.11778548251E+04 -0.13478345800E+04 -0.20599625704E+03  0.18017869227E+04  0.12699999809E+01 0.  1.
</event>
<event>
 5   0  0.7074157E-07  0.3138721E+04  0.7818609E-02  0.8205191E-01
        2   -1    0    0  501    0  0.00000000000E+00  0.00000000000E+00  0.23146313370E+04  0.23146313370E+04  0.25500000920E-02 0.  1.
       -2   -1    0    0    0  501  0.00000000000E+00  0.00000000000E+00 -0.10640540195E+04  0.10640540195E+04  0.25500000920E-02 0. -1.
    10030    2    1    2    0    0  0.00000000000E+00  0.00000000000E+00  0.12505773174E+04  0.33786853565E+04  0.31387212542E+04 0.  0.
        3    1    3    3  502    0  0.17677716332E+03  0.33396275085E+03 -0.10143548276E+04  0.10824495419E+04  0.10100000352E+00 0. -1.
       -3    1    3    3    0  502 -0.17677716332E+03 -0.33396275085E+03  0.22649321450E+04  0.22962358146E+04  0.10100000352E+00 0.  1.
</event>
<event>
 5   0  0.7074157E-07  0.3621832E+04  0.7818609E-02  0.8085509E-01
       -2   -1    0    0    0  501  0.00000000000E+00  0.00000000000E+00  0.19395067155E+04  0.19395067155E+04  0.25500000920E-02 0. -1.
        2   -1    0    0  501    0  0.00000000000E+00  0.00000000000E+00 -0.16908513710E+04  0.16908513710E+04  0.25500000920E-02 0.  1.
    10030    2    1    2    0    0  0.00000000000E+00  0.00000000000E+00  0.24865534443E+03  0.36303580865E+04  0.36218324583E+04 0.  0.
        3    1    3    3  502    0 -0.16856811350E+02 -0.36523293979E+03 -0.16534702932E+04  0.16934117258E+04  0.10100000352E+00 0.  1.
       -3    1    3    3    0  502  0.16856811350E+02  0.36523293979E+03  0.19021256377E+04  0.19369463607E+04  0.10100000352E+00 0. -1.
</event>
<event>
 5   0  0.7074157E-07  0.3817778E+04  0.7818609E-02  0.8042350E-01
       -2   -1    0    0    0  501  0.00000000000E+00  0.00000000000E+00  0.26820507946E+04  0.26820507946E+04  0.25500000920E-02 0. -1.
        2   -1    0    0  501    0  0.00000000000E+00  0.00000000000E+00 -0.13586086009E+04  0.13586086009E+04  0.25500000920E-02 0.  1.
    10030    2    1    2    0    0  0.00000000000E+00  0.00000000000E+00  0.13234421936E+04  0.40406593955E+04  0.38177780332E+04 0.  0.
        3    1    3    3  502    0  0.17154883646E+04  0.55469449798E+03 -0.20028752770E+01  0.18029393603E+04  0.10100000352E+00 0. -1.
       -3    1    3    3    0  502 -0.17154883646E+04 -0.55469449798E+03  0.13254450689E+04  0.22377200352E+04  0.10100000352E+00 0.  1.
</event>
<event>
 5   0  0.2287500E-07  0.3722252E+04  0.7818609E-02  0.8063048E-01
        1   -1    0    0  501    0  0.00000000000E+00  0.00000000000E+00  0.25407932260E+04  0.25407932260E+04  0.50400001928E-02 0. -1.
       -1   -1    0    0    0  501  0.00000000000E+00  0.00000000000E+00 -0.13632711826E+04  0.13632711826E+04  0.50400001928E-02 0.  1.
    10030    2    1    2    0    0  0.00000000000E+00  0.00000000000E+00  0.11775220434E+04  0.39040644086E+04  0.37222521065E+04 0.  0.
        2    1    3    3  502    0  0.14799102130E+04  0.76572158447E+03 -0.28078526165E+03  0.16897645240E+04  0.25500000920E-02 0.  1.
       -2    1    3    3    0  502 -0.14799102130E+04 -0.76572158447E+03  0.14583073050E+04  0.22142998847E+04  0.25500000920E-02 0. -1.
</event>
<event>
 5   0  0.6949625E-07  0.3662597E+04  0.7818609E-02  0.8076302E-01
       -2   -1    0    0    0  501  0.00000000000E+00  0.00000000000E+00  0.14371356958E+04  0.14371356958E+04  0.25500000920E-02 0.  1.
        2   -1    0    0  501    0  0.00000000000E+00  0.00000000000E+00 -0.23335685302E+04  0.23335685302E+04  0.25500000920E-02 0. -1.
    10030    2    1    2    0    0  0.00000000000E+00  0.00000000000E+00 -0.89643283442E+03  0.37707042260E+04  0.36625972388E+04 0.  0.
        5    1    3    3  502    0 -0.88452047300E+03  0.12399923075E+04  0.59849109872E+03  0.16365118622E+04  0.46999998093E+01 0.  1.
       -5    1    3    3    0  502  0.88452047300E+03 -0.12399923075E+04 -0.14949239331E+04  0.21341923638E+04  0.46999998093E+01 0. -1.
</event>
<event>
 5   0  0.6949625E-07  0.3708272E+04  0.7818609E-02  0.8066131E-01
       -2   -1    0    0    0  501  0.00000000000E+00  0.00000000000E+00  0.26272715997E+04  0.26272715997E+04  0.25500000920E-02 0.  1.
        2   -1    0    0  501    0  0.00000000000E+00  0.00000000000E+00 -0.13085136874E+04  0.13085136874E+04  0.25500000920E-02 0. -1.
    10030    2    1    2    0    0  0.00000000000E+00  0.00000000000E+00  0.13187579123E+04  0.39357852871E+04  0.37082722925E+04 0.  0.
        5    1    3    3  502    0 -0.11183973007E+04  0.76191647822E+03  0.20046073526E+04  0.24186363865E+04  0.46999998093E+01 0.  1.
       -5    1    3    3    0  502  0.11183973007E+04 -0.76191647822E+03 -0.68584944031E+03  0.15171489006E+04  0.46999998093E+01 0. -1.
</event>
<event>
 5   0  0.6939921E-07  0.3665111E+04  0.7818609E-02  0.8075738E-01
        2   -1    0    0  501    0  0.00000000000E+00  0.00000000000E+00  0.23365106283E+04  0.23365106283E+04  0.25500000920E-02 0. -1.
       -2   -1    0    0    0  501  0.00000000000E+00  0.00000000000E+00 -0.14372969521E+04  0.14372969521E+04  0.25500000920E-02 0.  1.
    10030    2    1    2    0    0  0.00000000000E+00  0.00000000000E+00  0.89921367621E+03  0.37738075803E+04  0.36651109694E+04 0.  0.
        4    1    3    3  502    0 -0.25054023120E+03 -0.11949652587E+04  0.18567174334E+04  0.22221866747E+04  0.12699999809E+01 0. -1.
       -4    1    3    3    0  502  0.25054023120E+03  0.11949652587E+04 -0.95750375718E+03  0.15516209056E+04  0.12699999809E+01 0.  1.
</event>
<event>
 5   0  0.6939921E-07  0.3812212E+04  0.7818609E-02  0.8043539E-01
       -2   -1    0    0    0  501  0.00000000000E+00  0.00000000000E+00  0.23868014583E+04  0.23868014583E+04  0.25500000920E-02 0. -1.
        2   -1    0    0  501    0  0.00000000000E+00  0.00000000000E+00 -0.15222214588E+04  0.15222214588E+04  0.25500000920E-02 0.  1.
    10030    2    1    2    0    0  0.00000000000E+00  0.00000000000E+00  0.86457999948E+03  0.39090229171E+04  0.38122121650E+04 0.  0.
        4    1    3    3  502    0  0.88935030631E+03  0.46966329463E+03 -0.12279985736E+04  0.15872963451E+04  0.12699999809E+01 0.  1.
       -4    1    3    3    0  502 -0.88935030631E+03 -0.46966329463E+03  0.20925785731E+04  0.23217265720E+04  0.12699999809E+01 0. -1.
</event>
<event>
 5   0  0.2287500E-07  0.3737076E+04  0.7818609E-02  0.8059795E-01
        1   -1    0    0  501    0  0.00000000000E+00  0.00000000000E+00  0.18988207856E+04  0.18988207856E+04  0.50400001928E-02 0. -1.
       -1   -1    0    0    0  501  0.00000000000E+00  0.00000000000E+00 -0.18387383296E+04  0.18387383296E+04  0.50400001928E-02 0.  1.
    10030    2    1    2    0    0  0.00000000000E+00  0.00000000000E+00  0.60082455964E+02  0.37375591152E+04  0.37370761617E+04 0.  0.
        2    1    3    3  502    0 -0.14509445904E+04 -0.11183410867E+04  0.39820232786E+03  0.18746978648E+04  0.25500000920E-02 0. -1.
       -2    1    3    3    0  502  0.14509445904E+04  0.11183410867E+04 -0.33811987189E+03  0.18628612504E+04  0.25500000920E-02 0.  1.
</event>
<event>
 5   0  0.7074157E-07  0.3653608E+04  0.7818609E-02  0.8078321E-01
        2   -1    0    0  501    0  0.00000000000E+00  0.00000000000E+00  0.35628178100E+04  0.35628178100E+04  0.25500000920E-02 0.  1.
       -2   -1    0    0    0  501  0.00000000000E+00  0.00000000000E+00 -0.93667800817E+03  0.93667800817E+03  0.25500000920E-02 0. -1.
    10030    2    1    2    0    0  0.00000000000E+00  0.00000000000E+00  0.26261398018E+04  0.44994958182E+04  0.36536081288E+04 0.  0.
        3    1    3    3  502    0  0.29307896194E+02 -0.15959819741E+04  0.21902730031E+03  0.16112077405E+04  0.10100000352E+00 0. -1.
       -3    1    3    3    0  502 -0.29307896194E+02  0.15959819741E+04  0.24071125015E+04  0.28882880777E+04  0.10100000352E+00 0.  1.
</event>
<event>
 5   0  0.2287500E-07  0.3477802E+04  0.7818609E-02  0.8119071E-01
        1   -1    0    0  501    0  0.00000000000E+00  0.00000000000E+00  0.14762895968E+04  0.14762895968E+04  0.50400001928E-02 0.  1.
       -1   -1    0    0    0  501  0.00000000000E+00  0.00000000000E+00 -0.20482275271E+04  0.20482275271E+04  0.50400001928E-02 0. -1.
    10030    2    1    2    0    0  0.00000000000E+00  0.00000000000E+00 -0.57193793025E+03  0.35245171239E+04  0.34778021739E+04 0.  0.
        4    1    3    3  502    0 -0.16071475173E+02  0.68952303686E+03  0.13317417400E+04  0.14997459737E+04  0.12699999809E+01 0.  1.
       -4    1    3    3    0  502  0.16071475173E+02 -0.68952303686E+03 -0.19036796703E+04  0.20247711502E+04  0.12699999809E+01 0. -1.
</event>
<event>
 5   0  0.7300916E-07  0.3689939E+04  0.7818609E-02  0.8070195E-01
        2   -1    0    0  501    0  0.00000000000E+00  0.00000000000E+00  0.29580121417E+04  0.29580121417E+04  0.25500000920E-02 0.  1.
       -2   -1    0    0    0  501  0.00000000000E+00  0.00000000000E+00 -0.11507430572E+04  0.11507430572E+04  0.25500000920E-02 0. -1.
    10030    2    1    2    0    0  0.00000000000E+00  0.00000000000E+00  0.18072690845E+04  0.41087551989E+04  0.36899387178E+04 0.  0.
        1    1    3    3  502    0 -0.17789762431E+04  0.46407007162E+03  0.73187187701E+03  0.19788264070E+04  0.50400001928E-02 0.  1.
       -1    1    3    3    0  502  0.17789762431E+04 -0.46407007162E+03  0.10753972074E+04  0.21299287919E+04  0.50400001928E-02 0. -1.
</event>
<event>
 5   0  0.7124627E-07  0.3699172E+04  0.7818609E-02  0.8068145E-01
        2   -1    0    0  501    0  0.00000000000E+00  0.00000000000E+00  0.17794302240E+04  0.17794302240E+04  0.25500000920E-02 0. -1.
       -2   -1    0    0    0  501  0.00000000000E+00  0.00000000000E+00 -0.19225079249E+04  0.19225079249E+04  0.25500000920E-02 0.  1.
    10030    2    1    2    0    0  0.00000000000E+00  0.00000000000E+00 -0.14307770088E+03  0.37019381489E+04  0.36991721817E+04 0.  0.
        2    1    3    3  502    0 -0.54158166438E+03  0.44954516926E+03 -0.17832467198E+04  0.19171255624E+04  0.25500000920E-02 0.  1.
       -2    1    3    3    0  502  0.54158166438E+03 -0.44954516926E+03  0.16401690189E+04  0.17848125865E+04  0.25500000920E-02 0. -1.
</event>
<event>
 5   0  0.2287500E-07  0.3649227E+04  0.7818609E-02  0.8079308E-01
       -1   -1    0    0    0  501  0.00000000000E+00  0.00000000000E+00  0.17323002089E+04  0.17323002089E+04  0.50400001928E-02 0. -1.
        1   -1    0    0  501    0  0.00000000000E+00  0.00000000000E+00 -0.19218456742E+04  0.19218456742E+04  0.50400001928E-02 0.  1.
    10030    2    1    2    0    0  0.00000000000E+00  0.00000000000E+00 -0.18954546526E+03  0.36541458831E+04  0.36492265826E+04 0.  0.
        4    1    3    3  502    0  0.13566471553E+04 -0.12198929683E+04 -0.11892353188E+03  0.18283256760E+04  0.12699999809E+01 0.  1.
       -4    1    3    3    0  502 -0.13566471553E+04  0.12198929683E+04 -0.70621933382E+02  0.18258202071E+04  0.12699999809E+01 0. -1.
</event>
<event>
 5   0  0.2287500E-07  0.3716872E+04  0.7818609E-02  0.8064233E-01
       -1   -1    0    0    0  501  0.00000000000E+00  0.00000000000E+00  0.15681636927E+04  0.15681636927E+04  0.50400001928E-02 0.  1.
        1   -1    0    0  501    0  0.00000000000E+00  0.00000000000E+00 -0.22024382756E+04  0.22024382756E+04  0.50400001928E-02 0. -1.
    10030    2    1    2    0    0  0.00000000000E+00  0.00000000000E+00 -0.63427458285E+03  0.37706019683E+04  0.37168716627E+04 0.  0.
        2    1    3    3  502    0  0.69668448125E+03 -0.16321755987E+03 -0.20570914790E+04  0.21779886573E+04  0.25500000920E-02 0. -1.
       -2    1    3    3    0  502 -0.69668448125E+03  0.16321755987E+03  0.14228168962E+04  0.15926133110E+04  0.25500000920E-02 0.  1.
</event>
<event>
 5   0  0.6939921E-07  0.3624950E+04  0.7818609E-02  0.8084800E-01
       -2   -1    0    0    0  501  0.00000000000E+00  0.00000000000E+00  0.96360041848E+03  0.96360041849E+03  0.25500000920E-02 0.  1.
        2   -1    0    0  501    0  0.00000000000E+00  0.00000000000E+00 -0.34091567437E+04  0.34091567437E+04  0.25500000920E-02 0. -1.
    10030    2    1    2    0    0  0.00000000000E+00  0.00000000000E+00 -0.24455563252E+04  0.43727571622E+04  0.36249495803E+04 0.  0.
        4    1    3    3  502    0 -0.65551728908E+03 -0.13149994230E+04  0.57336803607E+02  0.14704473879E+04  0.12699999809E+01 0.  1.
       -4    1    3    3    0  502  0.65551728908E+03  0.13149994230E+04 -0.25028931288E+04  0.29023097743E+04  0.12699999809E+01 0. -1.
</event>
<event>
 5   0  0.6939921E-07  0.3710590E+04  0.7818609E-02  0.8065619E-01
        2   -1    0    0  501    0  0.00000000000E+00  0.00000000000E+00  0.20418453698E+04  0.20418453698E+04  0.25500000920E-02 0.  1.
       -2   -1    0    0    0  501  0.00000000000E+00  0.00000000000E+00 -0.16857882488E+04  0.16857882488E+04  0.25500000920E-02 0. -1.
    10030    2    1    2    0    0  0.00000000000E+00  0.00000000000E+00  0.35605712102E+03  0.37276336185E+04  0.37105896729E+04 0.  0.
        4    1    3    3  502    0  0.15739422284E+04 -0.56959829589E+03 -0.62588525806E+03  0.17870283507E+04  0.12699999809E+01 0. -1.
       -4    1    3    3    0  502 -0.15739422284E+04  0.56959829589E+03  0.98194237908E+03  0.19406052679E+04  0.12699999809E+01 0.  1.
</event>
<event>
 5   0  0.2287500E-07  0.3574263E+04  0.7818609E-02  0.8096413E-01
        1   -1    0    0  501    0  0.00000000000E+00  0.00000000000E+00  0.14757373095E+04  0.14757373095E+04  0.50400001928E-02 0. -1.
       -1   -1    0    0    0  501  0.00000000000E+00  0.00000000000E+00 -0.21642326258E+04  0.21642326258E+04  0.50400001928E-02 0.  1.
    10030    2    1    2    0    0  0.00000000000E+00  0.00000000000E+00 -0.68849531635E+03  0.36399699353E+04  0.35742629071E+04 0.  0.
        4    1    3    3  502    0  0.81843592932E+03 -0.15238057970E+04  0.11347657828E+03  0.17334070567E+04  0.12699999809E+01 0.  1.
       -4    1    3    3    0  502 -0.81843592932E+03  0.15238057970E+04 -0.80197189464E+03  0.19065628786E+04  0.12699999809E+01 0. -1.
</event>
<event>
 5   0  0.2287500E-07  0.3302199E+04  0.7818609E-02  0.8162336E-01
        1   -1    0    0  501    0  0.00000000000E+00  0.00000000000E+00  0.25080058333E+04  0.25080058333E+04  0.50400001928E-02 0.  1.
       -1   -1    0    0    0  501  0.00000000000E+00  0.00000000000E+00 -0.10869712825E+04  0.10869712825E+04  0.50400001928E-02 0. -1.
    10030    2    1    2    0    0  0.00000000000E+00  0.00000000000E+00  0.14210345508E+04  0.35949771158E+04  0.33021994593E+04 0.  0.
        2    1    3    3  502    0 -0.60643218168E+03  0.12801096616E+04 -0.21304340667E+03  0.14324204096E+04  0.25500000920E-02 0. -1.
       -2    1    3    3    0  502  0.60643218168E+03 -0.12801096616E+04  0.16340779575E+04  0.21625567063E+04  0.25500000920E-02 0.  1.
</event>
<event>
 5   0  0.6949625E-07  0.3762082E+04  0.7818609E-02  0.8054341E-01
        2   -1    0    0  501    0  0.00000000000E+00  0.00000000000E+00  0.16930500740E+04  0.16930500740E+04  0.25500000920E-02 0. -1.
       -2   -1    0    0    0  501  0.00000000000E+00  0.00000000000E+00 -0.20899053270E+04  0.20899053270E+04  0.25500000920E-02 0.  1.
    10030    2    1    2    0    0  0.00000000000E+00  0.00000000000E+00 -0.39685525303E+03  0.37829554010E+04  0.37620815348E+04 0.  0.
        5    1    3    3  502    0 -0.69271205623E+03 -0.58357103057E+03 -0.18561764439E+04  0.20653857318E+04  0.46999998093E+01 0. -1.
       -5    1    3    3    0  502  0.69271205623E+03  0.58357103057E+03  0.14593211908E+04  0.17175696692E+04  0.46999998093E+01 0.  1.
</event>
<event>
 5   0  0.6949625E-07  0.3730790E+04  0.7818609E-02  0.8061172E-01
        2   -1    0    0  501    0  0.00000000000E+00  0.00000000000E+00  0.25102710806E+04  0.25102710806E+04  0.25500000920E-02 0.  1.
       -2   -1    0    0    0  501  0.00000000000E+00  0.00000000000E+00 -0.13861846186E+04  0.13861846186E+04  0.25500000920E-02 0. -1.
    10030    2    1    2    0    0  0.00000000000E+00  0.00000000000E+00  0.11240864620E+04  0.38964556992E+04  0.37307903508E+04 0.  0.
        5    1    3    3  502    0 -0.79254549149E+03 -0.37158302497E+03 -0.11583661102E+04  0.14519078606E+04  0.46999998093E+01 0. -1.
       -5    1    3    3    0  502  0.79254549149E+03  0.37158302497E+03  0.22824525722E+04  0.24445478385E+04  0.46999998093E+01 0.  1.
</event>
<event>
 5   0  0.2345471E-07  0.3763772E+04  0.7818609E-02  0.8053974E-01
        1   -1    0    0  501    0  0.00000000000E+00  0.00000000000E+00  0.14975944311E+04  0.14975944311E+04  0.50400001928E-02 0. -1.
       -1   -1    0    0    0  501  0.00000000000E+00  0.00000000000E+00 -0.23647889794E+04  0.23647889794E+04  0.50400001928E-02 0.  1.
    10030    2    1    2    0    0  0.00000000000E+00  0.00000000000E+00 -0.86719454836E+03  0.38623834105E+04  0.37637719411E+04 0.  0.
        5    1    3    3  502    0  0.10470293312E+04 -0.10216378586E+04 -0.16484459522E+04  0.22039533756E+04  0.46999998093E+01 0.  1.
       -5    1    3    3    0  502 -0.10470293312E+04  0.10216378586E+04  0.78125140387E+03  0.16584300349E+04  0.46999998093E+01 0. -1.
</event>
<event>
 5   0  0.7124627E-07  0.3731731E+04  0.7818609E-02  0.8060966E-01
        2   -1    0    0  501    0  0.00000000000E+00  0.00000000000E+00  0.33543614682E+04  0.33543614682E+04  0.25500000920E-02 0. -1.
       -2   -1    0    0    0  501  0.00000000000E+00  0.00000000000E+00 -0.10378885089E+04  0.10378885089E+04  0.25500000920E-02 0.  1.
    10030    2    1    2    0    0  0.00000000000E+00  0.00000000000E+00  0.23164729592E+04  0.43922499771E+04  0.37317305490E+04 0.  0.
        2    1    3    3  502    0  0.75324097857E+03 -0.11221125196E+04 -0.35591219392E+03  0.13975628673E+04  0.25500000920E-02 0.  1.
       -2    1    3    3    0  502 -0.75324097857E+03  0.11221125196E+04  0.26723851532E+04  0.29946871097E+04  0.25500000920E-02 0. -1.
</event>
<event>
 5   0  0.2287500E-07  0.3590560E+04  0.7818609E-02  0.8092657E-01
       -1   -1    0    0    0  501  0.00000000000E+00  0.00000000000E+00  0.12856860020E+04  0.12856860020E+04  0.50400001928E-02 0. -1.
        1   -1    0    0  501    0  0.00000000000E+00  0.00000000000E+00 -0.25068570919E+04  0.25068570919E+04  0.50400001928E-02 0.  1.
    10030    2    1    2    0    0  0.00000000000E+00  0.00000000000E+00 -0.12211710900E+04  0.37925430939E+04  0.35905604421E+04 0.  0.
        4    1    3    3  502    0  0.68636598650E+03 -0.11579128452E+04  0.64416618025E+03  0.14922506844E+04  0.12699999809E+01 0. -1.
       -4    1    3    3    0  502 -0.68636598650E+03  0.11579128452E+04 -0.18653372702E+04  0.23002924095E+04  0.12699999809E+01 0.  1.
</event>
<event>
 5   0  0.7074157E-07  0.3703727E+04  0.7818609E-02  0.8067136E-01
        2   -1    0    0  501    0  0.00000000000E+00  0.00000000000E+00  0.26373621947E+04  0.26373621947E+04  0.25500000920E-02 0.  1.
       -2   -1    0    0    0  501  0.00000000000E+00  0.00000000000E+00 -0.13003140660E+04  0.13003140660E+04  0.25500000920E-02 0. -1.
    10030    2    1    2    0    0  0.00000000000E+00  0.00000000000E+00  0.13370481288E+04  0.39376762607E+04  0.37037273975E+04 0.  0.
        3    1    3    3  502    0 -0.30390978230E+03  0.17688295736E+04  0.18331969035E+03  0.18040857339E+04  0.10100000352E+00 0. -1.
       -3    1    3    3    0  502  0.30390978230E+03 -0.17688295736E+04  0.11537284384E+04  0.21335905268E+04  0.10100000352E+00 0.  1.
</event>
<event>
 5   0  0.6949625E-07  0.3172736E+04  0.7818609E-02  0.8196055E-01
       -2   -1    0    0    0  501  0.00000000000E+00  0.00000000000E+00  0.12131537344E+04  0.12131537344E+04  0.25500000920E-02 0.  1.
        2   -1    0    0  501    0  0.00000000000E+00  0.00000000000E+00 -0.20743981981E+04  0.20743981982E+04  0.25500000920E-02 0. -1.
    10030    2    1    2    0    0  0.00000000000E+00  0.00000000000E+00 -0.86124446372E+03  0.32875519326E+04  0.31727363085E+04 0.  0.
        5    1    3    3  502    0  0.37748567427E+02 -0.54438346123E+03  0.11128334082E+04  0.12394347871E+04  0.46999998093E+01 0.  1.
       -5    1    3    3    0  502 -0.37748567427E+02  0.54438346123E+03 -0.19740778719E+04  0.20481171455E+04  0.46999998093E+01 0. -1.
</event>
<event>
 5   0  0.7124627E-07  0.3616805E+04  0.7818609E-02  0.8086653E-01
        2   -1    0    0  501    0  0.00000000000E+00  0.00000000000E+00  0.12092160772E+04  0.12092160772E+04  0.25500000920E-02 0. -1.
       -2   -1    0    0    0  501  0.00000000000E+00  0.00000000000E+00 -0.27044961184E+04  0.27044961184E+04  0.25500000920E-02 0.  1.
    10030    2    1    2    0    0  0.00000000000E+00  0.00000000000E+00 -0.14952800413E+04  0.39137121956E+04  0.36168053235E+04 0.  0.
        2    1    3    3  502    0 -0.17113337248E+04  0.50350773350E+03 -0.42639014960E+03  0.18341187844E+04  0.25500000920E-02 0.  1.
       -2    1    3    3    0  502  0.17113337248E+04 -0.50350773350E+03 -0.10688898917E+04  0.20795934112E+04  0.25500000920E-02 0. -1.
</event>
<event>
 5   0  0.2287500E-07  0.3734651E+04  0.7818609E-02  0.8060326E-01
       -1   -1    0    0    0  501  0.00000000000E+00  0.00000000000E+00  0.14853278899E+04  0.14853278899E+04  0.50400001928E-02 0. -1.
        1   -1    0    0  501    0  0.00000000000E+00  0.00000000000E+00 -0.23475661048E+04  0.23475661048E+04  0.50400001928E-02 0.  1.
    10030    2    1    2    0    0  0.00000000000E+00  0.00000000000E+00 -0.86223821490E+03  0.38328939948E+04  0.37346514745E+04 0.  0.
        3    1    3    3  502    0  0.13506272338E+04  0.12190329131E+04 -0.86249752984E+03  0.20134888048E+04  0.10100000352E+00 0. -1.
       -3    1    3    3    0  502 -0.13506272338E+04 -0.12190329131E+04  0.25931493803E+00  0.18194051900E+04  0.10100000352E+00 0.  1.
</event>
<event>
 5   0  0.7124627E-07  0.3675597E+04  0.7818609E-02  0.8073391E-01
        2   -1    0    0  501    0  0.00000000000E+00  0.00000000000E+00  0.21513482047E+04  0.21513482047E+04  0.25500000920E-02 0. -1.
       -2   -1    0    0    0  501  0.00000000000E+00  0.00000000000E+00 -0.15699473841E+04  0.15699473841E+04  0.25500000920E-02 0.  1.
    10030    2    1    2    0    0  0.00000000000E+00  0.00000000000E+00  0.58140082052E+03  0.37212955888E+04  0.36755970869E+04 0.  0.
        2    1    3    3  502    0  0.73734128484E+03  0.25958391570E+03  0.19746437961E+04  0.21237405918E+04  0.25500000920E-02 0. -1.
       -2    1    3    3    0  502 -0.73734128484E+03 -0.25958391570E+03 -0.13932429756E+04  0.15975549971E+04  0.25500000920E-02 0.  1.
</event>
<event>
 5   0  0.2345471E-07  0.3706715E+04  0.7818609E-02  0.8066475E-01
        1   -1    0    0  501    0  0.00000000000E+00  0.00000000000E+00  0.26536616634E+04  0.26536616634E+04  0.50400001928E-02 0.  1.
       -1   -1    0    0    0  501  0.00000000000E+00  0.00000000000E+00 -0.12944132676E+04  0.12944132676E+04  0.50400001928E-02 0. -1.
    10030    2    1    2    0    0  0.00000000000E+00  0.00000000000E+00  0.13592483958E+04  0.39480749310E+04  0.37067154543E+04 0.  0.
        5    1    3    3  502    0  0.13140071203E+04 -0.12339315137E+04  0.22062170072E+03  0.18160114860E+04  0.46999998093E+01 0. -1.
       -5    1    3    3    0  502 -0.13140071203E+04  0.12339315137E+04  0.11386266951E+04  0.21320634450E+04  0.46999998093E+01 0.  1.
</event>
<event>
 5   0  0.2287500E-07  0.3495632E+04  0.7818609E-02  0.8114826E-01
       -1   -1    0    0    0  501  0.00000000000E+00  0.00000000000E+00  0.12384007002E+04  0.12384007002E+04  0.50400001928E-02 0. -1.
        1   -1    0    0  501    0  0.00000000000E+00  0.00000000000E+00 -0.24667789662E+04  0.24667789662E+04  0.50400001928E-02 0.  1.
    10030    2    1    2    0    0  0.00000000000E+00  0.00000000000E+00 -0.12283782660E+04  0.37051796664E+04  0.34956320166E+04 0.  0.
        4    1    3    3  502    0  0.46593981868E+03  0.99109727595E+03  0.82962850006E+03  0.13739209533E+04  0.12699999809E+01 0. -1.
       -4    1    3    3    0  502 -0.46593981868E+03 -0.99109727595E+03 -0.20580067661E+04  0.23312587130E+04  0.12699999809E+01 0.  1.
</event>
<event>
 5   0  0.7074157E-07  0.3604964E+04  0.7818609E-02  0.8089356E-01
       -2   -1    0    0    0  501  0.00000000000E+00  0.00000000000E+00  0.13433970594E+04  0.13433970594E+04  0.25500000920E-02 0. -1.
        2   -1    0    0  501    0  0.00000000000E+00  0.00000000000E+00 -0.24184522325E+04  0.24184522325E+04  0.25500000920E-02 0.  1.
    10030    2    1    2    0    0  0.00000000000E+00  0.00000000000E+00 -0.10750551731E+04  0.37618492919E+04  0.36049641426E+04 0.  0.
        3    1    3    3  502    0 -0.15818003381E+04 -0.83623078996E+03 -0.76511853395E+03  0.19459652168E+04  0.10100000352E+00 0.  1.
       -3    1    3    3    0  502  0.15818003381E+04  0.83623078996E+03 -0.30993663914E+03  0.18158840751E+04  0.10100000352E+00 0. -1.
</event>
<event>
 5   0  0.2287500E-07  0.3426008E+04  0.7818609E-02  0.8131552E-01
       -1   -1    0    0    0  501  0.00000000000E+00  0.00000000000E+00  0.15942717057E+04  0.15942717057E+04  0.50400001928E-02 0. -1.
        1   -1    0    0  501    0  0.00000000000E+00  0.00000000000E+00 -0.18405787251E+04  0.18405787251E+04  0.50400001928E-02 0.  1.
    10030    2    1    2    0    0  0.00000000000E+00  0.00000000000E+00 -0.24630701933E+03  0.34348504308E+04  0.34260079297E+04 0.  0.
        3    1    3    3  502    0  0.11210817069E+04 -0.14092278849E+02 -0.14216254838E+04  0.18105363328E+04  0.10100000352E+00 0.  1.
       -3    1    3    3    0  502 -0.11210817069E+04  0.14092278849E+02  0.11753184645E+04  0.16243140980E+04  0.10100000352E+00 0. -1.
</event>
<event>
 5   0  0.2287500E-07  0.3707292E+04  0.7818609E-02  0.8066348E-01
        1   -1    0    0  501    0  0.00000000000E+00  0.00000000000E+00  0.19083500489E+04  0.19083500489E+04  0.50400001928E-02 0. -1.
       -1   -1    0    0    0  501  0.00000000000E+00  0.00000000000E+00 -0.18005096506E+04  0.18005096506E+04  0.50400001928E-02 0.  1.
    10030    2    1    2    0    0  0.00000000000E+00  0.00000000000E+00  0.10784039832E+03  0.37088596995E+04  0.37072915611E+04 0.  0.
        2    1    3    3  502    0  0.30052834903E+03  0.57985370649E+03 -0.16815916945E+04  0.18039673602E+04  0.25500000920E-02 0.  1.
       -2    1    3    3    0  502 -0.30052834903E+03 -0.57985370649E+03  0.17894320928E+04  0.19048923393E+04  0.25500000920E-02 0. -1.
</event>
<event>
 5   0  0.2287500E-07  0.3675359E+04  0.7818609E-02  0.8073445E-01
        1   -1    0    0  501    0  0.00000000000E+00  0.00000000000E+00  0.29877089643E+04  0.29877089643E+04  0.50400001928E-02 0.  1.
       -1   -1    0    0    0  501  0.00000000000E+00  0.00000000000E+00 -0.11303194235E+04  0.11303194235E+04  0.50400001928E-02 0. -1.
    10030    2    1    2    0    0  0.00000000000E+00  0.00000000000E+00  0.18573895408E+04  0.41180283878E+04  0.36753587439E+04 0.  0.
        2    1    3    3  502    0 -0.16095245138E+04  0.42646085924E+03  0.17999261914E+04  0.24519731482E+04  0.25500000920E-02 0.  1.
       -2    1    3    3    0  502  0.16095245138E+04 -0.42646085924E+03  0.57463349445E+02  0.16660552396E+04  0.25500000920E-02 0. -1.
</event>
<event>
 5   0  0.6939921E-07  0.3753227E+04  0.7818609E-02  0.8056267E-01
       -2   -1    0    0    0  501  0.00000000000E+00  0.00000000000E+00  0.15134039304E+04  0.15134039304E+04  0.25500000920E-02 0.  1.
        2   -1    0    0  501    0  0.00000000000E+00  0.00000000000E+00 -0.23269919631E+04  0.23269919631E+04  0.25500000920E-02 0. -1.
    10030    2    1    2    0    0  0.00000000000E+00  0.00000000000E+00 -0.81358803271E+03  0.38403958936E+04  0.37532272956E+04 0.  0.
        4    1    3    3  502    0 -0.16548503386E+04 -0.79325243126E+03 -0.53844024513E+01  0.18351593031E+04  0.12699999809E+01 0.  1.
       -4    1    3    3    0  502  0.16548503386E+04  0.79325243126E+03 -0.80820363026E+03  0.20052365905E+04  0.12699999809E+01 0. -1.
</event>
<event>
 5   0  0.2411746E-07  0.3607429E+04  0.7818609E-02  0.8088792E-01
       -1   -1    0    0    0  501  0.00000000000E+00  0.00000000000E+00  0.16583896334E+04  0.16583896334E+04  0.50400001928E-02 0.  1.
        1   -1    0    0  501    0  0.00000000000E+00  0.00000000000E+00 -0.19617740171E+04  0.19617740171E+04  0.50400001928E-02 0. -1.
    10030    2    1    2    0    0  0.00000000000E+00  0.00000000000E+00 -0.30338438371E+03  0.36201636504E+04  0.36074288311E+04 0.  0.
        1    1    3    3  502    0  0.64560313502E+03 -0.15571534824E+04  0.49233287312E+03  0.17561099150E+04  0.50400001928E-02 0.  1.
       -1    1    3    3    0  502 -0.64560313502E+03  0.15571534824E+04 -0.79571725683E+03  0.18640537354E+04  0.50400001928E-02 0. -1.
</event>
<event>
 5   0  0.2411746E-07  0.3130071E+04  0.7818609E-02  0.8207533E-01
        1   -1    0    0  501    0  0.00000000000E+00  0.00000000000E+00  0.29709808247E+04  0.29709808247E+04  0.50400001928E-02 0. -1.
       -1   -1    0    0    0  501  0.00000000000E+00  0.00000000000E+00 -0.82441987595E+03  0.82441987596E+03  0.50400001928E-02 0.  1.
    10030    2    1    2    0    0  0.00000000000E+00  0.00000000000E+00  0.21465609488E+04  0.37954007007E+04  0.31300706976E+04 0.  0.
        1    1    3    3  502    0  0.62174248684E+03 -0.30816679075E+03  0.27742421679E+04  0.28597115409E+04  0.50400001928E-02 0. -1.
       -1    1    3    3    0  502 -0.62174248684E+03  0.30816679075E+03 -0.62768121914E+03  0.93568915979E+03  0.50400001928E-02 0.  1.
</event>
<event>
 5   0  0.6949625E-07  0.3675699E+04  0.7818609E-02  0.8073369E-01
       -2   -1    0    0    0  501  0.00000000000E+00  0.00000000000E+00  0.18109530244E+04  0.18109530244E+04  0.25500000920E-02 0. -1.
        2   -1    0    0  501    0  0.00000000000E+00  0.00000000000E+00 -0.18651457774E+04  0.18651457774E+04  0.25500000920E-02 0.  1.
    10030    2    1    2    0    0  0.00000000000E+00  0.00000000000E+00 -0.54192753084E+02  0.36760988018E+04  0.36756993275E+04 0.  0.
        5    1    3    3  502    0  0.16295790039E+03 -0.17897164474E+04  0.35769088232E+03  0.18323768981E+04  0.46999998093E+01 0. -1.
       -5    1    3    3    0  502 -0.16295790039E+03  0.17897164474E+04 -0.41188363540E+03  0.18437219037E+04  0.46999998093E+01 0.  1.
</event>
<event>
 5   0  0.7300916E-07  0.3831103E+04  0.7818609E-02  0.8039513E-01
        2   -1    0    0  501    0  0.00000000000E+00  0.00000000000E+00  0.28256735719E+04  0.28256735719E+04  0.25500000920E-02 0. -1.
       -2   -1    0    0    0  501  0.00000000000E+00  0.00000000000E+00 -0.12985710172E+04  0.12985710172E+04  0.25500000920E-02 0.  1.
    10030    2    1    2    0    0  0.00000000000E+00  0.00000000000E+00  0.15271025547E+04  0.41242445892E+04  0.38311031334E+04 0.  0.
        1    1    3    3  502    0  0.24234872743E+03  0.31366142189E+02 -0.12817221508E+04  0.13048097227E+04  0.50400001928E-02 0.  1.
       -1    1    3    3    0  502 -0.24234872743E+03 -0.31366142189E+02  0.28088247055E+04  0.28194348665E+04  0.50400001928E-02 0. -1.
</event>
<event>
 5   0  0.7300916E-07  0.3742521E+04  0.7818609E-02  0.8058603E-01
       -2   -1    0    0    0  501  0.00000000000E+00  0.00000000000E+00  0.24395737813E+04  0.24395737813E+04  0.25500000920E-02 0. -1.
        2   -1    0    0  501    0  0.00000000000E+00  0.00000000000E+00 -0.14353394193E+04  0.14353394194E+04  0.25500000920E-02 0.  1.
    10030    2    1    2    0    0  0.00000000000E+00  0.00000000000E+00  0.10042343619E+04  0.38749132006E+04  0.37425212970E+04 0.  0.
        1    1    3    3  502    0  0.17750386672E+04  0.35783153658E+03  0.13390831112E+02  0.18107967840E+04  0.50400001928E-02 0.  1.
       -1    1    3    3    0  502 -0.17750386672E+04 -0.35783153658E+03  0.99084353083E+03  0.20641164166E+04  0.50400001928E-02 0. -1.
</event>
<event>
 5   0  0.2287500E-07  0.2738344E+04  0.7818609E-02  0.8322670E-01
        1   -1    0    0  501    0  0.00000000000E+00  0.00000000000E+00  0.15949959543E+04  0.15949959543E+04  0.50400001928E-02 0.  1.
       -1   -1    0    0    0  501  0.00000000000E+00  0.00000000000E+00 -0.11753205252E+04  0.11753205252E+04  0.50400001928E-02 0. -1.
    10030    2    1    2    0    0  0.00000000000E+00  0.00000000000E+00  0.41967542905E+03  0.27703164795E+04  0.27383436473E+04 0.  0.
        3    1    3    3  502    0  0.34410177259E+03 -0.92710518752E+03 -0.74816196524E+03  0.12400308041E+04  0.10100000352E+00 0. -1.
       -3    1    3    3    0  502 -0.34410177259E+03  0.92710518752E+03  0.11678373943E+04  0.15302856754E+04  0.10100000352E+00 0.  1.
</event>
<event>
 5   0  0.6949625E-07  0.3657325E+04  0.7818609E-02  0.8077486E-01
       -2   -1    0    0    0  501  0.00000000000E+00  0.00000000000E+00  0.17536813380E+04  0.17536813381E+04  0.25500000920E-02 0.  1.
        2   -1    0    0  501    0  0.00000000000E+00  0.00000000000E+00 -0.19068491052E+04  0.19068491052E+04  0.25500000920E-02 0. -1.
    10030    2    1    2    0    0  0.00000000000E+00  0.00000000000E+00 -0.15316776711E+03  0.36605304432E+04  0.36573245359E+04 0.  0.
        5    1    3    3  502    0 -0.61761618900E+02  0.13357308332E+04 -0.13250714955E+04  0.18825057542E+04  0.46999998093E+01 0. -1.
       -5    1    3    3    0  502  0.61761618900E+02 -0.13357308332E+04  0.11719037283E+04  0.17780246891E+04  0.46999998093E+01 0.  1.
</event>
<event>
 5   0  0.7124627E-07  0.3572648E+04  0.7818609E-02  0.8096786E-01
       -2   -1    0    0    0  501  0.00000000000E+00  0.00000000000E+00  0.15520310090E+04  0.15520310090E+04  0.25500000920E-02 0. -1.
        2   -1    0    0  501    0  0.00000000000E+00  0.00000000000E+00 -0.20559851855E+04  0.20559851855E+04  0.25500000920E-02 0.  1.
    10030    2    1    2    0    0  0.00000000000E+00  0.00000000000E+00 -0.50395417655E+03  0.36080161945E+04  0.35726476244E+04 0.  0.
        2    1    3    3  502    0  0.10864091060E+04 -0.63888883614E+03 -0.15304037909E+04  0.19825739466E+04  0.25500000920E-02 0.  1.
       -2    1    3    3    0  502 -0.10864091060E+04  0.63888883614E+03  0.10264496143E+04  0.16254422479E+04  0.25500000920E-02 0. -1.
</event>
<event>
 5   0  0.2345471E-07  0.3858849E+04  0.7818609E-02  0.8033643E-01
       -1   -1    0    0    0  501  0.00000000000E+00  0.00000000000E+00  0.29795139004E+04  0.29795139004E+04  0.50400001928E-02 0. -1.
        1   -1    0    0  501    0  0.00000000000E+00  0.00000000000E+00 -0.12494250359E+04  0.12494250359E+04  0.50400001928E-02 0.  1.
    10030    2    1    2    0    0  0.00000000000E+00  0.00000000000E+00  0.17300888645E+04  0.42289389363E+04  0.38588491870E+04 0.  0.
        5    1    3    3  502    0 -0.15892412814E+04 -0.90335392763E+03  0.18866394840E+03  0.18377574227E+04  0.46999998093E+01 0.  1.
       -5    1    3    3    0  502  0.15892412814E+04  0.90335392763E+03  0.15414249161E+04  0.23911815136E+04  0.46999998093E+01 0. -1.
</event>
<event>
 5   0  0.7300916E-07  0.3704045E+04  0.7818609E-02  0.8067066E-01
        2   -1    0    0  501    0  0.00000000000E+00  0.00000000000E+00  0.21336380803E+04  0.21336380803E+04  0.25500000920E-02 0. -1.
       -2   -1    0    0    0  501  0.00000000000E+00  0.00000000000E+00 -0.16075772548E+04  0.16075772548E+04  0.25500000920E-02 0.  1.
    10030    2    1    2    0    0  0.00000000000E+00  0.00000000000E+00  0.52606082543E+03  0.37412153351E+04  0.37040453820E+04 0.  0.
        1    1    3    3  502    0 -0.12814334533E+04 -0.12541054208E+03  0.16076250345E+04  0.20596741856E+04  0.50400001928E-02 0. -1.
       -1    1    3    3    0  502  0.12814334533E+04  0.12541054208E+03 -0.10815642091E+04  0.16815411495E+04  0.50400001928E-02 0.  1.
</event>
<event>
 5   0  0.6939921E-07  0.3639530E+04  0.7818609E-02  0.8081496E-01
       -2   -1    0    0    0  501  0.00000000000E+00  0.00000000000E+00  0.14698849547E+04  0.14698849547E+04  0.25500000920E-02 0. -1.
        2   -1    0    0  501    0  0.00000000000E+00  0.00000000000E+00 -0.22529282803E+04  0.22529282803E+04  0.25500000920E-02 0.  1.
    10030    2    1    2    0    0  0.00000000000E+00  0.00000000000E+00 -0.78304332557E+03  0.37228132351E+04  0.36395304001E+04 0.  0.
        4    1    3    3  502    0  0.36053304724E+01 -0.12787330541E+04  0.93285392901E+03  0.15828421551E+04  0.12699999809E+01 0. -1.
       -4    1    3    3    0  502 -0.36053304724E+01  0.12787330541E+04 -0.17158972546E+04  0.21399710800E+04  0.12699999809E+01 0.  1.
</event>
<event>
 5   0  0.7300916E-07  0.3747214E+04  0.7818609E-02  0.8057578E-01
        2   -1    0    0  501    0  0.00000000000E+00  0.00000000000E+00  0.21552643345E+04  0.21552643345E+04  0.25500000920E-02 0. -1.
       -2   -1    0    0    0  501  0.00000000000E+00  0.00000000000E+00 -0.16287577730E+04  0.16287577730E+04  0.25500000920E-02 0.  1.
    10030    2    1    2    0    0  0.00000000000E+00  0.00000000000E+00  0.52650656150E+03  0.37840221074E+04  0.37472141853E+04 0.  0.
        1    1    3    3  502    0  0.15152629065E+03 -0.12630135951E+04 -0.11258458982E+04  0.16987326289E+04  0.50400001928E-02 0.  1.
       -1    1    3    3    0  502 -0.15152629065E+03  0.12630135951E+04  0.16523524597E+04  0.20852894785E+04  0.50400001928E-02 0. -1.
</event>
<event>
 5   0  0.7124627E-07  0.3712229E+04  0.7818609E-02  0.8065257E-01
       -2   -1    0    0    0  501  0.00000000000E+00  0.00000000000E+00  0.18068436255E+04  0.18068436255E+04  0.25500000920E-02 0. -1.
        2   -1    0    0  501    0  0.00000000000E+00  0.00000000000E+00 -0.19067291303E+04  0.19067291303E+04  0.25500000920E-02 0.  1.
    10030    2    1    2    0    0  0.00000000000E+00  0.00000000000E+00 -0.99885504837E+02  0.37135727558E+04  0.37122291819E+04 0.  0.
        2    1    3    3  502    0 -0.10879736664E+04  0.88308708113E+03  0.11677208205E+04  0.18240343764E+04  0.25500000920E-02 0. -1.
       -2    1    3    3    0  502  0.10879736664E+04 -0.88308708113E+03 -0.12676063253E+04  0.18895383795E+04  0.25500000920E-02 0.  1.
</event>
<event>
 5   0  0.2287500E-07  0.3706109E+04  0.7818609E-02  0.8066609E-01
        1   -1    0    0  501    0  0.00000000000E+00  0.00000000000E+00  0.17513849175E+04  0.17513849175E+04  0.50400001928E-02 0. -1.
       -1   -1    0    0    0  501  0.00000000000E+00  0.00000000000E+00 -0.19606265358E+04  0.19606265358E+04  0.50400001928E-02 0.  1.
    10030    2    1    2    0    0  0.00000000000E+00  0.00000000000E+00 -0.20924161830E+03  0.37120114532E+04  0.37061094120E+04 0.  0.
        2    1    3    3  502    0  0.50036534538E+03  0.31173626373E+03 -0.18641958875E+04  0.19551908562E+04  0.25500000920E-02 0.  1.
       -2    1    3    3    0  502 -0.50036534538E+03 -0.31173626373E+03  0.16549542692E+04  0.17568205971E+04  0.25500000920E-02 0. -1.
</event>
<event>
 5   0  0.2287500E-07  0.3357236E+04  0.7818609E-02  0.8148482E-01
        1   -1    0    0  501    0  0.00000000000E+00  0.00000000000E+00  0.21423587116E+04  0.21423587117E+04  0.50400001928E-02 0. -1.
       -1   -1    0    0    0  501  0.00000000000E+00  0.00000000000E+00 -0.13152602309E+04  0.13152602309E+04  0.50400001928E-02 0.  1.
    10030    2    1    2    0    0  0.00000000000E+00  0.00000000000E+00  0.82709848079E+03  0.34576189425E+04  0.33572364907E+04 0.  0.
        2    1    3    3  502    0  0.25973252484E+03 -0.53568884007E+03  0.20299795824E+04  0.21154764529E+04  0.25500000920E-02 0. -1.
       -2    1    3    3    0  502 -0.25973252484E+03  0.53568884007E+03 -0.12028811016E+04  0.13421424896E+04  0.25500000920E-02 0.  1.
</event>
<event>
 5   0  0.7300916E-07  0.2828657E+04  0.7818609E-02  0.8294426E-01
        2   -1    0    0  501    0  0.00000000000E+00  0.00000000000E+00  0.12880762497E+04  0.12880762497E+04  0.25500000920E-02 0. -1.
       -2   -1    0    0    0  501  0.00000000000E+00  0.00000000000E+00 -0.15529559133E+04  0.15529559134E+04  0.25500000920E-02 0.  1.
    10030    2    1    2    0    0  0.00000000000E+00  0.00000000000E+00 -0.26487966369E+03  0.28410321630E+04  0.28286573697E+04 0.  0.
        1    1    3    3  502    0 -0.47107858588E+03  0.95389303798E+03 -0.10684496044E+04  0.15077836447E+04  0.50400001928E-02 0. -1.
       -1    1    3    3    0  502  0.47107858588E+03 -0.95389303798E+03  0.80356994071E+03  0.13332485183E+04  0.50400001928E-02 0.  1.
</event>
<event>
 5   0  0.2411746E-07  0.3710548E+04  0.7818609E-02  0.8065628E-01
        1   -1    0    0  501    0  0.00000000000E+00  0.00000000000E+00  0.21435225267E+04  0.21435225267E+04  0.50400001928E-02 0. -1.
       -1   -1    0    0    0  501  0.00000000000E+00  0.00000000000E+00 -0.16057871506E+04  0.16057871506E+04  0.50400001928E-02 0.  1.
    10030    2    1    2    0    0  0.00000000000E+00  0.00000000000E+00  0.53773537611E+03  0.37493096772E+04  0.37105476309E+04 0.  0.
        1    1    3    3  502    0  0.77937431604E+03  0.46813681072E+03 -0.13652665129E+04  0.16402832223E+04  0.50400001928E-02 0.  1.
       -1    1    3    3    0  502 -0.77937431604E+03 -0.46813681072E+03  0.19030018890E+04  0.21090264549E+04  0.50400001928E-02 0. -1.
</event>
<event>
 5   0  0.2345471E-07  0.2831857E+04  0.7818609E-02  0.8293446E-01
       -1   -1    0    0    0  501  0.00000000000E+00  0.00000000000E+00  0.12146128131E+04  0.12146128131E+04  0.50400001928E-02 0.  1.
        1   -1    0    0  501    0  0.00000000000E+00  0.00000000000E+00 -0.16506112076E+04  0.16506112076E+04  0.50400001928E-02 0. -1.
    10030    2    1    2    0    0  0.00000000000E+00  0.00000000000E+00 -0.43599839448E+03  0.28652240208E+04  0.28318570037E+04 0.  0.
        5    1    3    3  502    0 -0.44113433628E+03  0.35367443980E+03  0.10954282026E+04  0.12327490212E+04  0.46999998093E+01 0.  1.
       -5    1    3    3    0  502  0.44113433628E+03 -0.35367443980E+03 -0.15314265971E+04  0.16324749996E+04  0.46999998093E+01 0. -1.
</event>
<event>
 5   0  0.7300916E-07  0.3220264E+04  0.7818609E-02  0.8183486E-01
       -2   -1    0    0    0  501  0.00000000000E+00  0.00000000000E+00  0.11982502077E+04  0.11982502077E+04  0.25500000920E-02 0. -1.
        2   -1    0    0  501    0  0.00000000000E+00  0.00000000000E+00 -0.21635923509E+04  0.21635923509E+04  0.25500000920E-02 0.  1.
    10030    2    1    2    0    0  0.00000000000E+00  0.00000000000E+00 -0.96534214321E+03  0.33618425587E+04  0.32202639544E+04 0.  0.
        1    1    3    3  502    0  0.12582428445E+04  0.76326233268E+03 -0.11646770853E+04  0.18767570853E+04  0.50400001928E-02 0.  1.
       -1    1    3    3    0  502 -0.12582428445E+04 -0.76326233268E+03  0.19933494205E+03  0.14850854734E+04  0.50400001928E-02 0. -1.
</event>
<event>
 5   0  0.2287500E-07  0.3756291E+04  0.7818609E-02  0.8055600E-01
       -1   -1    0    0    0  501  0.00000000000E+00  0.00000000000E+00  0.23916312990E+04  0.23916312990E+04  0.50400001928E-02 0. -1.
        1   -1    0    0  501    0  0.00000000000E+00  0.00000000000E+00 -0.14749054698E+04  0.14749054698E+04  0.50400001928E-02 0.  1.
    10030    2    1    2    0    0  0.00000000000E+00  0.00000000000E+00  0.91672582928E+03  0.38665367688E+04  0.37562907686E+04 0.  0.
        4    1    3    3  502    0  0.13688859404E+04  0.82101690024E+03  0.14771128660E+04  0.21748060833E+04  0.12699999809E+01 0. -1.
       -4    1    3    3    0  502 -0.13688859404E+04 -0.82101690024E+03 -0.56038703674E+03  0.16917306855E+04  0.12699999809E+01 0.  1.
</event>
<event>
 5   0  0.7124627E-07  0.2674142E+04  0.7818609E-02  0.8343444E-01
        2   -1    0    0  501    0  0.00000000000E+00  0.00000000000E+00  0.19954193544E+04  0.19954193544E+04  0.25500000920E-02 0.  1.
       -2   -1    0    0    0  501  0.00000000000E+00  0.00000000000E+00 -0.89593126385E+03  0.89593126386E+03  0.25500000920E-02 0. -1.
    10030    2    1    2    0    0  0.00000000000E+00  0.00000000000E+00  0.10994880905E+04  0.28913506182E+04  0.26741417944E+04 0.  0.
        2    1    3    3  502    0 -0.12521206409E+04 -0.46117323847E+03  0.45754314410E+03  0.14106142577E+04  0.25500000920E-02 0.  1.
       -2    1    3    3    0  502  0.12521206409E+04  0.46117323847E+03  0.64194494640E+03  0.14807363605E+04  0.25500000920E-02 0. -1.
</event>
<event>
 5   0  0.2287500E-07  0.3772217E+04  0.7818609E-02  0.8052144E-01
       -1   -1    0    0    0  501  0.00000000000E+00  0.00000000000E+00  0.16788433028E+04  0.16788433028E+04  0.50400001928E-02 0.  1.
        1   -1    0    0  501    0  0.00000000000E+00  0.00000000000E+00 -0.21189615653E+04  0.21189615653E+04  0.50400001928E-02 0. -1.
    10030    2    1    2    0    0  0.00000000000E+00  0.00000000000E+00 -0.44011826248E+03  0.37978048681E+04  0.37722165541E+04 0.  0.
        4    1    3    3  502    0  0.10437000962E+03 -0.13254168737E+04 -0.15669606270E+04  0.20549915346E+04  0.12699999809E+01 0. -1.
       -4    1    3    3    0  502 -0.10437000962E+03  0.13254168737E+04  0.11268423645E+04  0.17428133335E+04  0.12699999809E+01 0.  1.
</event>
<event>
 5   0  0.2411746E-07  0.3686120E+04  0.7818609E-02  0.8071045E-01
        1   -1    0    0  501    0  0.00000000000E+00  0.00000000000E+00  0.12236718723E+04  0.12236718724E+04  0.50400001928E-02 0. -1.
       -1   -1    0    0    0  501  0.00000000000E+00  0.00000000000E+00 -0.27759652448E+04  0.27759652448E+04  0.50400001928E-02 0.  1.
    10030    2    1    2    0    0  0.00000000000E+00  0.00000000000E+00 -0.15522933724E+04  0.39996371171E+04  0.36861202306E+04 0.  0.
        1    1    3    3  502    0 -0.10723148476E+04  0.40327409809E+03 -0.23426802131E+04  0.26078036183E+04  0.50400001928E-02 0.  1.
       -1    1    3    3    0  502  0.10723148476E+04 -0.40327409809E+03  0.79038684068E+03  0.13918334989E+04  0.50400001928E-02 0. -1.
</event>
<event>
 5   0  0.6949625E-07  0.3677926E+04  0.7818609E-02  0.8072871E-01
        2   -1    0    0  501    0  0.00000000000E+00  0.00000000000E+00  0.30389163031E+04  0.30389163032E+04  0.25500000920E-02 0.  1.
       -2   -1    0    0    0  501  0.00000000000E+00  0.00000000000E+00 -0.11128262034E+04  0.11128262034E+04  0.25500000920E-02 0. -1.
    10030    2    1    2    0    0  0.00000000000E+00  0.00000000000E+00  0.19260900997E+04  0.41517425066E+04  0.36779264224E+04 0.  0.
        5    1    3    3  502    0 -0.21661445921E+03  0.13167717073E+04  0.23913364033E+04  0.27384888966E+04  0.46999998093E+01 0.  1.
       -5    1    3    3    0  502  0.21661445921E+03 -0.13167717073E+04 -0.46524630355E+03  0.14132536100E+04  0.46999998093E+01 0. -1.
</event>
<event>
 5   0  0.2287500E-07  0.3606786E+04  0.7818609E-02  0.8088939E-01
       -1   -1    0    0    0  501  0.00000000000E+00  0.00000000000E+00  0.20341859217E+04  0.20341859217E+04  0.50400001928E-02 0. -1.
        1   -1    0    0  501    0  0.00000000000E+00  0.00000000000E+00 -0.15987852350E+04  0.15987852350E+04  0.50400001928E-02 0.  1.
    10030    2    1    2    0    0  0.00000000000E+00  0.00000000000E+00  0.43540068667E+03  0.36329711568E+04  0.36067860580E+04 0.  0.
        3    1    3    3  502    0 -0.15266812803E+04 -0.56981958815E+02  0.11828970338E+04  0.19321615041E+04  0.10100000352E+00 0. -1.
       -3    1    3    3    0  502  0.15266812803E+04  0.56981958815E+02 -0.74749634711E+03  0.17008096526E+04  0.10100000352E+00 0.  1.
</event>
<event>
 5   0  0.2287500E-07  0.3685244E+04  0.7818609E-02  0.8071240E-01
       -1   -1    0    0    0  501  0.00000000000E+00  0.00000000000E+00  0.12703279172E+04  0.12703279172E+04  0.50400001928E-02 0. -1.
        1   -1    0    0  501    0  0.00000000000E+00  0.00000000000E+00 -0.26727394637E+04  0.26727394637E+04  0.50400001928E-02 0.  1.
    10030    2    1    2    0    0  0.00000000000E+00  0.00000000000E+00 -0.14024115465E+04  0.39430673810E+04  0.36852438488E+04 0.  0.
        3    1    3    3  502    0 -0.48114276812E+03  0.17782383756E+04 -0.65806813035E+03  0.19561911354E+04  0.10100000352E+00 0. -1.
       -3    1    3    3    0  502  0.48114276812E+03 -0.17782383756E+04 -0.74434341617E+03  0.19868762456E+04  0.10100000352E+00 0.  1.
</event>
<event>
 5   0  0.7124627E-07  0.3712363E+04  0.7818609E-02  0.8065228E-01
        2   -1    0    0  501    0  0.00000000000E+00  0.00000000000E+00  0.20039321142E+04  0.20039321142E+04  0.25500000920E-02 0. -1.
       -2   -1    0    0    0  501  0.00000000000E+00  0.00000000000E+00 -0.17193242676E+04  0.17193242676E+04  0.25500000920E-02 0.  1.
    10030    2    1    2    0    0  0.00000000000E+00  0.00000000000E+00  0.28460784658E+03  0.37232563818E+04  0.37123626518E+04 0.  0.
        2    1    3    3  502    0  0.12154085160E+04  0.21560262349E+02 -0.12645691091E+04  0.17540860120E+04  0.25500000920E-02 0.  1.
       -2    1    3    3    0  502 -0.12154085160E+04 -0.21560262349E+02  0.15491769557E+04  0.19691703699E+04  0.25500000920E-02 0. -1.
</event>
<event>
 5   0  0.6939921E-07  0.3729394E+04  0.7818609E-02  0.8061479E-01
        2   -1    0    0  501    0  0.00000000000E+00  0.00000000000E+00  0.19991023144E+04  0.19991023144E+04  0.25500000920E-02 0.  1.
       -2   -1    0    0    0  501  0.00000000000E+00  0.00000000000E+00 -0.17393285623E+04  0.17393285623E+04  0.25500000920E-02 0. -1.
    10030    2    1    2    0    0  0.00000000000E+00  0.00000000000E+00  0.25977375205E+03  0.37384308767E+04  0.37293944572E+04 0.  0.
        4    1    3    3  502    0  0.81896448793E+03 -0.57813848917E+03  0.17060029453E+04  0.19787356083E+04  0.12699999809E+01 0.  1.
       -4    1    3    3    0  502 -0.81896448793E+03  0.57813848917E+03 -0.14462291933E+04  0.17596952684E+04  0.12699999809E+01 0. -1.
</event>
<event>
 5   0  0.2287500E-07  0.3720344E+04  0.7818609E-02  0.8063468E-01
        1   -1    0    0  501    0  0.00000000000E+00  0.00000000000E+00  0.27329930948E+04  0.27329930948E+04  0.50400001928E-02 0. -1.
       -1   -1    0    0    0  501  0.00000000000E+00  0.00000000000E+00 -0.12660991540E+04  0.12660991540E+04  0.50400001928E-02 0.  1.
    10030    2    1    2    0    0  0.00000000000E+00  0.00000000000E+00  0.14668939408E+04  0.39990922487E+04  0.37203442019E+04 0.  0.
        3    1    3    3  502    0  0.97497162537E+03 -0.63571650894E+03 -0.82631936044E+03  0.14274133409E+04  0.10100000352E+00 0.  1.
       -3    1    3    3    0  502 -0.97497162537E+03  0.63571650894E+03  0.22932133013E+04  0.25716789079E+04  0.10100000352E+00 0. -1.
</event>
<event>
 5   0  0.7124627E-07  0.3673794E+04  0.7818609E-02  0.8073794E-01
        2   -1    0    0  501    0  0.00000000000E+00  0.00000000000E+00  0.11909610670E+04  0.11909610670E+04  0.25500000920E-02 0. -1.
       -2   -1    0    0    0  501  0.00000000000E+00  0.00000000000E+00 -0.28331665293E+04  0.28331665294E+04  0.25500000920E-02 0.  1.
    10030    2    1    2    0    0  0.00000000000E+00  0.00000000000E+00 -0.16422054623E+04  0.40241275964E+04  0.36737942418E+04 0.  0.
        2    1    3    3  502    0 -0.18038538670E+03  0.12260505369E+04  0.66409093378E+03  0.14059713991E+04  0.25500000920E-02 0. -1.
       -2    1    3    3    0  502  0.18038538670E+03 -0.12260505369E+04 -0.23062963961E+04  0.26181561973E+04  0.25500000920E-02 0.  1.
</event>
<event>
 5   0  0.6939921E-07  0.3543513E+04  0.7818609E-02  0.8103555E-01
       -2   -1    0    0    0  501  0.00000000000E+00  0.00000000000E+00  0.13890274239E+04  0.13890274239E+04  0.25500000920E-02 0. -1.
        2   -1    0    0  501    0  0.00000000000E+00  0.00000000000E+00 -0.22599411773E+04  0.22599411773E+04  0.25500000920E-02 0.  1.
    10030    2    1    2    0    0  0.00000000000E+00  0.00000000000E+00 -0.87091375338E+03  0.36489686012E+04  0.35435125351E+04 0.  0.
        4    1    3    3  502    0 -0.21669715134E+02 -0.74188839986E+03  0.12212257644E+04  0.14290773090E+04  0.12699999809E+01 0. -1.
       -4    1    3    3    0  502  0.21669715134E+02  0.74188839986E+03 -0.20921395178E+04  0.22198912922E+04  0.12699999809E+01 0.  1.
</event>
<event>
 5   0  0.7074157E-07  0.3578507E+04  0.7818609E-02  0.8095433E-01
       -2   -1    0    0    0  501  0.00000000000E+00  0.00000000000E+00  0.23630053962E+04  0.23630053962E+04  0.25500000920E-02 0.  1.
        2   -1    0    0  501    0  0.00000000000E+00  0.00000000000E+00 -0.13548117517E+04  0.13548117517E+04  0.25500000920E-02 0. -1.
    10030    2    1    2    0    0  0.00000000000E+00  0.00000000000E+00  0.10081936445E+04  0.37178171479E+04  0.35785066607E+04 0.  0.
        3    1    3    3  502    0  0.78731209491E+02 -0.83302649974E+02 -0.13509935571E+04  0.13558471656E+04  0.10100000352E+00 0. -1.
       -3    1    3    3    0  502 -0.78731209491E+02  0.83302649974E+02  0.23591872016E+04  0.23619699823E+04  0.10100000352E+00 0.  1.
</event>
<event>
 5   0  0.2345471E-07  0.3669216E+04  0.7818609E-02  0.8074818E-01
        1   -1    0    0  501    0  0.00000000000E+00  0.00000000000E+00  0.15713635845E+04  0.15713635845E+04  0.50400001928E-02 0.  1.
       -1   -1    0    0    0  501  0.00000000000E+00  0.00000000000E+00 -0.21419529549E+04  0.21419529550E+04  0.50400001928E-02 0. -1.
    10030    2    1    2    0    0  0.00000000000E+00  0.00000000000E+00 -0.57058937045E+03  0.37133165395E+04  0.36692161959E+04 0.  0.
        5    1    3    3  502    0  0.18010271804E+03  0.10429740766E+04  0.12312261397E+04  0.16236292097E+04  0.46999998093E+01 0.  1.
       -5    1    3    3    0  502 -0.18010271804E+03 -0.10429740766E+04 -0.18018155102E+04  0.20896873298E+04  0.46999998093E+01 0. -1.
</event>
<event>
 5   0  0.7124627E-07  0.3512870E+04  0.7818609E-02  0.8110747E-01
       -2   -1    0    0    0  501  0.00000000000E+00  0.00000000000E+00  0.11128444933E+04  0.11128444933E+04  0.25500000920E-02 0. -1.
        2   -1    0    0  501    0  0.00000000000E+00  0.00000000000E+00 -0.27722324162E+04  0.27722324163E+04  0.25500000920E-02 0.  1.
    10030    2    1    2    0    0  0.00000000000E+00  0.00000000000E+00 -0.16593879230E+04  0.38850769095E+04  0.35128698117E+04 0.  0.
        2    1    3    3  502    0 -0.93418948351E+02 -0.16393365261E+04 -0.13998897266E+03  0.16479527476E+04  0.25500000920E-02 0. -1.
       -2    1    3    3    0  502  0.93418948351E+02  0.16393365261E+04 -0.15193989503E+04  0.22371241620E+04  0.25500000920E-02 0.  1.
</event>
<event>
 5   0  0.2287500E-07  0.3685729E+04  0.7818609E-02  0.8071132E-01
       -3   -1    0    0    0  501  0.00000000000E+00  0.00000000000E+00  0.17519823451E+04  0.17519823480E+04  0.10100000352E+00 0.  1.
        3   -1    0    0  501    0  0.00000000000E+00  0.00000000000E+00 -0.19384609758E+04  0.19384609785E+04  0.10100000352E+00 0. -1.
    10030    2    1    2    0    0  0.00000000000E+00  0.00000000000E+00 -0.18647863073E+03  0.36904433265E+04  0.36857289192E+04 0.  0.
        1    1    3    3  502    0  0.11078946435E+04  0.40226514270E+03  0.13252242761E+04  0.17735464945E+04  0.50400001928E-02 0.  1.
       -1    1    3    3    0  502 -0.11078946435E+04 -0.40226514270E+03 -0.15117029068E+04  0.19168968320E+04  0.50400001928E-02 0. -1.
</event>
<event>
 5   0  0.2287500E-07  0.3689783E+04  0.7818609E-02  0.8070230E-01
        1   -1    0    0  501    0  0.00000000000E+00  0.00000000000E+00  0.20231092376E+04  0.20231092376E+04  0.50400001928E-02 0.  1.
       -1   -1    0    0    0  501  0.00000000000E+00  0.00000000000E+00 -0.16823731732E+04  0.16823731732E+04  0.50400001928E-02 0. -1.
    10030    2    1    2    0    0  0.00000000000E+00  0.00000000000E+00  0.34073606438E+03  0.37054824108E+04  0.36897830330E+04 0.  0.
        4    1    3    3  502    0  0.25654447988E+03  0.14388866330E+04  0.13009526013E+04  0.19567036302E+04  0.12699999809E+01 0.  1.
       -4    1    3    3    0  502 -0.25654447988E+03 -0.14388866330E+04 -0.96021653691E+03  0.17487787806E+04  0.12699999809E+01 0. -1.
</event>
<event>
 5   0  0.7124627E-07  0.3612109E+04  0.7818609E-02  0.8087724E-01
       -2   -1    0    0    0  501  0.00000000000E+00  0.00000000000E+00  0.12410134586E+04  0.12410134586E+04  0.25500000920E-02 0.  1.
        2   -1    0    0  501    0  0.00000000000E+00  0.00000000000E+00 -0.26283626776E+04  0.26283626776E+04  0.25500000920E-02 0. -1.
    10030    2    1    2    0    0  0.00000000000E+00  0.00000000000E+00 -0.13873492190E+04  0.38693761362E+04  0.36121093323E+04 0.  0.
        2    1    3    3  502    0  0.21865626339E+03  0.49353886079E+03  0.11525758705E+04  0.12727223994E+04  0.25500000920E-02 0.  1.
       -2    1    3    3    0  502 -0.21865626339E+03 -0.49353886079E+03 -0.25399250895E+04  0.25966537368E+04  0.25500000920E-02 0. -1.
</event>
<event>
 5   0  0.2345471E-07  0.3656735E+04  0.7818609E-02  0.8077618E-01
        1   -1    0    0  501    0  0.00000000000E+00  0.00000000000E+00  0.17189745840E+04  0.17189745841E+04  0.50400001928E-02 0. -1.
       -1   -1    0    0    0  501  0.00000000000E+00  0.00000000000E+00 -0.19447223152E+04  0.19447223152E+04  0.50400001928E-02 0.  1.
    10030    2    1    2    0    0  0.00000000000E+00  0.00000000000E+00 -0.22574773113E+03  0.36636968992E+04  0.36567352832E+04 0.  0.
        5    1    3    3  502    0  0.62230039780E+03  0.15194206891E+04  0.69302625054E+03  0.17821909240E+04  0.46999998093E+01 0. -1.
       -5    1    3    3    0  502 -0.62230039780E+03 -0.15194206891E+04 -0.91877398167E+03  0.18815059753E+04  0.46999998093E+01 0.  1.
</event>
<event>
 5   0  0.2345471E-07  0.3714236E+04  0.7818609E-02  0.8064814E-01
        1   -1    0    0  501    0  0.00000000000E+00  0.00000000000E+00  0.21460092471E+04  0.21460092471E+04  0.50400001928E-02 0. -1.
       -1   -1    0    0    0  501  0.00000000000E+00  0.00000000000E+00 -0.16071168854E+04  0.16071168855E+04  0.50400001928E-02 0.  1.
    10030    2    1    2    0    0  0.00000000000E+00  0.00000000000E+00  0.53889236162E+03  0.37531261325E+04  0.37142362323E+04 0.  0.
        5    1    3    3  502    0  0.17741035538E+04  0.30362938794E+03 -0.19276138526E+03  0.18101970242E+04  0.46999998093E+01 0.  1.
       -5    1    3    3    0  502 -0.17741035538E+04 -0.30362938794E+03  0.73165374688E+03  0.19429291083E+04  0.46999998093E+01 0. -1.
</event>
<event>
 5   0  0.2287500E-07  0.3705703E+04  0.7818609E-02  0.8066699E-01
       -1   -1    0    0    0  501  0.00000000000E+00  0.00000000000E+00  0.13884292125E+04  0.13884292125E+04  0.50400001928E-02 0. -1.
        1   -1    0    0  501    0  0.00000000000E+00  0.00000000000E+00 -0.24726210114E+04  0.24726210114E+04  0.50400001928E-02 0.  1.
    10030    2    1    2    0    0  0.00000000000E+00  0.00000000000E+00 -0.10841917988E+04  0.38610502239E+04  0.37057033036E+04 0.  0.
        3    1    3    3  502    0 -0.10448928544E+04 -0.14977272881E+04 -0.86838712027E+03  0.20221484385E+04  0.10100000352E+00 0.  1.
       -3    1    3    3    0  502  0.10448928544E+04  0.14977272881E+04 -0.21580467858E+03  0.18389017853E+04  0.10100000352E+00 0. -1.
</event>
<event>
 5   0  0.2287500E-07  0.3006424E+04  0.7818609E-02  0.8241899E-01
       -1   -1    0    0    0  501  0.00000000000E+00  0.00000000000E+00  0.11863989474E+04  0.11863989474E+04  0.50400001928E-02 0. -1.
        1   -1    0    0  501    0  0.00000000000E+00  0.00000000000E+00 -0.19046261073E+04  0.19046261073E+04  0.50400001928E-02 0.  1.
    10030    2    1    2    0    0  0.00000000000E+00  0.00000000000E+00 -0.71822715987E+03  0.30910250547E+04  0.30064240611E+04 0.  0.
        2    1    3    3  502    0  0.19114192899E+03  0.34812018450E+03  0.11314851284E+04  0.11991586616E+04  0.25500000920E-02 0. -1.
       -2    1    3    3    0  502 -0.19114192899E+03 -0.34812018450E+03 -0.18497122883E+04  0.18918663931E+04  0.25500000920E-02 0.  1.
</event>
<event>
 5   0  0.6949625E-07  0.3618806E+04  0.7818609E-02  0.8086197E-01
        2   -1    0    0  501    0  0.00000000000E+00  0.00000000000E+00  0.27475610364E+04  0.27475610364E+04  0.25500000920E-02 0.  1.
       -2   -1    0    0    0  501  0.00000000000E+00  0.00000000000E+00 -0.11915803264E+04  0.11915803264E+04  0.25500000920E-02 0. -1.
    10030    2    1    2    0    0  0.00000000000E+00  0.00000000000E+00  0.15559807100E+04  0.39391413628E+04  0.36188062543E+04 0.  0.
        5    1    3    3  502    0 -0.10725149609E+04 -0.12881588241E+03  0.23580452755E+04  0.25937003458E+04  0.46999998093E+01 0.  1.
       -5    1    3    3    0  502  0.10725149609E+04  0.12881588241E+03 -0.80206456549E+03  0.13454410170E+04  0.46999998093E+01 0. -1.
</event>
<event>
 5   0  0.2287500E-07  0.3617497E+04  0.7818609E-02  0.8086495E-01
       -1   -1    0    0    0  501  0.00000000000E+00  0.00000000000E+00  0.11838867359E+04  0.11838867359E+04  0.50400001928E-02 0. -1.
        1   -1    0    0  501    0  0.00000000000E+00  0.00000000000E+00 -0.27634160112E+04  0.27634160112E+04  0.50400001928E-02 0.  1.
    10030    2    1    2    0    0  0.00000000000E+00  0.00000000000E+00 -0.15795292752E+04  0.39473027471E+04  0.36174972351E+04 0.  0.
        4    1    3    3  502    0  0.80980423105E+03 -0.14593439555E+04 -0.28989947173E+02  0.16692242818E+04  0.12699999809E+01 0. -1.
       -4    1    3    3    0  502 -0.80980423105E+03  0.14593439555E+04 -0.15505393280E+04  0.22780784653E+04  0.12699999809E+01 0.  1.
</event>
<event>
 5   0  0.2345471E-07  0.3592751E+04  0.7818609E-02  0.8092154E-01
       -1   -1    0    0    0  501  0.00000000000E+00  0.00000000000E+00  0.14965738614E+04  0.14965738614E+04  0.50400001928E-02 0. -1.
        1   -1    0    0  501    0  0.00000000000E+00  0.00000000000E+00 -0.21562353718E+04  0.21562353718E+04  0.50400001928E-02 0.  1.
    10030    2    1    2    0    0  0.00000000000E+00  0.00000000000E+00 -0.65966151039E+03  0.36528092332E+04  0.35927513114E+04 0.  0.
        5    1    3    3  502    0  0.11949906108E+04  0.13201559474E+04 -0.57070699110E+03  0.18699045016E+04  0.46999998093E+01 0. -1.
       -5    1    3    3    0  502 -0.11949906108E+04 -0.13201559474E+04 -0.88954519290E+02  0.17829047316E+04  0.46999998093E+01 0.  1.
</event>
<event>
 5   0  0.7124627E-07  0.3683013E+04  0.7818609E-02  0.8071737E-01
       -2   -1    0    0    0  501  0.00000000000E+00  0.00000000000E+00  0.20079867981E+04  0.20079867981E+04  0.25500000920E-02 0.  1.
        2   -1    0    0  501    0  0.00000000000E+00  0.00000000000E+00 -0.16888292406E+04  0.16888292406E+04  0.25500000920E-02 0. -1.
    10030    2    1    2    0    0  0.00000000000E+00  0.00000000000E+00  0.31915755749E+03  0.36968160388E+04  0.36830133421E+04 0.  0.
        2    1    3    3  502    0 -0.13424517896E+04 -0.65716595188E+03 -0.92013972221E+03  0.17551925832E+04  0.25500000920E-02 0. -1.
       -2    1    3    3    0  502  0.13424517896E+04  0.65716595188E+03  0.12392972797E+04  0.19416234556E+04  0.25500000920E-02 0.  1.
</event>
<event>
 5   0  0.2287500E-07  0.3702272E+04  0.7818609E-02  0.8067459E-01
        1   -1    0    0  501    0  0.00000000000E+00  0.00000000000E+00  0.19131266551E+04  0.19131266551E+04  0.50400001928E-02 0.  1.
       -1   -1    0    0    0  501  0.00000000000E+00  0.00000000000E+00 -0.17911539301E+04  0.17911539301E+04  0.50400001928E-02 0. -1.
    10030    2    1    2    0    0  0.00000000000E+00  0.00000000000E+00  0.12197272493E+03  0.37042805852E+04  0.37022719117E+04 0.  0.
        2    1    3    3  502    0  0.96874590309E+03 -0.11963076913E+04 -0.96771717407E+03  0.18182676497E+04  0.25500000920E-02 0. -1.
       -2    1    3    3    0  502 -0.96874590309E+03  0.11963076913E+04  0.10896898990E+04  0.18860129355E+04  0.25500000920E-02 0.  1.
</event>
<event>
 5   0  0.6949625E-07  0.3658319E+04  0.7818609E-02  0.8077262E-01
       -2   -1    0    0    0  501  0.00000000000E+00  0.00000000000E+00  0.15676316064E+04  0.15676316064E+04  0.25500000920E-02 0. -1.
        2   -1    0    0  501    0  0.00000000000E+00  0.00000000000E+00 -0.21343184094E+04  0.21343184094E+04  0.25500000920E-02 0.  1.
    10030    2    1    2    0    0  0.00000000000E+00  0.00000000000E+00 -0.56668680296E+03  0.37019500158E+04  0.36583192844E+04 0.  0.
        5    1    3    3  502    0  0.34584538659E+03  0.15767506684E+04  0.58717875498E+03  0.17177172881E+04  0.46999998093E+01 0. -1.
       -5    1    3    3    0  502 -0.34584538659E+03 -0.15767506684E+04 -0.11538655579E+04  0.19842327277E+04  0.46999998093E+01 0.  1.
</event>
<event>
 5   0  0.2411746E-07  0.2934994E+04  0.7818609E-02  0.8262541E-01
       -1   -1    0    0    0  501  0.00000000000E+00  0.00000000000E+00  0.94500276787E+03  0.94500276788E+03  0.50400001928E-02 0.  1.
        1   -1    0    0  501    0  0.00000000000E+00  0.00000000000E+00 -0.22788787964E+04  0.22788787964E+04  0.50400001928E-02 0. -1.
    10030    2    1    2    0    0  0.00000000000E+00  0.00000000000E+00 -0.13338760286E+04  0.32238815643E+04  0.29349935402E+04 0.  0.
        1    1    3    3  502    0  0.54785603626E+03 -0.13270823579E+03 -0.21552134631E+04  0.22277124553E+04  0.50400001928E-02 0. -1.
       -1    1    3    3    0  502 -0.54785603626E+03  0.13270823579E+03  0.82133743450E+03  0.99616910897E+03  0.50400001928E-02 0.  1.
</event>
<event>
 5   0  0.7074157E-07  0.3718913E+04  0.7818609E-02  0.8063783E-01
        2   -1    0    0  501    0  0.00000000000E+00  0.00000000000E+00  0.14335027423E+04  0.14335027423E+04  0.25500000920E-02 0. -1.
       -2   -1    0    0    0  501  0.00000000000E+00  0.00000000000E+00 -0.24119787188E+04  0.24119787189E+04  0.25500000920E-02 0.  1.
    10030    2    1    2    0    0  0.00000000000E+00  0.00000000000E+00 -0.97847597655E+03  0.38454814611E+04  0.37189128023E+04 0.  0.
        3    1    3    3  502    0 -0.62846132153E+03  0.80553654912E+03 -0.20957302973E+04  0.23315098657E+04  0.10100000352E+00 0.  1.
       -3    1    3    3    0  502  0.62846132153E+03 -0.80553654912E+03  0.11172543207E+04  0.15139715955E+04  0.10100000352E+00 0. -1.
</event>
<event>
 5   0  0.6949625E-07  0.3725209E+04  0.7818609E-02  0.8062398E-01
       -2   -1    0    0    0  501  0.00000000000E+00  0.00000000000E+00  0.15066456561E+04  0.15066456561E+04  0.25500000920E-02 0.  1.
        2   -1    0    0  501    0  0.00000000000E+00  0.00000000000E+00 -0.23026618291E+04  0.23026618291E+04  0.25500000920E-02 0. -1.
    10030    2    1    2    0    0  0.00000000000E+00  0.00000000000E+00 -0.79601617296E+03  0.38093074853E+04  0.37252089565E+04 0.  0.
        5    1    3    3  502    0 -0.54504607118E+03 -0.12316129994E+03 -0.22149234893E+04  0.22843274894E+04  0.46999998093E+01 0. -1.
       -5    1    3    3    0  502  0.54504607118E+03  0.12316129994E+03  0.14189073163E+04  0.15249799959E+04  0.46999998093E+01 0.  1.
</event>
<event>
 5   0  0.2411746E-07  0.3923370E+04  0.7818609E-02  0.8020186E-01
        1   -1    0    0  501    0  0.00000000000E+00  0.00000000000E+00  0.20978439888E+04  0.20978439888E+04  0.50400001928E-02 0. -1.
       -1   -1    0    0    0  501  0.00000000000E+00  0.00000000000E+00 -0.18343628798E+04  0.18343628798E+04  0.50400001928E-02 0.  1.
    10030    2    1    2    0    0  0.00000000000E+00  0.00000000000E+00  0.26348110903E+03  0.39322068686E+04  0.39233695419E+04 0.  0.
        1    1    3    3  502    0  0.18838378464E+04  0.34083303795E+03 -0.29723632846E+03  0.19373594468E+04  0.50400001928E-02 0.  1.
       -1    1    3    3    0  502 -0.18838378464E+04 -0.34083303795E+03  0.56071743749E+03  0.19948474217E+04  0.50400001928E-02 0. -1.
</event>
<event>
 5   0  0.7124627E-07  0.3721228E+04  0.7818609E-02  0.8063274E-01
        2   -1    0    0  501    0  0.00000000000E+00  0.00000000000E+00  0.24004009600E+04  0.24004009600E+04  0.25500000920E-02 0. -1.
       -2   -1    0    0    0  501  0.00000000000E+00  0.00000000000E+00 -0.14422106210E+04  0.14422106210E+04  0.25500000920E-02 0.  1.
    10030    2    1    2    0    0  0.00000000000E+00  0.00000000000E+00  0.95819033900E+03  0.38426115810E+04  0.37212276250E+04 0.  0.
        2    1    3    3  502    0  0.12654796846E+04  0.79507945862E+03 -0.66534038637E+03  0.16359303186E+04  0.25500000920E-02 0.  1.
       -2    1    3    3    0  502 -0.12654796846E+04 -0.79507945862E+03  0.16235307254E+04  0.22066812624E+04  0.25500000920E-02 0. -1.
</event>
<event>
 5   0  0.6949625E-07  0.3692053E+04  0.7818609E-02  0.8069725E-01
       -2   -1    0    0    0  501  0.00000000000E+00  0.00000000000E+00  0.14407020667E+04  0.14407020667E+04  0.25500000920E-02 0.  1.
        2   -1    0    0  501    0  0.00000000000E+00  0.00000000000E+00 -0.23653846622E+04  0.23653846622E+04  0.25500000920E-02 0. -1.
    10030    2    1    2    0    0  0.00000000000E+00  0.00000000000E+00 -0.92468259555E+03  0.38060867289E+04  0.36920533969E+04 0.  0.
        5    1    3    3  502    0 -0.12239780563E+04 -0.70716466481E+03  0.76158947876E+03  0.16056913681E+04  0.46999998093E+01 0.  1.
       -5    1    3    3    0  502  0.12239780563E+04  0.70716466481E+03 -0.16862720743E+04  0.22003953608E+04  0.46999998093E+01 0. -1.
</event>
<event>
 5   0  0.2287500E-07  0.3073453E+04  0.7818609E-02  0.8223062E-01
       -1   -1    0    0    0  501  0.00000000000E+00  0.00000000000E+00  0.13141251403E+04  0.13141251403E+04  0.50400001928E-02 0.  1.
        1   -1    0    0  501    0  0.00000000000E+00  0.00000000000E+00 -0.17970341086E+04  0.17970341086E+04  0.50400001928E-02 0. -1.
    10030    2    1    2    0    0  0.00000000000E+00  0.00000000000E+00 -0.48290896828E+03  0.31111592489E+04  0.30734525864E+04 0.  0.
        2    1    3    3  502    0  0.73685029429E+02 -0.27522250394E+03 -0.17700639833E+04  0.17928478506E+04  0.25500000920E-02 0. -1.
       -2    1    3    3    0  502 -0.73685029429E+02  0.27522250394E+03  0.12871550151E+04  0.13183113983E+04  0.25500000920E-02 0.  1.
</event>
<event>
 5   0  0.6949625E-07  0.3708997E+04  0.7818609E-02  0.8065971E-01
        2   -1    0    0  501    0  0.00000000000E+00  0.00000000000E+00  0.18308964751E+04  0.18308964751E+04  0.25500000920E-02 0. -1.
       -2   -1    0    0    0  501  0.00000000000E+00  0.00000000000E+00 -0.18784044964E+04  0.18784044964E+04  0.25500000920E-02 0.  1.
    10030    2    1    2    0    0  0.00000000000E+00  0.00000000000E+00 -0.47508021272E+02  0.37093009714E+04  0.37089967221E+04 0.  0.
        5    1    3    3  502    0 -0.96367175269E+03  0.14365612356E+04 -0.69221788458E+03  0.18632120439E+04  0.46999998093E+01 0. -1.
       -5    1    3    3    0  502  0.96367175269E+03 -0.14365612356E+04  0.64470986331E+03  0.18460889276E+04  0.46999998093E+01 0.  1.
</event>
<event>
 5   0  0.2287500E-07  0.3669475E+04  0.7818609E-02  0.8074760E-01
       -1   -1    0    0    0  501  0.00000000000E+00  0.00000000000E+00  0.12801504483E+04  0.12801504483E+04  0.50400001928E-02 0. -1.
        1   -1    0    0  501    0  0.00000000000E+00  0.00000000000E+00 -0.26295827500E+04  0.26295827500E+04  0.50400001928E-02 0.  1.
    10030    2    1    2    0    0  0.00000000000E+00  0.00000000000E+00 -0.13494323018E+04  0.39097331983E+04  0.36694749141E+04 0.  0.
        4    1    3    3  502    0 -0.15069657592E+04  0.10391727754E+04 -0.80708426729E+03  0.20005530445E+04  0.12699999809E+01 0.  1.
       -4    1    3    3    0  502  0.15069657592E+04 -0.10391727754E+04 -0.54234803448E+03  0.19091801538E+04  0.12699999809E+01 0. -1.
</event>
<event>
 5   0  0.2345471E-07  0.3941955E+04  0.7818609E-02  0.8016359E-01
        1   -1    0    0  501    0  0.00000000000E+00  0.00000000000E+00  0.15118187358E+04  0.15118187358E+04  0.50400001928E-02 0. -1.
       -1   -1    0    0    0  501  0.00000000000E+00  0.00000000000E+00 -0.25695888176E+04  0.25695888176E+04  0.50400001928E-02 0.  1.
    10030    2    1    2    0    0  0.00000000000E+00  0.00000000000E+00 -0.10577700818E+04  0.40814075534E+04  0.39419551077E+04 0.  0.
        5    1    3    3  502    0 -0.75421847081E+03  0.13950131349E+04 -0.17406839608E+04  0.23547632343E+04  0.46999998093E+01 0.  1.
       -5    1    3    3    0  502  0.75421847081E+03 -0.13950131349E+04  0.68291387909E+03  0.17266443191E+04  0.46999998093E+01 0. -1.
</event>
<event>
 5   0  0.2345471E-07  0.3711966E+04  0.7818609E-02  0.8065315E-01
       -1   -1    0    0    0  501  0.00000000000E+00  0.00000000000E+00  0.16239803272E+04  0.16239803272E+04  0.50400001928E-02 0.  1.
        1   -1    0    0  501    0  0.00000000000E+00  0.00000000000E+00 -0.21211294211E+04  0.21211294211E+04  0.50400001928E-02 0. -1.
    10030    2    1    2    0    0  0.00000000000E+00  0.00000000000E+00 -0.49714909387E+03  0.37451097483E+04  0.37119657602E+04 0.  0.
        5    1    3    3  502    0  0.69519968616E+03  0.13740125950E+04 -0.12938936748E+04  0.20113170179E+04  0.46999998093E+01 0. -1.
       -5    1    3    3    0  502 -0.69519968616E+03 -0.13740125950E+04  0.79674458092E+03  0.17337927304E+04  0.46999998093E+01 0.  1.
</event>
<event>
 5   0  0.2287500E-07  0.3289637E+04  0.7818609E-02  0.8165537E-01
        3   -1    0    0  501    0  0.00000000000E+00  0.00000000000E+00  0.16450477425E+04  0.16450477456E+04  0.10100000352E+00 0.  1.
       -3   -1    0    0    0  501  0.00000000000E+00  0.00000000000E+00 -0.16445897330E+04  0.16445897361E+04  0.10100000352E+00 0. -1.
    10030    2    1    2    0    0  0.00000000000E+00  0.00000000000E+00  0.45800952572E+00  0.32896374817E+04  0.32896374498E+04 0.  0.
        3    1    3    3  502    0 -0.78345937062E+03 -0.68444517420E+03  0.12742599609E+04  0.16449961216E+04  0.10100000352E+00 0.  1.
       -3    1    3    3    0  502  0.78345937062E+03  0.68444517420E+03 -0.12738019514E+04  0.16446413601E+04  0.10100000352E+00 0. -1.
</event>
<event>
 5   0  0.7074157E-07  0.3788066E+04  0.7818609E-02  0.8048721E-01
       -2   -1    0    0    0  501  0.00000000000E+00  0.00000000000E+00  0.21576795233E+04  0.21576795233E+04  0.25500000920E-02 0.  1.
        2   -1    0    0  501    0  0.00000000000E+00  0.00000000000E+00 -0.16626011359E+04  0.16626011359E+04  0.25500000920E-02 0. -1.
    10030    2    1    2    0    0  0.00000000000E+00  0.00000000000E+00  0.49507838740E+03  0.38202806592E+04  0.37880656944E+04 0.  0.
        3    1    3    3  502    0  0.13581080030E+04  0.79680504980E+03 -0.81403067909E+03  0.17725692065E+04  0.10100000352E+00 0. -1.
       -3    1    3    3    0  502 -0.13581080030E+04 -0.79680504980E+03  0.13091090665E+04  0.20477114527E+04  0.10100000352E+00 0.  1.
</event>
<event>
 5   0  0.2345471E-07  0.3694461E+04  0.7818609E-02  0.8069190E-01
        1   -1    0    0  501    0  0.00000000000E+00  0.00000000000E+00  0.21253679748E+04  0.21253679748E+04  0.50400001928E-02 0. -1.
       -1   -1    0    0    0  501  0.00000000000E+00  0.00000000000E+00 -0.16054918354E+04  0.16054918354E+04  0.50400001928E-02 0.  1.
    10030    2    1    2    0    0  0.00000000000E+00  0.00000000000E+00  0.51987613946E+03  0.37308598102E+04  0.36944612223E+04 0.  0.
        5    1    3    3  502    0 -0.99693941135E+03 -0.10087960509E+04  0.14551019631E+04  0.20319698510E+04  0.46999998093E+01 0. -1.
       -5    1    3    3    0  502  0.99693941135E+03  0.10087960509E+04 -0.93522582363E+03  0.16988899592E+04  0.46999998093E+01 0.  1.
</event>
<event>
 5   0  0.2345471E-07  0.3648234E+04  0.7818609E-02  0.8079532E-01
       -1   -1    0    0    0  501  0.00000000000E+00  0.00000000000E+00  0.24281742125E+04  0.24281742125E+04  0.50400001928E-02 0. -1.
        1   -1    0    0  501    0  0.00000000000E+00  0.00000000000E+00 -0.13703308098E+04  0.13703308098E+04  0.50400001928E-02 0.  1.
    10030    2    1    2    0    0  0.00000000000E+00  0.00000000000E+00  0.10578434027E+04  0.37985050222E+04  0.36482335094E+04 0.  0.
        5    1    3    3  502    0  0.69990173243E+03 -0.10704356862E+04 -0.82530011848E+03  0.15221160826E+04  0.46999998093E+01 0.  1.
       -5    1    3    3    0  502 -0.69990173243E+03  0.10704356862E+04  0.18831435212E+04  0.22763889397E+04  0.46999998093E+01 0. -1.
</event>
<event>
 5   0  0.7074157E-07  0.3696238E+04  0.7818609E-02  0.8068796E-01
       -2   -1    0    0    0  501  0.00000000000E+00  0.00000000000E+00  0.11523043049E+04  0.11523043049E+04  0.25500000920E-02 0. -1.
        2   -1    0    0  501    0  0.00000000000E+00  0.00000000000E+00 -0.29640991624E+04  0.29640991624E+04  0.25500000920E-02 0.  1.
    10030    2    1    2    0    0  0.00000000000E+00  0.00000000000E+00 -0.18117948575E+04  0.41164034673E+04  0.36962382093E+04 0.  0.
        3    1    3    3  502    0 -0.86912407192E+03 -0.11518684522E+04 -0.21918731648E+04  0.26242114176E+04  0.10100000352E+00 0.  1.
       -3    1    3    3    0  502  0.86912407192E+03  0.11518684522E+04  0.38007830722E+03  0.14921920498E+04  0.10100000352E+00 0. -1.
</event>
<event>
 5   0  0.7300916E-07  0.3662257E+04  0.7818609E-02  0.8076378E-01
        2   -1    0    0  501    0  0.00000000000E+00  0.00000000000E+00  0.14415281876E+04  0.14415281876E+04  0.25500000920E-02 0.  1.
       -2   -1    0    0    0  501  0.00000000000E+00  0.00000000000E+00 -0.23260262520E+04  0.23260262520E+04  0.25500000920E-02 0. -1.
    10030    2    1    2    0    0  0.00000000000E+00  0.00000000000E+00 -0.88449806441E+03  0.37675544396E+04  0.36622574499E+04 0.  0.
        1    1    3    3  502    0 -0.53665708054E+02 -0.17108560159E+04 -0.11114314816E+04  0.20408792845E+04  0.50400001928E-02 0.  1.
       -1    1    3    3    0  502  0.53665708054E+02  0.17108560159E+04  0.22693341717E+03  0.17266751551E+04  0.50400001928E-02 0. -1.
</event>
<event>
 5   0  0.6939921E-07  0.3686849E+04  0.7818609E-02  0.8070883E-01
        2   -1    0    0  501    0  0.00000000000E+00  0.00000000000E+00  0.25266295942E+04  0.25266295942E+04  0.25500000920E-02 0. -1.
       -2   -1    0    0    0  501  0.00000000000E+00  0.00000000000E+00 -0.13449590356E+04  0.13449590356E+04  0.25500000920E-02 0.  1.
    10030    2    1    2    0    0  0.00000000000E+00  0.00000000000E+00  0.11816705586E+04  0.38715886297E+04  0.36868486827E+04 0.  0.
        4    1    3    3  502    0 -0.14029947524E+04  0.91793206936E+03  0.13955345731E+04  0.21814013653E+04  0.12699999809E+01 0. -1.
       -4    1    3    3    0  502  0.14029947524E+04 -0.91793206936E+03 -0.21386401444E+03  0.16901872644E+04  0.12699999809E+01 0.  1.
</event>
<event>
 5   0  0.2287500E-07  0.3683522E+04  0.7818609E-02  0.8071623E-01
        1   -1    0    0  501    0  0.00000000000E+00  0.00000000000E+00  0.19612789534E+04  0.19612789534E+04  0.50400001928E-02 0. -1.
       -1   -1    0    0    0  501  0.00000000000E+00  0.00000000000E+00 -0.17295265061E+04  0.17295265061E+04  0.50400001928E-02 0.  1.
    10030    2    1    2    0    0  0.00000000000E+00  0.00000000000E+00  0.23175244739E+03  0.36908054595E+04  0.36835221926E+04 0.  0.
        2    1    3    3  502    0 -0.16514178175E+04  0.53897199281E+03  0.72897849944E+03  0.18839005467E+04  0.25500000920E-02 0. -1.
       -2    1    3    3    0  502  0.16514178175E+04 -0.53897199281E+03 -0.49722605205E+03  0.18069049128E+04  0.25500000920E-02 0.  1.
</event>
<event>
 5   0  0.6949625E-07  0.3697899E+04  0.7818609E-02  0.8068428E-01
        2   -1    0    0  501    0  0.00000000000E+00  0.00000000000E+00  0.30117976821E+04  0.30117976821E+04  0.25500000920E-02 0. -1.
       -2   -1    0    0    0  501  0.00000000000E+00  0.00000000000E+00 -0.11350741881E+04  0.11350741881E+04  0.25500000920E-02 0.  1.
    10030    2    1    2    0    0  0.00000000000E+00  0.00000000000E+00  0.18767234940E+04  0.41468718701E+04  0.36978987593E+04 0.  0.
        5    1    3    3  502    0 -0.91212990272E+03 -0.13640484958E+04 -0.17133792380E+02  0.16410133806E+04  0.46999998093E+01 0.  1.
       -5    1    3    3    0  502  0.91212990272E+03  0.13640484958E+04  0.18938572864E+04  0.25058584895E+04  0.46999998093E+01 0. -1.
</event>
<event>
 5   0  0.2287500E-07  0.3095973E+04  0.7818609E-02  0.8216844E-01
       -1   -1    0    0    0  501  0.00000000000E+00  0.00000000000E+00  0.13873646167E+04  0.13873646168E+04  0.50400001928E-02 0. -1.
        1   -1    0    0  501    0  0.00000000000E+00  0.00000000000E+00 -0.17272044292E+04  0.17272044293E+04  0.50400001928E-02 0.  1.
    10030    2    1    2    0    0  0.00000000000E+00  0.00000000000E+00 -0.33983981250E+03  0.31145690460E+04  0.30959730690E+04 0.  0.
        4    1    3    3  502    0 -0.58168876957E+03  0.13034403881E+04  0.43279640534E+03  0.14915203690E+04  0.12699999809E+01 0.  1.
       -4    1    3    3    0  502  0.58168876957E+03 -0.13034403881E+04 -0.77263621784E+03  0.16230486770E+04  0.12699999809E+01 0. -1.
</event>
<event>
 5   0  0.7300916E-07  0.3686131E+04  0.7818609E-02  0.8071042E-01
        2   -1    0    0  501    0  0.00000000000E+00  0.00000000000E+00  0.19240645378E+04  0.19240645378E+04  0.25500000920E-02 0. -1.
       -2   -1    0    0    0  501  0.00000000000E+00  0.00000000000E+00 -0.17654761432E+04  0.17654761432E+04  0.25500000920E-02 0.  1.
    10030    2    1    2    0    0  0.00000000000E+00  0.00000000000E+00  0.15858839467E+03  0.36895406810E+04  0.36861307841E+04 0.  0.
        1    1    3    3  502    0 -0.14507977250E+04 -0.11171011305E+04 -0.13104554158E+03  0.18357292580E+04  0.50400001928E-02 0.  1.
       -1    1    3    3    0  502  0.14507977250E+04  0.11171011305E+04  0.28963393625E+03  0.18538114229E+04  0.50400001928E-02 0. -1.
</event>
<event>
 5   0  0.6949625E-07  0.3251307E+04  0.7818609E-02  0.8175397E-01
       -2   -1    0    0    0  501  0.00000000000E+00  0.00000000000E+00  0.10583389029E+04  0.10583389029E+04  0.25500000920E-02 0.  1.
        2   -1    0    0  501    0  0.00000000000E+00  0.00000000000E+00 -0.24970724202E+04  0.24970724202E+04  0.25500000920E-02 0. -1.
    10030    2    1    2    0    0  0.00000000000E+00  0.00000000000E+00 -0.14387335172E+04  0.35554113231E+04  0.32513067439E+04 0.  0.
        5    1    3    3  502    0  0.18116612202E+02 -0.11036475884E+04  0.58572750255E+03  0.12495859347E+04  0.46999998093E+01 0.  1.
       -5    1    3    3    0  502 -0.18116612202E+02  0.11036475884E+04 -0.20244610198E+04  0.23058253884E+04  0.46999998093E+01 0. -1.
</event>
<event>
 5   0  0.7124627E-07  0.3731493E+04  0.7818609E-02  0.8061018E-01
       -2   -1    0    0    0  501  0.00000000000E+00  0.00000000000E+00  0.20458089006E+04  0.20458089006E+04  0.25500000920E-02 0. -1.
        2   -1    0    0  501    0  0.00000000000E+00  0.00000000000E+00 -0.17015324869E+04  0.17015324869E+04  0.25500000920E-02 0.  1.
    10030    2    1    2    0    0  0.00000000000E+00  0.00000000000E+00  0.34427641365E+03  0.37473413875E+04  0.37314931630E+04 0.  0.
        2    1    3    3  502    0  0.46354528192E+03 -0.91417147295E+03 -0.13934655830E+04  0.17298352642E+04  0.25500000920E-02 0.  1.
       -2    1    3    3    0  502 -0.46354528192E+03  0.91417147295E+03  0.17377419967E+04  0.20175061232E+04  0.25500000920E-02 0. -1.
</event>
<event>
 5   0  0.2411746E-07  0.3668574E+04  0.7818609E-02  0.8074962E-01
        1   -1    0    0  501    0  0.00000000000E+00  0.00000000000E+00  0.17063440322E+04  0.17063440322E+04  0.50400001928E-02 0. -1.
       -1   -1    0    0    0  501  0.00000000000E+00  0.00000000000E+00 -0.19718234744E+04  0.19718234744E+04  0.50400001928E-02 0.  1.
    10030    2    1    2    0    0  0.00000000000E+00  0.00000000000E+00 -0.26547944214E+03  0.36781675066E+04  0.36685742289E+04 0.  0.
        1    1    3    3  502    0  0.90362342671E+03 -0.57502738309E+03 -0.16257332350E+04  0.19468436866E+04  0.50400001928E-02 0.  1.
       -1    1    3    3    0  502 -0.90362342671E+03  0.57502738309E+03  0.13602537929E+04  0.17313238200E+04  0.50400001928E-02 0. -1.
</event>
<event>
 5   0  0.2287500E-07  0.3690920E+04  0.7818609E-02  0.8069977E-01
        1   -1    0    0  501    0  0.00000000000E+00  0.00000000000E+00  0.20481702713E+04  0.20481702713E+04  0.50400001928E-02 0.  1.
       -1   -1    0    0    0  501  0.00000000000E+00  0.00000000000E+00 -0.16628120442E+04  0.16628120443E+04  0.50400001928E-02 0. -1.
    10030    2    1    2    0    0  0.00000000000E+00  0.00000000000E+00  0.38535822703E+03  0.37109823155E+04  0.36909197747E+04 0.  0.
        4    1    3    3  502    0 -0.14876836820E+04 -0.59395490200E+03  0.11140309697E+04  0.19511667734E+04  0.12699999809E+01 0.  1.
       -4    1    3    3    0  502  0.14876836820E+04  0.59395490200E+03 -0.72867274266E+03  0.17598155421E+04  0.12699999809E+01 0. -1.
</event>
<event>
 5   0  0.7124627E-07  0.3678714E+04  0.7818609E-02  0.8072695E-01
       -2   -1    0    0    0  501  0.00000000000E+00  0.00000000000E+00  0.13125933620E+04  0.13125933620E+04  0.25500000920E-02 0.  1.
        2   -1    0    0  501    0  0.00000000000E+00  0.00000000000E+00 -0.25775191359E+04  0.25775191359E+04  0.25500000920E-02 0. -1.
    10030    2    1    2    0    0  0.00000000000E+00  0.00000000000E+00 -0.12649257740E+04  0.38901124979E+04  0.36787141820E+04 0.  0.
        2    1    3    3  502    0  0.10401270212E+04 -0.85469382646E+03 -0.19578296168E+04  0.23760182166E+04  0.25500000920E-02 0. -1.
       -2    1    3    3    0  502 -0.10401270212E+04  0.85469382646E+03  0.69290384284E+03  0.15140942813E+04  0.25500000920E-02 0.  1.
</event>
<event>
 5   0  0.6949625E-07  0.3635998E+04  0.7818609E-02  0.8082295E-01
        2   -1    0    0  501    0  0.00000000000E+00  0.00000000000E+00  0.18952779112E+04  0.18952779112E+04  0.25500000920E-02 0. -1.
       -2   -1    0    0    0  501  0.00000000000E+00  0.00000000000E+00 -0.17438706187E+04  0.17438706187E+04  0.25500000920E-02 0.  1.
    10030    2    1    2    0    0  0.00000000000E+00  0.00000000000E+00  0.15140729247E+03  0.36391485299E+04  0.36359975047E+04 0.  0.
        5    1    3    3  502    0 -0.27658599504E+03 -0.58623393805E+03 -0.16242756960E+04  0.17488463825E+04  0.46999998093E+01 0.  1.
       -5    1    3    3    0  502  0.27658599504E+03  0.58623393805E+03  0.17756829885E+04  0.18903021474E+04  0.46999998093E+01 0. -1.
</event>
<event>
 5   0  0.2287500E-07  0.3659490E+04  0.7818609E-02  0.8076999E-01
        1   -1    0    0  501    0  0.00000000000E+00  0.00000000000E+00  0.12010808993E+04  0.12010808993E+04  0.50400001928E-02 0.  1.
       -1   -1    0    0    0  501  0.00000000000E+00  0.00000000000E+00 -0.27874616663E+04  0.27874616663E+04  0.50400001928E-02 0. -1.
    10030    2    1    2    0    0  0.00000000000E+00  0.00000000000E+00 -0.15863807670E+04  0.39885425656E+04  0.36594901093E+04 0.  0.
        4    1    3    3  502    0  0.55461749002E+03  0.14618405398E+04  0.24274001807E+03  0.15822460786E+04  0.12699999809E+01 0.  1.
       -4    1    3    3    0  502 -0.55461749002E+03 -0.14618405398E+04 -0.18291207851E+04  0.24062964870E+04  0.12699999809E+01 0. -1.
</event>
<event>
 5   0  0.2287500E-07  0.3675223E+04  0.7818609E-02  0.8073475E-01
       -1   -1    0    0    0  501  0.00000000000E+00  0.00000000000E+00  0.18062023742E+04  0.18062023742E+04  0.50400001928E-02 0. -1.
        1   -1    0    0  501    0  0.00000000000E+00  0.00000000000E+00 -0.18695669025E+04  0.18695669025E+04  0.50400001928E-02 0.  1.
    10030    2    1    2    0    0  0.00000000000E+00  0.00000000000E+00 -0.63364528284E+02  0.36757692768E+04  0.36752230834E+04 0.  0.
        2    1    3    3  502    0 -0.50894790790E+03 -0.17036261969E+03  0.17260671278E+04  0.18075837809E+04  0.25500000920E-02 0. -1.
       -2    1    3    3    0  502  0.50894790790E+03  0.17036261969E+03 -0.17894316561E+04  0.18681854959E+04  0.25500000920E-02 0.  1.
</event>
<event>
 5   0  0.6939921E-07  0.3630079E+04  0.7818609E-02  0.8083636E-01
       -2   -1    0    0    0  501  0.00000000000E+00  0.00000000000E+00  0.16856637673E+04  0.16856637673E+04  0.25500000920E-02 0.  1.
        2   -1    0    0  501    0  0.00000000000E+00  0.00000000000E+00 -0.19543447909E+04  0.19543447909E+04  0.25500000920E-02 0. -1.
    10030    2    1    2    0    0  0.00000000000E+00  0.00000000000E+00 -0.26868102354E+03  0.36400085582E+04  0.36300788988E+04 0.  0.
        4    1    3    3  502    0  0.17012789401E+04  0.71801616822E+01 -0.76849830886E+03  0.18668135553E+04  0.12699999809E+01 0. -1.
       -4    1    3    3    0  502 -0.17012789401E+04 -0.71801616822E+01  0.49981728531E+03  0.17731950029E+04  0.12699999809E+01 0.  1.
</event>
<event>
 5   0  0.2287500E-07  0.3698502E+04  0.7818609E-02  0.8068294E-01
       -3   -1    0    0    0  501  0.00000000000E+00  0.00000000000E+00  0.19808847661E+04  0.19808847687E+04  0.10100000352E+00 0.  1.
        3   -1    0    0  501    0  0.00000000000E+00  0.00000000000E+00 -0.17263644098E+04  0.17263644128E+04  0.10100000352E+00 0. -1.
    10030    2    1    2    0    0  0.00000000000E+00  0.00000000000E+00  0.25452035629E+03  0.37072491815E+04  0.36985018429E+04 0.  0.
        4    1    3    3  502    0 -0.14475877691E+04 -0.11280463173E+04  0.35523712902E+03  0.18692762969E+04  0.12699999809E+01 0.  1.
       -4    1    3    3    0  502  0.14475877691E+04  0.11280463173E+04 -0.10071677272E+03  0.18379728846E+04  0.12699999809E+01 0. -1.
</event>
<event>
 5   0  0.6939921E-07  0.3771705E+04  0.7818609E-02  0.8052254E-01
        2   -1    0    0  501    0  0.00000000000E+00  0.00000000000E+00  0.20175065913E+04  0.20175065913E+04  0.25500000920E-02 0. -1.
       -2   -1    0    0    0  501  0.00000000000E+00  0.00000000000E+00 -0.17627898767E+04  0.17627898767E+04  0.25500000920E-02 0.  1.
    10030    2    1    2    0    0  0.00000000000E+00  0.00000000000E+00  0.25471671460E+03  0.37802964680E+04  0.37717052883E+04 0.  0.
        4    1    3    3  502    0  0.44105227557E+03 -0.29345106771E+03  0.19413975372E+04  0.20123783564E+04  0.12699999809E+01 0. -1.
       -4    1    3    3    0  502 -0.44105227557E+03  0.29345106771E+03 -0.16866808226E+04  0.17679181116E+04  0.12699999809E+01 0.  1.
</event>
<event>
 5   0  0.6939921E-07  0.2974186E+04  0.7818609E-02  0.8251141E-01
       -2   -1    0    0    0  501  0.00000000000E+00  0.00000000000E+00  0.15271812751E+04  0.15271812752E+04  0.25500000920E-02 0.  1.
        2   -1    0    0  501    0  0.00000000000E+00  0.00000000000E+00 -0.14480573649E+04  0.14480573649E+04  0.25500000920E-02 0. -1.
    10030    2    1    2    0    0  0.00000000000E+00  0.00000000000E+00  0.79123910213E+02  0.29752386401E+04  0.29741863379E+04 0.  0.
        4    1    3    3  502    0 -0.74751907449E+03  0.11534400830E+04  0.60742087263E+03  0.15027210391E+04  0.12699999809E+01 0. -1.
       -4    1    3    3    0  502  0.74751907449E+03 -0.11534400830E+04 -0.52829696242E+03  0.14725176010E+04  0.12699999809E+01 0.  1.
</event>
<event>
 5   0  0.7074157E-07  0.3694805E+04  0.7818609E-02  0.8069114E-01
        2   -1    0    0  501    0  0.00000000000E+00  0.00000000000E+00  0.21958553946E+04  0.21958553946E+04  0.25500000920E-02 0.  1.
       -2   -1    0    0    0  501  0.00000000000E+00  0.00000000000E+00 -0.15542446988E+04  0.15542446988E+04  0.25500000920E-02 0. -1.
    10030    2    1    2    0    0  0.00000000000E+00  0.00000000000E+00  0.64161069583E+03  0.37501000933E+04  0.36948053298E+04 0.  0.
        3    1    3    3  502    0 -0.16495770516E+04 -0.74576754893E+03  0.69458686906E+03  0.19390009322E+04  0.10100000352E+00 0. -1.
       -3    1    3    3    0  502  0.16495770516E+04  0.74576754893E+03 -0.52976173228E+02  0.18110991611E+04  0.10100000352E+00 0.  1.
</event>
<event>
 5   0  0.2287500E-07  0.3437448E+04  0.7818609E-02  0.8128776E-01
       -1   -1    0    0    0  501  0.00000000000E+00  0.00000000000E+00  0.25927254765E+04  0.25927254765E+04  0.50400001928E-02 0.  1.
        1   -1    0    0  501    0  0.00000000000E+00  0.00000000000E+00 -0.11393464914E+04  0.11393464915E+04  0.50400001928E-02 0. -1.
    10030    2    1    2    0    0  0.00000000000E+00  0.00000000000E+00  0.14533789851E+04  0.37320719680E+04  0.34374482832E+04 0.  0.
        2    1    3    3  502    0  0.14717447949E+04 -0.24303967352E+03 -0.20024978070E+03  0.15050584702E+04  0.25500000920E-02 0. -1.
       -2    1    3    3    0  502 -0.14717447949E+04  0.24303967352E+03  0.16536287658E+04  0.22270134978E+04  0.25500000920E-02 0.  1.
</event>
<event>
 5   0  0.2411746E-07  0.3663332E+04  0.7818609E-02  0.8076137E-01
        1   -1    0    0  501    0  0.00000000000E+00  0.00000000000E+00  0.16101619456E+04  0.16101619456E+04  0.50400001928E-02 0. -1.
       -1   -1    0    0    0  501  0.00000000000E+00  0.00000000000E+00 -0.20836415785E+04  0.20836415785E+04  0.50400001928E-02 0.  1.
    10030    2    1    2    0    0  0.00000000000E+00  0.00000000000E+00 -0.47347963289E+03  0.36938035242E+04  0.36633320232E+04 0.  0.
        1    1    3    3  502    0 -0.66898349099E+03  0.86942598101E+03  0.12422808168E+04  0.16573177352E+04  0.50400001928E-02 0. -1.
       -1    1    3    3    0  502  0.66898349099E+03 -0.86942598101E+03 -0.17157604497E+04  0.20364857889E+04  0.50400001928E-02 0.  1.
</event>
<event>
 5   0  0.2345471E-07  0.3736528E+04  0.7818609E-02  0.8059915E-01
        1   -1    0    0  501    0  0.00000000000E+00  0.00000000000E+00  0.29091664810E+04  0.29091664810E+04  0.50400001928E-02 0.  1.
       -1   -1    0    0    0  501  0.00000000000E+00  0.00000000000E+00 -0.11997976874E+04  0.11997976874E+04  0.50400001928E-02 0. -1.
    10030    2    1    2    0    0  0.00000000000E+00  0.00000000000E+00  0.17093687936E+04  0.41089641684E+04  0.37365284509E+04 0.  0.
        5    1    3    3  502    0 -0.83917279117E+03  0.27803469372E+03  0.26646008670E+04  0.28074248227E+04  0.46999998093E+01 0.  1.
       -5    1    3    3    0  502  0.83917279117E+03 -0.27803469372E+03 -0.95523207342E+03  0.13015393457E+04  0.46999998093E+01 0. -1.
</event>
<event>
 5   0  0.7300916E-07  0.3029169E+04  0.7818609E-02  0.8235450E-01
        2   -1    0    0  501    0  0.00000000000E+00  0.00000000000E+00  0.12556772456E+04  0.12556772456E+04  0.25500000920E-02 0.  1.
       -2   -1    0    0    0  501  0.00000000000E+00  0.00000000000E+00 -0.18268759830E+04  0.18268759830E+04  0.25500000920E-02 0. -1.
    10030    2    1    2    0    0  0.00000000000E+00  0.00000000000E+00 -0.57119873747E+03  0.30825532286E+04  0.30291692606E+04 0.  0.
        1    1    3    3  502    0 -0.66297254106E+02 -0.80686462396E+03  0.10170144094E+04  0.12999015949E+04  0.50400001928E-02 0.  1.
       -1    1    3    3    0  502  0.66297254106E+02  0.80686462396E+03 -0.15882131469E+04  0.17826516337E+04  0.50400001928E-02 0. -1.
</event>
<event>
 5   0  0.6949625E-07  0.3701056E+04  0.7818609E-02  0.8067728E-01
        2   -1    0    0  501    0  0.00000000000E+00  0.00000000000E+00  0.25714556789E+04  0.25714556789E+04  0.25500000920E-02 0. -1.
       -2   -1    0    0    0  501  0.00000000000E+00  0.00000000000E+00 -0.13317178430E+04  0.13317178430E+04  0.25500000920E-02 0.  1.
    10030    2    1    2    0    0  0.00000000000E+00  0.00000000000E+00  0.12397378359E+04  0.39031735219E+04  0.37010557467E+04 0.  0.
        5    1    3    3  502    0  0.10257779596E+04  0.70087266049E+02 -0.10027583115E+04  0.14362029691E+04  0.46999998093E+01 0.  1.
       -5    1    3    3    0  502 -0.10257779596E+04 -0.70087266049E+02  0.22424961474E+04  0.24669705528E+04  0.46999998093E+01 0. -1.
</event>
<event>
 5   0  0.6939921E-07  0.3666769E+04  0.7818609E-02  0.8075366E-01
       -2   -1    0    0    0  501  0.00000000000E+00  0.00000000000E+00  0.11849115356E+04  0.11849115356E+04  0.25500000920E-02 0. -1.
        2   -1    0    0  501    0  0.00000000000E+00  0.00000000000E+00 -0.28367513915E+04  0.28367513915E+04  0.25500000920E-02 0.  1.
    10030    2    1    2    0    0  0.00000000000E+00  0.00000000000E+00 -0.16518398559E+04  0.40216629271E+04  0.36667693941E+04 0.  0.
        4    1    3    3  502    0  0.16956989953E+04 -0.19569812122E+02 -0.15901524782E+04  0.23247289255E+04  0.12699999809E+01 0.  1.
       -4    1    3    3    0  502 -0.16956989953E+04  0.19569812122E+02 -0.61687377754E+02  0.16969340016E+04  0.12699999809E+01 0. -1.
</event>
<event>
 5   0  0.2345471E-07  0.3598409E+04  0.7818609E-02  0.8090856E-01
        1   -1    0    0  501    0  0.00000000000E+00  0.00000000000E+00  0.15286281553E+04  0.15286281553E+04  0.50400001928E-02 0. -1.
       -1   -1    0    0    0  501  0.00000000000E+00  0.00000000000E+00 -0.21176745740E+04  0.21176745740E+04  0.50400001928E-02 0.  1.
    10030    2    1    2    0    0  0.00000000000E+00  0.00000000000E+00 -0.58904641869E+03  0.36463027294E+04  0.35984090805E+04 0.  0.
        5    1    3    3  502    0  0.73571535320E+02  0.17512845036E+04 -0.70576305791E+03  0.18895856073E+04  0.46999998093E+01 0. -1.
       -5    1    3    3    0  502 -0.73571535320E+02 -0.17512845036E+04  0.11671663922E+03  0.17567171221E+04  0.46999998093E+01 0.  1.
</event>
<event>
 5   0  0.2411746E-07  0.3654429E+04  0.7818609E-02  0.8078137E-01
        1   -1    0    0  501    0  0.00000000000E+00  0.00000000000E+00  0.30878902307E+04  0.30878902307E+04  0.50400001928E-02 0.  1.
       -1   -1    0    0    0  501  0.00000000000E+00  0.00000000000E+00 -0.10812278883E+04  0.10812278883E+04  0.50400001928E-02 0. -1.
    10030    2    1    2    0    0  0.00000000000E+00  0.00000000000E+00  0.20066623423E+04  0.41691181190E+04  0.36544291119E+04 0.  0.
        1    1    3    3  502    0 -0.36052698584E+03  0.33681436969E+03  0.30104601829E+04  0.30506219268E+04  0.50400001928E-02 0.  1.
       -1    1    3    3    0  502  0.36052698584E+03 -0.33681436969E+03 -0.10037978406E+04  0.11184961922E+04  0.50400001928E-02 0. -1.
</event>
<event>
 5   0  0.2287500E-07  0.3468524E+04  0.7818609E-02  0.8121290E-01
        1   -1    0    0  501    0  0.00000000000E+00  0.00000000000E+00  0.15736504178E+04  0.15736504178E+04  0.50400001928E-02 0.  1.
       -1   -1    0    0    0  501  0.00000000000E+00  0.00000000000E+00 -0.19112666344E+04  0.19112666344E+04  0.50400001928E-02 0. -1.
    10030    2    1    2    0    0  0.00000000000E+00  0.00000000000E+00 -0.33761621655E+03  0.34849170522E+04  0.34685244919E+04 0.  0.
        2    1    3    3  502    0 -0.46128775756E+03 -0.12487416780E+04  0.94798612114E+03  0.16342643175E+04  0.25500000920E-02 0.  1.
       -2    1    3    3    0  502  0.46128775756E+03  0.12487416780E+04 -0.12856023377E+04  0.18506527347E+04  0.25500000920E-02 0. -1.
</event>
<event>
 5   0  0.2287500E-07  0.2837844E+04  0.7818609E-02  0.8291615E-01
       -1   -1    0    0    0  501  0.00000000000E+00  0.00000000000E+00  0.95236075085E+03  0.95236075087E+03  0.50400001928E-02 0.  1.
        1   -1    0    0  501    0  0.00000000000E+00  0.00000000000E+00 -0.21140509691E+04  0.21140509691E+04  0.50400001928E-02 0. -1.
    10030    2    1    2    0    0  0.00000000000E+00  0.00000000000E+00 -0.11616902182E+04  0.30664117200E+04  0.28378436661E+04 0.  0.
        2    1    3    3  502    0  0.11137505919E+03 -0.10183416935E+04 -0.16417131333E+04  0.19351088395E+04  0.25500000920E-02 0. -1.
       -2    1    3    3    0  502 -0.11137505919E+03  0.10183416935E+04  0.48002291506E+03  0.11313028805E+04  0.25500000920E-02 0.  1.
</event>
<event>
 5   0  0.2345471E-07  0.2753877E+04  0.7818609E-02  0.8317732E-01
       -1   -1    0    0    0  501  0.00000000000E+00  0.00000000000E+00  0.10534982566E+04  0.10534982566E+04  0.50400001928E-02 0. -1.
        1   -1    0    0  501    0  0.00000000000E+00  0.00000000000E+00 -0.17996803661E+04  0.17996803661E+04  0.50400001928E-02 0.  1.
    10030    2    1    2    0    0  0.00000000000E+00  0.00000000000E+00 -0.74618210950E+03  0.28531786228E+04  0.27538773598E+04 0.  0.
        5    1    3    3  502    0  0.45833530522E+03  0.12834735269E+04 -0.16963673720E+03  0.13733805951E+04  0.46999998093E+01 0.  1.
       -5    1    3    3    0  502 -0.45833530522E+03 -0.12834735269E+04 -0.57654537230E+03  0.14797980277E+04  0.46999998093E+01 0. -1.
</event>
<event>
 5   0  0.7300916E-07  0.3737210E+04  0.7818609E-02  0.8059765E-01
        2   -1    0    0  501    0  0.00000000000E+00  0.00000000000E+00  0.16631091923E+04  0.16631091923E+04  0.25500000920E-02 0.  1.
       -2   -1    0    0    0  501  0.00000000000E+00  0.00000000000E+00 -0.20994919706E+04  0.20994919706E+04  0.25500000920E-02 0. -1.
    10030    2    1    2    0    0  0.00000000000E+00  0.00000000000E+00 -0.43638277829E+03  0.37626011630E+04  0.37372098660E+04 0.  0.
        1    1    3    3  502    0 -0.18601788284E+04  0.11360469887E+03 -0.81204121409E+02  0.18654129330E+04  0.50400001928E-02 0.  1.
       -1    1    3    3    0  502  0.18601788284E+04 -0.11360469887E+03 -0.35517865688E+03  0.18971882299E+04  0.50400001928E-02 0. -1.
</event>
<event>
 5   0  0.2287500E-07  0.3691612E+04  0.7818609E-02  0.8069823E-01
       -1   -1    0    0    0  501  0.00000000000E+00  0.00000000000E+00  0.14833311705E+04  0.14833311705E+04  0.50400001928E-02 0.  1.
        1   -1    0    0  501    0  0.00000000000E+00  0.00000000000E+00 -0.22968566647E+04  0.22968566647E+04  0.50400001928E-02 0. -1.
    10030    2    1    2    0    0  0.00000000000E+00  0.00000000000E+00 -0.81352549421E+03  0.37801878352E+04  0.36916116182E+04 0.  0.
        2    1    3    3  502    0 -0.21703301875E+03 -0.16201868827E+04  0.47106359595E+03  0.17011789375E+04  0.25500000920E-02 0.  1.
       -2    1    3    3    0  502  0.21703301875E+03  0.16201868827E+04 -0.12845890902E+04  0.20790088977E+04  0.25500000920E-02 0. -1.
</event>
<event>
 5   0  0.2411746E-07  0.3620897E+04  0.7818609E-02  0.8085722E-01
       -1   -1    0    0    0  501  0.00000000000E+00  0.00000000000E+00  0.98253005962E+03  0.98253005964E+03  0.50400001928E-02 0. -1.
        1   -1    0    0  501    0  0.00000000000E+00  0.00000000000E+00 -0.33360034221E+04  0.33360034221E+04  0.50400001928E-02 0.  1.
    10030    2    1    2    0    0  0.00000000000E+00  0.00000000000E+00 -0.23534733625E+04  0.43185334817E+04  0.36208969282E+04 0.  0.
        1    1    3    3  502    0 -0.13805303729E+04 -0.11450212862E+04 -0.14707866534E+04  0.23195153020E+04  0.50400001928E-02 0.  1.
       -1    1    3    3    0  502  0.13805303729E+04  0.11450212862E+04 -0.88268670909E+03  0.19990181797E+04  0.50400001928E-02 0. -1.
</event>
<event>
 5   0  0.6939921E-07  0.3743028E+04  0.7818609E-02  0.8058493E-01
        2   -1    0    0  501    0  0.00000000000E+00  0.00000000000E+00  0.21609517444E+04  0.21609517444E+04  0.25500000920E-02 0. -1.
       -2   -1    0    0    0  501  0.00000000000E+00  0.00000000000E+00 -0.16208433576E+04  0.16208433576E+04  0.25500000920E-02 0.  1.
    10030    2    1    2    0    0  0.00000000000E+00  0.00000000000E+00  0.54010838679E+03  0.37817951021E+04  0.37430278017E+04 0.  0.
        4    1    3    3  502    0  0.53710943144E+03 -0.89413368475E+03  0.18400469093E+04  0.21151207599E+04  0.12699999809E+01 0. -1.
       -4    1    3    3    0  502 -0.53710943144E+03  0.89413368475E+03 -0.12999385225E+04  0.16666743422E+04  0.12699999809E+01 0.  1.
</event>
<event>
 5   0  0.2345471E-07  0.3718627E+04  0.7818609E-02  0.8063846E-01
       -1   -1    0    0    0  501  0.00000000000E+00  0.00000000000E+00  0.16583633950E+04  0.16583633951E+04  0.50400001928E-02 0.  1.
        1   -1    0    0  501    0  0.00000000000E+00  0.00000000000E+00 -0.20846139527E+04  0.20846139527E+04  0.50400001928E-02 0. -1.
    10030    2    1    2    0    0  0.00000000000E+00  0.00000000000E+00 -0.42625055769E+03  0.37429773478E+04  0.37186274199E+04 0.  0.
        5    1    3    3  502    0 -0.18534366452E+04  0.13975619409E+03 -0.16520903781E+03  0.18660319686E+04  0.46999998093E+01 0. -1.
       -5    1    3    3    0  502  0.18534366452E+04 -0.13975619409E+03 -0.26104151988E+03  0.18769453792E+04  0.46999998093E+01 0.  1.
</event>
<event>
 5   0  0.2345471E-07  0.3774716E+04  0.7818609E-02  0.8051603E-01
       -1   -1    0    0    0  501  0.00000000000E+00  0.00000000000E+00  0.32169307717E+04  0.32169307717E+04  0.50400001928E-02 0.  1.
        1   -1    0    0  501    0  0.00000000000E+00  0.00000000000E+00 -0.11073041553E+04  0.11073041553E+04  0.50400001928E-02 0. -1.
    10030    2    1    2    0    0  0.00000000000E+00  0.00000000000E+00  0.21096266164E+04  0.43242349270E+04  0.37747163130E+04 0.  0.
        5    1    3    3  502    0 -0.15769583967E+04  0.57997751131E+03  0.70063881466E+02  0.16816963864E+04  0.46999998093E+01 0. -1.
       -5    1    3    3    0  502  0.15769583967E+04 -0.57997751131E+03  0.20395627349E+04  0.26425385405E+04  0.46999998093E+01 0.  1.
</event>
<event>
 5   0  0.2287500E-07  0.3699108E+04  0.7818609E-02  0.8068160E-01
       -1   -1    0    0    0  501  0.00000000000E+00  0.00000000000E+00  0.12459435848E+04  0.12459435848E+04  0.50400001928E-02 0. -1.
        1   -1    0    0  501    0  0.00000000000E+00  0.00000000000E+00 -0.27455898063E+04  0.27455898063E+04  0.50400001928E-02 0.  1.
    10030    2    1    2    0    0  0.00000000000E+00  0.00000000000E+00 -0.14996462215E+04  0.39915333912E+04  0.36991080037E+04 0.  0.
        2    1    3    3  502    0 -0.10017860062E+04 -0.15503070443E+04 -0.87668813212E+03  0.20434307463E+04  0.25500000920E-02 0. -1.
       -2    1    3    3    0  502  0.10017860062E+04  0.15503070443E+04 -0.62295808937E+03  0.19481026449E+04  0.25500000920E-02 0.  1.
</event>
<event>
 5   0  0.7300916E-07  0.3491734E+04  0.7818609E-02  0.8115752E-01
        2   -1    0    0  501    0  0.00000000000E+00  0.00000000000E+00  0.28230091886E+04  0.28230091886E+04  0.25500000920E-02 0. -1.
       -2   -1    0    0    0  501  0.00000000000E+00  0.00000000000E+00 -0.10797169947E+04  0.10797169947E+04  0.25500000920E-02 0.  1.
    10030    2    1    2    0    0  0.00000000000E+00  0.00000000000E+00  0.17432921939E+04  0.39027261833E+04  0.34917336651E+04 0.  0.
        1    1    3    3  502    0 -0.11469493057E+04  0.11813327318E+04  0.22278881910E+03  0.16615277882E+04  0.50400001928E-02 0.  1.
       -1    1    3    3    0  502  0.11469493057E+04 -0.11813327318E+04  0.15205033748E+04  0.22411983950E+04  0.50400001928E-02 0. -1.
</event>
<event>
 5   0  0.2287500E-07  0.3720071E+04  0.7818609E-02  0.8063528E-01
        1   -1    0    0  501    0  0.00000000000E+00  0.00000000000E+00  0.22554891597E+04  0.22554891597E+04  0.50400001928E-02 0. -1.
       -1   -1    0    0    0  501  0.00000000000E+00  0.00000000000E+00 -0.15339162887E+04  0.15339162887E+04  0.50400001928E-02 0.  1.
    10030    2    1    2    0    0  0.00000000000E+00  0.00000000000E+00  0.72157287095E+03  0.37894054484E+04  0.37200707311E+04 0.  0.
        4    1    3    3  502    0 -0.39725165699E+03 -0.10816972938E+04 -0.11265129789E+04  0.16114934126E+04  0.12699999809E+01 0.  1.
       -4    1    3    3    0  502  0.39725165699E+03  0.10816972938E+04  0.18480858498E+04  0.21779120358E+04  0.12699999809E+01 0. -1.
</event>
<event>
 5   0  0.7300916E-07  0.3723212E+04  0.7818609E-02  0.8062837E-01
       -2   -1    0    0    0  501  0.00000000000E+00  0.00000000000E+00  0.18190779573E+04  0.18190779573E+04  0.25500000920E-02 0.  1.
        2   -1    0    0  501    0  0.00000000000E+00  0.00000000000E+00 -0.19051279736E+04  0.19051279736E+04  0.25500000920E-02 0. -1.
    10030    2    1    2    0    0  0.00000000000E+00  0.00000000000E+00 -0.86050016371E+02  0.37242059309E+04  0.37232116795E+04 0.  0.
        1    1    3    3  502    0 -0.33782390391E+02  0.78739073280E+03 -0.17300253820E+04  0.19010821230E+04  0.50400001928E-02 0. -1.
       -1    1    3    3    0  502  0.33782390391E+02 -0.78739073280E+03  0.16439753657E+04  0.18231238079E+04  0.50400001928E-02 0.  1.
</event>
<event>
 5   0  0.7074157E-07  0.3470383E+04  0.7818609E-02  0.8120845E-01
        2   -1    0    0  501    0  0.00000000000E+00  0.00000000000E+00  0.23518205032E+04  0.23518205032E+04  0.25500000920E-02 0.  1.
       -2   -1    0    0    0  501  0.00000000000E+00  0.00000000000E+00 -0.12802379155E+04  0.12802379155E+04  0.25500000920E-02 0. -1.
    10030    2    1    2    0    0  0.00000000000E+00  0.00000000000E+00  0.10715825877E+04  0.36320584187E+04  0.34703831365E+04 0.  0.
        3    1    3    3  502    0 -0.25696367222E+02 -0.84227197460E+03 -0.10517152796E+04  0.13476599801E+04  0.10100000352E+00 0. -1.
       -3    1    3    3    0  502  0.25696367222E+02  0.84227197460E+03  0.21232978673E+04  0.22843984386E+04  0.10100000352E+00 0.  1.
</event>
<event>
 5   0  0.7074157E-07  0.3756179E+04  0.7818609E-02  0.8055625E-01
       -2   -1    0    0    0  501  0.00000000000E+00  0.00000000000E+00  0.19233429206E+04  0.19233429206E+04  0.25500000920E-02 0.  1.
        2   -1    0    0  501    0  0.00000000000E+00  0.00000000000E+00 -0.18339003573E+04  0.18339003573E+04  0.25500000920E-02 0. -1.
    10030    2    1    2    0    0  0.00000000000E+00  0.00000000000E+00  0.89442563330E+02  0.37572432779E+04  0.37561785204E+04 0.  0.
        3    1    3    3  502    0  0.15924777884E+04 -0.51639529670E+03 -0.80673658178E+03  0.18583523702E+04  0.10100000352E+00 0. -1.
       -3    1    3    3    0  502 -0.15924777884E+04  0.51639529670E+03  0.89617914511E+03  0.18988909077E+04  0.10100000352E+00 0.  1.
</event>
<event>
 5   0  0.2411746E-07  0.3580932E+04  0.7818609E-02  0.8094873E-01
       -1   -1    0    0    0  501  0.00000000000E+00  0.00000000000E+00  0.12192958776E+04  0.12192958776E+04  0.50400001928E-02 0. -1.
        1   -1    0    0  501    0  0.00000000000E+00  0.00000000000E+00 -0.26291964589E+04  0.26291964589E+04  0.50400001928E-02 0.  1.
    10030    2    1    2    0    0  0.00000000000E+00  0.00000000000E+00 -0.14099005813E+04  0.38484923365E+04  0.35809319478E+04 0.  0.
        1    1    3    3  502    0 -0.12067857499E+04 -0.12743656041E+04 -0.32432880161E+03  0.17848049503E+04  0.50400001928E-02 0. -1.
       -1    1    3    3    0  502  0.12067857499E+04  0.12743656041E+04 -0.10855717797E+04  0.20636873862E+04  0.50400001928E-02 0.  1.
</event>
<event>
 5   0  0.2345471E-07  0.3662144E+04  0.7818609E-02  0.8076403E-01
       -1   -1    0    0    0  501  0.00000000000E+00  0.00000000000E+00  0.16894986624E+04  0.16894986624E+04  0.50400001928E-02 0. -1.
        1   -1    0    0  501    0  0.00000000000E+00  0.00000000000E+00 -0.19845083740E+04  0.19845083740E+04  0.50400001928E-02 0.  1.
    10030    2    1    2    0    0  0.00000000000E+00  0.00000000000E+00 -0.29500971161E+03  0.36740070365E+04  0.36621437675E+04 0.  0.
        5    1    3    3  502    0 -0.10084420148E+04  0.11314614014E+04 -0.11782775726E+04  0.19197709051E+04  0.46999998093E+01 0.  1.
       -5    1    3    3    0  502  0.10084420148E+04 -0.11314614014E+04  0.88326786100E+03  0.17542361313E+04  0.46999998093E+01 0. -1.
</event>
<event>
 5   0  0.7074157E-07  0.3727953E+04  0.7818609E-02  0.8061795E-01
       -2   -1    0    0    0  501  0.00000000000E+00  0.00000000000E+00  0.12685513656E+04  0.12685513656E+04  0.25500000920E-02 0. -1.
        2   -1    0    0  501    0  0.00000000000E+00  0.00000000000E+00 -0.27388787518E+04  0.27388787518E+04  0.25500000920E-02 0.  1.
    10030    2    1    2    0    0  0.00000000000E+00  0.00000000000E+00 -0.14703273861E+04  0.40074301174E+04  0.37279529937E+04 0.  0.
        3    1    3    3  502    0 -0.16836434667E+04 -0.35053910818E+03 -0.15080016678E+04  0.22872695577E+04  0.10100000352E+00 0.  1.
       -3    1    3    3    0  502  0.16836434667E+04  0.35053910818E+03  0.37674281719E+02  0.17201605597E+04  0.10100000352E+00 0. -1.
</event>
<event>
 5   0  0.2345471E-07  0.3680108E+04  0.7818609E-02  0.8072384E-01
       -1   -1    0    0    0  501  0.00000000000E+00  0.00000000000E+00  0.19976643435E+04  0.19976643435E+04  0.50400001928E-02 0. -1.
        1   -1    0    0  501    0  0.00000000000E+00  0.00000000000E+00 -0.16948791308E+04  0.16948791308E+04  0.50400001928E-02 0.  1.
    10030    2    1    2    0    0  0.00000000000E+00  0.00000000000E+00  0.30278521269E+03  0.36925434744E+04  0.36801084801E+04 0.  0.
        5    1    3    3  502    0 -0.32938946439E+03 -0.10059298858E+04 -0.13588128056E+04  0.17224362644E+04  0.46999998093E+01 0.  1.
       -5    1    3    3    0  502  0.32938946439E+03  0.10059298858E+04  0.16615980183E+04  0.19701072100E+04  0.46999998093E+01 0. -1.
</event>
<event>
 5   0  0.7124627E-07  0.3695752E+04  0.7818609E-02  0.8068904E-01
       -2   -1    0    0    0  501  0.00000000000E+00  0.00000000000E+00  0.15860213009E+04  0.15860213009E+04  0.25500000920E-02 0.  1.
        2   -1    0    0  501    0  0.00000000000E+00  0.00000000000E+00 -0.21529636201E+04  0.21529636201E+04  0.25500000920E-02 0. -1.
    10030    2    1    2    0    0  0.00000000000E+00  0.00000000000E+00 -0.56694231919E+03  0.37389849211E+04  0.36957522437E+04 0.  0.
        2    1    3    3  502    0 -0.94489344310E+03  0.96318959471E+03 -0.15608127646E+04  0.20631757803E+04  0.25500000920E-02 0. -1.
       -2    1    3    3    0  502  0.94489344310E+03 -0.96318959471E+03  0.99387044540E+03  0.16758091408E+04  0.25500000920E-02 0.  1.
</event>
<event>
 5   0  0.2287500E-07  0.3497950E+04  0.7818609E-02  0.8114276E-01
        1   -1    0    0  501    0  0.00000000000E+00  0.00000000000E+00  0.17660609335E+04  0.17660609335E+04  0.50400001928E-02 0.  1.
       -1   -1    0    0    0  501  0.00000000000E+00  0.00000000000E+00 -0.17320542259E+04  0.17320542259E+04  0.50400001928E-02 0. -1.
    10030    2    1    2    0    0  0.00000000000E+00  0.00000000000E+00  0.34006707620E+02  0.34981151595E+04  0.34979498585E+04 0.  0.
        3    1    3    3  502    0  0.95832345112E+03  0.73663439001E+03  0.12811434795E+04  0.17613468389E+04  0.10100000352E+00 0.  1.
       -3    1    3    3    0  502 -0.95832345112E+03 -0.73663439001E+03 -0.12471367719E+04  0.17367683206E+04  0.10100000352E+00 0. -1.
</event>
<event>
 5   0  0.2411746E-07  0.3789740E+04  0.7818609E-02  0.8048360E-01
        1   -1    0    0  501    0  0.00000000000E+00  0.00000000000E+00  0.15566730074E+04  0.15566730074E+04  0.50400001928E-02 0. -1.
       -1   -1    0    0    0  501  0.00000000000E+00  0.00000000000E+00 -0.23065424650E+04  0.23065424650E+04  0.50400001928E-02 0.  1.
    10030    2    1    2    0    0  0.00000000000E+00  0.00000000000E+00 -0.74986945757E+03  0.38632154724E+04  0.37897400416E+04 0.  0.
        1    1    3    3  502    0  0.13070127838E+04  0.73632439641E+03 -0.15549952590E+04  0.21606633910E+04  0.50400001928E-02 0.  1.
       -1    1    3    3    0  502 -0.13070127838E+04 -0.73632439641E+03  0.80512580139E+03  0.17025520814E+04  0.50400001928E-02 0. -1.
</event>
<event>
 5   0  0.2287500E-07  0.3716161E+04  0.7818609E-02  0.8064390E-01
        1   -1    0    0  501    0  0.00000000000E+00  0.00000000000E+00  0.13708139754E+04  0.13708139754E+04  0.50400001928E-02 0.  1.
       -1   -1    0    0    0  501  0.00000000000E+00  0.00000000000E+00 -0.25185498659E+04  0.25185498660E+04  0.50400001928E-02 0. -1.
    10030    2    1    2    0    0  0.00000000000E+00  0.00000000000E+00 -0.11477358905E+04  0.38893638414E+04  0.37161611128E+04 0.  0.
        4    1    3    3  502    0 -0.17558555097E+03 -0.35821515482E+03 -0.24731985479E+04  0.25051668713E+04  0.12699999809E+01 0. -1.
       -4    1    3    3    0  502  0.17558555097E+03  0.35821515482E+03  0.13254626574E+04  0.13841969701E+04  0.12699999809E+01 0.  1.
</event>
<event>
 5   0  0.6939921E-07  0.3665550E+04  0.7818609E-02  0.8075640E-01
        2   -1    0    0  501    0  0.00000000000E+00  0.00000000000E+00  0.14825668403E+04  0.14825668403E+04  0.25500000920E-02 0. -1.
       -2   -1    0    0    0  501  0.00000000000E+00  0.00000000000E+00 -0.22657081830E+04  0.22657081830E+04  0.25500000920E-02 0.  1.
    10030    2    1    2    0    0  0.00000000000E+00  0.00000000000E+00 -0.78314134272E+03  0.37482750233E+04  0.36655497934E+04 0.  0.
        4    1    3    3  502    0  0.84925164254E+03  0.15990563780E+04 -0.10080762892E+03  0.18133872844E+04  0.12699999809E+01 0.  1.
       -4    1    3    3    0  502 -0.84925164254E+03 -0.15990563780E+04 -0.68233371380E+03  0.19348877389E+04  0.12699999809E+01 0. -1.
</event>
<event>
 5   0  0.2287500E-07  0.3514399E+04  0.7818609E-02  0.8110386E-01
       -1   -1    0    0    0  501  0.00000000000E+00  0.00000000000E+00  0.16971175306E+04  0.16971175306E+04  0.50400001928E-02 0. -1.
        1   -1    0    0  501    0  0.00000000000E+00  0.00000000000E+00 -0.18194086173E+04  0.18194086173E+04  0.50400001928E-02 0.  1.
    10030    2    1    2    0    0  0.00000000000E+00  0.00000000000E+00 -0.12229108668E+03  0.35165261479E+04  0.35143991007E+04 0.  0.
        3    1    3    3  502    0  0.47741098812E+02  0.25287486161E+03 -0.18004511320E+04  0.18187493498E+04  0.10100000352E+00 0.  1.
       -3    1    3    3    0  502 -0.47741098812E+02 -0.25287486161E+03  0.16781600454E+04  0.16977767981E+04  0.10100000352E+00 0. -1.
</event>
<event>
 5   0  0.2345471E-07  0.2693860E+04  0.7818609E-02  0.8337000E-01
       -1   -1    0    0    0  501  0.00000000000E+00  0.00000000000E+00  0.10170341034E+04  0.10170341034E+04  0.50400001928E-02 0. -1.
        1   -1    0    0  501    0  0.00000000000E+00  0.00000000000E+00 -0.17838347557E+04  0.17838347557E+04  0.50400001928E-02 0.  1.
    10030    2    1    2    0    0  0.00000000000E+00  0.00000000000E+00 -0.76680065224E+03  0.28008688591E+04  0.26938602647E+04 0.  0.
        5    1    3    3  502    0 -0.90267354667E+03  0.53220867842E+02  0.65452602497E+03  0.11162788182E+04  0.46999998093E+01 0. -1.
       -5    1    3    3    0  502  0.90267354667E+03 -0.53220867842E+02 -0.14213266772E+04  0.16845900409E+04  0.46999998093E+01 0.  1.
</event>
<event>
 5   0  0.2287500E-07  0.3653884E+04  0.7818609E-02  0.8078259E-01
       -1   -1    0    0    0  501  0.00000000000E+00  0.00000000000E+00  0.13505146368E+04  0.13505146368E+04  0.50400001928E-02 0.  1.
        1   -1    0    0  501    0  0.00000000000E+00  0.00000000000E+00 -0.24714407888E+04  0.24714407888E+04  0.50400001928E-02 0. -1.
    10030    2    1    2    0    0  0.00000000000E+00  0.00000000000E+00 -0.11209261520E+04  0.38219554256E+04  0.36538839387E+04 0.  0.
        4    1    3    3  502    0  0.46181403940E+03 -0.17439856364E+04 -0.25919159979E+03  0.18226189962E+04  0.12699999809E+01 0. -1.
       -4    1    3    3    0  502 -0.46181403940E+03  0.17439856364E+04 -0.86173455224E+03  0.19993364295E+04  0.12699999809E+01 0.  1.
</event>
<event>
 5   0  0.7124627E-07  0.3537042E+04  0.7818609E-02  0.8105067E-01
        2   -1    0    0  501    0  0.00000000000E+00  0.00000000000E+00  0.23834780470E+04  0.23834780470E+04  0.25500000920E-02 0. -1.
       -2   -1    0    0    0  501  0.00000000000E+00  0.00000000000E+00 -0.13122276927E+04  0.13122276927E+04  0.25500000920E-02 0.  1.
    10030    2    1    2    0    0  0.00000000000E+00  0.00000000000E+00  0.10712503542E+04  0.36957057397E+04  0.35370416442E+04 0.  0.
        2    1    3    3  502    0 -0.16367928723E+04  0.51181634932E+03  0.98699774233E+03  0.19786893202E+04  0.25500000920E-02 0. -1.
       -2    1    3    3    0  502  0.16367928723E+04 -0.51181634932E+03  0.84252611903E+02  0.17170164195E+04  0.25500000920E-02 0.  1.
</event>
<event>
 5   0  0.6939921E-07  0.3706445E+04  0.7818609E-02  0.8066535E-01
        2   -1    0    0  501    0  0.00000000000E+00  0.00000000000E+00  0.23833512670E+04  0.23833512670E+04  0.25500000920E-02 0.  1.
       -2   -1    0    0    0  501  0.00000000000E+00  0.00000000000E+00 -0.14410101597E+04  0.14410101597E+04  0.25500000920E-02 0. -1.
    10030    2    1    2    0    0  0.00000000000E+00  0.00000000000E+00  0.94234110729E+03  0.38243614268E+04  0.37064448681E+04 0.  0.
        4    1    3    3  502    0 -0.37118828370E+03  0.97915760445E+03 -0.11064933243E+04  0.15234367220E+04  0.12699999809E+01 0. -1.
       -4    1    3    3    0  502  0.37118828370E+03 -0.97915760445E+03  0.20488344316E+04  0.23009247048E+04  0.12699999809E+01 0.  1.
</event>
<event>
 5   0  0.6939921E-07  0.3715678E+04  0.7818609E-02  0.8064496E-01
        2   -1    0    0  501    0  0.00000000000E+00  0.00000000000E+00  0.17400689348E+04  0.17400689348E+04  0.25500000920E-02 0. -1.
       -2   -1    0    0    0  501  0.00000000000E+00  0.00000000000E+00 -0.19835795514E+04  0.19835795514E+04  0.25500000920E-02 0.  1.
    10030    2    1    2    0    0  0.00000000000E+00  0.00000000000E+00 -0.24351061663E+03  0.37236484863E+04  0.37156776810E+04 0.  0.
        4    1    3    3  502    0 -0.14995587670E+04 -0.52197079379E+03 -0.10884143586E+04  0.19250395929E+04  0.12699999809E+01 0.  1.
       -4    1    3    3    0  502  0.14995587670E+04  0.52197079379E+03  0.84490374198E+03  0.17986088934E+04  0.12699999809E+01 0. -1.
</event>
<event>
 5   0  0.2287500E-07  0.3843989E+04  0.7818609E-02  0.8036780E-01
        1   -1    0    0  501    0  0.00000000000E+00  0.00000000000E+00  0.11566455382E+04  0.11566455382E+04  0.50400001928E-02 0. -1.
       -1   -1    0    0    0  501  0.00000000000E+00  0.00000000000E+00 -0.31937730366E+04  0.31937730366E+04  0.50400001928E-02 0.  1.
    10030    2    1    2    0    0  0.00000000000E+00  0.00000000000E+00 -0.20371274985E+04  0.43504185748E+04  0.38439892470E+04 0.  0.
        4    1    3    3  502    0  0.35173287006E+03  0.66705438052E+02  0.11185774786E+04  0.11744712921E+04  0.12699999809E+01 0. -1.
       -4    1    3    3    0  502 -0.35173287006E+03 -0.66705438052E+02 -0.31557049771E+04  0.31759472827E+04  0.12699999809E+01 0.  1.
</event>
<event>
 5   0  0.7124627E-07  0.3737888E+04  0.7818609E-02  0.8059617E-01
       -2   -1    0    0    0  501  0.00000000000E+00  0.00000000000E+00  0.16129612041E+04  0.16129612041E+04  0.25500000920E-02 0. -1.
        2   -1    0    0  501    0  0.00000000000E+00  0.00000000000E+00 -0.21655518660E+04  0.21655518660E+04  0.25500000920E-02 0.  1.
    10030    2    1    2    0    0  0.00000000000E+00  0.00000000000E+00 -0.55259066198E+03  0.37785130701E+04  0.37378877165E+04 0.  0.
        2    1    3    3  502    0  0.19281482331E+03 -0.68889032578E+03  0.14690867134E+04  0.16340022058E+04  0.25500000920E-02 0. -1.
       -2    1    3    3    0  502 -0.19281482331E+03  0.68889032578E+03 -0.20216773754E+04  0.21445108643E+04  0.25500000920E-02 0.  1.
</event>
<event>
 5   0  0.6939921E-07  0.3705652E+04  0.7818609E-02  0.8066710E-01
        2   -1    0    0  501    0  0.00000000000E+00  0.00000000000E+00  0.18755079448E+04  0.18755079448E+04  0.25500000920E-02 0. -1.
       -2   -1    0    0    0  501  0.00000000000E+00  0.00000000000E+00 -0.18304188466E+04  0.18304188466E+04  0.25500000920E-02 0.  1.
    10030    2    1    2    0    0  0.00000000000E+00  0.00000000000E+00  0.45089098240E+02  0.37059267914E+04  0.37056524873E+04 0.  0.
        4    1    3    3  502    0  0.11710605655E+04 -0.56117456321E+03 -0.12991673463E+04  0.18368824527E+04  0.12699999809E+01 0.  1.
       -4    1    3    3    0  502 -0.11710605655E+04  0.56117456321E+03  0.13442564445E+04  0.18690443387E+04  0.12699999809E+01 0. -1.
</event>
<event>
 5   0  0.6949625E-07  0.3711090E+04  0.7818609E-02  0.8065509E-01
       -2   -1    0    0    0  501  0.00000000000E+00  0.00000000000E+00  0.21285929659E+04  0.21285929659E+04  0.25500000920E-02 0. -1.
        2   -1    0    0  501    0  0.00000000000E+00  0.00000000000E+00 -0.16175222564E+04  0.16175222564E+04  0.25500000920E-02 0.  1.
    10030    2    1    2    0    0  0.00000000000E+00  0.00000000000E+00  0.51107070945E+03  0.37461152223E+04  0.37110895959E+04 0.  0.
        5    1    3    3  502    0 -0.55057537622E+03 -0.10936022387E+04 -0.11518709051E+04  0.16810496047E+04  0.46999998093E+01 0.  1.
       -5    1    3    3    0  502  0.55057537622E+03  0.10936022387E+04  0.16629416146E+04  0.20650656176E+04  0.46999998093E+01 0. -1.
</event>
<event>
 5   0  0.6949625E-07  0.3148859E+04  0.7818609E-02  0.8202455E-01
       -2   -1    0    0    0  501  0.00000000000E+00  0.00000000000E+00  0.12894771400E+04  0.12894771400E+04  0.25500000920E-02 0. -1.
        2   -1    0    0  501    0  0.00000000000E+00  0.00000000000E+00 -0.19223518329E+04  0.19223518329E+04  0.25500000920E-02 0.  1.
    10030    2    1    2    0    0  0.00000000000E+00  0.00000000000E+00 -0.63287469296E+03  0.32118289729E+04  0.31488593132E+04 0.  0.
        5    1    3    3  502    0  0.63303737616E+02 -0.10348043020E+04 -0.15250287855E+04  0.18440613313E+04  0.46999998093E+01 0.  1.
       -5    1    3    3    0  502 -0.63303737616E+02  0.10348043020E+04  0.89215409259E+03  0.13677676417E+04  0.46999998093E+01 0. -1.
</event>
<event>
 5   0  0.7074157E-07  0.3800190E+04  0.7818609E-02  0.8046114E-01
       -2   -1    0    0    0  501  0.00000000000E+00  0.00000000000E+00  0.15002436168E+04  0.15002436169E+04  0.25500000920E-02 0.  1.
        2   -1    0    0  501    0  0.00000000000E+00  0.00000000000E+00 -0.24065165787E+04  0.24065165787E+04  0.25500000920E-02 0. -1.
    10030    2    1    2    0    0  0.00000000000E+00  0.00000000000E+00 -0.90627296182E+03  0.39067601955E+04  0.38001900668E+04 0.  0.
        3    1    3    3  502    0  0.74907451513E+03  0.17453343702E+04 -0.50997187281E+03  0.19665645208E+04  0.10100000352E+00 0.  1.
       -3    1    3    3    0  502 -0.74907451513E+03 -0.17453343702E+04 -0.39630108901E+03  0.19401956748E+04  0.10100000352E+00 0. -1.
</event>
<event>
 5   0  0.2345471E-07  0.3717172E+04  0.7818609E-02  0.8064167E-01
        1   -1    0    0  501    0  0.00000000000E+00  0.00000000000E+00  0.21738313039E+04  0.21738313039E+04  0.50400001928E-02 0. -1.
       -1   -1    0    0    0  501  0.00000000000E+00  0.00000000000E+00 -0.15890567999E+04  0.15890568000E+04  0.50400001928E-02 0.  1.
    10030    2    1    2    0    0  0.00000000000E+00  0.00000000000E+00  0.58477450390E+03  0.37628881038E+04  0.37171717288E+04 0.  0.
        5    1    3    3  502    0  0.13455885314E+04 -0.12261326050E+04  0.67157340672E+03  0.19403717663E+04  0.46999998093E+01 0. -1.
       -5    1    3    3    0  502 -0.13455885314E+04  0.12261326050E+04 -0.86798902820E+02  0.18225163375E+04  0.46999998093E+01 0.  1.
</event>
<event>
 5   0  0.2287500E-07  0.3712888E+04  0.7818609E-02  0.8065112E-01
        1   -1    0    0  501    0  0.00000000000E+00  0.00000000000E+00  0.13666969580E+04  0.13666969580E+04  0.50400001928E-02 0.  1.
       -1   -1    0    0    0  501  0.00000000000E+00  0.00000000000E+00 -0.25216887852E+04  0.25216887852E+04  0.50400001928E-02 0. -1.
    10030    2    1    2    0    0  0.00000000000E+00  0.00000000000E+00 -0.11549918272E+04  0.38883857432E+04  0.37128880359E+04 0.  0.
        2    1    3    3  502    0 -0.12768862674E+04 -0.10095998084E+04  0.35724742982E+03  0.16665401403E+04  0.25500000920E-02 0.  1.
       -2    1    3    3    0  502  0.12768862674E+04  0.10095998084E+04 -0.15122392570E+04  0.22218456030E+04  0.25500000920E-02 0. -1.
</event>
<event>
 5   0  0.7300916E-07  0.2982604E+04  0.7818609E-02  0.8248716E-01
        2   -1    0    0  501    0  0.00000000000E+00  0.00000000000E+00  0.14610003934E+04  0.14610003934E+04  0.25500000920E-02 0. -1.
       -2   -1    0    0    0  501  0.00000000000E+00  0.00000000000E+00 -0.15222315831E+04  0.15222315831E+04  0.25500000920E-02 0.  1.
    10030    2    1    2    0    0  0.00000000000E+00  0.00000000000E+00 -0.61231189661E+02  0.29832319765E+04  0.29826035215E+04 0.  0.
        1    1    3    3  502    0 -0.53002365665E+03 -0.11843502339E+04  0.70463819255E+03  0.14765248172E+04  0.50400001928E-02 0. -1.
       -1    1    3    3    0  502  0.53002365665E+03  0.11843502339E+04 -0.76586938221E+03  0.15067071593E+04  0.50400001928E-02 0.  1.
</event>
<event>
 5   0  0.2287500E-07  0.3731138E+04  0.7818609E-02  0.8061096E-01
       -1   -1    0    0    0  501  0.00000000000E+00  0.00000000000E+00  0.11132366189E+04  0.11132366189E+04  0.50400001928E-02 0.  1.
        1   -1    0    0  501    0  0.00000000000E+00  0.00000000000E+00 -0.31263330750E+04  0.31263330750E+04  0.50400001928E-02 0. -1.
    10030    2    1    2    0    0  0.00000000000E+00  0.00000000000E+00 -0.20130964562E+04  0.42395696939E+04  0.37311384118E+04 0.  0.
        4    1    3    3  502    0 -0.43266231476E+03  0.33447050510E+03 -0.30332103129E+04  0.30821151199E+04  0.12699999809E+01 0. -1.
       -4    1    3    3    0  502  0.43266231476E+03 -0.33447050510E+03  0.10201138567E+04  0.11574545740E+04  0.12699999809E+01 0.  1.
</event>
<event>
 5   0  0.7074157E-07  0.3734057E+04  0.7818609E-02  0.8060456E-01
        2   -1    0    0  501    0  0.00000000000E+00  0.00000000000E+00  0.19298914968E+04  0.19298914968E+04  0.25500000920E-02 0.  1.
       -2   -1    0    0    0  501  0.00000000000E+00  0.00000000000E+00 -0.18062133012E+04  0.18062133012E+04  0.25500000920E-02 0. -1.
    10030    2    1    2    0    0  0.00000000000E+00  0.00000000000E+00  0.12367819558E+03  0.37361047980E+04  0.37340571455E+04 0.  0.
        3    1    3    3  502    0  0.17128969261E+03  0.13859304504E+03 -0.17931590975E+04  0.18066454412E+04  0.10100000352E+00 0. -1.
       -3    1    3    3    0  502 -0.17128969261E+03 -0.13859304504E+03  0.19168372931E+04  0.19294593568E+04  0.10100000352E+00 0.  1.
</event>
<event>
 5   0  0.2345471E-07  0.3737479E+04  0.7818609E-02  0.8059706E-01
        1   -1    0    0  501    0  0.00000000000E+00  0.00000000000E+00  0.15571663445E+04  0.15571663445E+04  0.50400001928E-02 0.  1.
       -1   -1    0    0    0  501  0.00000000000E+00  0.00000000000E+00 -0.22426558394E+04  0.22426558394E+04  0.50400001928E-02 0. -1.
    10030    2    1    2    0    0  0.00000000000E+00  0.00000000000E+00 -0.68548949485E+03  0.37998221839E+04  0.37374794691E+04 0.  0.
        5    1    3    3  502    0  0.12751738424E+04 -0.26339538267E+03 -0.17055215672E+04  0.21457565944E+04  0.46999998093E+01 0. -1.
       -5    1    3    3    0  502 -0.12751738424E+04  0.26339538267E+03  0.10200320724E+04  0.16540655896E+04  0.46999998093E+01 0.  1.
</event>
<event>
 5   0  0.2287500E-07  0.3707151E+04  0.7818609E-02  0.8066379E-01
       -1   -1    0    0    0  501  0.00000000000E+00  0.00000000000E+00  0.13061048193E+04  0.13061048193E+04  0.50400001928E-02 0.  1.
        1   -1    0    0  501    0  0.00000000000E+00  0.00000000000E+00 -0.26305254955E+04  0.26305254955E+04  0.50400001928E-02 0. -1.
    10030    2    1    2    0    0  0.00000000000E+00  0.00000000000E+00 -0.13244206762E+04  0.39366303148E+04  0.37071509422E+04 0.  0.
        3    1    3    3  502    0  0.23947222215E+03 -0.17542758640E+04 -0.12447206073E+04  0.21642920674E+04  0.10100000352E+00 0. -1.
       -3    1    3    3    0  502 -0.23947222215E+03  0.17542758640E+04 -0.79700068851E+02  0.17723382475E+04  0.10100000352E+00 0.  1.
</event>
<event>
 5   0  0.2287500E-07  0.3671563E+04  0.7818609E-02  0.8074293E-01
        3   -1    0    0  501    0  0.00000000000E+00  0.00000000000E+00  0.15918496490E+04  0.15918496522E+04  0.10100000352E+00 0.  1.
       -3   -1    0    0    0  501  0.00000000000E+00  0.00000000000E+00 -0.21170934985E+04  0.21170935009E+04  0.10100000352E+00 0. -1.
    10030    2    1    2    0    0  0.00000000000E+00  0.00000000000E+00 -0.52524384945E+03  0.37089431531E+04  0.36715634560E+04 0.  0.
        5    1    3    3  502    0  0.81631159513E+03 -0.57623016191E+03  0.12930784670E+04  0.16341602834E+04  0.46999998093E+01 0.  1.
       -5    1    3    3    0  502 -0.81631159513E+03  0.57623016191E+03 -0.18183223165E+04  0.20747828697E+04  0.46999998093E+01 0. -1.
</event>
<event>
 5   0  0.7124627E-07  0.3692970E+04  0.7818609E-02  0.8069522E-01
       -2   -1    0    0    0  501  0.00000000000E+00  0.00000000000E+00  0.10354146874E+04  0.10354146874E+04  0.25500000920E-02 0.  1.
        2   -1    0    0  501    0  0.00000000000E+00  0.00000000000E+00 -0.32928895459E+04  0.32928895459E+04  0.25500000920E-02 0. -1.
    10030    2    1    2    0    0  0.00000000000E+00  0.00000000000E+00 -0.22574748586E+04  0.43283042333E+04  0.36929696451E+04 0.  0.
        2    1    3    3  502    0  0.40108349924E+03 -0.14086695640E+04  0.18910989323E+03  0.14768142962E+04  0.25500000920E-02 0.  1.
       -2    1    3    3    0  502 -0.40108349924E+03  0.14086695640E+04 -0.24465847518E+04  0.28514899371E+04  0.25500000920E-02 0. -1.
</event>
<event>
 5   0  0.6949625E-07  0.3669467E+04  0.7818609E-02  0.8074762E-01
       -2   -1    0    0    0  501  0.00000000000E+00  0.00000000000E+00  0.19091772214E+04  0.19091772214E+04  0.25500000920E-02 0.  1.
        2   -1    0    0  501    0  0.00000000000E+00  0.00000000000E+00 -0.17631929000E+04  0.17631929000E+04  0.25500000920E-02 0. -1.
    10030    2    1    2    0    0  0.00000000000E+00  0.00000000000E+00  0.14598432140E+03  0.36723701215E+04  0.36694673847E+04 0.  0.
        5    1    3    3  502    0  0.88054511709E+03 -0.29806899325E+03 -0.15100368419E+04  0.17732563779E+04  0.46999998093E+01 0. -1.
       -5    1    3    3    0  502 -0.88054511709E+03  0.29806899325E+03  0.16560211633E+04  0.18991137436E+04  0.46999998093E+01 0.  1.
</event>
<event>
 5   0  0.2287500E-07  0.3343420E+04  0.7818609E-02  0.8151934E-01
        1   -1    0    0  501    0  0.00000000000E+00  0.00000000000E+00  0.20479331771E+04  0.20479331771E+04  0.50400001928E-02 0. -1.
       -1   -1    0    0    0  501  0.00000000000E+00  0.00000000000E+00 -0.13646024493E+04  0.13646024493E+04  0.50400001928E-02 0.  1.
    10030    2    1    2    0    0  0.00000000000E+00  0.00000000000E+00  0.68333072781E+03  0.34125356264E+04  0.33434201826E+04 0.  0.
        4    1    3    3  502    0  0.38037153707E+02 -0.56024394264E+03 -0.12654614758E+04  0.13844545713E+04  0.12699999809E+01 0.  1.
       -4    1    3    3    0  502 -0.38037153707E+02  0.56024394264E+03  0.19487922036E+04  0.20280810551E+04  0.12699999809E+01 0. -1.
</event>
<event>
 5   0  0.6939921E-07  0.3650639E+04  0.7818609E-02  0.8078990E-01
       -2   -1    0    0    0  501  0.00000000000E+00  0.00000000000E+00  0.22453990780E+04  0.22453990780E+04  0.25500000920E-02 0. -1.
        2   -1    0    0  501    0  0.00000000000E+00  0.00000000000E+00 -0.14838300954E+04  0.14838300954E+04  0.25500000920E-02 0.  1.
    10030    2    1    2    0    0  0.00000000000E+00  0.00000000000E+00  0.76156898257E+03  0.37292291734E+04  0.36506386992E+04 0.  0.
        4    1    3    3  502    0 -0.18137921998E+03 -0.18041414054E+04  0.59497548477E+03  0.19083558558E+04  0.12699999809E+01 0.  1.
       -4    1    3    3    0  502  0.18137921998E+03  0.18041414054E+04  0.16659349780E+03  0.18208733175E+04  0.12699999809E+01 0. -1.
</event>
<event>
 5   0  0.2345471E-07  0.3591444E+04  0.7818609E-02  0.8092454E-01
        1   -1    0    0  501    0  0.00000000000E+00  0.00000000000E+00  0.23125805571E+04  0.23125805571E+04  0.50400001928E-02 0. -1.
       -1   -1    0    0    0  501  0.00000000000E+00  0.00000000000E+00 -0.13943806760E+04  0.13943806761E+04  0.50400001928E-02 0.  1.
    10030    2    1    2    0    0  0.00000000000E+00  0.00000000000E+00  0.91819988109E+03  0.37069612332E+04  0.35914440776E+04 0.  0.
        5    1    3    3  502    0 -0.14141669125E+03 -0.14098388155E+03 -0.13828787083E+04  0.13972296687E+04  0.46999998093E+01 0.  1.
       -5    1    3    3    0  502  0.14141669125E+03  0.14098388155E+03  0.23010785894E+04  0.23097315645E+04  0.46999998093E+01 0. -1.
</event>
<event>
 5   0  0.7124627E-07  0.3687687E+04  0.7818609E-02  0.8070696E-01
        2   -1    0    0  501    0  0.00000000000E+00  0.00000000000E+00  0.11539456990E+04  0.11539456990E+04  0.25500000920E-02 0. -1.
       -2   -1    0    0    0  501  0.00000000000E+00  0.00000000000E+00 -0.29462033230E+04  0.29462033230E+04  0.25500000920E-02 0.  1.
    10030    2    1    2    0    0  0.00000000000E+00  0.00000000000E+00 -0.17922576241E+04  0.41001490220E+04  0.36876868917E+04 0.  0.
        2    1    3    3  502    0  0.10858949184E+04 -0.20420750504E+03 -0.25373354782E+04  0.27674789625E+04  0.25500000920E-02 0.  1.
       -2    1    3    3    0  502 -0.10858949184E+04  0.20420750504E+03  0.74507785412E+03  0.13326700595E+04  0.25500000920E-02 0. -1.
</event>
<event>
 5   0  0.7074157E-07  0.3711753E+04  0.7818609E-02  0.8065362E-01
       -2   -1    0    0    0  501  0.00000000000E+00  0.00000000000E+00  0.25025749811E+04  0.25025749811E+04  0.25500000920E-02 0. -1.
        2   -1    0    0  501    0  0.00000000000E+00  0.00000000000E+00 -0.13762932746E+04  0.13762932746E+04  0.25500000920E-02 0.  1.
    10030    2    1    2    0    0  0.00000000000E+00  0.00000000000E+00  0.11262817065E+04  0.38788682557E+04  0.37117527480E+04 0.  0.
        3    1    3    3  502    0  0.75255991050E+03  0.37056043221E+03 -0.11668748984E+04  0.14371007242E+04  0.10100000352E+00 0.  1.
       -3    1    3    3    0  502 -0.75255991050E+03 -0.37056043221E+03  0.22931566049E+04  0.24417675314E+04  0.10100000352E+00 0. -1.
</event>
<event>
 5   0  0.2287500E-07  0.3590452E+04  0.7818609E-02  0.8092682E-01
        1   -1    0    0  501    0  0.00000000000E+00  0.00000000000E+00  0.13526284015E+04  0.13526284015E+04  0.50400001928E-02 0. -1.
       -1   -1    0    0    0  501  0.00000000000E+00  0.00000000000E+00 -0.23826475544E+04  0.23826475544E+04  0.50400001928E-02 0.  1.
    10030    2    1    2    0    0  0.00000000000E+00  0.00000000000E+00 -0.10300191529E+04  0.37352759559E+04  0.35904522015E+04 0.  0.
        2    1    3    3  502    0  0.10080244994E+04 -0.21362713725E+02 -0.20602731851E+04  0.22937513714E+04  0.25500000920E-02 0.  1.
       -2    1    3    3    0  502 -0.10080244994E+04  0.21362713725E+02  0.10302540321E+04  0.14415245845E+04  0.25500000920E-02 0. -1.
</event>
<event>
 5   0  0.2345471E-07  0.3693273E+04  0.7818609E-02  0.8069454E-01
        1   -1    0    0  501    0  0.00000000000E+00  0.00000000000E+00  0.22574774198E+04  0.22574774198E+04  0.50400001928E-02 0. -1.
       -1   -1    0    0    0  501  0.00000000000E+00  0.00000000000E+00 -0.15105649508E+04  0.15105649508E+04  0.50400001928E-02 0.  1.
    10030    2    1    2    0    0  0.00000000000E+00  0.00000000000E+00  0.74691246899E+03  0.37680423705E+04  0.36932729482E+04 0.  0.
        5    1    3    3  502    0  0.26699651747E+03 -0.49771554767E+03 -0.14202710871E+04  0.15284632667E+04  0.46999998093E+01 0.  1.
       -5    1    3    3    0  502 -0.26699651747E+03  0.49771554767E+03  0.21671835561E+04  0.22395791039E+04  0.46999998093E+01 0. -1.
</event>
<event>
 5   0  0.7074157E-07  0.3673952E+04  0.7818609E-02  0.8073759E-01
        2   -1    0    0  501    0  0.00000000000E+00  0.00000000000E+00  0.18254865638E+04  0.18254865638E+04  0.25500000920E-02 0.  1.
       -2   -1    0    0    0  501  0.00000000000E+00  0.00000000000E+00 -0.18485374913E+04  0.18485374913E+04  0.25500000920E-02 0. -1.
    10030    2    1    2    0    0  0.00000000000E+00  0.00000000000E+00 -0.23050927518E+02  0.36740240550E+04  0.36739517432E+04 0.  0.
        3    1    3    3  502    0 -0.19317088023E+03 -0.17923109250E+04  0.34173338475E+03  0.18347956718E+04  0.10100000352E+00 0.  1.
       -3    1    3    3    0  502  0.19317088023E+03  0.17923109250E+04 -0.36478431226E+03  0.18392283832E+04  0.10100000352E+00 0. -1.
</event>
<event>
 5   0  0.7074157E-07  0.3631442E+04  0.7818609E-02  0.8083327E-01
       -2   -1    0    0    0  501  0.00000000000E+00  0.00000000000E+00  0.26439468948E+04  0.26439468948E+04  0.25500000920E-02 0.  1.
        2   -1    0    0  501    0  0.00000000000E+00  0.00000000000E+00 -0.12469400030E+04  0.12469400030E+04  0.25500000920E-02 0. -1.
    10030    2    1    2    0    0  0.00000000000E+00  0.00000000000E+00  0.13970068918E+04  0.38908868978E+04  0.36314422198E+04 0.  0.
        3    1    3    3  502    0 -0.74675909704E+03  0.67032496552E+03  0.23198422792E+04  0.25275784694E+04  0.10100000352E+00 0.  1.
       -3    1    3    3    0  502  0.74675909704E+03 -0.67032496552E+03 -0.92283538745E+03  0.13633084284E+04  0.10100000352E+00 0. -1.
</event>
<event>
 5   0  0.7124627E-07  0.3686419E+04  0.7818609E-02  0.8070978E-01
        2   -1    0    0  501    0  0.00000000000E+00  0.00000000000E+00  0.15652696563E+04  0.15652696563E+04  0.25500000920E-02 0.  1.
       -2   -1    0    0    0  501  0.00000000000E+00  0.00000000000E+00 -0.21705017005E+04  0.21705017005E+04  0.25500000920E-02 0. -1.
    10030    2    1    2    0    0  0.00000000000E+00  0.00000000000E+00 -0.60523204425E+03  0.37357713568E+04  0.36864185605E+04 0.  0.
        2    1    3    3  502    0  0.17824806911E+04 -0.46450945844E+03 -0.23528862935E+03  0.18569779724E+04  0.25500000920E-02 0.  1.
       -2    1    3    3    0  502 -0.17824806911E+04  0.46450945844E+03 -0.36994341489E+03  0.18787933844E+04  0.25500000920E-02 0. -1.
</event>
<event>
 5   0  0.2411746E-07  0.3659841E+04  0.7818609E-02  0.8076920E-01
        1   -1    0    0  501    0  0.00000000000E+00  0.00000000000E+00  0.13660794339E+04  0.13660794339E+04  0.50400001928E-02 0.  1.
       -1   -1    0    0    0  501  0.00000000000E+00  0.00000000000E+00 -0.24512555748E+04  0.24512555748E+04  0.50400001928E-02 0. -1.
    10030    2    1    2    0    0  0.00000000000E+00  0.00000000000E+00 -0.10851761409E+04  0.38173350087E+04  0.36598414327E+04 0.  0.
        1    1    3    3  502    0 -0.54254951268E+03 -0.10389678269E+04 -0.20083353380E+04  0.23253440496E+04  0.50400001928E-02 0. -1.
       -1    1    3    3    0  502  0.54254951268E+03  0.10389678269E+04  0.92315919706E+03  0.14919909592E+04  0.50400001928E-02 0.  1.
</event>
<event>
 5   0  0.6939921E-07  0.3719207E+04  0.7818609E-02  0.8063719E-01
        2   -1    0    0  501    0  0.00000000000E+00  0.00000000000E+00  0.29143569841E+04  0.29143569842E+04  0.25500000920E-02 0. -1.
       -2   -1    0    0    0  501  0.00000000000E+00  0.00000000000E+00 -0.11865826937E+04  0.11865826937E+04  0.25500000920E-02 0.  1.
    10030    2    1    2    0    0  0.00000000000E+00  0.00000000000E+00  0.17277742904E+04  0.41009396779E+04  0.37192072063E+04 0.  0.
        4    1    3    3  502    0 -0.38695044017E+03  0.15157908560E+04 -0.24467354887E+03  0.15834201340E+04  0.12699999809E+01 0.  1.
       -4    1    3    3    0  502  0.38695044017E+03 -0.15157908560E+04  0.19724478393E+04  0.25175195439E+04  0.12699999809E+01 0. -1.
</event>
<event>
 5   0  0.7074157E-07  0.3592847E+04  0.7818609E-02  0.8092132E-01
       -2   -1    0    0    0  501  0.00000000000E+00  0.00000000000E+00  0.21874112325E+04  0.21874112325E+04  0.25500000920E-02 0.  1.
        2   -1    0    0  501    0  0.00000000000E+00  0.00000000000E+00 -0.14753224174E+04  0.14753224174E+04  0.25500000920E-02 0. -1.
    10030    2    1    2    0    0  0.00000000000E+00  0.00000000000E+00  0.71208881515E+03  0.36627336499E+04  0.35928466860E+04 0.  0.
        3    1    3    3  502    0 -0.60213111370E+02  0.11517795568E+04  0.17601203371E+04  0.21043396536E+04  0.10100000352E+00 0.  1.
       -3    1    3    3    0  502  0.60213111370E+02 -0.11517795568E+04 -0.10480315220E+04  0.15583939963E+04  0.10100000352E+00 0. -1.
</event>
<event>
 5   0  0.2287500E-07  0.3824949E+04  0.7818609E-02  0.8040822E-01
        1   -1    0    0  501    0  0.00000000000E+00  0.00000000000E+00  0.12667188041E+04  0.12667188041E+04  0.50400001928E-02 0.  1.
       -1   -1    0    0    0  501  0.00000000000E+00  0.00000000000E+00 -0.28874271326E+04  0.28874271326E+04  0.50400001928E-02 0. -1.
    10030    2    1    2    0    0  0.00000000000E+00  0.00000000000E+00 -0.16207083284E+04  0.41541459367E+04  0.38249487549E+04 0.  0.
        2    1    3    3  502    0  0.14998794335E+04 -0.95890828605E+03 -0.51338832220E+02  0.17809489302E+04  0.25500000920E-02 0.  1.
       -2    1    3    3    0  502 -0.14998794335E+04  0.95890828605E+03 -0.15693694962E+04  0.23731970065E+04  0.25500000920E-02 0. -1.
</event>
<event>
 5   0  0.2411746E-07  0.3652132E+04  0.7818609E-02  0.8078654E-01
       -1   -1    0    0    0  501  0.00000000000E+00  0.00000000000E+00  0.22999710723E+04  0.22999710723E+04  0.50400001928E-02 0.  1.
        1   -1    0    0  501    0  0.00000000000E+00  0.00000000000E+00 -0.14498080012E+04  0.14498080012E+04  0.50400001928E-02 0. -1.
    10030    2    1    2    0    0  0.00000000000E+00  0.00000000000E+00  0.85016307109E+03  0.37497790735E+04  0.36521316861E+04 0.  0.
        1    1    3    3  502    0 -0.99883843003E+03 -0.44469650004E+03 -0.10765836029E+04  0.15344267466E+04  0.50400001928E-02 0. -1.
       -1    1    3    3    0  502  0.99883843003E+03  0.44469650004E+03  0.19267466740E+04  0.22153523269E+04  0.50400001928E-02 0.  1.
</event>
<event>
 5   0  0.7300916E-07  0.3688901E+04  0.7818609E-02  0.8070426E-01
        2   -1    0    0  501    0  0.00000000000E+00  0.00000000000E+00  0.24464852249E+04  0.24464852249E+04  0.25500000920E-02 0.  1.
       -2   -1    0    0    0  501  0.00000000000E+00  0.00000000000E+00 -0.13905653511E+04  0.13905653511E+04  0.25500000920E-02 0. -1.
    10030    2    1    2    0    0  0.00000000000E+00  0.00000000000E+00  0.10559198739E+04  0.38370505760E+04  0.36889009668E+04 0.  0.
        1    1    3    3  502    0  0.77117157086E+02  0.44598847268E+03  0.23878260487E+04  0.24303427768E+04  0.50400001928E-02 0.  1.
       -1    1    3    3    0  502 -0.77117157086E+02 -0.44598847268E+03 -0.13319061749E+04  0.14067077992E+04  0.50400001928E-02 0. -1.
</event>
<event>
 5   0  0.2345471E-07  0.3803203E+04  0.7818609E-02  0.8045468E-01
       -1   -1    0    0    0  501  0.00000000000E+00  0.00000000000E+00  0.17501846360E+04  0.17501846361E+04  0.50400001928E-02 0. -1.
        1   -1    0    0  501    0  0.00000000000E+00  0.00000000000E+00 -0.20661184002E+04  0.20661184002E+04  0.50400001928E-02 0.  1.
    10030    2    1    2    0    0  0.00000000000E+00  0.00000000000E+00 -0.31593376416E+03  0.38163030363E+04  0.38032032185E+04 0.  0.
        5    1    3    3  502    0 -0.46120668401E+03  0.29574645839E+03 -0.19851972906E+04  0.20594193225E+04  0.46999998093E+01 0.  1.
       -5    1    3    3    0  502  0.46120668401E+03 -0.29574645839E+03  0.16692635265E+04  0.17568837138E+04  0.46999998093E+01 0. -1.
</event>
<event>
 5   0  0.2411746E-07  0.3027349E+04  0.7818609E-02  0.8235964E-01
        1   -1    0    0  501    0  0.00000000000E+00  0.00000000000E+00  0.18791830136E+04  0.18791830136E+04  0.50400001928E-02 0.  1.
       -1   -1    0    0    0  501  0.00000000000E+00  0.00000000000E+00 -0.12192588918E+04  0.12192588918E+04  0.50400001928E-02 0. -1.
    10030    2    1    2    0    0  0.00000000000E+00  0.00000000000E+00  0.65992412181E+03  0.30984419054E+04  0.30273490705E+04 0.  0.
        1    1    3    3  502    0 -0.13549792352E+04  0.66941665459E+03  0.41634318047E+03  0.15676189044E+04  0.50400001928E-02 0. -1.
       -1    1    3    3    0  502  0.13549792352E+04 -0.66941665459E+03  0.24358094134E+03  0.15308230010E+04  0.50400001928E-02 0.  1.
</event>
<event>
 5   0  0.7074157E-07  0.3677957E+04  0.7818609E-02  0.8072864E-01
       -2   -1    0    0    0  501  0.00000000000E+00  0.00000000000E+00  0.18483587501E+04  0.18483587501E+04  0.25500000920E-02 0. -1.
        2   -1    0    0  501    0  0.00000000000E+00  0.00000000000E+00 -0.18296461547E+04  0.18296461547E+04  0.25500000920E-02 0.  1.
    10030    2    1    2    0    0  0.00000000000E+00  0.00000000000E+00  0.18712595465E+02  0.36780049048E+04  0.36779573024E+04 0.  0.
        3    1    3    3  502    0  0.12272939364E+04 -0.18366424289E+03 -0.13478125150E+04  0.18320975810E+04  0.10100000352E+00 0.  1.
       -3    1    3    3    0  502 -0.12272939364E+04  0.18366424289E+03  0.13665251104E+04  0.18459073238E+04  0.10100000352E+00 0. -1.
</event>
<event>
 5   0  0.2411746E-07  0.3743600E+04  0.7818609E-02  0.8058368E-01
       -1   -1    0    0    0  501  0.00000000000E+00  0.00000000000E+00  0.28464385217E+04  0.28464385217E+04  0.50400001928E-02 0. -1.
        1   -1    0    0  501    0  0.00000000000E+00  0.00000000000E+00 -0.12308841697E+04  0.12308841698E+04  0.50400001928E-02 0.  1.
    10030    2    1    2    0    0  0.00000000000E+00  0.00000000000E+00  0.16155543520E+04  0.40773226914E+04  0.37436004683E+04 0.  0.
        1    1    3    3  502    0  0.95300943537E+03  0.13507857948E+04 -0.14843164339E+03  0.16597834799E+04  0.50400001928E-02 0. -1.
       -1    1    3    3    0  502 -0.95300943537E+03 -0.13507857948E+04  0.17639859953E+04  0.24175392115E+04  0.50400001928E-02 0.  1.
</event>
<event>
 5   0  0.2411746E-07  0.3716988E+04  0.7818609E-02  0.8064207E-01
        1   -1    0    0  501    0  0.00000000000E+00  0.00000000000E+00  0.28191388655E+04  0.28191388655E+04  0.50400001928E-02 0.  1.
       -1   -1    0    0    0  501  0.00000000000E+00  0.00000000000E+00 -0.12251969194E+04  0.12251969194E+04  0.50400001928E-02 0. -1.
    10030    2    1    2    0    0  0.00000000000E+00  0.00000000000E+00  0.15939419461E+04  0.40443357849E+04  0.37169881643E+04 0.  0.
        1    1    3    3  502    0  0.41138766433E+03 -0.11046572371E+03  0.27653090263E+04  0.27979236047E+04  0.50400001928E-02 0.  1.
       -1    1    3    3    0  502 -0.41138766433E+03  0.11046572371E+03 -0.11713670802E+04  0.12464121802E+04  0.50400001928E-02 0. -1.
</event>
<event>
 5   0  0.2287500E-07  0.3791269E+04  0.7818609E-02  0.8048031E-01
       -1   -1    0    0    0  501  0.00000000000E+00  0.00000000000E+00  0.19577435016E+04  0.19577435016E+04  0.50400001928E-02 0. -1.
        1   -1    0    0  501    0  0.00000000000E+00  0.00000000000E+00 -0.18354963512E+04  0.18354963512E+04  0.50400001928E-02 0.  1.
    10030    2    1    2    0    0  0.00000000000E+00  0.00000000000E+00  0.12224715043E+03  0.37932398528E+04  0.37912694728E+04 0.  0.
        2    1    3    3  502    0 -0.21737905266E+03 -0.11146435632E+04 -0.14574752312E+04  0.18476790780E+04  0.25500000920E-02 0.  1.
       -2    1    3    3    0  502  0.21737905266E+03  0.11146435632E+04  0.15797223816E+04  0.19455607748E+04  0.25500000920E-02 0. -1.
</event>
<event>
 5   0  0.7300916E-07  0.3669411E+04  0.7818609E-02  0.8074775E-01
        2   -1    0    0  501    0  0.00000000000E+00  0.00000000000E+00  0.19716212826E+04  0.19716212826E+04  0.25500000920E-02 0.  1.
       -2   -1    0    0    0  501  0.00000000000E+00  0.00000000000E+00 -0.17072971441E+04  0.17072971441E+04  0.25500000920E-02 0. -1.
    10030    2    1    2    0    0  0.00000000000E+00  0.00000000000E+00  0.26432413846E+03  0.36789184267E+04  0.36694105167E+04 0.  0.
        1    1    3    3  502    0 -0.15372560177E+04 -0.70596922322E+03  0.84435102131E+03  0.18906287989E+04  0.50400001928E-02 0.  1.
       -1    1    3    3    0  502  0.15372560177E+04  0.70596922322E+03 -0.58002688285E+03  0.17882896278E+04  0.50400001928E-02 0. -1.
</event>
<event>
 5   0  0.2287500E-07  0.3666408E+04  0.7818609E-02  0.8075447E-01
       -3   -1    0    0    0  501  0.00000000000E+00  0.00000000000E+00  0.17765087645E+04  0.17765087674E+04  0.10100000352E+00 0.  1.
        3   -1    0    0  501    0  0.00000000000E+00  0.00000000000E+00 -0.18917086091E+04  0.18917086118E+04  0.10100000352E+00 0. -1.
    10030    2    1    2    0    0  0.00000000000E+00  0.00000000000E+00 -0.11519984455E+03  0.36682173791E+04  0.36664080155E+04 0.  0.
        3    1    3    3  502    0  0.16313578779E+04  0.54323741938E+03 -0.69368210859E+03  0.18540847601E+04  0.10100000352E+00 0. -1.
       -3    1    3    3    0  502 -0.16313578779E+04 -0.54323741938E+03  0.57848226404E+03  0.18141326191E+04  0.10100000352E+00 0.  1.
</event>
<event>
 5   0  0.7074157E-07  0.3593955E+04  0.7818609E-02  0.8091878E-01
        2   -1    0    0  501    0  0.00000000000E+00  0.00000000000E+00  0.21682285595E+04  0.21682285595E+04  0.25500000920E-02 0.  1.
       -2   -1    0    0    0  501  0.00000000000E+00  0.00000000000E+00 -0.14892934793E+04  0.14892934793E+04  0.25500000920E-02 0. -1.
    10030    2    1    2    0    0  0.00000000000E+00  0.00000000000E+00  0.67893508014E+03  0.36575220388E+04  0.35939552893E+04 0.  0.
        3    1    3    3  502    0 -0.19787437051E+03 -0.16452525760E+04  0.10468284298E+04  0.19600663450E+04  0.10100000352E+00 0.  1.
       -3    1    3    3    0  502  0.19787437051E+03  0.16452525760E+04 -0.36789334964E+03  0.16974556938E+04  0.10100000352E+00 0. -1.
</event>
<event>
 5   0  0.7124627E-07  0.3669705E+04  0.7818609E-02  0.8074709E-01
        2   -1    0    0  501    0  0.00000000000E+00  0.00000000000E+00  0.21393150708E+04  0.21393150708E+04  0.25500000920E-02 0. -1.
       -2   -1    0    0    0  501  0.00000000000E+00  0.00000000000E+00 -0.15737205646E+04  0.15737205646E+04  0.25500000920E-02 0.  1.
    10030    2    1    2    0    0  0.00000000000E+00  0.00000000000E+00  0.56559450627E+03  0.37130356354E+04  0.36697052312E+04 0.  0.
        2    1    3    3  502    0  0.16309258238E+04 -0.82493323001E+03  0.44672958280E+03  0.18814890903E+04  0.25500000920E-02 0. -1.
       -2    1    3    3    0  502 -0.16309258238E+04  0.82493323001E+03  0.11886492347E+03  0.18315465451E+04  0.25500000920E-02 0.  1.
</event>
<event>
 5   0  0.6939921E-07  0.3676799E+04  0.7818609E-02  0.8073123E-01
       -2   -1    0    0    0  501  0.00000000000E+00  0.00000000000E+00  0.13253092276E+04  0.13253092276E+04  0.25500000920E-02 0.  1.
        2   -1    0    0  501    0  0.00000000000E+00  0.00000000000E+00 -0.25501310813E+04  0.25501310813E+04  0.25500000920E-02 0. -1.
    10030    2    1    2    0    0  0.00000000000E+00  0.00000000000E+00 -0.12248218537E+04  0.38754403089E+04  0.36767987455E+04 0.  0.
        4    1    3    3  502    0 -0.28433088111E+03  0.70647993309E+03  0.11512334944E+04  0.13803253665E+04  0.12699999809E+01 0.  1.
       -4    1    3    3    0  502  0.28433088111E+03 -0.70647993309E+03 -0.23760553481E+04  0.24951149425E+04  0.12699999809E+01 0. -1.
</event>
<event>
 5   0  0.7074157E-07  0.3617369E+04  0.7818609E-02  0.8086525E-01
        2   -1    0    0  501    0  0.00000000000E+00  0.00000000000E+00  0.21745316334E+04  0.21745316334E+04  0.25500000920E-02 0. -1.
       -2   -1    0    0    0  501  0.00000000000E+00  0.00000000000E+00 -0.15043878322E+04  0.15043878322E+04  0.25500000920E-02 0.  1.
    10030    2    1    2    0    0  0.00000000000E+00  0.00000000000E+00  0.67014380122E+03  0.36789194657E+04  0.36173686183E+04 0.  0.
        3    1    3    3  502    0 -0.12587311888E+04 -0.97822573152E+03 -0.53387184341E+03  0.16811748698E+04  0.10100000352E+00 0.  1.
       -3    1    3    3    0  502  0.12587311888E+04  0.97822573152E+03  0.12040156446E+04  0.19977445959E+04  0.10100000352E+00 0. -1.
</event>
<event>
 5   0  0.2411746E-07  0.3739927E+04  0.7818609E-02  0.8059171E-01
       -1   -1    0    0    0  501  0.00000000000E+00  0.00000000000E+00  0.20637582729E+04  0.20637582729E+04  0.50400001928E-02 0.  1.
        1   -1    0    0  501    0  0.00000000000E+00  0.00000000000E+00 -0.16943663481E+04  0.16943663481E+04  0.50400001928E-02 0. -1.
    10030    2    1    2    0    0  0.00000000000E+00  0.00000000000E+00  0.36939192482E+03  0.37581246210E+04  0.37399265063E+04 0.  0.
        1    1    3    3  502    0  0.12472780368E+04  0.13887875962E+04  0.29627264304E+03  0.18900293563E+04  0.50400001928E-02 0.  1.
       -1    1    3    3    0  502 -0.12472780368E+04 -0.13887875962E+04  0.73119281784E+02  0.18680952647E+04  0.50400001928E-02 0. -1.
</event>
<event>
 5   0  0.2287500E-07  0.3790795E+04  0.7818609E-02  0.8048133E-01
        3   -1    0    0  501    0  0.00000000000E+00  0.00000000000E+00  0.19022757005E+04  0.19022757032E+04  0.10100000352E+00 0. -1.
       -3   -1    0    0    0  501  0.00000000000E+00  0.00000000000E+00 -0.18885445951E+04  0.18885445978E+04  0.10100000352E+00 0.  1.
    10030    2    1    2    0    0  0.00000000000E+00  0.00000000000E+00  0.13731105415E+02  0.37908203010E+04  0.37907954326E+04 0.  0.
        3    1    3    3  502    0  0.15289899962E+04 -0.54643637539E+03  0.98469064779E+03  0.18989520276E+04  0.10100000352E+00 0. -1.
       -3    1    3    3    0  502 -0.15289899962E+04  0.54643637539E+03 -0.97095954238E+03  0.18918682735E+04  0.10100000352E+00 0.  1.
</event>
<event>
 5   0  0.6939921E-07  0.3748460E+04  0.7818609E-02  0.8057307E-01
       -2   -1    0    0    0  501  0.00000000000E+00  0.00000000000E+00  0.18520202560E+04  0.18520202560E+04  0.25500000920E-02 0. -1.
        2   -1    0    0  501    0  0.00000000000E+00  0.00000000000E+00 -0.18967059266E+04  0.18967059266E+04  0.25500000920E-02 0.  1.
    10030    2    1    2    0    0  0.00000000000E+00  0.00000000000E+00 -0.44685670532E+02  0.37487261826E+04  0.37484598415E+04 0.  0.
        4    1    3    3  502    0  0.29738783531E+03  0.10633807901E+04 -0.15368869548E+04  0.18924168024E+04  0.12699999809E+01 0.  1.
       -4    1    3    3    0  502 -0.29738783531E+03 -0.10633807901E+04  0.14922012843E+04  0.18563093802E+04  0.12699999809E+01 0. -1.
</event>
<event>
 5   0  0.7124627E-07  0.3714512E+04  0.7818609E-02  0.8064753E-01
        2   -1    0    0  501    0  0.00000000000E+00  0.00000000000E+00  0.12608134593E+04  0.12608134593E+04  0.25500000920E-02 0.  1.
       -2   -1    0    0    0  501  0.00000000000E+00  0.00000000000E+00 -0.27358528795E+04  0.27358528795E+04  0.25500000920E-02 0. -1.
    10030    2    1    2    0    0  0.00000000000E+00  0.00000000000E+00 -0.14750394202E+04  0.39966663388E+04  0.37145121526E+04 0.  0.
        2    1    3    3  502    0  0.51274614092E+03  0.68832562911E+03  0.10346158542E+04  0.13442956306E+04  0.25500000920E-02 0.  1.
       -2    1    3    3    0  502 -0.51274614092E+03 -0.68832562911E+03 -0.25096552745E+04  0.26523707081E+04  0.25500000920E-02 0. -1.
</event>
<event>
 5   0  0.2287500E-07  0.3791731E+04  0.7818609E-02  0.8047932E-01
       -1   -1    0    0    0  501  0.00000000000E+00  0.00000000000E+00  0.20438511457E+04  0.20438511457E+04  0.50400001928E-02 0. -1.
        1   -1    0    0  501    0  0.00000000000E+00  0.00000000000E+00 -0.17585943778E+04  0.17585943778E+04  0.50400001928E-02 0.  1.
    10030    2    1    2    0    0  0.00000000000E+00  0.00000000000E+00  0.28525676786E+03  0.38024455235E+04  0.37917305463E+04 0.  0.
        2    1    3    3  502    0  0.36560022805E+02 -0.13002935950E+04  0.15257303555E+04  0.20049820913E+04  0.25500000920E-02 0. -1.
       -2    1    3    3    0  502 -0.36560022805E+02  0.13002935950E+04 -0.12404735877E+04  0.17974634322E+04  0.25500000920E-02 0.  1.
</event>
<event>
 5   0  0.6949625E-07  0.3532544E+04  0.7818609E-02  0.8106120E-01
        2   -1    0    0  501    0  0.00000000000E+00  0.00000000000E+00  0.19632472065E+04  0.19632472065E+04  0.25500000920E-02 0. -1.
       -2   -1    0    0    0  501  0.00000000000E+00  0.00000000000E+00 -0.15890599517E+04  0.15890599517E+04  0.25500000920E-02 0.  1.
    10030    2    1    2    0    0  0.00000000000E+00  0.00000000000E+00  0.37418725480E+03  0.35523071581E+04  0.35325444150E+04 0.  0.
        5    1    3    3  502    0  0.67338758202E+03  0.36962171758E+03 -0.14122835643E+04  0.16076809403E+04  0.46999998093E+01 0.  1.
       -5    1    3    3    0  502 -0.67338758202E+03 -0.36962171758E+03  0.17864708191E+04  0.19446262179E+04  0.46999998093E+01 0. -1.
</event>
<event>
 5   0  0.7300916E-07  0.3672944E+04  0.7818609E-02  0.8073984E-01
        2   -1    0    0  501    0  0.00000000000E+00  0.00000000000E+00  0.16758163197E+04  0.16758163197E+04  0.25500000920E-02 0.  1.
       -2   -1    0    0    0  501  0.00000000000E+00  0.00000000000E+00 -0.20125297067E+04  0.20125297067E+04  0.25500000920E-02 0. -1.
    10030    2    1    2    0    0  0.00000000000E+00  0.00000000000E+00 -0.33671338700E+03  0.36883460263E+04  0.36729443918E+04 0.  0.
        1    1    3    3  502    0  0.12039508344E+04  0.56058397430E+03  0.11053777064E+04  0.17278923224E+04  0.50400001928E-02 0.  1.
       -1    1    3    3    0  502 -0.12039508344E+04 -0.56058397430E+03 -0.14420910934E+04  0.19604537040E+04  0.50400001928E-02 0. -1.
</event>
<event>
 5   0  0.2411746E-07  0.3382845E+04  0.7818609E-02  0.8142129E-01
        1   -1    0    0  501    0  0.00000000000E+00  0.00000000000E+00  0.21327513940E+04  0.21327513940E+04  0.50400001928E-02 0. -1.
       -1   -1    0    0    0  501  0.00000000000E+00  0.00000000000E+00 -0.13414178671E+04  0.13414178671E+04  0.50400001928E-02 0.  1.
    10030    2    1    2    0    0  0.00000000000E+00  0.00000000000E+00  0.79133352686E+03  0.34741692611E+04  0.33828454449E+04 0.  0.
        1    1    3    3  502    0 -0.20381673625E+03 -0.15970067939E+04  0.92825994278E+03  0.18583967508E+04  0.50400001928E-02 0. -1.
       -1    1    3    3    0  502  0.20381673625E+03  0.15970067939E+04 -0.13692641591E+03  0.16157725104E+04  0.50400001928E-02 0.  1.
</event>
<event>
 5   0  0.2345471E-07  0.3865902E+04  0.7818609E-02  0.8032159E-01
        1   -1    0    0  501    0  0.00000000000E+00  0.00000000000E+00  0.18259583677E+04  0.18259583677E+04  0.50400001928E-02 0. -1.
       -1   -1    0    0    0  501  0.00000000000E+00  0.00000000000E+00 -0.20462128023E+04  0.20462128023E+04  0.50400001928E-02 0.  1.
    10030    2    1    2    0    0  0.00000000000E+00  0.00000000000E+00 -0.22025443460E+03  0.38721711700E+04  0.38659019069E+04 0.  0.
        5    1    3    3  502    0  0.92834853395E+02  0.93301140600E+03 -0.18031786020E+04  0.20323886819E+04  0.46999998093E+01 0.  1.
       -5    1    3    3    0  502 -0.92834853395E+02 -0.93301140600E+03  0.15829241674E+04  0.18397824881E+04  0.46999998093E+01 0. -1.
</event>
<event>
 5   0  0.2411746E-07  0.3760644E+04  0.7818609E-02  0.8054654E-01
       -1   -1    0    0    0  501  0.00000000000E+00  0.00000000000E+00  0.19370651470E+04  0.19370651470E+04  0.50400001928E-02 0. -1.
        1   -1    0    0  501    0  0.00000000000E+00  0.00000000000E+00 -0.18252410009E+04  0.18252410009E+04  0.50400001928E-02 0.  1.
    10030    2    1    2    0    0  0.00000000000E+00  0.00000000000E+00  0.11182414605E+03  0.37623061479E+04  0.37606439490E+04 0.  0.
        1    1    3    3  502    0 -0.10441752025E+04  0.11304816746E+04  0.11368154882E+04  0.19132799389E+04  0.50400001928E-02 0. -1.
       -1    1    3    3    0  502  0.10441752025E+04 -0.11304816746E+04 -0.10249913422E+04  0.18490262090E+04  0.50400001928E-02 0.  1.
</event>
<event>
 5   0  0.2287500E-07  0.3694235E+04  0.7818609E-02  0.8069241E-01
        1   -1    0    0  501    0  0.00000000000E+00  0.00000000000E+00  0.11518851686E+04  0.11518851686E+04  0.50400001928E-02 0. -1.
       -1   -1    0    0    0  501  0.00000000000E+00  0.00000000000E+00 -0.29619648251E+04  0.29619648252E+04  0.50400001928E-02 0.  1.
    10030    2    1    2    0    0  0.00000000000E+00  0.00000000000E+00 -0.18100796565E+04  0.41138499938E+04  0.36942351588E+04 0.  0.
        3    1    3    3  502    0 -0.14789028479E+04 -0.74630972260E+03  0.49118797892E+01  0.16565494174E+04  0.10100000352E+00 0. -1.
       -3    1    3    3    0  502  0.14789028479E+04  0.74630972260E+03 -0.18149915363E+04  0.24573005764E+04  0.10100000352E+00 0.  1.
</event>
<event>
 5   0  0.7300916E-07  0.3756389E+04  0.7818609E-02  0.8055579E-01
       -2   -1    0    0    0  501  0.00000000000E+00  0.00000000000E+00  0.18833745384E+04  0.18833745384E+04  0.25500000920E-02 0. -1.
        2   -1    0    0  501    0  0.00000000000E+00  0.00000000000E+00 -0.18730290625E+04  0.18730290625E+04  0.25500000920E-02 0.  1.
    10030    2    1    2    0    0  0.00000000000E+00  0.00000000000E+00  0.10345475913E+02  0.37564036009E+04  0.37563893547E+04 0.  0.
        1    1    3    3  502    0  0.12899215876E+04 -0.99336071310E+03 -0.93128798695E+03  0.18756227028E+04  0.50400001928E-02 0.  1.
       -1    1    3    3    0  502 -0.12899215876E+04  0.99336071310E+03  0.94163346287E+03  0.18807808982E+04  0.50400001928E-02 0. -1.
</event>
<event>
 5   0  0.7300916E-07  0.3559649E+04  0.7818609E-02  0.8099798E-01
       -2   -1    0    0    0  501  0.00000000000E+00  0.00000000000E+00  0.20419148953E+04  0.20419148953E+04  0.25500000920E-02 0. -1.
        2   -1    0    0  501    0  0.00000000000E+00  0.00000000000E+00 -0.15513745038E+04  0.15513745038E+04  0.25500000920E-02 0.  1.
    10030    2    1    2    0    0  0.00000000000E+00  0.00000000000E+00  0.49054039155E+03  0.35932893991E+04  0.35596486948E+04 0.  0.
        1    1    3    3  502    0 -0.11631946539E+03 -0.85674004694E+03 -0.13251445418E+04  0.15822584438E+04  0.50400001928E-02 0.  1.
       -1    1    3    3    0  502  0.11631946539E+03  0.85674004694E+03  0.18156849334E+04  0.20110309554E+04  0.50400001928E-02 0. -1.
</event>
<event>
 5   0  0.2287500E-07  0.3692876E+04  0.7818609E-02  0.8069542E-01
        3   -1    0    0  501    0  0.00000000000E+00  0.00000000000E+00  0.17163396086E+04  0.17163396116E+04  0.10100000352E+00 0.  1.
       -3   -1    0    0    0  501  0.00000000000E+00  0.00000000000E+00 -0.19863978250E+04  0.19863978276E+04  0.10100000352E+00 0. -1.
    10030    2    1    2    0    0  0.00000000000E+00  0.00000000000E+00 -0.27005821640E+03  0.37027374392E+04  0.36928759935E+04 0.  0.
        5    1    3    3  502    0 -0.10844534508E+04  0.94027286406E+03  0.10296056160E+04  0.17664263813E+04  0.46999998093E+01 0.  1.
       -5    1    3    3    0  502  0.10844534508E+04 -0.94027286406E+03 -0.12996638324E+04  0.19363110580E+04  0.46999998093E+01 0. -1.
</event>
<event>
 5   0  0.6939921E-07  0.3346748E+04  0.7818609E-02  0.8151101E-01
       -2   -1    0    0    0  501  0.00000000000E+00  0.00000000000E+00  0.14796732867E+04  0.14796732867E+04  0.25500000920E-02 0. -1.
        2   -1    0    0  501    0  0.00000000000E+00  0.00000000000E+00 -0.18924319396E+04  0.18924319396E+04  0.25500000920E-02 0.  1.
    10030    2    1    2    0    0  0.00000000000E+00  0.00000000000E+00 -0.41275865293E+03  0.33721052263E+04  0.33467482653E+04 0.  0.
        4    1    3    3  502    0 -0.26755707737E+03  0.10489241792E+03 -0.18673809329E+04  0.18893656000E+04  0.12699999809E+01 0.  1.
       -4    1    3    3    0  502  0.26755707737E+03 -0.10489241792E+03  0.14546222800E+04  0.14827396263E+04  0.12699999809E+01 0. -1.
</event>
<event>
 5   0  0.2287500E-07  0.3791134E+04  0.7818609E-02  0.8048060E-01
       -1   -1    0    0    0  501  0.00000000000E+00  0.00000000000E+00  0.22325071465E+04  0.22325071465E+04  0.50400001928E-02 0. -1.
        1   -1    0    0  501    0  0.00000000000E+00  0.00000000000E+00 -0.16094790381E+04  0.16094790381E+04  0.50400001928E-02 0.  1.
    10030    2    1    2    0    0  0.00000000000E+00  0.00000000000E+00  0.62302810838E+03  0.38419861846E+04  0.37911335797E+04 0.  0.
        2    1    3    3  502    0 -0.43622244786E+03  0.73601643981E+03  0.20257003924E+04  0.21989707373E+04  0.25500000920E-02 0. -1.
       -2    1    3    3    0  502  0.43622244786E+03 -0.73601643981E+03 -0.14026722840E+04  0.16430154473E+04  0.25500000920E-02 0.  1.
</event>
<event>
 5   0  0.6949625E-07  0.3723089E+04  0.7818609E-02  0.8062864E-01
       -2   -1    0    0    0  501  0.00000000000E+00  0.00000000000E+00  0.17057125429E+04  0.17057125429E+04  0.25500000920E-02 0.  1.
        2   -1    0    0  501    0  0.00000000000E+00  0.00000000000E+00 -0.20316127326E+04  0.20316127326E+04  0.25500000920E-02 0. -1.
    10030    2    1    2    0    0  0.00000000000E+00  0.00000000000E+00 -0.32590018969E+03  0.37373252755E+04  0.37230886749E+04 0.  0.
        5    1    3    3  502    0  0.17312961047E+04  0.22114515639E+03  0.48685344121E+03  0.18119988260E+04  0.46999998093E+01 0.  1.
       -5    1    3    3    0  502 -0.17312961047E+04 -0.22114515639E+03 -0.81275363089E+03  0.19253264494E+04  0.46999998093E+01 0. -1.
</event>
<event>
 5   0  0.6949625E-07  0.3659101E+04  0.7818609E-02  0.8077086E-01
        2   -1    0    0  501    0  0.00000000000E+00  0.00000000000E+00  0.20258389870E+04  0.20258389870E+04  0.25500000920E-02 0. -1.
       -2   -1    0    0    0  501  0.00000000000E+00  0.00000000000E+00 -0.16522811165E+04  0.16522811165E+04  0.25500000920E-02 0.  1.
    10030    2    1    2    0    0  0.00000000000E+00  0.00000000000E+00  0.37355787051E+03  0.36781201035E+04  0.36591012576E+04 0.  0.
        5    1    3    3  502    0  0.18222611507E+04  0.58931080033E+02  0.33963787600E+03  0.18545847380E+04  0.46999998093E+01 0.  1.
       -5    1    3    3    0  502 -0.18222611507E+04 -0.58931080033E+02  0.33919994518E+02  0.18235353656E+04  0.46999998093E+01 0. -1.
</event>
<event>
 5   0  0.7074157E-07  0.4109872E+04  0.7818609E-02  0.7982741E-01
        2   -1    0    0  501    0  0.00000000000E+00  0.00000000000E+00  0.13865884835E+04  0.13865884835E+04  0.25500000920E-02 0. -1.
       -2   -1    0    0    0  501  0.00000000000E+00  0.00000000000E+00 -0.30454325136E+04  0.30454325136E+04  0.25500000920E-02 0.  1.
    10030    2    1    2    0    0  0.00000000000E+00  0.00000000000E+00 -0.16588440301E+04  0.44320209970E+04  0.41098718474E+04 0.  0.
        3    1    3    3  502    0  0.32853875657E+03 -0.51622708129E+03 -0.29449066791E+04  0.30078070870E+04  0.10100000352E+00 0.  1.
       -3    1    3    3    0  502 -0.32853875657E+03  0.51622708129E+03  0.12860626490E+04  0.14242139100E+04  0.10100000352E+00 0. -1.
</event>
<event>
 5   0  0.6949625E-07  0.3699766E+04  0.7818609E-02  0.8068014E-01
        2   -1    0    0  501    0  0.00000000000E+00  0.00000000000E+00  0.18661825930E+04  0.18661825930E+04  0.25500000920E-02 0.  1.
       -2   -1    0    0    0  501  0.00000000000E+00  0.00000000000E+00 -0.18337261936E+04  0.18337261936E+04  0.25500000920E-02 0. -1.
    10030    2    1    2    0    0  0.00000000000E+00  0.00000000000E+00  0.32456399420E+02  0.36999087866E+04  0.36997664266E+04 0.  0.
        5    1    3    3  502    0  0.77888270492E+03 -0.14906398163E+04 -0.75411337909E+03  0.18431967905E+04  0.46999998093E+01 0. -1.
       -5    1    3    3    0  502 -0.77888270492E+03  0.14906398163E+04  0.78656977851E+03  0.18567119961E+04  0.46999998093E+01 0.  1.
</event>
<event>
 5   0  0.7124627E-07  0.3619789E+04  0.7818609E-02  0.8085974E-01
       -2   -1    0    0    0  501  0.00000000000E+00  0.00000000000E+00  0.11393606439E+04  0.11393606439E+04  0.25500000920E-02 0. -1.
        2   -1    0    0  501    0  0.00000000000E+00  0.00000000000E+00 -0.28750492631E+04  0.28750492631E+04  0.25500000920E-02 0.  1.
    10030    2    1    2    0    0  0.00000000000E+00  0.00000000000E+00 -0.17356886193E+04  0.40144099070E+04  0.36197889328E+04 0.  0.
        2    1    3    3  502    0 -0.48569750916E+03  0.85261821259E+03  0.81875905126E+03  0.12779774141E+04  0.25500000920E-02 0. -1.
       -2    1    3    3    0  502  0.48569750916E+03 -0.85261821259E+03 -0.25544476705E+04  0.27364324929E+04  0.25500000920E-02 0.  1.
</event>
<event>
 5   0  0.6949625E-07  0.3604005E+04  0.7818609E-02  0.8089575E-01
        2   -1    0    0  501    0  0.00000000000E+00  0.00000000000E+00  0.12485815601E+04  0.12485815601E+04  0.25500000920E-02 0. -1.
       -2   -1    0    0    0  501  0.00000000000E+00  0.00000000000E+00 -0.26007217459E+04  0.26007217459E+04  0.25500000920E-02 0.  1.
    10030    2    1    2    0    0  0.00000000000E+00  0.00000000000E+00 -0.13521401858E+04  0.38493033060E+04  0.36040051137E+04 0.  0.
        5    1    3    3  502    0  0.37783421854E+03  0.10235123019E+04 -0.22078577726E+04  0.24627208861E+04  0.46999998093E+01 0.  1.
       -5    1    3    3    0  502 -0.37783421854E+03 -0.10235123019E+04  0.85571758678E+03  0.13865824199E+04  0.46999998093E+01 0. -1.
</event>
<event>
 5   0  0.7124627E-07  0.3737489E+04  0.7818609E-02  0.8059704E-01
        2   -1    0    0  501    0  0.00000000000E+00  0.00000000000E+00  0.21274471722E+04  0.21274471722E+04  0.25500000920E-02 0. -1.
       -2   -1    0    0    0  501  0.00000000000E+00  0.00000000000E+00 -0.16415008743E+04  0.16415008743E+04  0.25500000920E-02 0.  1.
    10030    2    1    2    0    0  0.00000000000E+00  0.00000000000E+00  0.48594629795E+03  0.37689480465E+04  0.37374892070E+04 0.  0.
        2    1    3    3  502    0 -0.13131970788E+04  0.11932242390E+04 -0.34842349829E+03  0.18082227701E+04  0.25500000920E-02 0. -1.
       -2    1    3    3    0  502  0.13131970788E+04 -0.11932242390E+04  0.83436979624E+03  0.19607252763E+04  0.25500000920E-02 0.  1.
</event>
<event>
 5   0  0.6939921E-07  0.3690954E+04  0.7818609E-02  0.8069970E-01
        2   -1    0    0  501    0  0.00000000000E+00  0.00000000000E+00  0.25791330993E+04  0.25791330993E+04  0.25500000920E-02 0. -1.
       -2   -1    0    0    0  501  0.00000000000E+00  0.00000000000E+00 -0.13205153079E+04  0.13205153079E+04  0.25500000920E-02 0.  1.
    10030    2    1    2    0    0  0.00000000000E+00  0.00000000000E+00  0.12586177914E+04  0.38996484073E+04  0.36909536648E+04 0.  0.
        4    1    3    3  502    0 -0.74371738348E+03 -0.16785471133E+04  0.82738497302E+03  0.20137535760E+04  0.12699999809E+01 0. -1.
       -4    1    3    3    0  502  0.74371738348E+03  0.16785471133E+04  0.43123281835E+03  0.18858948313E+04  0.12699999809E+01 0.  1.
</event>
<event>
 5   0  0.7300916E-07  0.3641694E+04  0.7818609E-02  0.8081008E-01
       -2   -1    0    0    0  501  0.00000000000E+00  0.00000000000E+00  0.14753819659E+04  0.14753819659E+04  0.25500000920E-02 0.  1.
        2   -1    0    0  501    0  0.00000000000E+00  0.00000000000E+00 -0.22472031079E+04  0.22472031080E+04  0.25500000920E-02 0. -1.
    10030    2    1    2    0    0  0.00000000000E+00  0.00000000000E+00 -0.77182114203E+03  0.37225850739E+04  0.36416935287E+04 0.  0.
        1    1    3    3  502    0  0.16469504893E+04  0.22736918821E+03  0.37310572001E+03  0.17039221051E+04  0.50400001928E-02 0.  1.
       -1    1    3    3    0  502 -0.16469504893E+04 -0.22736918821E+03 -0.11449268620E+04  0.20186629688E+04  0.50400001928E-02 0. -1.
</event>
<event>
 5   0  0.2411746E-07  0.3769020E+04  0.7818609E-02  0.8052836E-01
       -1   -1    0    0    0  501  0.00000000000E+00  0.00000000000E+00  0.16793784346E+04  0.16793784346E+04  0.50400001928E-02 0.  1.
        1   -1    0    0  501    0  0.00000000000E+00  0.00000000000E+00 -0.21146979370E+04  0.21146979370E+04  0.50400001928E-02 0. -1.
    10030    2    1    2    0    0  0.00000000000E+00  0.00000000000E+00 -0.43531950242E+03  0.37940763716E+04  0.37690200907E+04 0.  0.
        1    1    3    3  502    0 -0.71653259106E+03 -0.73214947232E+03 -0.18099198244E+04  0.20797287262E+04  0.50400001928E-02 0. -1.
       -1    1    3    3    0  502  0.71653259106E+03  0.73214947232E+03  0.13746003220E+04  0.17143476453E+04  0.50400001928E-02 0.  1.
</event>
<event>
 5   0  0.2345471E-07  0.3745364E+04  0.7818609E-02  0.8057982E-01
        1   -1    0    0  501    0  0.00000000000E+00  0.00000000000E+00  0.26079031670E+04  0.26079031670E+04  0.50400001928E-02 0. -1.
       -1   -1    0    0    0  501  0.00000000000E+00  0.00000000000E+00 -0.13447345749E+04  0.13447345749E+04  0.50400001928E-02 0.  1.
    10030    2    1    2    0    0  0.00000000000E+00  0.00000000000E+00  0.12631685921E+04  0.39526377420E+04  0.37453638311E+04 0.  0.
        5    1    3    3  502    0 -0.17571959373E+03  0.93664870298E+02  0.25966927219E+04  0.26043205766E+04  0.46999998093E+01 0. -1.
       -5    1    3    3    0  502  0.17571959373E+03 -0.93664870298E+02 -0.13335241298E+04  0.13483171654E+04  0.46999998093E+01 0.  1.
</event>
<event>
 5   0  0.2287500E-07  0.3760333E+04  0.7818609E-02  0.8054721E-01
       -1   -1    0    0    0  501  0.00000000000E+00  0.00000000000E+00  0.18142165925E+04  0.18142165925E+04  0.50400001928E-02 0. -1.
        1   -1    0    0  501    0  0.00000000000E+00  0.00000000000E+00 -0.19485138994E+04  0.19485138994E+04  0.50400001928E-02 0.  1.
    10030    2    1    2    0    0  0.00000000000E+00  0.00000000000E+00 -0.13429730685E+03  0.37627304919E+04  0.37603330953E+04 0.  0.
        2    1    3    3  502    0 -0.54744804555E+03 -0.10170721616E+04  0.14173372336E+04  0.18283817923E+04  0.25500000920E-02 0. -1.
       -2    1    3    3    0  502  0.54744804555E+03  0.10170721616E+04 -0.15516345404E+04  0.19343486996E+04  0.25500000920E-02 0.  1.
</event>
<event>
 5   0  0.2345471E-07  0.3486487E+04  0.7818609E-02  0.8117000E-01
       -1   -1    0    0    0  501  0.00000000000E+00  0.00000000000E+00  0.11801316918E+04  0.11801316918E+04  0.50400001928E-02 0. -1.
        1   -1    0    0  501    0  0.00000000000E+00  0.00000000000E+00 -0.25750498113E+04  0.25750498113E+04  0.50400001928E-02 0.  1.
    10030    2    1    2    0    0  0.00000000000E+00  0.00000000000E+00 -0.13949181194E+04  0.37551815031E+04  0.34864869943E+04 0.  0.
        5    1    3    3  502    0 -0.12089329387E+04  0.75935874281E+03 -0.17749201965E+04  0.22778297444E+04  0.46999998093E+01 0.  1.
       -5    1    3    3    0  502  0.12089329387E+04 -0.75935874281E+03  0.38000207703E+03  0.14773517587E+04  0.46999998093E+01 0. -1.
</event>
<event>
 5   0  0.7300916E-07  0.3703884E+04  0.7818609E-02  0.8067102E-01
        2   -1    0    0  501    0  0.00000000000E+00  0.00000000000E+00  0.11238736617E+04  0.11238736617E+04  0.25500000920E-02 0.  1.
       -2   -1    0    0    0  501  0.00000000000E+00  0.00000000000E+00 -0.30516675921E+04  0.30516675921E+04  0.25500000920E-02 0. -1.
    10030    2    1    2    0    0  0.00000000000E+00  0.00000000000E+00 -0.19277939304E+04  0.41755412538E+04  0.37038838162E+04 0.  0.
        1    1    3    3  502    0 -0.48175776485E+03 -0.66472218234E+03  0.90753807565E+03  0.12237530317E+04  0.50400001928E-02 0.  1.
       -1    1    3    3    0  502  0.48175776485E+03  0.66472218234E+03 -0.28353320061E+04  0.29517882222E+04  0.50400001928E-02 0. -1.
</event>
<event>
 5   0  0.6939921E-07  0.3734966E+04  0.7818609E-02  0.8060257E-01
       -2   -1    0    0    0  501  0.00000000000E+00  0.00000000000E+00  0.16717132229E+04  0.16717132229E+04  0.25500000920E-02 0. -1.
        2   -1    0    0  501    0  0.00000000000E+00  0.00000000000E+00 -0.20861789891E+04  0.20861789891E+04  0.25500000920E-02 0.  1.
    10030    2    1    2    0    0  0.00000000000E+00  0.00000000000E+00 -0.41446576622E+03  0.37578922120E+04  0.37349661318E+04 0.  0.
        4    1    3    3  502    0  0.15038067131E+03 -0.52987173083E+03  0.15881285278E+04  0.16809319531E+04  0.12699999809E+01 0. -1.
       -4    1    3    3    0  502 -0.15038067131E+03  0.52987173083E+03 -0.20025942940E+04  0.20769602588E+04  0.12699999809E+01 0.  1.
</event>
<event>
 5   0  0.2287500E-07  0.3692966E+04  0.7818609E-02  0.8069522E-01
        1   -1    0    0  501    0  0.00000000000E+00  0.00000000000E+00  0.24040112965E+04  0.24040112965E+04  0.50400001928E-02 0. -1.
       -1   -1    0    0    0  501  0.00000000000E+00  0.00000000000E+00 -0.14182544373E+04  0.14182544374E+04  0.50400001928E-02 0.  1.
    10030    2    1    2    0    0  0.00000000000E+00  0.00000000000E+00  0.98575685919E+03  0.38222657339E+04  0.36929661189E+04 0.  0.
        4    1    3    3  502    0 -0.16682248311E+04  0.77916679886E+03  0.63712473380E+03  0.19483337822E+04  0.12699999809E+01 0. -1.
       -4    1    3    3    0  502  0.16682248311E+04 -0.77916679886E+03  0.34863212539E+03  0.18739319517E+04  0.12699999809E+01 0.  1.
</event>
<event>
 5   0  0.2287500E-07  0.3673007E+04  0.7818609E-02  0.8073970E-01
       -1   -1    0    0    0  501  0.00000000000E+00  0.00000000000E+00  0.21861545903E+04  0.21861545903E+04  0.50400001928E-02 0.  1.
        1   -1    0    0  501    0  0.00000000000E+00  0.00000000000E+00 -0.15427749280E+04  0.15427749280E+04  0.50400001928E-02 0. -1.
    10030    2    1    2    0    0  0.00000000000E+00  0.00000000000E+00  0.64337966234E+03  0.37289295183E+04  0.36730066652E+04 0.  0.
        2    1    3    3  502    0  0.11946392185E+04 -0.13278406486E+04  0.75530022521E+03  0.19392787527E+04  0.25500000920E-02 0. -1.
       -2    1    3    3    0  502 -0.11946392185E+04  0.13278406486E+04 -0.11192056287E+03  0.17896507656E+04  0.25500000920E-02 0.  1.
</event>
<event>
 5   0  0.2287500E-07  0.3704092E+04  0.7818609E-02  0.8067056E-01
        1   -1    0    0  501    0  0.00000000000E+00  0.00000000000E+00  0.98372940998E+03  0.98372940999E+03  0.50400001928E-02 0.  1.
       -1   -1    0    0    0  501  0.00000000000E+00  0.00000000000E+00 -0.34868072610E+04  0.34868072610E+04  0.50400001928E-02 0. -1.
    10030    2    1    2    0    0  0.00000000000E+00  0.00000000000E+00 -0.25030778511E+04  0.44705366710E+04  0.37040922503E+04 0.  0.
        2    1    3    3  502    0 -0.11827399513E+04  0.12154774279E+04 -0.21497129502E+04  0.27381608679E+04  0.25500000920E-02 0.  1.
       -2    1    3    3    0  502  0.11827399513E+04 -0.12154774279E+04 -0.35336490089E+03  0.17323758032E+04  0.25500000920E-02 0. -1.
</event>
<event>
 5   0  0.7124627E-07  0.3714025E+04  0.7818609E-02  0.8064861E-01
       -2   -1    0    0    0  501  0.00000000000E+00  0.00000000000E+00  0.35096120718E+04  0.35096120718E+04  0.25500000920E-02 0. -1.
        2   -1    0    0  501    0  0.00000000000E+00  0.00000000000E+00 -0.98258599663E+03  0.98258599663E+03  0.25500000920E-02 0.  1.
    10030    2    1    2    0    0  0.00000000000E+00  0.00000000000E+00  0.25270260752E+04  0.44921980685E+04  0.37140251347E+04 0.  0.
        2    1    3    3  502    0 -0.10172339144E+04  0.34275965060E+03 -0.56932178326E+03  0.12150622649E+04  0.25500000920E-02 0.  1.
       -2    1    3    3    0  502  0.10172339144E+04 -0.34275965060E+03  0.30963478585E+04  0.32771358036E+04  0.25500000920E-02 0. -1.
</event>
<event>
 5   0  0.2411746E-07  0.3680716E+04  0.7818609E-02  0.8072249E-01
       -1   -1    0    0    0  501  0.00000000000E+00  0.00000000000E+00  0.15269207290E+04  0.15269207290E+04  0.50400001928E-02 0.  1.
        1   -1    0    0  501    0  0.00000000000E+00  0.00000000000E+00 -0.22181353693E+04  0.22181353693E+04  0.50400001928E-02 0. -1.
    10030    2    1    2    0    0  0.00000000000E+00  0.00000000000E+00 -0.69121464025E+03  0.37450560983E+04  0.36807156235E+04 0.  0.
        1    1    3    3  502    0  0.33890722132E+01 -0.16873027405E+04 -0.10932407283E+04  0.20105166784E+04  0.50400001928E-02 0.  1.
       -1    1    3    3    0  502 -0.33890722132E+01  0.16873027405E+04  0.40202608808E+03  0.17345394200E+04  0.50400001928E-02 0. -1.
</event>
<event>
 5   0  0.2287500E-07  0.3704689E+04  0.7818609E-02  0.8066923E-01
        1   -1    0    0  501    0  0.00000000000E+00  0.00000000000E+00  0.11487305365E+04  0.11487305365E+04  0.50400001928E-02 0. -1.
       -1   -1    0    0    0  501  0.00000000000E+00  0.00000000000E+00 -0.29869327275E+04  0.29869327275E+04  0.50400001928E-02 0.  1.
    10030    2    1    2    0    0  0.00000000000E+00  0.00000000000E+00 -0.18382021910E+04  0.41356632640E+04  0.37046893713E+04 0.  0.
        2    1    3    3  502    0 -0.14596931134E+04 -0.22719939390E+03  0.32842539543E+03  0.15133363110E+04  0.25500000920E-02 0.  1.
       -2    1    3    3    0  502  0.14596931134E+04  0.22719939390E+03 -0.21666275864E+04  0.26223269530E+04  0.25500000920E-02 0. -1.
</event>
<event>
 5   0  0.2287500E-07  0.3724656E+04  0.7818609E-02  0.8062520E-01
       -1   -1    0    0    0  501  0.00000000000E+00  0.00000000000E+00  0.11848142449E+04  0.11848142449E+04  0.50400001928E-02 0.  1.
        1   -1    0    0  501    0  0.00000000000E+00  0.00000000000E+00 -0.29272645947E+04  0.29272645947E+04  0.50400001928E-02 0. -1.
    10030    2    1    2    0    0  0.00000000000E+00  0.00000000000E+00 -0.17424503498E+04  0.41120788396E+04  0.37246555763E+04 0.  0.
        3    1    3    3  502    0  0.16055299574E+04 -0.20921452862E+03  0.14468996836E+03  0.16255560157E+04  0.10100000352E+00 0. -1.
       -3    1    3    3    0  502 -0.16055299574E+04  0.20921452862E+03 -0.18871403181E+04  0.24865228239E+04  0.10100000352E+00 0.  1.
</event>
<event>
 5   0  0.2287500E-07  0.3683391E+04  0.7818609E-02  0.8071653E-01
       -1   -1    0    0    0  501  0.00000000000E+00  0.00000000000E+00  0.11729984003E+04  0.11729984003E+04  0.50400001928E-02 0.  1.
        1   -1    0    0  501    0  0.00000000000E+00  0.00000000000E+00 -0.28916000250E+04  0.28916000251E+04  0.50400001928E-02 0. -1.
    10030    2    1    2    0    0  0.00000000000E+00  0.00000000000E+00 -0.17186016247E+04  0.40645984254E+04  0.36833909397E+04 0.  0.
        4    1    3    3  502    0  0.13933875606E+04  0.36807997058E+03  0.40603103351E+03  0.14972890743E+04  0.12699999809E+01 0.  1.
       -4    1    3    3    0  502 -0.13933875606E+04 -0.36807997058E+03 -0.21246326582E+04  0.25673093511E+04  0.12699999809E+01 0. -1.
</event>
<event>
 5   0  0.6939921E-07  0.3727660E+04  0.7818609E-02  0.8061859E-01
        2   -1    0    0  501    0  0.00000000000E+00  0.00000000000E+00  0.23180789332E+04  0.23180789332E+04  0.25500000920E-02 0. -1.
       -2   -1    0    0    0  501  0.00000000000E+00  0.00000000000E+00 -0.14985956041E+04  0.14985956041E+04  0.25500000920E-02 0.  1.
    10030    2    1    2    0    0  0.00000000000E+00  0.00000000000E+00  0.81948332906E+03  0.38166745373E+04  0.37276603382E+04 0.  0.
        4    1    3    3  502    0  0.82487090013E+02 -0.14042431652E+04 -0.84222389676E+03  0.16395260572E+04  0.12699999809E+01 0.  1.
       -4    1    3    3    0  502 -0.82487090013E+02  0.14042431652E+04  0.16617072258E+04  0.21771484801E+04  0.12699999809E+01 0. -1.
</event>
<event>
 5   0  0.7124627E-07  0.3687586E+04  0.7818609E-02  0.8070719E-01
        2   -1    0    0  501    0  0.00000000000E+00  0.00000000000E+00  0.15789406715E+04  0.15789406715E+04  0.25500000920E-02 0. -1.
       -2   -1    0    0    0  501  0.00000000000E+00  0.00000000000E+00 -0.21530713804E+04  0.21530713804E+04  0.25500000920E-02 0.  1.
    10030    2    1    2    0    0  0.00000000000E+00  0.00000000000E+00 -0.57413070887E+03  0.37320120519E+04  0.36875856444E+04 0.  0.
        2    1    3    3  502    0  0.38035850712E+03 -0.17993600305E+04 -0.41980517403E+03  0.18864266478E+04  0.25500000920E-02 0.  1.
       -2    1    3    3    0  502 -0.38035850712E+03  0.17993600305E+04 -0.15432553484E+03  0.18455854041E+04  0.25500000920E-02 0. -1.
</event>
<event>
 5   0  0.6949625E-07  0.3688803E+04  0.7818609E-02  0.8070448E-01
        2   -1    0    0  501    0  0.00000000000E+00  0.00000000000E+00  0.19569559973E+04  0.19569559973E+04  0.25500000920E-02 0. -1.
       -2   -1    0    0    0  501  0.00000000000E+00  0.00000000000E+00 -0.17383205305E+04  0.17383205305E+04  0.25500000920E-02 0.  1.
    10030    2    1    2    0    0  0.00000000000E+00  0.00000000000E+00  0.21863546674E+03  0.36952765278E+04  0.36888029426E+04 0.  0.
        5    1    3    3  502    0 -0.62626651780E+03 -0.54043040074E+02  0.18463342897E+04  0.19504109313E+04  0.46999998093E+01 0. -1.
       -5    1    3    3    0  502  0.62626651780E+03  0.54043040074E+02 -0.16276988230E+04  0.17448655965E+04  0.46999998093E+01 0.  1.
</event>
<event>
 5   0  0.7074157E-07  0.3630080E+04  0.7818609E-02  0.8083636E-01
       -2   -1    0    0    0  501  0.00000000000E+00  0.00000000000E+00  0.25796696844E+04  0.25796696844E+04  0.25500000920E-02 0.  1.
        2   -1    0    0  501    0  0.00000000000E+00  0.00000000000E+00 -0.12770510184E+04  0.12770510184E+04  0.25500000920E-02 0. -1.
    10030    2    1    2    0    0  0.00000000000E+00  0.00000000000E+00  0.13026186660E+04  0.38567207029E+04  0.36300797775E+04 0.  0.
        3    1    3    3  502    0 -0.18073861931E+04 -0.15545823973E+03  0.71467951874E+03  0.19497638165E+04  0.10100000352E+00 0. -1.
       -3    1    3    3    0  502  0.18073861931E+04  0.15545823973E+03  0.58793914726E+03  0.19069568864E+04  0.10100000352E+00 0.  1.
</event>
<event>
 5   0  0.7300916E-07  0.3730768E+04  0.7818609E-02  0.8061177E-01
       -2   -1    0    0    0  501  0.00000000000E+00  0.00000000000E+00  0.30064133781E+04  0.30064133781E+04  0.25500000920E-02 0. -1.
        2   -1    0    0  501    0  0.00000000000E+00  0.00000000000E+00 -0.11574114853E+04  0.11574114853E+04  0.25500000920E-02 0.  1.
    10030    2    1    2    0    0  0.00000000000E+00  0.00000000000E+00  0.18490018928E+04  0.41638248634E+04  0.37307679495E+04 0.  0.
        1    1    3    3  502    0 -0.50395974097E+02  0.88797602474E+02  0.30032924192E+04  0.30050274747E+04  0.50400001928E-02 0. -1.
       -1    1    3    3    0  502  0.50395974097E+02 -0.88797602474E+02 -0.11542905264E+04  0.11587973886E+04  0.50400001928E-02 0.  1.
</event>
<event>
 5   0  0.2287500E-07  0.3698814E+04  0.7818609E-02  0.8068225E-01
       -1   -1    0    0    0  501  0.00000000000E+00  0.00000000000E+00  0.19694091748E+04  0.19694091748E+04  0.50400001928E-02 0. -1.
        1   -1    0    0  501    0  0.00000000000E+00  0.00000000000E+00 -0.17367167022E+04  0.17367167022E+04  0.50400001928E-02 0.  1.
    10030    2    1    2    0    0  0.00000000000E+00  0.00000000000E+00  0.23269247260E+03  0.37061258770E+04  0.36988137598E+04 0.  0.
        3    1    3    3  502    0 -0.91440518059E+03  0.69931877309E+03 -0.13339689094E+04  0.17620035875E+04  0.10100000352E+00 0.  1.
       -3    1    3    3    0  502  0.91440518059E+03 -0.69931877309E+03  0.15666613820E+04  0.19441222896E+04  0.10100000352E+00 0. -1.
</event>
<event>
 5   0  0.2287500E-07  0.3726906E+04  0.7818609E-02  0.8062025E-01
       -1   -1    0    0    0  501  0.00000000000E+00  0.00000000000E+00  0.16251907118E+04  0.16251907118E+04  0.50400001928E-02 0. -1.
        1   -1    0    0  501    0  0.00000000000E+00  0.00000000000E+00 -0.21366463438E+04  0.21366463438E+04  0.50400001928E-02 0.  1.
    10030    2    1    2    0    0  0.00000000000E+00  0.00000000000E+00 -0.51145563201E+03  0.37618370555E+04  0.37269063805E+04 0.  0.
        3    1    3    3  502    0 -0.17343215739E+04  0.39591808396E+02 -0.94256038235E+03  0.19742996017E+04  0.10100000352E+00 0.  1.
       -3    1    3    3    0  502  0.17343215739E+04 -0.39591808396E+02  0.43110475034E+03  0.17875374538E+04  0.10100000352E+00 0. -1.
</event>
<event>
 5   0  0.7074157E-07  0.3701861E+04  0.7818609E-02  0.8067549E-01
       -2   -1    0    0    0  501  0.00000000000E+00  0.00000000000E+00  0.18577123508E+04  0.18577123508E+04  0.25500000920E-02 0.  1.
        2   -1    0    0  501    0  0.00000000000E+00  0.00000000000E+00 -0.18441738822E+04  0.18441738822E+04  0.25500000920E-02 0. -1.
    10030    2    1    2    0    0  0.00000000000E+00  0.00000000000E+00  0.13538468666E+02  0.37018862330E+04  0.37018614766E+04 0.  0.
        3    1    3    3  502    0 -0.48487803917E+03  0.17534281289E+04 -0.33430147323E+03  0.18496957591E+04  0.10100000352E+00 0. -1.
       -3    1    3    3    0  502  0.48487803917E+03 -0.17534281289E+04  0.34783994190E+03  0.18521904739E+04  0.10100000352E+00 0.  1.
</event>
<event>
 5   0  0.2287500E-07  0.3718715E+04  0.7818609E-02  0.8063827E-01
        1   -1    0    0  501    0  0.00000000000E+00  0.00000000000E+00  0.18457741996E+04  0.18457741996E+04  0.50400001928E-02 0. -1.
       -1   -1    0    0    0  501  0.00000000000E+00  0.00000000000E+00 -0.18730412237E+04  0.18730412237E+04  0.50400001928E-02 0.  1.
    10030    2    1    2    0    0  0.00000000000E+00  0.00000000000E+00 -0.27267024128E+02  0.37188154233E+04  0.37187154586E+04 0.  0.
        4    1    3    3  502    0  0.44991723513E+03 -0.16199280708E+04 -0.80776888087E+03  0.18652304551E+04  0.12699999809E+01 0. -1.
       -4    1    3    3    0  502 -0.44991723513E+03  0.16199280708E+04  0.78050185674E+03  0.18535849682E+04  0.12699999809E+01 0.  1.
</event>
<event>
 5   0  0.7300916E-07  0.3537557E+04  0.7818609E-02  0.8104947E-01
       -2   -1    0    0    0  501  0.00000000000E+00  0.00000000000E+00  0.17794079271E+04  0.17794079271E+04  0.25500000920E-02 0.  1.
        2   -1    0    0  501    0  0.00000000000E+00  0.00000000000E+00 -0.17582123919E+04  0.17582123919E+04  0.25500000920E-02 0. -1.
    10030    2    1    2    0    0  0.00000000000E+00  0.00000000000E+00  0.21195535215E+02  0.35376203189E+04  0.35375568222E+04 0.  0.
        1    1    3    3  502    0  0.11967154287E+04 -0.10533202509E+04  0.77674838652E+03  0.17734005256E+04  0.50400001928E-02 0.  1.
       -1    1    3    3    0  502 -0.11967154287E+04  0.10533202509E+04 -0.75555285131E+03  0.17642197934E+04  0.50400001928E-02 0. -1.
</event>
<event>
 5   0  0.7074157E-07  0.3548580E+04  0.7818609E-02  0.8102373E-01
        2   -1    0    0  501    0  0.00000000000E+00  0.00000000000E+00  0.13633171913E+04  0.13633171913E+04  0.25500000920E-02 0. -1.
       -2   -1    0    0    0  501  0.00000000000E+00  0.00000000000E+00 -0.23091514548E+04  0.23091514548E+04  0.25500000920E-02 0.  1.
    10030    2    1    2    0    0  0.00000000000E+00  0.00000000000E+00 -0.94583426344E+03  0.36724686461E+04  0.35485804912E+04 0.  0.
        3    1    3    3  502    0 -0.21281491869E+03 -0.13940847264E+04 -0.15872360215E+04  0.21232241078E+04  0.10100000352E+00 0.  1.
       -3    1    3    3    0  502  0.21281491869E+03  0.13940847264E+04  0.64140175801E+03  0.15492445383E+04  0.10100000352E+00 0. -1.
</event>
<event>
 5   0  0.2287500E-07  0.2736489E+04  0.7818609E-02  0.8323262E-01
        1   -1    0    0  501    0  0.00000000000E+00  0.00000000000E+00  0.12248494693E+04  0.12248494693E+04  0.50400001928E-02 0.  1.
       -1   -1    0    0    0  501  0.00000000000E+00  0.00000000000E+00 -0.15284269247E+04  0.15284269247E+04  0.50400001928E-02 0. -1.
    10030    2    1    2    0    0  0.00000000000E+00  0.00000000000E+00 -0.30357745542E+03  0.27532763940E+04  0.27364889239E+04 0.  0.
        3    1    3    3  502    0  0.69700791042E+03  0.88295010048E+03 -0.93545848782E+03  0.14630459664E+04  0.10100000352E+00 0. -1.
       -3    1    3    3    0  502 -0.69700791042E+03 -0.88295010048E+03  0.63188103240E+03  0.12902304277E+04  0.10100000352E+00 0.  1.
</event>
<event>
 5   0  0.7074157E-07  0.3631047E+04  0.7818609E-02  0.8083417E-01
       -2   -1    0    0    0  501  0.00000000000E+00  0.00000000000E+00  0.14951885129E+04  0.14951885129E+04  0.25500000920E-02 0.  1.
        2   -1    0    0  501    0  0.00000000000E+00  0.00000000000E+00 -0.22044882165E+04  0.22044882165E+04  0.25500000920E-02 0. -1.
    10030    2    1    2    0    0  0.00000000000E+00  0.00000000000E+00 -0.70929970360E+03  0.36996767293E+04  0.36310469333E+04 0.  0.
        3    1    3    3  502    0  0.11169883495E+04  0.14310777038E+04 -0.33234824285E+03  0.18455627142E+04  0.10100000352E+00 0.  1.
       -3    1    3    3    0  502 -0.11169883495E+04 -0.14310777038E+04 -0.37695146075E+03  0.18541140152E+04  0.10100000352E+00 0. -1.
</event>
<event>
 5   0  0.7300916E-07  0.3713083E+04  0.7818609E-02  0.8065069E-01
       -2   -1    0    0    0  501  0.00000000000E+00  0.00000000000E+00  0.15908854571E+04  0.15908854571E+04  0.25500000920E-02 0. -1.
        2   -1    0    0  501    0  0.00000000000E+00  0.00000000000E+00 -0.21665581813E+04  0.21665581813E+04  0.25500000920E-02 0.  1.
    10030    2    1    2    0    0  0.00000000000E+00  0.00000000000E+00 -0.57567272415E+03  0.37574436384E+04  0.37130827637E+04 0.  0.
        1    1    3    3  502    0 -0.13268538647E+04  0.12932895495E+04 -0.40587845153E+03  0.18968068839E+04  0.50400001928E-02 0.  1.
       -1    1    3    3    0  502  0.13268538647E+04 -0.12932895495E+04 -0.16979427263E+03  0.18606367545E+04  0.50400001928E-02 0. -1.
</event>
<event>
 5   0  0.2287500E-07  0.3621789E+04  0.7818609E-02  0.8085519E-01
       -1   -1    0    0    0  501  0.00000000000E+00  0.00000000000E+00  0.25327268575E+04  0.25327268575E+04  0.50400001928E-02 0. -1.
        1   -1    0    0  501    0  0.00000000000E+00  0.00000000000E+00 -0.12947858454E+04  0.12947858454E+04  0.50400001928E-02 0.  1.
    10030    2    1    2    0    0  0.00000000000E+00  0.00000000000E+00  0.12379410121E+04  0.38275127030E+04  0.36217889974E+04 0.  0.
        2    1    3    3  502    0  0.23026748773E+03  0.62020983079E+03  0.24004433706E+04  0.24899421129E+04  0.25500000920E-02 0. -1.
       -2    1    3    3    0  502 -0.23026748773E+03 -0.62020983079E+03 -0.11625023585E+04  0.13375705901E+04  0.25500000920E-02 0.  1.
</event>
<event>
 5   0  0.6939921E-07  0.3718040E+04  0.7818609E-02  0.8063976E-01
       -2   -1    0    0    0  501  0.00000000000E+00  0.00000000000E+00  0.24945177740E+04  0.24945177740E+04  0.25500000920E-02 0.  1.
        2   -1    0    0  501    0  0.00000000000E+00  0.00000000000E+00 -0.13854205789E+04  0.13854205789E+04  0.25500000920E-02 0. -1.
    10030    2    1    2    0    0  0.00000000000E+00  0.00000000000E+00  0.11090971952E+04  0.38799383529E+04  0.37180404831E+04 0.  0.
        4    1    3    3  502    0  0.11211276162E+04 -0.52480781910E+03  0.20018819728E+04  0.23536956950E+04  0.12699999809E+01 0.  1.
       -4    1    3    3    0  502 -0.11211276162E+04  0.52480781910E+03 -0.89278477764E+03  0.15262426579E+04  0.12699999809E+01 0. -1.
</event>
<event>
 5   0  0.7124627E-07  0.3684680E+04  0.7818609E-02  0.8071365E-01
       -2   -1    0    0    0  501  0.00000000000E+00  0.00000000000E+00  0.18440385684E+04  0.18440385684E+04  0.25500000920E-02 0.  1.
        2   -1    0    0  501    0  0.00000000000E+00  0.00000000000E+00 -0.18406432025E+04  0.18406432025E+04  0.25500000920E-02 0. -1.
    10030    2    1    2    0    0  0.00000000000E+00  0.00000000000E+00  0.33953658997E+01  0.36846817708E+04  0.36846802064E+04 0.  0.
        2    1    3    3  502    0  0.78940149216E+03 -0.13274320274E+03  0.16610481343E+04  0.18438699461E+04  0.25500000920E-02 0.  1.
       -2    1    3    3    0  502 -0.78940149216E+03  0.13274320274E+03 -0.16576527684E+04  0.18408118247E+04  0.25500000920E-02 0. -1.
</event>
<event>
 5   0  0.2287500E-07  0.3655594E+04  0.7818609E-02  0.8077875E-01
       -1   -1    0    0    0  501  0.00000000000E+00  0.00000000000E+00  0.18937082446E+04  0.18937082446E+04  0.50400001928E-02 0. -1.
        1   -1    0    0  501    0  0.00000000000E+00  0.00000000000E+00 -0.17641796140E+04  0.17641796140E+04  0.50400001928E-02 0.  1.
    10030    2    1    2    0    0  0.00000000000E+00  0.00000000000E+00  0.12952863053E+03  0.36578878586E+04  0.36555937849E+04 0.  0.
        3    1    3    3  502    0 -0.17000591915E+03 -0.13591312690E+04  0.12757723992E+04  0.18718266596E+04  0.10100000352E+00 0. -1.
       -3    1    3    3    0  502  0.17000591915E+03  0.13591312690E+04 -0.11462437687E+04  0.17860611990E+04  0.10100000352E+00 0.  1.
</event>
<event>
 5   0  0.2287500E-07  0.3707094E+04  0.7818609E-02  0.8066392E-01
       -1   -1    0    0    0  501  0.00000000000E+00  0.00000000000E+00  0.24833547773E+04  0.24833547773E+04  0.50400001928E-02 0.  1.
        1   -1    0    0  501    0  0.00000000000E+00  0.00000000000E+00 -0.13834657835E+04  0.13834657836E+04  0.50400001928E-02 0. -1.
    10030    2    1    2    0    0  0.00000000000E+00  0.00000000000E+00  0.10998889937E+04  0.38668205608E+04  0.37070939361E+04 0.  0.
        4    1    3    3  502    0  0.10651623060E+04 -0.90238493112E+03  0.18218113761E+04  0.22951835667E+04  0.12699999809E+01 0.  1.
       -4    1    3    3    0  502 -0.10651623060E+04  0.90238493112E+03 -0.72192238235E+03  0.15716369941E+04  0.12699999809E+01 0. -1.
</event>
<event>
 5   0  0.2345471E-07  0.3620225E+04  0.7818609E-02  0.8085875E-01
        1   -1    0    0  501    0  0.00000000000E+00  0.00000000000E+00  0.17217977924E+04  0.17217977924E+04  0.50400001928E-02 0.  1.
       -1   -1    0    0    0  501  0.00000000000E+00  0.00000000000E+00 -0.19029573687E+04  0.19029573687E+04  0.50400001928E-02 0. -1.
    10030    2    1    2    0    0  0.00000000000E+00  0.00000000000E+00 -0.18115957633E+03  0.36247551611E+04  0.36202252949E+04 0.  0.
        5    1    3    3  502    0  0.50744027540E+03 -0.87860263556E+03  0.14103113838E+04  0.17373653944E+04  0.46999998093E+01 0.  1.
       -5    1    3    3    0  502 -0.50744027540E+03  0.87860263556E+03 -0.15914709602E+04  0.18873897667E+04  0.46999998093E+01 0. -1.
</event>
<event>
 5   0  0.2287500E-07  0.3747636E+04  0.7818609E-02  0.8057486E-01
        1   -1    0    0  501    0  0.00000000000E+00  0.00000000000E+00  0.16949151656E+04  0.16949151656E+04  0.50400001928E-02 0.  1.
       -1   -1    0    0    0  501  0.00000000000E+00  0.00000000000E+00 -0.20716050092E+04  0.20716050092E+04  0.50400001928E-02 0. -1.
    10030    2    1    2    0    0  0.00000000000E+00  0.00000000000E+00 -0.37668984352E+03  0.37665201748E+04  0.37476364537E+04 0.  0.
        4    1    3    3  502    0  0.12950815981E+03  0.11693005265E+04  0.12774817542E+04  0.17366626990E+04  0.12699999809E+01 0.  1.
       -4    1    3    3    0  502 -0.12950815981E+03 -0.11693005265E+04 -0.16541715977E+04  0.20298574759E+04  0.12699999809E+01 0. -1.
</event>
<event>
 5   0  0.2411746E-07  0.3173018E+04  0.7818609E-02  0.8195980E-01
        1   -1    0    0  501    0  0.00000000000E+00  0.00000000000E+00  0.15841692696E+04  0.15841692696E+04  0.50400001928E-02 0.  1.
       -1   -1    0    0    0  501  0.00000000000E+00  0.00000000000E+00 -0.15888524240E+04  0.15888524240E+04  0.50400001928E-02 0. -1.
    10030    2    1    2    0    0  0.00000000000E+00  0.00000000000E+00 -0.46831543644E+01  0.31730216936E+04  0.31730182376E+04 0.  0.
        1    1    3    3  502    0 -0.58302992287E+01  0.12356224640E+04  0.99275463677E+03  0.15850421556E+04  0.50400001928E-02 0.  1.
       -1    1    3    3    0  502  0.58302992287E+01 -0.12356224640E+04 -0.99743779114E+03  0.15879795380E+04  0.50400001928E-02 0. -1.
</event>
<event>
 5   0  0.6949625E-07  0.3667656E+04  0.7818609E-02  0.8075168E-01
        2   -1    0    0  501    0  0.00000000000E+00  0.00000000000E+00  0.14261625091E+04  0.14261625091E+04  0.25500000920E-02 0.  1.
       -2   -1    0    0    0  501  0.00000000000E+00  0.00000000000E+00 -0.23580234971E+04  0.23580234971E+04  0.25500000920E-02 0. -1.
    10030    2    1    2    0    0  0.00000000000E+00  0.00000000000E+00 -0.93186098798E+03  0.37841860062E+04  0.36676557675E+04 0.  0.
        5    1    3    3  502    0 -0.15463452713E+04 -0.62981944858E+03  0.31648122228E+03  0.16994230462E+04  0.46999998093E+01 0.  1.
       -5    1    3    3    0  502  0.15463452713E+04  0.62981944858E+03 -0.12483422103E+04  0.20847629601E+04  0.46999998093E+01 0. -1.
</event>
<event>
 5   0  0.2287500E-07  0.3724907E+04  0.7818609E-02  0.8062465E-01
        1   -1    0    0  501    0  0.00000000000E+00  0.00000000000E+00  0.21104694242E+04  0.21104694242E+04  0.50400001928E-02 0. -1.
       -1   -1    0    0    0  501  0.00000000000E+00  0.00000000000E+00 -0.16435832853E+04  0.16435832853E+04  0.50400001928E-02 0.  1.
    10030    2    1    2    0    0  0.00000000000E+00  0.00000000000E+00  0.46688613888E+03  0.37540527095E+04  0.37249065866E+04 0.  0.
        4    1    3    3  502    0  0.43374681155E+03 -0.96482156704E+03 -0.13114287640E+04  0.16848928656E+04  0.12699999809E+01 0.  1.
       -4    1    3    3    0  502 -0.43374681155E+03  0.96482156704E+03  0.17783149029E+04  0.20691598439E+04  0.12699999809E+01 0. -1.
</event>
<event>
 5   0  0.6949625E-07  0.3617666E+04  0.7818609E-02  0.8086457E-01
        2   -1    0    0  501    0  0.00000000000E+00  0.00000000000E+00  0.16035508941E+04  0.16035508941E+04  0.25500000920E-02 0. -1.
       -2   -1    0    0    0  501  0.00000000000E+00  0.00000000000E+00 -0.20403951058E+04  0.20403951058E+04  0.25500000920E-02 0.  1.
    10030    2    1    2    0    0  0.00000000000E+00  0.00000000000E+00 -0.43684421175E+03  0.36439459999E+04  0.36176663175E+04 0.  0.
        5    1    3    3  502    0  0.14820268088E+04  0.66946600425E+03  0.57933317088E+03  0.17263363536E+04  0.46999998093E+01 0.  1.
       -5    1    3    3    0  502 -0.14820268088E+04 -0.66946600425E+03 -0.10161773826E+04  0.19176096463E+04  0.46999998093E+01 0. -1.
</event>
<event>
 5   0  0.7074157E-07  0.3669021E+04  0.7818609E-02  0.8074862E-01
        2   -1    0    0  501    0  0.00000000000E+00  0.00000000000E+00  0.22563948519E+04  0.22563948519E+04  0.25500000920E-02 0. -1.
       -2   -1    0    0    0  501  0.00000000000E+00  0.00000000000E+00 -0.14915072766E+04  0.14915072766E+04  0.25500000920E-02 0.  1.
    10030    2    1    2    0    0  0.00000000000E+00  0.00000000000E+00  0.76488757530E+03  0.37479021285E+04  0.36690213085E+04 0.  0.
        3    1    3    3  502    0  0.16326924388E+04  0.29995514114E+03 -0.41522320173E+03  0.17111598417E+04  0.10100000352E+00 0. -1.
       -3    1    3    3    0  502 -0.16326924388E+04 -0.29995514114E+03  0.11801107770E+04  0.20367422868E+04  0.10100000352E+00 0.  1.
</event>
<event>
 5   0  0.7074157E-07  0.3703134E+04  0.7818609E-02  0.8067268E-01
        2   -1    0    0  501    0  0.00000000000E+00  0.00000000000E+00  0.19083636127E+04  0.19083636127E+04  0.25500000920E-02 0.  1.
       -2   -1    0    0    0  501  0.00000000000E+00  0.00000000000E+00 -0.17964604145E+04  0.17964604145E+04  0.25500000920E-02 0. -1.
    10030    2    1    2    0    0  0.00000000000E+00  0.00000000000E+00  0.11190319816E+03  0.37048240272E+04  0.37031336387E+04 0.  0.
        3    1    3    3  502    0  0.35274093362E+03  0.91458286179E+03 -0.15155651324E+04  0.18049447798E+04  0.10100000352E+00 0. -1.
       -3    1    3    3    0  502 -0.35274093362E+03 -0.91458286179E+03  0.16274683306E+04  0.18998792474E+04  0.10100000352E+00 0.  1.
</event>
<event>
 5   0  0.2345471E-07  0.3059848E+04  0.7818609E-02  0.8226844E-01
        1   -1    0    0  501    0  0.00000000000E+00  0.00000000000E+00  0.18197968867E+04  0.18197968867E+04  0.50400001928E-02 0. -1.
       -1   -1    0    0    0  501  0.00000000000E+00  0.00000000000E+00 -0.12862248712E+04  0.12862248713E+04  0.50400001928E-02 0.  1.
    10030    2    1    2    0    0  0.00000000000E+00  0.00000000000E+00  0.53357201548E+03  0.31060217580E+04  0.30598483729E+04 0.  0.
        5    1    3    3  502    0  0.29419881869E+03 -0.93165529856E+03  0.14618843751E+04  0.17583124172E+04  0.46999998093E+01 0. -1.
       -5    1    3    3    0  502 -0.29419881869E+03  0.93165529856E+03 -0.92831235962E+03  0.13477093408E+04  0.46999998093E+01 0.  1.
</event>
<event>
 5   0  0.6949625E-07  0.3695060E+04  0.7818609E-02  0.8069058E-01
        2   -1    0    0  501    0  0.00000000000E+00  0.00000000000E+00  0.28941049949E+04  0.28941049949E+04  0.25500000920E-02 0. -1.
       -2   -1    0    0    0  501  0.00000000000E+00  0.00000000000E+00 -0.11794204734E+04  0.11794204734E+04  0.25500000920E-02 0.  1.
    10030    2    1    2    0    0  0.00000000000E+00  0.00000000000E+00  0.17146845215E+04  0.40735254682E+04  0.36950597738E+04 0.  0.
        5    1    3    3  502    0 -0.17524746872E+04  0.15136330891E+03  0.23443205294E+03  0.17745587784E+04  0.46999998093E+01 0.  1.
       -5    1    3    3    0  502  0.17524746872E+04 -0.15136330891E+03  0.14802524685E+04  0.22989666899E+04  0.46999998093E+01 0. -1.
</event>
<event>
 5   0  0.7074157E-07  0.3731795E+04  0.7818609E-02  0.8060952E-01
       -2   -1    0    0    0  501  0.00000000000E+00  0.00000000000E+00  0.15581279034E+04  0.15581279034E+04  0.25500000920E-02 0.  1.
        2   -1    0    0  501    0  0.00000000000E+00  0.00000000000E+00 -0.22344599156E+04  0.22344599156E+04  0.25500000920E-02 0. -1.
    10030    2    1    2    0    0  0.00000000000E+00  0.00000000000E+00 -0.67633201219E+03  0.37925878190E+04  0.37317954625E+04 0.  0.
        3    1    3    3  502    0 -0.13019762927E+04  0.85615653370E+03 -0.13812523363E+04  0.20823074470E+04  0.10100000352E+00 0. -1.
       -3    1    3    3    0  502  0.13019762927E+04 -0.85615653370E+03  0.70492032416E+03  0.17102803720E+04  0.10100000352E+00 0.  1.
</event>
<event>
 5   0  0.2287500E-07  0.3410128E+04  0.7818609E-02  0.8135425E-01
        1   -1    0    0  501    0  0.00000000000E+00  0.00000000000E+00  0.28285588837E+04  0.28285588837E+04  0.50400001928E-02 0.  1.
       -1   -1    0    0    0  501  0.00000000000E+00  0.00000000000E+00 -0.10278179164E+04  0.10278179164E+04  0.50400001928E-02 0. -1.
    10030    2    1    2    0    0  0.00000000000E+00  0.00000000000E+00  0.18007409673E+04  0.38563768001E+04  0.34101281491E+04 0.  0.
        3    1    3    3  502    0  0.19318918750E+03 -0.65257589771E+03 -0.86756021722E+03  0.11026504909E+04  0.10100000352E+00 0. -1.
       -3    1    3    3    0  502 -0.19318918750E+03  0.65257589771E+03  0.26683011845E+04  0.27537263092E+04  0.10100000352E+00 0.  1.
</event>
<event>
 5   0  0.2287500E-07  0.3254114E+04  0.7818609E-02  0.8174670E-01
       -1   -1    0    0    0  501  0.00000000000E+00  0.00000000000E+00  0.71729428213E+03  0.71729428214E+03  0.50400001928E-02 0. -1.
        1   -1    0    0  501    0  0.00000000000E+00  0.00000000000E+00 -0.36906949334E+04  0.36906949334E+04  0.50400001928E-02 0.  1.
    10030    2    1    2    0    0  0.00000000000E+00  0.00000000000E+00 -0.29734006513E+04  0.44079892156E+04  0.32541139334E+04 0.  0.
        3    1    3    3  502    0  0.56550881149E+03  0.23304955625E+03 -0.35290344250E+04  0.35816471483E+04  0.10100000352E+00 0.  1.
       -3    1    3    3    0  502 -0.56550881149E+03 -0.23304955625E+03  0.55563377370E+03  0.82634206732E+03  0.10100000352E+00 0. -1.
</event>
<event>
 5   0  0.2287500E-07  0.3699918E+04  0.7818609E-02  0.8067980E-01
        1   -1    0    0  501    0  0.00000000000E+00  0.00000000000E+00  0.18315377621E+04  0.18315377621E+04  0.50400001928E-02 0. -1.
       -1   -1    0    0    0  501  0.00000000000E+00  0.00000000000E+00 -0.18685651529E+04  0.18685651530E+04  0.50400001928E-02 0.  1.
    10030    2    1    2    0    0  0.00000000000E+00  0.00000000000E+00 -0.37027390837E+02  0.37001029151E+04  0.36999176416E+04 0.  0.
        4    1    3    3  502    0  0.32818871569E+03  0.16477351041E+04 -0.79289555958E+03  0.18578007933E+04  0.12699999809E+01 0.  1.
       -4    1    3    3    0  502 -0.32818871569E+03 -0.16477351041E+04  0.75586816875E+03  0.18423021217E+04  0.12699999809E+01 0. -1.
</event>
<event>
 5   0  0.7300916E-07  0.2836661E+04  0.7818609E-02  0.8291976E-01
       -2   -1    0    0    0  501  0.00000000000E+00  0.00000000000E+00  0.82591152984E+03  0.82591152985E+03  0.25500000920E-02 0.  1.
        2   -1    0    0  501    0  0.00000000000E+00  0.00000000000E+00 -0.24356860500E+04  0.24356860500E+04  0.25500000920E-02 0. -1.
    10030    2    1    2    0    0  0.00000000000E+00  0.00000000000E+00 -0.16097745201E+04  0.32615975798E+04  0.28366608481E+04 0.  0.
        1    1    3    3  502    0  0.31291088055E+03 -0.12831285242E+04 -0.13993794192E+04  0.19242127709E+04  0.50400001928E-02 0. -1.
       -1    1    3    3    0  502 -0.31291088055E+03  0.12831285242E+04 -0.21039510098E+03  0.13373848090E+04  0.50400001928E-02 0.  1.
</event>
<event>
 5   0  0.6949625E-07  0.3707347E+04  0.7818609E-02  0.8066336E-01
       -2   -1    0    0    0  501  0.00000000000E+00  0.00000000000E+00  0.15061402619E+04  0.15061402619E+04  0.25500000920E-02 0. -1.
        2   -1    0    0  501    0  0.00000000000E+00  0.00000000000E+00 -0.22813980932E+04  0.22813980932E+04  0.25500000920E-02 0.  1.
    10030    2    1    2    0    0  0.00000000000E+00  0.00000000000E+00 -0.77525783127E+03  0.37875383552E+04  0.37073470416E+04 0.  0.
        5    1    3    3  502    0  0.14404270991E+04  0.11010926881E+04 -0.78178246290E+03  0.19744470732E+04  0.46999998093E+01 0.  1.
       -5    1    3    3    0  502 -0.14404270991E+04 -0.11010926881E+04  0.65246316306E+01  0.18130912819E+04  0.46999998093E+01 0. -1.
</event>
<event>
 5   0  0.7124627E-07  0.3697020E+04  0.7818609E-02  0.8068623E-01
       -2   -1    0    0    0  501  0.00000000000E+00  0.00000000000E+00  0.18294169120E+04  0.18294169120E+04  0.25500000920E-02 0.  1.
        2   -1    0    0  501    0  0.00000000000E+00  0.00000000000E+00 -0.18678024576E+04  0.18678024576E+04  0.25500000920E-02 0. -1.
    10030    2    1    2    0    0  0.00000000000E+00  0.00000000000E+00 -0.38385545648E+02  0.36972193696E+04  0.36970200996E+04 0.  0.
        2    1    3    3  502    0 -0.84104601209E+03  0.56162210052E+03 -0.15666001948E+04  0.18646752931E+04  0.25500000920E-02 0. -1.
       -2    1    3    3    0  502  0.84104601209E+03 -0.56162210052E+03  0.15282146492E+04  0.18325440765E+04  0.25500000920E-02 0.  1.
</event>
<event>
 5   0  0.7074157E-07  0.3754735E+04  0.7818609E-02  0.8055939E-01
       -2   -1    0    0    0  501  0.00000000000E+00  0.00000000000E+00  0.20770673312E+04  0.20770673312E+04  0.25500000920E-02 0. -1.
        2   -1    0    0  501    0  0.00000000000E+00  0.00000000000E+00 -0.16968680847E+04  0.16968680847E+04  0.25500000920E-02 0.  1.
    10030    2    1    2    0    0  0.00000000000E+00  0.00000000000E+00  0.38019924647E+03  0.37739354159E+04  0.37547352845E+04 0.  0.
        3    1    3    3  502    0  0.67456311295E+03 -0.10326597842E+04  0.16126416782E+04  0.20302794920E+04  0.10100000352E+00 0. -1.
       -3    1    3    3    0  502 -0.67456311295E+03  0.10326597842E+04 -0.12324424317E+04  0.17436559239E+04  0.10100000352E+00 0.  1.
</event>
<event>
 5   0  0.2287500E-07  0.3583326E+04  0.7818609E-02  0.8094322E-01
       -1   -1    0    0    0  501  0.00000000000E+00  0.00000000000E+00  0.18955050595E+04  0.18955050595E+04  0.50400001928E-02 0. -1.
        1   -1    0    0  501    0  0.00000000000E+00  0.00000000000E+00 -0.16935097677E+04  0.16935097678E+04  0.50400001928E-02 0.  1.
    10030    2    1    2    0    0  0.00000000000E+00  0.00000000000E+00  0.20199529173E+03  0.35890148272E+04  0.35833260153E+04 0.  0.
        2    1    3    3  502    0  0.54079045359E+03 -0.15374449270E+04  0.84640030197E+03  0.18364598251E+04  0.25500000920E-02 0. -1.
       -2    1    3    3    0  502 -0.54079045359E+03  0.15374449270E+04 -0.64440501024E+03  0.17525550021E+04  0.25500000920E-02 0.  1.
</event>
<event>
 5   0  0.2411746E-07  0.3670113E+04  0.7818609E-02  0.8074618E-01
        1   -1    0    0  501    0  0.00000000000E+00  0.00000000000E+00  0.24937514822E+04  0.24937514822E+04  0.50400001928E-02 0. -1.
       -1   -1    0    0    0  501  0.00000000000E+00  0.00000000000E+00 -0.13503476960E+04  0.13503476960E+04  0.50400001928E-02 0.  1.
    10030    2    1    2    0    0  0.00000000000E+00  0.00000000000E+00  0.11434037862E+04  0.38440991782E+04  0.36701125696E+04 0.  0.
        1    1    3    3  502    0  0.78620035408E+03 -0.10877107089E+04 -0.73910778279E+03  0.15321572692E+04  0.50400001928E-02 0.  1.
       -1    1    3    3    0  502 -0.78620035408E+03  0.10877107089E+04  0.18825115690E+04  0.23119419089E+04  0.50400001928E-02 0. -1.
</event>
<event>
 5   0  0.7074157E-07  0.3729550E+04  0.7818609E-02  0.8061445E-01
       -2   -1    0    0    0  501  0.00000000000E+00  0.00000000000E+00  0.23328308209E+04  0.23328308209E+04  0.25500000920E-02 0. -1.
        2   -1    0    0  501    0  0.00000000000E+00  0.00000000000E+00 -0.14906291238E+04  0.14906291238E+04  0.25500000920E-02 0.  1.
    10030    2    1    2    0    0  0.00000000000E+00  0.00000000000E+00  0.84220169708E+03  0.38234599447E+04  0.37295498723E+04 0.  0.
        3    1    3    3  502    0 -0.14795785502E+03  0.12957139133E+04  0.17875621462E+04  0.22127233240E+04  0.10100000352E+00 0. -1.
       -3    1    3    3    0  502  0.14795785502E+03 -0.12957139133E+04 -0.94536044914E+03  0.16107366206E+04  0.10100000352E+00 0.  1.
</event>
<event>
 5   0  0.6949625E-07  0.3734936E+04  0.7818609E-02  0.8060263E-01
       -2   -1    0    0    0  501  0.00000000000E+00  0.00000000000E+00  0.17644444563E+04  0.17644444563E+04  0.25500000920E-02 0. -1.
        2   -1    0    0  501    0  0.00000000000E+00  0.00000000000E+00 -0.19765066963E+04  0.19765066963E+04  0.25500000920E-02 0.  1.
    10030    2    1    2    0    0  0.00000000000E+00  0.00000000000E+00 -0.21206223999E+03  0.37409511527E+04  0.37349357602E+04 0.  0.
        5    1    3    3  502    0 -0.90098288169E+03 -0.67933624495E+03 -0.15964284312E+04  0.19549613072E+04  0.46999998093E+01 0.  1.
       -5    1    3    3    0  502  0.90098288169E+03  0.67933624495E+03  0.13843661912E+04  0.17859898455E+04  0.46999998093E+01 0. -1.
</event>
<event>
 5   0  0.2287500E-07  0.3826054E+04  0.7818609E-02  0.8040587E-01
       -1   -1    0    0    0  501  0.00000000000E+00  0.00000000000E+00  0.20260091404E+04  0.20260091404E+04  0.50400001928E-02 0. -1.
        1   -1    0    0  501    0  0.00000000000E+00  0.00000000000E+00 -0.18063456471E+04  0.18063456471E+04  0.50400001928E-02 0.  1.
    10030    2    1    2    0    0  0.00000000000E+00  0.00000000000E+00  0.21966349332E+03  0.38323547875E+04  0.38260542556E+04 0.  0.
        3    1    3    3  502    0 -0.10042115159E+04 -0.10063302694E+04 -0.11723274979E+04  0.18426863956E+04  0.10100000352E+00 0.  1.
       -3    1    3    3    0  502  0.10042115159E+04  0.10063302694E+04  0.13919909912E+04  0.19896683919E+04  0.10100000352E+00 0. -1.
</event>
<event>
 5   0  0.2287500E-07  0.3719129E+04  0.7818609E-02  0.8063736E-01
        1   -1    0    0  501    0  0.00000000000E+00  0.00000000000E+00  0.22939835203E+04  0.22939835203E+04  0.50400001928E-02 0. -1.
       -1   -1    0    0    0  501  0.00000000000E+00  0.00000000000E+00 -0.15074129942E+04  0.15074129942E+04  0.50400001928E-02 0.  1.
    10030    2    1    2    0    0  0.00000000000E+00  0.00000000000E+00  0.78657052612E+03  0.38013965146E+04  0.37191292352E+04 0.  0.
        2    1    3    3  502    0  0.14161984263E+04 -0.16856236007E+03 -0.82640390772E+03  0.16483248074E+04  0.25500000920E-02 0.  1.
       -2    1    3    3    0  502 -0.14161984263E+04  0.16856236007E+03  0.16129744338E+04  0.21530717072E+04  0.25500000920E-02 0. -1.
</event>
<event>
 5   0  0.2287500E-07  0.3693275E+04  0.7818609E-02  0.8069454E-01
       -1   -1    0    0    0  501  0.00000000000E+00  0.00000000000E+00  0.21135529825E+04  0.21135529825E+04  0.50400001928E-02 0. -1.
        1   -1    0    0  501    0  0.00000000000E+00  0.00000000000E+00 -0.16134303016E+04  0.16134303016E+04  0.50400001928E-02 0.  1.
    10030    2    1    2    0    0  0.00000000000E+00  0.00000000000E+00  0.50012268095E+03  0.37269832841E+04  0.36932752002E+04 0.  0.
        2    1    3    3  502    0 -0.11847428096E+04 -0.74989546427E+03  0.14627412075E+04  0.20262207610E+04  0.25500000920E-02 0. -1.
       -2    1    3    3    0  502  0.11847428096E+04  0.74989546427E+03 -0.96261852660E+03  0.17007625231E+04  0.25500000920E-02 0.  1.
</event>
<event>
 5   0  0.6939921E-07  0.3664386E+04  0.7818609E-02  0.8075900E-01
       -2   -1    0    0    0  501  0.00000000000E+00  0.00000000000E+00  0.99430191260E+03  0.99430191261E+03  0.25500000920E-02 0.  1.
        2   -1    0    0  501    0  0.00000000000E+00  0.00000000000E+00 -0.33761694367E+04  0.33761694367E+04  0.25500000920E-02 0. -1.
    10030    2    1    2    0    0  0.00000000000E+00  0.00000000000E+00 -0.23818675241E+04  0.43704713493E+04  0.36643862942E+04 0.  0.
        4    1    3    3  502    0 -0.74454136802E+03 -0.12488395183E+04 -0.25206547302E+04  0.29099216266E+04  0.12699999809E+01 0. -1.
       -4    1    3    3    0  502  0.74454136802E+03  0.12488395183E+04  0.13878720603E+03  0.14605497228E+04  0.12699999809E+01 0.  1.
</event>
<event>
 5   0  0.2345471E-07  0.3633758E+04  0.7818609E-02  0.8082802E-01
        1   -1    0    0  501    0  0.00000000000E+00  0.00000000000E+00  0.90318193715E+03  0.90318193716E+03  0.50400001928E-02 0.  1.
       -1   -1    0    0    0  501  0.00000000000E+00  0.00000000000E+00 -0.36549111449E+04  0.36549111449E+04  0.50400001928E-02 0. -1.
    10030    2    1    2    0    0  0.00000000000E+00  0.00000000000E+00 -0.27517292077E+04  0.45580930820E+04  0.36337582352E+04 0.  0.
        5    1    3    3  502    0  0.99799604577E+03  0.34811069818E+03  0.47783181222E+03  0.11599665928E+04  0.46999998093E+01 0.  1.
       -5    1    3    3    0  502 -0.99799604577E+03 -0.34811069818E+03 -0.32295610199E+04  0.33981264893E+04  0.46999998093E+01 0. -1.
</event>
<event>
 5   0  0.6949625E-07  0.3677733E+04  0.7818609E-02  0.8072915E-01
        2   -1    0    0  501    0  0.00000000000E+00  0.00000000000E+00  0.22517775186E+04  0.22517775186E+04  0.25500000920E-02 0. -1.
       -2   -1    0    0    0  501  0.00000000000E+00  0.00000000000E+00 -0.15016712008E+04  0.15016712008E+04  0.25500000920E-02 0.  1.
    10030    2    1    2    0    0  0.00000000000E+00  0.00000000000E+00  0.75010631787E+03  0.37534487194E+04  0.36777326984E+04 0.  0.
        5    1    3    3  502    0  0.15946684908E+04  0.15895947285E+01 -0.55946039577E+03  0.16899669070E+04  0.46999998093E+01 0.  1.
       -5    1    3    3    0  502 -0.15946684908E+04 -0.15895947285E+01  0.13095667136E+04  0.20634818124E+04  0.46999998093E+01 0. -1.
</event>
<event>
 5   0  0.2287500E-07  0.3889116E+04  0.7818609E-02  0.8027297E-01
       -1   -1    0    0    0  501  0.00000000000E+00  0.00000000000E+00  0.12943481045E+04  0.12943481045E+04  0.50400001928E-02 0. -1.
        1   -1    0    0  501    0  0.00000000000E+00  0.00000000000E+00 -0.29213982253E+04  0.29213982253E+04  0.50400001928E-02 0.  1.
    10030    2    1    2    0    0  0.00000000000E+00  0.00000000000E+00 -0.16270501207E+04  0.42157463298E+04  0.38891162263E+04 0.  0.
        2    1    3    3  502    0 -0.79218235556E+03 -0.11906471071E+04 -0.22418023231E+04  0.26591109555E+04  0.25500000920E-02 0.  1.
       -2    1    3    3    0  502  0.79218235556E+03  0.11906471071E+04  0.61475220235E+03  0.15566353743E+04  0.25500000920E-02 0. -1.
</event>
<event>
 5   0  0.7300916E-07  0.3654356E+04  0.7818609E-02  0.8078153E-01
       -2   -1    0    0    0  501  0.00000000000E+00  0.00000000000E+00  0.20683250247E+04  0.20683250247E+04  0.25500000920E-02 0.  1.
        2   -1    0    0  501    0  0.00000000000E+00  0.00000000000E+00 -0.16141463887E+04  0.16141463887E+04  0.25500000920E-02 0. -1.
    10030    2    1    2    0    0  0.00000000000E+00  0.00000000000E+00  0.45417863603E+03  0.36824714134E+04  0.36543559592E+04 0.  0.
        1    1    3    3  502    0  0.28591900000E+03  0.19003468450E+03  0.20355321555E+04  0.20642805071E+04  0.50400001928E-02 0.  1.
       -1    1    3    3    0  502 -0.28591900000E+03 -0.19003468450E+03 -0.15813535194E+04  0.16181909063E+04  0.50400001928E-02 0. -1.
</event>
<event>
 5   0  0.2345471E-07  0.3688589E+04  0.7818609E-02  0.8070495E-01
       -1   -1    0    0    0  501  0.00000000000E+00  0.00000000000E+00  0.19625610054E+04  0.19625610054E+04  0.50400001928E-02 0.  1.
        1   -1    0    0  501    0  0.00000000000E+00  0.00000000000E+00 -0.17331551822E+04  0.17331551822E+04  0.50400001928E-02 0. -1.
    10030    2    1    2    0    0  0.00000000000E+00  0.00000000000E+00  0.22940582319E+03  0.36957161876E+04  0.36885893113E+04 0.  0.
        5    1    3    3  502    0 -0.20565388609E+02 -0.14237852720E+04 -0.10596595464E+04  0.17749613742E+04  0.46999998093E+01 0. -1.
       -5    1    3    3    0  502  0.20565388609E+02  0.14237852720E+04  0.12890653696E+04  0.19207548133E+04  0.46999998093E+01 0.  1.
</event>
<event>
 5   0  0.2287500E-07  0.3530304E+04  0.7818609E-02  0.8106646E-01
       -1   -1    0    0    0  501  0.00000000000E+00  0.00000000000E+00  0.19321762834E+04  0.19321762834E+04  0.50400001928E-02 0. -1.
        1   -1    0    0  501    0  0.00000000000E+00  0.00000000000E+00 -0.16125661192E+04  0.16125661192E+04  0.50400001928E-02 0.  1.
    10030    2    1    2    0    0  0.00000000000E+00  0.00000000000E+00  0.31961016419E+03  0.35447424026E+04  0.35303042424E+04 0.  0.
        2    1    3    3  502    0 -0.86162174379E+03  0.82911875375E+03 -0.11439396968E+04  0.16548196177E+04  0.25500000920E-02 0.  1.
       -2    1    3    3    0  502  0.86162174379E+03 -0.82911875375E+03  0.14635498610E+04  0.18899227849E+04  0.25500000920E-02 0. -1.
</event>
<event>
 5   0  0.7124627E-07  0.3736149E+04  0.7818609E-02  0.8059998E-01
       -2   -1    0    0    0  501  0.00000000000E+00  0.00000000000E+00  0.16557280594E+04  0.16557280594E+04  0.25500000920E-02 0. -1.
        2   -1    0    0  501    0  0.00000000000E+00  0.00000000000E+00 -0.21076546751E+04  0.21076546751E+04  0.25500000920E-02 0.  1.
    10030    2    1    2    0    0  0.00000000000E+00  0.00000000000E+00 -0.45192661568E+03  0.37633827346E+04  0.37361493467E+04 0.  0.
        2    1    3    3  502    0  0.91729114388E+03 -0.10379319403E+04  0.10365591298E+04  0.17300810920E+04  0.25500000920E-02 0. -1.
       -2    1    3    3    0  502 -0.91729114388E+03  0.10379319403E+04 -0.14884857454E+04  0.20333016426E+04  0.25500000920E-02 0.  1.
</event>
<event>
 5   0  0.7124627E-07  0.3598085E+04  0.7818609E-02  0.8090930E-01
       -2   -1    0    0    0  501  0.00000000000E+00  0.00000000000E+00  0.13627033410E+04  0.13627033410E+04  0.25500000920E-02 0. -1.
        2   -1    0    0  501    0  0.00000000000E+00  0.00000000000E+00 -0.23750982832E+04  0.23750982832E+04  0.25500000920E-02 0.  1.
    10030    2    1    2    0    0  0.00000000000E+00  0.00000000000E+00 -0.10123949422E+04  0.37378016243E+04  0.35980852496E+04 0.  0.
        2    1    3    3  502    0 -0.16220001956E+04 -0.73371264690E+03 -0.77576451060E+03  0.19419138649E+04  0.25500000920E-02 0.  1.
       -2    1    3    3    0  502  0.16220001956E+04  0.73371264690E+03 -0.23663043163E+03  0.17958877593E+04  0.25500000920E-02 0. -1.
</event>
<event>
 5   0  0.6939921E-07  0.3698237E+04  0.7818609E-02  0.8068353E-01
        2   -1    0    0  501    0  0.00000000000E+00  0.00000000000E+00  0.25226181485E+04  0.25226181485E+04  0.25500000920E-02 0.  1.
       -2   -1    0    0    0  501  0.00000000000E+00  0.00000000000E+00 -0.13554327385E+04  0.13554327385E+04  0.25500000920E-02 0. -1.
    10030    2    1    2    0    0  0.00000000000E+00  0.00000000000E+00  0.11671854100E+04  0.38780508871E+04  0.36982369991E+04 0.  0.
        4    1    3    3  502    0  0.20427237870E+03  0.13933550529E+04  0.18402211535E+04  0.23172356408E+04  0.12699999809E+01 0.  1.
       -4    1    3    3    0  502 -0.20427237870E+03 -0.13933550529E+04 -0.67303574347E+03  0.15608152463E+04  0.12699999809E+01 0. -1.
</event>
<event>
 5   0  0.7124627E-07  0.3686370E+04  0.7818609E-02  0.8070989E-01
        2   -1    0    0  501    0  0.00000000000E+00  0.00000000000E+00  0.32395488100E+04  0.32395488100E+04  0.25500000920E-02 0.  1.
       -2   -1    0    0    0  501  0.00000000000E+00  0.00000000000E+00 -0.10487051914E+04  0.10487051914E+04  0.25500000920E-02 0. -1.
    10030    2    1    2    0    0  0.00000000000E+00  0.00000000000E+00  0.21908436186E+04  0.42882540015E+04  0.36863703856E+04 0.  0.
        2    1    3    3  502    0 -0.15225625461E+04 -0.88373790862E+03  0.46024694938E+03  0.18196199198E+04  0.25500000920E-02 0.  1.
       -2    1    3    3    0  502  0.15225625461E+04  0.88373790862E+03  0.17305966692E+04  0.24686340817E+04  0.25500000920E-02 0. -1.
</event>
<event>
 5   0  0.7124627E-07  0.3728646E+04  0.7818609E-02  0.8061643E-01
       -2   -1    0    0    0  501  0.00000000000E+00  0.00000000000E+00  0.19590043512E+04  0.19590043512E+04  0.25500000920E-02 0. -1.
        2   -1    0    0  501    0  0.00000000000E+00  0.00000000000E+00 -0.17742176799E+04  0.17742176799E+04  0.25500000920E-02 0.  1.
    10030    2    1    2    0    0  0.00000000000E+00  0.00000000000E+00  0.18478667126E+03  0.37332220311E+04  0.37286459499E+04 0.  0.
        2    1    3    3  502    0 -0.17736659955E+03  0.63384046508E+03  0.18388068151E+04  0.19530548249E+04  0.25500000920E-02 0. -1.
       -2    1    3    3    0  502  0.17736659955E+03 -0.63384046508E+03 -0.16540201438E+04  0.17801672062E+04  0.25500000920E-02 0.  1.
</event>
<event>
 5   0  0.7074157E-07  0.3724404E+04  0.7818609E-02  0.8062575E-01
        2   -1    0    0  501    0  0.00000000000E+00  0.00000000000E+00  0.17352092279E+04  0.17352092279E+04  0.25500000920E-02 0. -1.
       -2   -1    0    0    0  501  0.00000000000E+00  0.00000000000E+00 -0.19984892760E+04  0.19984892760E+04  0.25500000920E-02 0.  1.
    10030    2    1    2    0    0  0.00000000000E+00  0.00000000000E+00 -0.26328004815E+03  0.37336985039E+04  0.37244043999E+04 0.  0.
        3    1    3    3  502    0 -0.48235287458E+03 -0.69824442287E+03 -0.17933612870E+04  0.19840247694E+04  0.10100000352E+00 0.  1.
       -3    1    3    3    0  502  0.48235287458E+03  0.69824442287E+03  0.15300812388E+04  0.17496737345E+04  0.10100000352E+00 0. -1.
</event>
<event>
 5   0  0.2287500E-07  0.3737785E+04  0.7818609E-02  0.8059639E-01
       -1   -1    0    0    0  501  0.00000000000E+00  0.00000000000E+00  0.17941960962E+04  0.17941960962E+04  0.50400001928E-02 0.  1.
        1   -1    0    0  501    0  0.00000000000E+00  0.00000000000E+00 -0.19466988918E+04  0.19466988918E+04  0.50400001928E-02 0. -1.
    10030    2    1    2    0    0  0.00000000000E+00  0.00000000000E+00 -0.15250279563E+03  0.37408949880E+04  0.37377852010E+04 0.  0.
        4    1    3    3  502    0 -0.48323062815E+03 -0.13438983414E+04 -0.12827348876E+04  0.19196314742E+04  0.12699999809E+01 0. -1.
       -4    1    3    3    0  502  0.48323062815E+03  0.13438983414E+04  0.11302320920E+04  0.18212635138E+04  0.12699999809E+01 0.  1.
</event>
<event>
 5   0  0.2411746E-07  0.3777425E+04  0.7818609E-02  0.8051017E-01
       -1   -1    0    0    0  501  0.00000000000E+00  0.00000000000E+00  0.34494190836E+04  0.34494190836E+04  0.50400001928E-02 0. -1.
        1   -1    0    0  501    0  0.00000000000E+00  0.00000000000E+00 -0.10341554010E+04  0.10341554010E+04  0.50400001928E-02 0.  1.
    10030    2    1    2    0    0  0.00000000000E+00  0.00000000000E+00  0.24152636826E+04  0.44835744846E+04  0.37774252478E+04 0.  0.
        1    1    3    3  502    0  0.48004170914E+02  0.18869612229E+04  0.11297237780E+04  0.21998188270E+04  0.50400001928E-02 0.  1.
       -1    1    3    3    0  502 -0.48004170914E+02 -0.18869612229E+04  0.12855399046E+04  0.22837556576E+04  0.50400001928E-02 0. -1.
</event>
<event>
 5   0  0.2287500E-07  0.3696624E+04  0.7818609E-02  0.8068710E-01
        1   -1    0    0  501    0  0.00000000000E+00  0.00000000000E+00  0.20360660450E+04  0.20360660450E+04  0.50400001928E-02 0.  1.
       -1   -1    0    0    0  501  0.00000000000E+00  0.00000000000E+00 -0.16778717862E+04  0.16778717862E+04  0.50400001928E-02 0. -1.
    10030    2    1    2    0    0  0.00000000000E+00  0.00000000000E+00  0.35819425883E+03  0.37139378312E+04  0.36966242827E+04 0.  0.
        3    1    3    3  502    0  0.17404510622E+04 -0.54014394648E+02  0.80181483615E+03  0.19170275158E+04  0.10100000352E+00 0. -1.
       -3    1    3    3    0  502 -0.17404510622E+04  0.54014394648E+02 -0.44362057732E+03  0.17969103154E+04  0.10100000352E+00 0.  1.
</event>
<event>
 5   0  0.2287500E-07  0.3685838E+04  0.7818609E-02  0.8071108E-01
       -1   -1    0    0    0  501  0.00000000000E+00  0.00000000000E+00  0.13294523508E+04  0.13294523508E+04  0.50400001928E-02 0.  1.
        1   -1    0    0  501    0  0.00000000000E+00  0.00000000000E+00 -0.25546985657E+04  0.25546985657E+04  0.50400001928E-02 0. -1.
    10030    2    1    2    0    0  0.00000000000E+00  0.00000000000E+00 -0.12252462149E+04  0.38841509165E+04  0.36858377684E+04 0.  0.
        2    1    3    3  502    0 -0.63003114674E+03 -0.16210405056E+04  0.29798586468E+02  0.17394250552E+04  0.25500000920E-02 0.  1.
       -2    1    3    3    0  502  0.63003114674E+03  0.16210405056E+04 -0.12550448014E+04  0.21447258614E+04  0.25500000920E-02 0. -1.
</event>
<event>
 5   0  0.2287500E-07  0.3888896E+04  0.7818609E-02  0.8027343E-01
       -1   -1    0    0    0  501  0.00000000000E+00  0.00000000000E+00  0.19670833867E+04  0.19670833867E+04  0.50400001928E-02 0. -1.
        1   -1    0    0  501    0  0.00000000000E+00  0.00000000000E+00 -0.19220726420E+04  0.19220726420E+04  0.50400001928E-02 0.  1.
    10030    2    1    2    0    0  0.00000000000E+00  0.00000000000E+00  0.45010744675E+02  0.38891560287E+04  0.38888955564E+04 0.  0.
        3    1    3    3  502    0  0.14750586183E+04 -0.12666368912E+04  0.49156932439E+02  0.19448864634E+04  0.10100000352E+00 0. -1.
       -3    1    3    3    0  502 -0.14750586183E+04  0.12666368912E+04 -0.41461877641E+01  0.19442695653E+04  0.10100000352E+00 0.  1.
</event>
<event>
 5   0  0.6939921E-07  0.3693092E+04  0.7818609E-02  0.8069495E-01
       -2   -1    0    0    0  501  0.00000000000E+00  0.00000000000E+00  0.27840783879E+04  0.27840783879E+04  0.25500000920E-02 0.  1.
        2   -1    0    0  501    0  0.00000000000E+00  0.00000000000E+00 -0.12247253284E+04  0.12247253284E+04  0.25500000920E-02 0. -1.
    10030    2    1    2    0    0  0.00000000000E+00  0.00000000000E+00  0.15593530595E+04  0.40088037163E+04  0.36930915601E+04 0.  0.
        4    1    3    3  502    0 -0.93999166757E+03  0.92960626003E+03  0.21790617949E+04  0.25487377371E+04  0.12699999809E+01 0.  1.
       -4    1    3    3    0  502  0.93999166757E+03 -0.92960626003E+03 -0.61970873539E+03  0.14600659791E+04  0.12699999809E+01 0. -1.
</event>
<event>
 5   0  0.6939921E-07  0.3027693E+04  0.7818609E-02  0.8235867E-01
        2   -1    0    0  501    0  0.00000000000E+00  0.00000000000E+00  0.20644144492E+04  0.20644144492E+04  0.25500000920E-02 0.  1.
       -2   -1    0    0    0  501  0.00000000000E+00  0.00000000000E+00 -0.11101118959E+04  0.11101118959E+04  0.25500000920E-02 0. -1.
    10030    2    1    2    0    0  0.00000000000E+00  0.00000000000E+00  0.95430255331E+03  0.31745263451E+04  0.30276928762E+04 0.  0.
        4    1    3    3  502    0 -0.53954559091E+03  0.86067382526E+03 -0.69971835046E+03  0.12334813582E+04  0.12699999809E+01 0. -1.
       -4    1    3    3    0  502  0.53954559091E+03 -0.86067382526E+03  0.16540209038E+04  0.19410449869E+04  0.12699999809E+01 0.  1.
</event>
<event>
 5   0  0.7124627E-07  0.3702143E+04  0.7818609E-02  0.8067487E-01
        2   -1    0    0  501    0  0.00000000000E+00  0.00000000000E+00  0.22709602867E+04  0.22709602867E+04  0.25500000920E-02 0. -1.
       -2   -1    0    0    0  501  0.00000000000E+00  0.00000000000E+00 -0.15088176150E+04  0.15088176150E+04  0.25500000920E-02 0.  1.
    10030    2    1    2    0    0  0.00000000000E+00  0.00000000000E+00  0.76214267162E+03  0.37797779017E+04  0.37021425600E+04 0.  0.
        2    1    3    3  502    0 -0.11480608064E+04  0.94308090034E+03  0.15083168156E+04  0.21171832268E+04  0.25500000920E-02 0. -1.
       -2    1    3    3    0  502  0.11480608064E+04 -0.94308090034E+03 -0.74617414400E+03  0.16625946749E+04  0.25500000920E-02 0.  1.
</event>
<event>
 5   0  0.2287500E-07  0.3359776E+04  0.7818609E-02  0.8147850E-01
       -3   -1    0    0    0  501  0.00000000000E+00  0.00000000000E+00  0.11750508404E+04  0.11750508448E+04  0.10100000352E+00 0.  1.
        3   -1    0    0  501    0  0.00000000000E+00  0.00000000000E+00 -0.24016189325E+04  0.24016189346E+04  0.10100000352E+00 0. -1.
    10030    2    1    2    0    0  0.00000000000E+00  0.00000000000E+00 -0.12265680921E+04  0.35766697794E+04  0.33597763953E+04 0.  0.
        1    1    3    3  502    0  0.31464910893E+03  0.16068080854E+04 -0.21327715433E+03  0.16511582085E+04  0.50400001928E-02 0.  1.
       -1    1    3    3    0  502 -0.31464910893E+03 -0.16068080854E+04 -0.10132909377E+04  0.19255115709E+04  0.50400001928E-02 0. -1.
</event>
<event>
 5   0  0.2287500E-07  0.3663746E+04  0.7818609E-02  0.8076044E-01
        1   -1    0    0  501    0  0.00000000000E+00  0.00000000000E+00  0.13031713463E+04  0.13031713463E+04  0.50400001928E-02 0.  1.
       -1   -1    0    0    0  501  0.00000000000E+00  0.00000000000E+00 -0.25750713770E+04  0.25750713770E+04  0.50400001928E-02 0. -1.
    10030    2    1    2    0    0  0.00000000000E+00  0.00000000000E+00 -0.12719000308E+04  0.38782427233E+04  0.36637462975E+04 0.  0.
        4    1    3    3  502    0  0.75937427184E+03  0.16201437995E+04 -0.22021989895E+03  0.18027794188E+04  0.12699999809E+01 0. -1.
       -4    1    3    3    0  502 -0.75937427184E+03 -0.16201437995E+04 -0.10516801318E+04  0.20754633045E+04  0.12699999809E+01 0.  1.
</event>
<event>
 5   0  0.2287500E-07  0.3641348E+04  0.7818609E-02  0.8081086E-01
        1   -1    0    0  501    0  0.00000000000E+00  0.00000000000E+00  0.17230134411E+04  0.17230134411E+04  0.50400001928E-02 0.  1.
       -1   -1    0    0    0  501  0.00000000000E+00  0.00000000000E+00 -0.19238698443E+04  0.19238698443E+04  0.50400001928E-02 0. -1.
    10030    2    1    2    0    0  0.00000000000E+00  0.00000000000E+00 -0.20085640313E+03  0.36468832854E+04  0.36413478827E+04 0.  0.
        3    1    3    3  502    0 -0.17828229509E+04  0.14091678764E+03 -0.44232432115E+03  0.18422719752E+04  0.10100000352E+00 0.  1.
       -3    1    3    3    0  502  0.17828229509E+04 -0.14091678764E+03  0.24146791802E+03  0.18046113102E+04  0.10100000352E+00 0. -1.
</event>
<event>
 5   0  0.2287500E-07  0.3657296E+04  0.7818609E-02  0.8077492E-01
       -1   -1    0    0    0  501  0.00000000000E+00  0.00000000000E+00  0.22597260070E+04  0.22597260070E+04  0.50400001928E-02 0. -1.
        1   -1    0    0  501    0  0.00000000000E+00  0.00000000000E+00 -0.14798051760E+04  0.14798051760E+04  0.50400001928E-02 0.  1.
    10030    2    1    2    0    0  0.00000000000E+00  0.00000000000E+00  0.77992083102E+03  0.37395311830E+04  0.36572964011E+04 0.  0.
        4    1    3    3  502    0  0.41110630554E+03 -0.11096821662E+04  0.18154197376E+04  0.21670609915E+04  0.12699999809E+01 0. -1.
       -4    1    3    3    0  502 -0.41110630554E+03  0.11096821662E+04 -0.10354989066E+04  0.15724701914E+04  0.12699999809E+01 0.  1.
</event>
<event>
 5   0  0.2287500E-07  0.3733128E+04  0.7818609E-02  0.8060660E-01
        1   -1    0    0  501    0  0.00000000000E+00  0.00000000000E+00  0.11490823079E+04  0.11490823079E+04  0.50400001928E-02 0. -1.
       -1   -1    0    0    0  501  0.00000000000E+00  0.00000000000E+00 -0.30320379897E+04  0.30320379897E+04  0.50400001928E-02 0.  1.
    10030    2    1    2    0    0  0.00000000000E+00  0.00000000000E+00 -0.18829556819E+04  0.41811202976E+04  0.37331280239E+04 0.  0.
        4    1    3    3  502    0 -0.13354490596E+04  0.15135313681E+03 -0.23921875188E+04  0.27438831427E+04  0.12699999809E+01 0.  1.
       -4    1    3    3    0  502  0.13354490596E+04 -0.15135313681E+03  0.50923183692E+03  0.14372371549E+04  0.12699999809E+01 0. -1.
</event>
<event>
 5   0  0.7300916E-07  0.3804330E+04  0.7818609E-02  0.8045226E-01
        2   -1    0    0  501    0  0.00000000000E+00  0.00000000000E+00  0.16873392228E+04  0.16873392228E+04  0.25500000920E-02 0. -1.
       -2   -1    0    0    0  501  0.00000000000E+00  0.00000000000E+00 -0.21443413881E+04  0.21443413881E+04  0.25500000920E-02 0.  1.
    10030    2    1    2    0    0  0.00000000000E+00  0.00000000000E+00 -0.45700216527E+03  0.38316806109E+04  0.38043298128E+04 0.  0.
        1    1    3    3  502    0  0.11857203489E+04 -0.12265986798E+04 -0.10758307022E+04  0.20169007826E+04  0.50400001928E-02 0. -1.
       -1    1    3    3    0  502 -0.11857203489E+04  0.12265986798E+04  0.61882853690E+03  0.18147798283E+04  0.50400001928E-02 0.  1.
</event>
<event>
 5   0  0.7124627E-07  0.2658058E+04  0.7818609E-02  0.8348743E-01
       -2   -1    0    0    0  501  0.00000000000E+00  0.00000000000E+00  0.87562369529E+03  0.87562369529E+03  0.25500000920E-02 0. -1.
        2   -1    0    0  501    0  0.00000000000E+00  0.00000000000E+00 -0.20172109611E+04  0.20172109611E+04  0.25500000920E-02 0.  1.
    10030    2    1    2    0    0  0.00000000000E+00  0.00000000000E+00 -0.11415872658E+04  0.28928346564E+04  0.26580577240E+04 0.  0.
        2    1    3    3  502    0 -0.22638699324E+03  0.27266079639E+03 -0.19648386605E+04  0.19965434987E+04  0.25500000920E-02 0.  1.
       -2    1    3    3    0  502  0.22638699324E+03 -0.27266079639E+03  0.82325139463E+03  0.89629115770E+03  0.25500000920E-02 0. -1.
</event>
<event>
 5   0  0.7074157E-07  0.3706007E+04  0.7818609E-02  0.8066632E-01
       -2   -1    0    0    0  501  0.00000000000E+00  0.00000000000E+00  0.24071003220E+04  0.24071003220E+04  0.25500000920E-02 0.  1.
        2   -1    0    0  501    0  0.00000000000E+00  0.00000000000E+00 -0.14264557857E+04  0.14264557857E+04  0.25500000920E-02 0. -1.
    10030    2    1    2    0    0  0.00000000000E+00  0.00000000000E+00  0.98064453624E+03  0.38335561077E+04  0.37060071134E+04 0.  0.
        3    1    3    3  502    0  0.90274097716E+03  0.10561729414E+04  0.17585610060E+04  0.22412004320E+04  0.10100000352E+00 0.  1.
       -3    1    3    3    0  502 -0.90274097716E+03 -0.10561729414E+04 -0.77791646979E+03  0.15923556758E+04  0.10100000352E+00 0. -1.
</event>
<event>
 5   0  0.6949625E-07  0.3743877E+04  0.7818609E-02  0.8058307E-01
        2   -1    0    0  501    0  0.00000000000E+00  0.00000000000E+00  0.11533388357E+04  0.11533388357E+04  0.25500000920E-02 0.  1.
       -2   -1    0    0    0  501  0.00000000000E+00  0.00000000000E+00 -0.30382687351E+04  0.30382687351E+04  0.25500000920E-02 0. -1.
    10030    2    1    2    0    0  0.00000000000E+00  0.00000000000E+00 -0.18849298994E+04  0.41916075708E+04  0.37438767744E+04 0.  0.
        5    1    3    3  502    0  0.76970407270E+03  0.45594502180E+03  0.89850387157E+03  0.12679359288E+04  0.46999998093E+01 0.  1.
       -5    1    3    3    0  502 -0.76970407270E+03 -0.45594502180E+03 -0.27834337710E+04  0.29236716419E+04  0.46999998093E+01 0. -1.
</event>
<event>
 5   0  0.2345471E-07  0.3704359E+04  0.7818609E-02  0.8066997E-01
        1   -1    0    0  501    0  0.00000000000E+00  0.00000000000E+00  0.13130274193E+04  0.13130274193E+04  0.50400001928E-02 0. -1.
       -1   -1    0    0    0  501  0.00000000000E+00  0.00000000000E+00 -0.26127164006E+04  0.26127164006E+04  0.50400001928E-02 0.  1.
    10030    2    1    2    0    0  0.00000000000E+00  0.00000000000E+00 -0.12996889813E+04  0.39257438199E+04  0.37043586612E+04 0.  0.
        5    1    3    3  502    0 -0.14970448189E+04  0.64282476388E+03  0.28381810231E+03  0.16537659061E+04  0.46999998093E+01 0.  1.
       -5    1    3    3    0  502  0.14970448189E+04 -0.64282476388E+03 -0.15835070836E+04  0.22719779138E+04  0.46999998093E+01 0. -1.
</event>
<event>
 5   0  0.2287500E-07  0.3703539E+04  0.7818609E-02  0.8067178E-01
       -1   -1    0    0    0  501  0.00000000000E+00  0.00000000000E+00  0.17772073383E+04  0.17772073383E+04  0.50400001928E-02 0. -1.
        1   -1    0    0  501    0  0.00000000000E+00  0.00000000000E+00 -0.19294600904E+04  0.19294600904E+04  0.50400001928E-02 0.  1.
    10030    2    1    2    0    0  0.00000000000E+00  0.00000000000E+00 -0.15225275215E+03  0.37066674287E+04  0.37035391893E+04 0.  0.
        2    1    3    3  502    0 -0.17117943108E+04 -0.53443472757E+03 -0.53824182809E+03  0.18723152795E+04  0.25500000920E-02 0.  1.
       -2    1    3    3    0  502  0.17117943108E+04  0.53443472757E+03  0.38598907594E+03  0.18343521492E+04  0.25500000920E-02 0. -1.
</event>
<event>
 5   0  0.2345471E-07  0.3315538E+04  0.7818609E-02  0.8158953E-01
       -1   -1    0    0    0  501  0.00000000000E+00  0.00000000000E+00  0.11411649250E+04  0.11411649250E+04  0.50400001928E-02 0. -1.
        1   -1    0    0  501    0  0.00000000000E+00  0.00000000000E+00 -0.24082390244E+04  0.24082390245E+04  0.50400001928E-02 0.  1.
    10030    2    1    2    0    0  0.00000000000E+00  0.00000000000E+00 -0.12670740995E+04  0.35494039494E+04  0.33155379085E+04 0.  0.
        5    1    3    3  502    0  0.34154496264E+03  0.51297729925E+03 -0.22810425041E+04  0.23628321283E+04  0.46999998093E+01 0.  1.
       -5    1    3    3    0  502 -0.34154496264E+03 -0.51297729925E+03  0.10139684046E+04  0.11865718211E+04  0.46999998093E+01 0. -1.
</event>
<event>
 5   0  0.7124627E-07  0.3712027E+04  0.7818609E-02  0.8065302E-01
       -2   -1    0    0    0  501  0.00000000000E+00  0.00000000000E+00  0.31081216805E+04  0.31081216805E+04  0.25500000920E-02 0.  1.
        2   -1    0    0  501    0  0.00000000000E+00  0.00000000000E+00 -0.11083178693E+04  0.11083178693E+04  0.25500000920E-02 0. -1.
    10030    2    1    2    0    0  0.00000000000E+00  0.00000000000E+00  0.19998038112E+04  0.42164395497E+04  0.37120273697E+04 0.  0.
        2    1    3    3  502    0  0.85752490664E+03  0.16335389897E+04  0.12298681760E+04  0.22172898608E+04  0.25500000920E-02 0.  1.
       -2    1    3    3    0  502 -0.85752490664E+03 -0.16335389897E+04  0.76993563520E+03  0.19991496889E+04  0.25500000920E-02 0. -1.
</event>
<event>
 5   0  0.7300916E-07  0.3705282E+04  0.7818609E-02  0.8066792E-01
        2   -1    0    0  501    0  0.00000000000E+00  0.00000000000E+00  0.18952263229E+04  0.18952263229E+04  0.25500000920E-02 0. -1.
       -2   -1    0    0    0  501  0.00000000000E+00  0.00000000000E+00 -0.18110129733E+04  0.18110129733E+04  0.25500000920E-02 0.  1.
    10030    2    1    2    0    0  0.00000000000E+00  0.00000000000E+00  0.84213349573E+02  0.37062392962E+04  0.37052824228E+04 0.  0.
        1    1    3    3  502    0 -0.12226205780E+04 -0.71436299262E+03 -0.11528414866E+04  0.18259679779E+04  0.50400001928E-02 0.  1.
       -1    1    3    3    0  502  0.12226205780E+04  0.71436299262E+03  0.12370548362E+04  0.18802713184E+04  0.50400001928E-02 0. -1.
</event>
<event>
 5   0  0.7300916E-07  0.3699724E+04  0.7818609E-02  0.8068023E-01
       -2   -1    0    0    0  501  0.00000000000E+00  0.00000000000E+00  0.16706074436E+04  0.16706074436E+04  0.25500000920E-02 0.  1.
        2   -1    0    0  501    0  0.00000000000E+00  0.00000000000E+00 -0.20483501092E+04  0.20483501092E+04  0.25500000920E-02 0. -1.
    10030    2    1    2    0    0  0.00000000000E+00  0.00000000000E+00 -0.37774266566E+03  0.37189575528E+04  0.36997237408E+04 0.  0.
        1    1    3    3  502    0  0.10014886958E+04  0.15390859148E+04 -0.41414324709E+03  0.18823601382E+04  0.50400001928E-02 0. -1.
       -1    1    3    3    0  502 -0.10014886958E+04 -0.15390859148E+04  0.36400581430E+02  0.18365974146E+04  0.50400001928E-02 0.  1.
</event>
<event>
 5   0  0.7074157E-07  0.2863984E+04  0.7818609E-02  0.8283675E-01
        2   -1    0    0  501    0  0.00000000000E+00  0.00000000000E+00  0.12821398063E+04  0.12821398063E+04  0.25500000920E-02 0.  1.
       -2   -1    0    0    0  501  0.00000000000E+00  0.00000000000E+00 -0.15993585350E+04  0.15993585350E+04  0.25500000920E-02 0. -1.
    10030    2    1    2    0    0  0.00000000000E+00  0.00000000000E+00 -0.31721872866E+03  0.28814983413E+04  0.28639841077E+04 0.  0.
        3    1    3    3  502    0 -0.13623525154E+04 -0.43383696185E+03 -0.78231223684E+02  0.14319004924E+04  0.10100000352E+00 0. -1.
       -3    1    3    3    0  502  0.13623525154E+04  0.43383696185E+03 -0.23898750498E+03  0.14495978489E+04  0.10100000352E+00 0.  1.
</event>
<event>
 5   0  0.2287500E-07  0.3743824E+04  0.7818609E-02  0.8058319E-01
       -1   -1    0    0    0  501  0.00000000000E+00  0.00000000000E+00  0.16779112541E+04  0.16779112541E+04  0.50400001928E-02 0. -1.
        1   -1    0    0  501    0  0.00000000000E+00  0.00000000000E+00 -0.20883435656E+04  0.20883435656E+04  0.50400001928E-02 0.  1.
    10030    2    1    2    0    0  0.00000000000E+00  0.00000000000E+00 -0.41043231150E+03  0.37662548198E+04  0.37438243395E+04 0.  0.
        4    1    3    3  502    0  0.11050704078E+04 -0.15105334229E+04 -0.23950453467E+03  0.18868640287E+04  0.12699999809E+01 0. -1.
       -4    1    3    3    0  502 -0.11050704078E+04  0.15105334229E+04 -0.17092777683E+03  0.18793907911E+04  0.12699999809E+01 0.  1.
</event>
<event>
 5   0  0.7300916E-07  0.3640238E+04  0.7818609E-02  0.8081336E-01
       -2   -1    0    0    0  501  0.00000000000E+00  0.00000000000E+00  0.19217771199E+04  0.19217771199E+04  0.25500000920E-02 0. -1.
        2   -1    0    0  501    0  0.00000000000E+00  0.00000000000E+00 -0.17238387094E+04  0.17238387094E+04  0.25500000920E-02 0.  1.
    10030    2    1    2    0    0  0.00000000000E+00  0.00000000000E+00  0.19793841053E+03  0.36456158292E+04  0.36402383384E+04 0.  0.
        1    1    3    3  502    0 -0.40470814462E+02 -0.11074134060E+04  0.15449967212E+04  0.19013198592E+04  0.50400001928E-02 0. -1.
       -1    1    3    3    0  502  0.40470814462E+02  0.11074134060E+04 -0.13470583107E+04  0.17442959700E+04  0.50400001928E-02 0.  1.
</event>
<event>
 5   0  0.2287500E-07  0.3871820E+04  0.7818609E-02  0.8030916E-01
        1   -1    0    0  501    0  0.00000000000E+00  0.00000000000E+00  0.15768980722E+04  0.15768980722E+04  0.50400001928E-02 0. -1.
       -1   -1    0    0    0  501  0.00000000000E+00  0.00000000000E+00 -0.23766582239E+04  0.23766582239E+04  0.50400001928E-02 0.  1.
    10030    2    1    2    0    0  0.00000000000E+00  0.00000000000E+00 -0.79976015170E+03  0.39535562960E+04  0.38718201257E+04 0.  0.
        2    1    3    3  502    0  0.14434237480E+04  0.67306368664E+03 -0.15236867541E+04  0.22041116504E+04  0.25500000920E-02 0. -1.
       -2    1    3    3    0  502 -0.14434237480E+04 -0.67306368664E+03  0.72392660243E+03  0.17494446457E+04  0.25500000920E-02 0.  1.
</event>
<event>
 5   0  0.6949625E-07  0.3690268E+04  0.7818609E-02  0.8070122E-01
       -2   -1    0    0    0  501  0.00000000000E+00  0.00000000000E+00  0.22790764378E+04  0.22790764378E+04  0.25500000920E-02 0. -1.
        2   -1    0    0  501    0  0.00000000000E+00  0.00000000000E+00 -0.14938152786E+04  0.14938152786E+04  0.25500000920E-02 0.  1.
    10030    2    1    2    0    0  0.00000000000E+00  0.00000000000E+00  0.78526115926E+03  0.37728917164E+04  0.36902678515E+04 0.  0.
        5    1    3    3  502    0  0.14988541996E+04 -0.35154009228E+03  0.14324329214E+04  0.21028624568E+04  0.46999998093E+01 0. -1.
       -5    1    3    3    0  502 -0.14988541996E+04  0.35154009228E+03 -0.64717176213E+03  0.16700292596E+04  0.46999998093E+01 0.  1.
</event>
<event>
 5   0  0.7074157E-07  0.3731265E+04  0.7818609E-02  0.8061068E-01
        2   -1    0    0  501    0  0.00000000000E+00  0.00000000000E+00  0.16349586641E+04  0.16349586641E+04  0.25500000920E-02 0. -1.
       -2   -1    0    0    0  501  0.00000000000E+00  0.00000000000E+00 -0.21288522902E+04  0.21288522903E+04  0.25500000920E-02 0.  1.
    10030    2    1    2    0    0  0.00000000000E+00  0.00000000000E+00 -0.49389362611E+03  0.37638109544E+04  0.37312654672E+04 0.  0.
        3    1    3    3  502    0 -0.20483756424E+03  0.97093594833E+03 -0.18405718795E+04  0.20910236482E+04  0.10100000352E+00 0.  1.
       -3    1    3    3    0  502  0.20483756424E+03 -0.97093594833E+03  0.13466782534E+04  0.16727873062E+04  0.10100000352E+00 0. -1.
</event>
<event>
 5   0  0.2287500E-07  0.3698548E+04  0.7818609E-02  0.8068284E-01
        1   -1    0    0  501    0  0.00000000000E+00  0.00000000000E+00  0.14139285908E+04  0.14139285908E+04  0.50400001928E-02 0.  1.
       -1   -1    0    0    0  501  0.00000000000E+00  0.00000000000E+00 -0.24186612453E+04  0.24186612453E+04  0.50400001928E-02 0. -1.
    10030    2    1    2    0    0  0.00000000000E+00  0.00000000000E+00 -0.10047326545E+04  0.38325898361E+04  0.36985479779E+04 0.  0.
        2    1    3    3  502    0  0.94191470431E+03  0.14543109690E+04 -0.11719986894E+04  0.20918424015E+04  0.25500000920E-02 0. -1.
       -2    1    3    3    0  502 -0.94191470431E+03 -0.14543109690E+04  0.16726603488E+03  0.17407474347E+04  0.25500000920E-02 0.  1.
</event>
<event>
 5   0  0.2287500E-07  0.3009159E+04  0.7818609E-02  0.8241120E-01
       -1   -1    0    0    0  501  0.00000000000E+00  0.00000000000E+00  0.10045905789E+04  0.10045905789E+04  0.50400001928E-02 0. -1.
        1   -1    0    0  501    0  0.00000000000E+00  0.00000000000E+00 -0.22534156579E+04  0.22534156579E+04  0.50400001928E-02 0.  1.
    10030    2    1    2    0    0  0.00000000000E+00  0.00000000000E+00 -0.12488250790E+04  0.32580062368E+04  0.30091594443E+04 0.  0.
        2    1    3    3  502    0 -0.10487692877E+04  0.10308116351E+04 -0.27986577466E+03  0.14969350346E+04  0.25500000920E-02 0. -1.
       -2    1    3    3    0  502  0.10487692877E+04 -0.10308116351E+04 -0.96895930435E+03  0.17610712022E+04  0.25500000920E-02 0.  1.
</event>
<event>
 5   0  0.2345471E-07  0.3669038E+04  0.7818609E-02  0.8074858E-01
        1   -1    0    0  501    0  0.00000000000E+00  0.00000000000E+00  0.20639071830E+04  0.20639071830E+04  0.50400001928E-02 0. -1.
       -1   -1    0    0    0  501  0.00000000000E+00  0.00000000000E+00 -0.16306259485E+04  0.16306259485E+04  0.50400001928E-02 0.  1.
    10030    2    1    2    0    0  0.00000000000E+00  0.00000000000E+00  0.43328123455E+03  0.36945331315E+04  0.36690383524E+04 0.  0.
        5    1    3    3  502    0 -0.52976753912E+03  0.14319187195E+04 -0.80747794450E+03  0.17271617138E+04  0.46999998093E+01 0.  1.
       -5    1    3    3    0  502  0.52976753912E+03 -0.14319187195E+04  0.12407591790E+04  0.19673714177E+04  0.46999998093E+01 0. -1.
</event>
<event>
 5   0  0.7124627E-07  0.3685505E+04  0.7818609E-02  0.8071182E-01
       -2   -1    0    0    0  501  0.00000000000E+00  0.00000000000E+00  0.14030258810E+04  0.14030258810E+04  0.25500000920E-02 0.  1.
        2   -1    0    0  501    0  0.00000000000E+00  0.00000000000E+00 -0.24202946222E+04  0.24202946223E+04  0.25500000920E-02 0. -1.
    10030    2    1    2    0    0  0.00000000000E+00  0.00000000000E+00 -0.10172687412E+04  0.38233205033E+04  0.36855045759E+04 0.  0.
        2    1    3    3  502    0  0.53491204028E+03 -0.33240118812E+03 -0.23051883817E+04  0.23896683694E+04  0.25500000920E-02 0. -1.
       -2    1    3    3    0  502 -0.53491204028E+03  0.33240118812E+03  0.12879196405E+04  0.14336521339E+04  0.25500000920E-02 0.  1.
</event>
<event>
 5   0  0.7124627E-07  0.3677916E+04  0.7818609E-02  0.8072874E-01
       -2   -1    0    0    0  501  0.00000000000E+00  0.00000000000E+00  0.13667250438E+04  0.13667250438E+04  0.25500000920E-02 0.  1.
        2   -1    0    0  501    0  0.00000000000E+00  0.00000000000E+00 -0.24743579097E+04  0.24743579097E+04  0.25500000920E-02 0. -1.
    10030    2    1    2    0    0  0.00000000000E+00  0.00000000000E+00 -0.11076328658E+04  0.38410829535E+04  0.36779162158E+04 0.  0.
        2    1    3    3  502    0 -0.64702123559E+03 -0.15682906915E+03 -0.23440813254E+04  0.24367907371E+04  0.25500000920E-02 0. -1.
       -2    1    3    3    0  502  0.64702123559E+03  0.15682906915E+03  0.12364484595E+04  0.14042922165E+04  0.25500000920E-02 0.  1.
</event>
<event>
 5   0  0.2287500E-07  0.3663221E+04  0.7818609E-02  0.8076162E-01
        1   -1    0    0  501    0  0.00000000000E+00  0.00000000000E+00  0.10496169462E+04  0.10496169462E+04  0.50400001928E-02 0.  1.
       -1   -1    0    0    0  501  0.00000000000E+00  0.00000000000E+00 -0.31962114383E+04  0.31962114383E+04  0.50400001928E-02 0. -1.
    10030    2    1    2    0    0  0.00000000000E+00  0.00000000000E+00 -0.21465944921E+04  0.42458283845E+04  0.36632213634E+04 0.  0.
        3    1    3    3  502    0  0.75526142702E+03  0.99825263900E+03 -0.26230670103E+04  0.29064426203E+04  0.10100000352E+00 0. -1.
       -3    1    3    3    0  502 -0.75526142702E+03 -0.99825263900E+03  0.47647251824E+03  0.13393857642E+04  0.10100000352E+00 0.  1.
</event>
<event>
 5   0  0.6939921E-07  0.3684489E+04  0.7818609E-02  0.8071408E-01
       -2   -1    0    0    0  501  0.00000000000E+00  0.00000000000E+00  0.21268337201E+04  0.21268337201E+04  0.25500000920E-02 0. -1.
        2   -1    0    0  501    0  0.00000000000E+00  0.00000000000E+00 -0.15957359605E+04  0.15957359605E+04  0.25500000920E-02 0.  1.
    10030    2    1    2    0    0  0.00000000000E+00  0.00000000000E+00  0.53109775965E+03  0.37225696806E+04  0.36844891364E+04 0.  0.
        4    1    3    3  502    0 -0.30363303286E+03 -0.15406747330E+04 -0.70773072151E+03  0.17224273681E+04  0.12699999809E+01 0.  1.
       -4    1    3    3    0  502  0.30363303286E+03  0.15406747330E+04  0.12388284812E+04  0.20001423125E+04  0.12699999809E+01 0. -1.
</event>
<event>
 5   0  0.2411746E-07  0.3583065E+04  0.7818609E-02  0.8094382E-01
       -1   -1    0    0    0  501  0.00000000000E+00  0.00000000000E+00  0.21285328607E+04  0.21285328607E+04  0.50400001928E-02 0.  1.
        1   -1    0    0  501    0  0.00000000000E+00  0.00000000000E+00 -0.15078879189E+04  0.15078879189E+04  0.50400001928E-02 0. -1.
    10030    2    1    2    0    0  0.00000000000E+00  0.00000000000E+00  0.62064494176E+03  0.36364207796E+04  0.35830651602E+04 0.  0.
        1    1    3    3  502    0 -0.15015013539E+04 -0.37336032870E+03  0.12269240307E+04  0.19746510649E+04  0.50400001928E-02 0.  1.
       -1    1    3    3    0  502  0.15015013539E+04  0.37336032870E+03 -0.60627908898E+03  0.16617697147E+04  0.50400001928E-02 0. -1.
</event>
<event>
 5   0  0.7124627E-07  0.3081050E+04  0.7818609E-02  0.8220958E-01
       -2   -1    0    0    0  501  0.00000000000E+00  0.00000000000E+00  0.16395469870E+04  0.16395469870E+04  0.25500000920E-02 0. -1.
        2   -1    0    0  501    0  0.00000000000E+00  0.00000000000E+00 -0.14474832431E+04  0.14474832431E+04  0.25500000920E-02 0.  1.
    10030    2    1    2    0    0  0.00000000000E+00  0.00000000000E+00  0.19206374387E+03  0.30870302300E+04  0.30810496847E+04 0.  0.
        2    1    3    3  502    0 -0.86764729075E+03  0.20326321293E+03  0.13550891549E+04  0.16218490598E+04  0.25500000920E-02 0. -1.
       -2    1    3    3    0  502  0.86764729075E+03 -0.20326321293E+03 -0.11630254111E+04  0.14651811703E+04  0.25500000920E-02 0.  1.
</event>
<event>
 5   0  0.2345471E-07  0.3694264E+04  0.7818609E-02  0.8069234E-01
       -1   -1    0    0    0  501  0.00000000000E+00  0.00000000000E+00  0.12272453108E+04  0.12272453108E+04  0.50400001928E-02 0.  1.
        1   -1    0    0  501    0  0.00000000000E+00  0.00000000000E+00 -0.27801253858E+04  0.27801253858E+04  0.50400001928E-02 0. -1.
    10030    2    1    2    0    0  0.00000000000E+00  0.00000000000E+00 -0.15528800750E+04  0.40073706967E+04  0.36942635766E+04 0.  0.
        5    1    3    3  502    0  0.96597760686E+03  0.15576240988E+04 -0.52773010813E+03  0.19073087655E+04  0.46999998093E+01 0. -1.
       -5    1    3    3    0  502 -0.96597760686E+03 -0.15576240988E+04 -0.10251499669E+04  0.21000619311E+04  0.46999998093E+01 0.  1.
</event>
<event>
 5   0  0.7300916E-07  0.2871358E+04  0.7818609E-02  0.8281451E-01
        2   -1    0    0  501    0  0.00000000000E+00  0.00000000000E+00  0.17465171598E+04  0.17465171598E+04  0.25500000920E-02 0. -1.
       -2   -1    0    0    0  501  0.00000000000E+00  0.00000000000E+00 -0.11801623725E+04  0.11801623725E+04  0.25500000920E-02 0.  1.
    10030    2    1    2    0    0  0.00000000000E+00  0.00000000000E+00  0.56635478732E+03  0.29266795323E+04  0.28713577520E+04 0.  0.
        1    1    3    3  502    0  0.93854849844E+03  0.97760290281E+03  0.76622071741E+03  0.15568156305E+04  0.50400001928E-02 0. -1.
       -1    1    3    3    0  502 -0.93854849844E+03 -0.97760290281E+03 -0.19986593009E+03  0.13698639018E+04  0.50400001928E-02 0.  1.
</event>
<event>
 5   0  0.6949625E-07  0.3603703E+04  0.7818609E-02  0.8089644E-01
       -2   -1    0    0    0  501  0.00000000000E+00  0.00000000000E+00  0.16198209628E+04  0.16198209628E+04  0.25500000920E-02 0. -1.
        2   -1    0    0  501    0  0.00000000000E+00  0.00000000000E+00 -0.20043375566E+04  0.20043375566E+04  0.25500000920E-02 0.  1.
    10030    2    1    2    0    0  0.00000000000E+00  0.00000000000E+00 -0.38451659383E+03  0.36241585194E+04  0.36037025352E+04 0.  0.
        5    1    3    3  502    0 -0.77632124733E+03 -0.10619859991E+04 -0.14305710107E+04  0.19434619749E+04  0.46999998093E+01 0.  1.
       -5    1    3    3    0  502  0.77632124733E+03  0.10619859991E+04  0.10460544169E+04  0.16806965444E+04  0.46999998093E+01 0. -1.
</event>
<event>
 5   0  0.2411746E-07  0.3172533E+04  0.7818609E-02  0.8196109E-01
       -1   -1    0    0    0  501  0.00000000000E+00  0.00000000000E+00  0.18125037826E+04  0.18125037826E+04  0.50400001928E-02 0. -1.
        1   -1    0    0  501    0  0.00000000000E+00  0.00000000000E+00 -0.13882683845E+04  0.13882683845E+04  0.50400001928E-02 0.  1.
    10030    2    1    2    0    0  0.00000000000E+00  0.00000000000E+00  0.42423539806E+03  0.32007721671E+04  0.31725331823E+04 0.  0.
        1    1    3    3  502    0 -0.98266094684E+03 -0.61287027229E+03  0.13057446910E+04  0.17453371323E+04  0.50400001928E-02 0. -1.
       -1    1    3    3    0  502  0.98266094684E+03  0.61287027229E+03 -0.88150929297E+03  0.14554350349E+04  0.50400001928E-02 0.  1.
</event>
<event>
 5   0  0.2287500E-07  0.3643867E+04  0.7818609E-02  0.8080517E-01
        1   -1    0    0  501    0  0.00000000000E+00  0.00000000000E+00  0.18447701639E+04  0.18447701639E+04  0.50400001928E-02 0.  1.
       -1   -1    0    0    0  501  0.00000000000E+00  0.00000000000E+00 -0.17993792930E+04  0.17993792930E+04  0.50400001928E-02 0. -1.
    10030    2    1    2    0    0  0.00000000000E+00  0.00000000000E+00  0.45390870913E+02  0.36441494568E+04  0.36438667556E+04 0.  0.
        4    1    3    3  502    0 -0.16041315295E+04 -0.36460744713E+03  0.80586733660E+03  0.18318297769E+04  0.12699999809E+01 0.  1.
       -4    1    3    3    0  502  0.16041315295E+04  0.36460744713E+03 -0.76047646569E+03  0.18123196799E+04  0.12699999809E+01 0. -1.
</event>
<event>
 5   0  0.2287500E-07  0.3687901E+04  0.7818609E-02  0.8070648E-01
        1   -1    0    0  501    0  0.00000000000E+00  0.00000000000E+00  0.21153053283E+04  0.21153053283E+04  0.50400001928E-02 0. -1.
       -1   -1    0    0    0  501  0.00000000000E+00  0.00000000000E+00 -0.16074054691E+04  0.16074054691E+04  0.50400001928E-02 0.  1.
    10030    2    1    2    0    0  0.00000000000E+00  0.00000000000E+00  0.50789985920E+03  0.37227107973E+04  0.36879009495E+04 0.  0.
        4    1    3    3  502    0 -0.13947530860E+04  0.10265563900E+03  0.14670743826E+04  0.20268653650E+04  0.12699999809E+01 0. -1.
       -4    1    3    3    0  502  0.13947530860E+04 -0.10265563900E+03 -0.95917452337E+03  0.16958454323E+04  0.12699999809E+01 0.  1.
</event>
<event>
 5   0  0.7124627E-07  0.3688663E+04  0.7818609E-02  0.8070479E-01
       -2   -1    0    0    0  501  0.00000000000E+00  0.00000000000E+00  0.12849003155E+04  0.12849003155E+04  0.25500000920E-02 0.  1.
        2   -1    0    0  501    0  0.00000000000E+00  0.00000000000E+00 -0.26473331516E+04  0.26473331516E+04  0.25500000920E-02 0. -1.
    10030    2    1    2    0    0  0.00000000000E+00  0.00000000000E+00 -0.13624328361E+04  0.39322334671E+04  0.36886632818E+04 0.  0.
        2    1    3    3  502    0  0.66841040460E+03  0.13681445696E+04  0.42815744079E+03  0.15817429710E+04  0.25500000920E-02 0.  1.
       -2    1    3    3    0  502 -0.66841040460E+03 -0.13681445696E+04 -0.17905902769E+04  0.23504904960E+04  0.25500000920E-02 0. -1.
</event>
<event>
 5   0  0.7124627E-07  0.3687447E+04  0.7818609E-02  0.8070749E-01
       -2   -1    0    0    0  501  0.00000000000E+00  0.00000000000E+00  0.22952091922E+04  0.22952091922E+04  0.25500000920E-02 0. -1.
        2   -1    0    0  501    0  0.00000000000E+00  0.00000000000E+00 -0.14810485415E+04  0.14810485415E+04  0.25500000920E-02 0.  1.
    10030    2    1    2    0    0  0.00000000000E+00  0.00000000000E+00  0.81416065076E+03  0.37762577337E+04  0.36874469360E+04 0.  0.
        2    1    3    3  502    0  0.21072526342E+03  0.12415253541E+04 -0.97202592804E+03  0.15907937473E+04  0.25500000920E-02 0.  1.
       -2    1    3    3    0  502 -0.21072526342E+03 -0.12415253541E+04  0.17861865788E+04  0.21854639864E+04  0.25500000920E-02 0. -1.
</event>
<event>
 5   0  0.6939921E-07  0.3669508E+04  0.7818609E-02  0.8074753E-01
        2   -1    0    0  501    0  0.00000000000E+00  0.00000000000E+00  0.23841784824E+04  0.23841784824E+04  0.25500000920E-02 0. -1.
       -2   -1    0    0    0  501  0.00000000000E+00  0.00000000000E+00 -0.14119420032E+04  0.14119420032E+04  0.25500000920E-02 0.  1.
    10030    2    1    2    0    0  0.00000000000E+00  0.00000000000E+00  0.97223647922E+03  0.37961204855E+04  0.36695077285E+04 0.  0.
        4    1    3    3  502    0 -0.13604945641E+04  0.55131389915E+03 -0.65250730616E+03  0.16064432364E+04  0.12699999809E+01 0.  1.
       -4    1    3    3    0  502  0.13604945641E+04 -0.55131389915E+03  0.16247437854E+04  0.21896772491E+04  0.12699999809E+01 0. -1.
</event>
<event>
 5   0  0.6949625E-07  0.3679564E+04  0.7818609E-02  0.8072506E-01
        2   -1    0    0  501    0  0.00000000000E+00  0.00000000000E+00  0.12105282906E+04  0.12105282906E+04  0.25500000920E-02 0. -1.
       -2   -1    0    0    0  501  0.00000000000E+00  0.00000000000E+00 -0.27961322068E+04  0.27961322068E+04  0.25500000920E-02 0.  1.
    10030    2    1    2    0    0  0.00000000000E+00  0.00000000000E+00 -0.15856039162E+04  0.40066604974E+04  0.36795636375E+04 0.  0.
        5    1    3    3  502    0  0.71090705036E+03  0.49599234622E+03 -0.25598274367E+04  0.27026164799E+04  0.46999998093E+01 0.  1.
       -5    1    3    3    0  502 -0.71090705036E+03 -0.49599234622E+03  0.97422352049E+03  0.13040440175E+04  0.46999998093E+01 0. -1.
</event>
<event>
 5   0  0.7124627E-07  0.3664967E+04  0.7818609E-02  0.8075770E-01
        2   -1    0    0  501    0  0.00000000000E+00  0.00000000000E+00  0.13214915929E+04  0.13214915929E+04  0.25500000920E-02 0.  1.
       -2   -1    0    0    0  501  0.00000000000E+00  0.00000000000E+00 -0.25410652448E+04  0.25410652448E+04  0.25500000920E-02 0. -1.
    10030    2    1    2    0    0  0.00000000000E+00  0.00000000000E+00 -0.12195736519E+04  0.38625568377E+04  0.36649673167E+04 0.  0.
        2    1    3    3  502    0 -0.88584929124E+03 -0.15888844625E+04 -0.37717612299E+03  0.18578333159E+04  0.25500000920E-02 0.  1.
       -2    1    3    3    0  502  0.88584929124E+03  0.15888844625E+04 -0.84239752890E+03  0.20047235218E+04  0.25500000920E-02 0. -1.
</event>
<event>
 5   0  0.7300916E-07  0.3713639E+04  0.7818609E-02  0.8064946E-01
       -2   -1    0    0    0  501  0.00000000000E+00  0.00000000000E+00  0.15127870928E+04  0.15127870928E+04  0.25500000920E-02 0.  1.
        2   -1    0    0  501    0  0.00000000000E+00  0.00000000000E+00 -0.22790903956E+04  0.22790903956E+04  0.25500000920E-02 0. -1.
    10030    2    1    2    0    0  0.00000000000E+00  0.00000000000E+00 -0.76630330287E+03  0.37918774884E+04  0.37136389344E+04 0.  0.
        1    1    3    3  502    0  0.11509117885E+04  0.14342277784E+04 -0.64580887602E+03  0.19490193354E+04  0.50400001928E-02 0. -1.
       -1    1    3    3    0  502 -0.11509117885E+04 -0.14342277784E+04 -0.12049442684E+03  0.18428581530E+04  0.50400001928E-02 0.  1.
</event>
<event>
 5   0  0.6939921E-07  0.3495927E+04  0.7818609E-02  0.8114756E-01
        2   -1    0    0  501    0  0.00000000000E+00  0.00000000000E+00  0.10920267153E+04  0.10920267153E+04  0.25500000920E-02 0. -1.
       -2   -1    0    0    0  501  0.00000000000E+00  0.00000000000E+00 -0.27978959635E+04  0.27978959635E+04  0.25500000920E-02 0.  1.
    10030    2    1    2    0    0  0.00000000000E+00  0.00000000000E+00 -0.17058692482E+04  0.38899226788E+04  0.34959274241E+04 0.  0.
        4    1    3    3  502    0  0.92627935280E+03  0.69046220108E+03  0.60663251621E+03  0.13048893107E+04  0.12699999809E+01 0. -1.
       -4    1    3    3    0  502 -0.92627935280E+03 -0.69046220108E+03 -0.23125017644E+04  0.25850333681E+04  0.12699999809E+01 0.  1.
</event>
<event>
 5   0  0.6939921E-07  0.3608537E+04  0.7818609E-02  0.8088539E-01
        2   -1    0    0  501    0  0.00000000000E+00  0.00000000000E+00  0.19432548730E+04  0.19432548730E+04  0.25500000920E-02 0. -1.
       -2   -1    0    0    0  501  0.00000000000E+00  0.00000000000E+00 -0.16752225443E+04  0.16752225443E+04  0.25500000920E-02 0.  1.
    10030    2    1    2    0    0  0.00000000000E+00  0.00000000000E+00  0.26803232875E+03  0.36184774173E+04  0.36085367520E+04 0.  0.
        4    1    3    3  502    0 -0.52624449949E+03  0.10277730413E+04  0.15242451697E+04  0.19122174687E+04  0.12699999809E+01 0. -1.
       -4    1    3    3    0  502  0.52624449949E+03 -0.10277730413E+04 -0.12562128409E+04  0.17062599486E+04  0.12699999809E+01 0.  1.
</event>
<event>
 5   0  0.6949625E-07  0.3789804E+04  0.7818609E-02  0.8048346E-01
       -2   -1    0    0    0  501  0.00000000000E+00  0.00000000000E+00  0.17259563136E+04  0.17259563136E+04  0.25500000920E-02 0. -1.
        2   -1    0    0  501    0  0.00000000000E+00  0.00000000000E+00 -0.20803854975E+04  0.20803854975E+04  0.25500000920E-02 0.  1.
    10030    2    1    2    0    0  0.00000000000E+00  0.00000000000E+00 -0.35442918384E+03  0.38063418111E+04  0.37898044721E+04 0.  0.
        5    1    3    3  502    0  0.13728672367E+04 -0.98412632502E+03 -0.10396602633E+04  0.19834779117E+04  0.46999998093E+01 0.  1.
       -5    1    3    3    0  502 -0.13728672367E+04  0.98412632502E+03  0.68523107945E+03  0.18228638993E+04  0.46999998093E+01 0. -1.
</event>
<event>
 5   0  0.2287500E-07  0.2662195E+04  0.7818609E-02  0.8347377E-01
       -1   -1    0    0    0  501  0.00000000000E+00  0.00000000000E+00  0.87646005939E+03  0.87646005941E+03  0.50400001928E-02 0. -1.
        1   -1    0    0  501    0  0.00000000000E+00  0.00000000000E+00 -0.20215646757E+04  0.20215646757E+04  0.50400001928E-02 0.  1.
    10030    2    1    2    0    0  0.00000000000E+00  0.00000000000E+00 -0.11451046163E+04  0.28980247351E+04  0.26621951061E+04 0.  0.
        4    1    3    3  502    0 -0.12305466782E+04 -0.35202224330E+03 -0.97052536244E+03  0.16062645732E+04  0.12699999809E+01 0.  1.
       -4    1    3    3    0  502  0.12305466782E+04  0.35202224330E+03 -0.17457925383E+03  0.12917601619E+04  0.12699999809E+01 0. -1.
</event>
<event>
 5   0  0.6949625E-07  0.3675124E+04  0.7818609E-02  0.8073497E-01
        2   -1    0    0  501    0  0.00000000000E+00  0.00000000000E+00  0.25562709089E+04  0.25562709089E+04  0.25500000920E-02 0. -1.
       -2   -1    0    0    0  501  0.00000000000E+00  0.00000000000E+00 -0.13209215819E+04  0.13209215819E+04  0.25500000920E-02 0.  1.
    10030    2    1    2    0    0  0.00000000000E+00  0.00000000000E+00  0.12353493269E+04  0.38771924908E+04  0.36751236239E+04 0.  0.
        5    1    3    3  502    0 -0.89045767145E+03 -0.15970329549E+04  0.80985015140E+03  0.19998271129E+04  0.46999998093E+01 0.  1.
       -5    1    3    3    0  502  0.89045767145E+03  0.15970329549E+04  0.42549917553E+03  0.18773653779E+04  0.46999998093E+01 0. -1.
</event>
<event>
 5   0  0.7074157E-07  0.3594178E+04  0.7818609E-02  0.8091827E-01
       -2   -1    0    0    0  501  0.00000000000E+00  0.00000000000E+00  0.16072630694E+04  0.16072630694E+04  0.25500000920E-02 0. -1.
        2   -1    0    0  501    0  0.00000000000E+00  0.00000000000E+00 -0.20093344262E+04  0.20093344262E+04  0.25500000920E-02 0.  1.
    10030    2    1    2    0    0  0.00000000000E+00  0.00000000000E+00 -0.40207135681E+03  0.36165974956E+04  0.35941780798E+04 0.  0.
        3    1    3    3  502    0 -0.99513044948E+03 -0.79270912305E+03 -0.14781478151E+04  0.19502803231E+04  0.10100000352E+00 0.  1.
       -3    1    3    3    0  502  0.99513044948E+03  0.79270912305E+03  0.10760764583E+04  0.16663171725E+04  0.10100000352E+00 0. -1.
</event>
<event>
 5   0  0.6949625E-07  0.3660716E+04  0.7818609E-02  0.8076724E-01
        2   -1    0    0  501    0  0.00000000000E+00  0.00000000000E+00  0.15253670400E+04  0.15253670400E+04  0.25500000920E-02 0. -1.
       -2   -1    0    0    0  501  0.00000000000E+00  0.00000000000E+00 -0.21963303326E+04  0.21963303326E+04  0.25500000920E-02 0.  1.
    10030    2    1    2    0    0  0.00000000000E+00  0.00000000000E+00 -0.67096329260E+03  0.37216973727E+04  0.36607157215E+04 0.  0.
        5    1    3    3  502    0  0.16168044261E+04 -0.84113016151E+03 -0.16345503166E+03  0.18298350030E+04  0.46999998093E+01 0.  1.
       -5    1    3    3    0  502 -0.16168044261E+04  0.84113016151E+03 -0.50750826094E+03  0.18918623697E+04  0.46999998093E+01 0. -1.
</event>
<event>
 5   0  0.2411746E-07  0.3697121E+04  0.7818609E-02  0.8068600E-01
       -1   -1    0    0    0  501  0.00000000000E+00  0.00000000000E+00  0.13598800988E+04  0.13598800988E+04  0.50400001928E-02 0. -1.
        1   -1    0    0  501    0  0.00000000000E+00  0.00000000000E+00 -0.25128511355E+04  0.25128511355E+04  0.50400001928E-02 0.  1.
    10030    2    1    2    0    0  0.00000000000E+00  0.00000000000E+00 -0.11529710367E+04  0.38727312343E+04  0.36971211776E+04 0.  0.
        1    1    3    3  502    0  0.17603154088E+04 -0.20216940005E+03 -0.11283828278E+04  0.21006738468E+04  0.50400001928E-02 0. -1.
       -1    1    3    3    0  502 -0.17603154088E+04  0.20216940005E+03 -0.24588208843E+02  0.17720573875E+04  0.50400001928E-02 0.  1.
</event>
<event>
 5   0  0.2345471E-07  0.3671794E+04  0.7818609E-02  0.8074241E-01
        1   -1    0    0  501    0  0.00000000000E+00  0.00000000000E+00  0.14300371781E+04  0.14300371782E+04  0.50400001928E-02 0.  1.
       -1   -1    0    0    0  501  0.00000000000E+00  0.00000000000E+00 -0.23569445486E+04  0.23569445486E+04  0.50400001928E-02 0. -1.
    10030    2    1    2    0    0  0.00000000000E+00  0.00000000000E+00 -0.92690737045E+03  0.37869817268E+04  0.36717942924E+04 0.  0.
        5    1    3    3  502    0  0.15407306983E+04  0.39853214990E+03  0.48058441975E+03  0.16624266701E+04  0.46999998093E+01 0.  1.
       -5    1    3    3    0  502 -0.15407306983E+04 -0.39853214990E+03 -0.14074917902E+04  0.21245550566E+04  0.46999998093E+01 0. -1.
</event>
<event>
 5   0  0.2345471E-07  0.3687197E+04  0.7818609E-02  0.8070805E-01
        1   -1    0    0  501    0  0.00000000000E+00  0.00000000000E+00  0.20894130476E+04  0.20894130476E+04  0.50400001928E-02 0.  1.
       -1   -1    0    0    0  501  0.00000000000E+00  0.00000000000E+00 -0.16267031473E+04  0.16267031473E+04  0.50400001928E-02 0. -1.
    10030    2    1    2    0    0  0.00000000000E+00  0.00000000000E+00  0.46270990035E+03  0.37161161949E+04  0.36871966482E+04 0.  0.
        5    1    3    3  502    0 -0.44717134708E+03 -0.61590171199E+03  0.19236721665E+04  0.20687759248E+04  0.46999998093E+01 0.  1.
       -5    1    3    3    0  502  0.44717134708E+03  0.61590171199E+03 -0.14609622662E+04  0.16473402702E+04  0.46999998093E+01 0. -1.
</event>
<event>
 5   0  0.7300916E-07  0.3683251E+04  0.7818609E-02  0.8071684E-01
        2   -1    0    0  501    0  0.00000000000E+00  0.00000000000E+00  0.26490279158E+04  0.26490279158E+04  0.25500000920E-02 0. -1.
       -2   -1    0    0    0  501  0.00000000000E+00  0.00000000000E+00 -0.12803127890E+04  0.12803127890E+04  0.25500000920E-02 0.  1.
    10030    2    1    2    0    0  0.00000000000E+00  0.00000000000E+00  0.13687151268E+04  0.39293407048E+04  0.36832509113E+04 0.  0.
        1    1    3    3  502    0  0.38854550735E+03 -0.13230154834E+04 -0.61796172298E+03  0.15110308640E+04  0.50400001928E-02 0. -1.
       -1    1    3    3    0  502 -0.38854550735E+03  0.13230154834E+04  0.19866768498E+04  0.24183098408E+04  0.50400001928E-02 0.  1.
</event>
<event>
 5   0  0.7300916E-07  0.2890372E+04  0.7818609E-02  0.8275748E-01
       -2   -1    0    0    0  501  0.00000000000E+00  0.00000000000E+00  0.90782909925E+03  0.90782909925E+03  0.25500000920E-02 0. -1.
        2   -1    0    0  501    0  0.00000000000E+00  0.00000000000E+00 -0.23006127646E+04  0.23006127646E+04  0.25500000920E-02 0.  1.
    10030    2    1    2    0    0  0.00000000000E+00  0.00000000000E+00 -0.13927836654E+04  0.32084418639E+04  0.28903724423E+04 0.  0.
        1    1    3    3  502    0 -0.62059381316E+03 -0.12229938621E+04 -0.19048361815E+03  0.13846063254E+04  0.50400001928E-02 0.  1.
       -1    1    3    3    0  502  0.62059381316E+03  0.12229938621E+04 -0.12023000472E+04  0.18238355384E+04  0.50400001928E-02 0. -1.
</event>
<event>
 5   0  0.2287500E-07  0.3721505E+04  0.7818609E-02  0.8063213E-01
       -1   -1    0    0    0  501  0.00000000000E+00  0.00000000000E+00  0.12468817735E+04  0.12468817735E+04  0.50400001928E-02 0. -1.
        1   -1    0    0  501    0  0.00000000000E+00  0.00000000000E+00 -0.27768470089E+04  0.27768470089E+04  0.50400001928E-02 0.  1.
    10030    2    1    2    0    0  0.00000000000E+00  0.00000000000E+00 -0.15299652354E+04  0.40237287824E+04  0.37215050306E+04 0.  0.
        4    1    3    3  502    0 -0.87933926302E+03 -0.62056594094E+03  0.87619980649E+03  0.13878282820E+04  0.12699999809E+01 0. -1.
       -4    1    3    3    0  502  0.87933926302E+03  0.62056594094E+03 -0.24061650418E+04  0.26359005004E+04  0.12699999809E+01 0.  1.
</event>
<event>
 5   0  0.7124627E-07  0.3165791E+04  0.7818609E-02  0.8197910E-01
       -2   -1    0    0    0  501  0.00000000000E+00  0.00000000000E+00  0.17474269709E+04  0.17474269709E+04  0.25500000920E-02 0. -1.
        2   -1    0    0  501    0  0.00000000000E+00  0.00000000000E+00 -0.14338560501E+04  0.14338560501E+04  0.25500000920E-02 0.  1.
    10030    2    1    2    0    0  0.00000000000E+00  0.00000000000E+00  0.31357092080E+03  0.31812830210E+04  0.31657913603E+04 0.  0.
        2    1    3    3  502    0  0.44845427207E+03  0.84722674886E+03  0.14225740590E+04  0.17154070512E+04  0.25500000920E-02 0. -1.
       -2    1    3    3    0  502 -0.44845427207E+03 -0.84722674886E+03 -0.11090031382E+04  0.14658759697E+04  0.25500000920E-02 0.  1.
</event>
<event>
 5   0  0.6949625E-07  0.3654957E+04  0.7818609E-02  0.8078018E-01
        2   -1    0    0  501    0  0.00000000000E+00  0.00000000000E+00  0.24052706405E+04  0.24052706405E+04  0.25500000920E-02 0. -1.
       -2   -1    0    0    0  501  0.00000000000E+00  0.00000000000E+00 -0.13884829159E+04  0.13884829159E+04  0.25500000920E-02 0.  1.
    10030    2    1    2    0    0  0.00000000000E+00  0.00000000000E+00  0.10167877246E+04  0.37937535564E+04  0.36549567399E+04 0.  0.
        5    1    3    3  502    0  0.14412904812E+04  0.10597974035E+04  0.89561043630E+03  0.20006571249E+04  0.46999998093E+01 0. -1.
       -5    1    3    3    0  502 -0.14412904812E+04 -0.10597974035E+04  0.12117728827E+03  0.17930964316E+04  0.46999998093E+01 0.  1.
</event>
<event>
 5   0  0.6949625E-07  0.3706120E+04  0.7818609E-02  0.8066607E-01
        2   -1    0    0  501    0  0.00000000000E+00  0.00000000000E+00  0.23189918114E+04  0.23189918114E+04  0.25500000920E-02 0. -1.
       -2   -1    0    0    0  501  0.00000000000E+00  0.00000000000E+00 -0.14807430573E+04  0.14807430573E+04  0.25500000920E-02 0.  1.
    10030    2    1    2    0    0  0.00000000000E+00  0.00000000000E+00  0.83824875408E+03  0.37997348687E+04  0.37061198171E+04 0.  0.
        5    1    3    3  502    0  0.14982861759E+04  0.10877686425E+04  0.34167247697E+03  0.18827809899E+04  0.46999998093E+01 0.  1.
       -5    1    3    3    0  502 -0.14982861759E+04 -0.10877686425E+04  0.49657627711E+03  0.19169538788E+04  0.46999998093E+01 0. -1.
</event>
<event>
 5   0  0.2411746E-07  0.3732953E+04  0.7818609E-02  0.8060698E-01
       -1   -1    0    0    0  501  0.00000000000E+00  0.00000000000E+00  0.17059399823E+04  0.17059399823E+04  0.50400001928E-02 0.  1.
        1   -1    0    0  501    0  0.00000000000E+00  0.00000000000E+00 -0.20421202965E+04  0.20421202965E+04  0.50400001928E-02 0. -1.
    10030    2    1    2    0    0  0.00000000000E+00  0.00000000000E+00 -0.33618031427E+03  0.37480602788E+04  0.37329530736E+04 0.  0.
        1    1    3    3  502    0 -0.77605386782E+03 -0.56132609521E+03 -0.17765684356E+04  0.20183017607E+04  0.50400001928E-02 0. -1.
       -1    1    3    3    0  502  0.77605386782E+03  0.56132609521E+03  0.14403881213E+04  0.17297585181E+04  0.50400001928E-02 0.  1.
</event>
<event>
 5   0  0.2287500E-07  0.3701602E+04  0.7818609E-02  0.8067607E-01
       -1   -1    0    0    0  501  0.00000000000E+00  0.00000000000E+00  0.17349124196E+04  0.17349124196E+04  0.50400001928E-02 0.  1.
        1   -1    0    0  501    0  0.00000000000E+00  0.00000000000E+00 -0.19744303151E+04  0.19744303151E+04  0.50400001928E-02 0. -1.
    10030    2    1    2    0    0  0.00000000000E+00  0.00000000000E+00 -0.23951789546E+03  0.37093427347E+04  0.37016016400E+04 0.  0.
        4    1    3    3  502    0 -0.95646728119E+03  0.10140536297E+04  0.11002959908E+04  0.17758905665E+04  0.12699999809E+01 0.  1.
       -4    1    3    3    0  502  0.95646728119E+03 -0.10140536297E+04 -0.13398138863E+04  0.19334521682E+04  0.12699999809E+01 0. -1.
</event>
<event>
 5   0  0.7074157E-07  0.3721056E+04  0.7818609E-02  0.8063312E-01
        2   -1    0    0  501    0  0.00000000000E+00  0.00000000000E+00  0.15168209064E+04  0.15168209064E+04  0.25500000920E-02 0. -1.
       -2   -1    0    0    0  501  0.00000000000E+00  0.00000000000E+00 -0.22821178156E+04  0.22821178156E+04  0.25500000920E-02 0.  1.
    10030    2    1    2    0    0  0.00000000000E+00  0.00000000000E+00 -0.76529690914E+03  0.37989387220E+04  0.37210557715E+04 0.  0.
        3    1    3    3  502    0 -0.10689784382E+04 -0.39006589928E+03  0.11201310722E+04  0.15967341470E+04  0.10100000352E+00 0. -1.
       -3    1    3    3    0  502  0.10689784382E+04  0.39006589928E+03 -0.18854279813E+04  0.22022045750E+04  0.10100000352E+00 0.  1.
</event>
<event>
 5   0  0.7300916E-07  0.3700654E+04  0.7818609E-02  0.8067817E-01
        2   -1    0    0  501    0  0.00000000000E+00  0.00000000000E+00  0.21135262798E+04  0.21135262798E+04  0.25500000920E-02 0.  1.
       -2   -1    0    0    0  501  0.00000000000E+00  0.00000000000E+00 -0.16199041459E+04  0.16199041459E+04  0.25500000920E-02 0. -1.
    10030    2    1    2    0    0  0.00000000000E+00  0.00000000000E+00  0.49362213389E+03  0.37334304258E+04  0.37006539872E+04 0.  0.
        1    1    3    3  502    0 -0.16337941871E+03 -0.13572868693E+03  0.21011863993E+04  0.21118947406E+04  0.50400001928E-02 0.  1.
       -1    1    3    3    0  502  0.16337941871E+03  0.13572868693E+03 -0.16075642654E+04  0.16215356852E+04  0.50400001928E-02 0. -1.
</event>
<event>
 5   0  0.6949625E-07  0.3708325E+04  0.7818609E-02  0.8066119E-01
        2   -1    0    0  501    0  0.00000000000E+00  0.00000000000E+00  0.30478485776E+04  0.30478485776E+04  0.25500000920E-02 0. -1.
       -2   -1    0    0    0  501  0.00000000000E+00  0.00000000000E+00 -0.11279823395E+04  0.11279823395E+04  0.25500000920E-02 0.  1.
    10030    2    1    2    0    0  0.00000000000E+00  0.00000000000E+00  0.19198662382E+04  0.41758309171E+04  0.37083254274E+04 0.  0.
        5    1    3    3  502    0  0.69341627806E+03 -0.12362457032E+04 -0.38606941958E+03  0.14690817745E+04  0.46999998093E+01 0.  1.
       -5    1    3    3    0  502 -0.69341627806E+03  0.12362457032E+04  0.23059356578E+04  0.27067491426E+04  0.46999998093E+01 0. -1.
</event>
<event>
 5   0  0.6949625E-07  0.3707654E+04  0.7818609E-02  0.8066268E-01
       -2   -1    0    0    0  501  0.00000000000E+00  0.00000000000E+00  0.12432427820E+04  0.12432427820E+04  0.25500000920E-02 0. -1.
        2   -1    0    0  501    0  0.00000000000E+00  0.00000000000E+00 -0.27642828362E+04  0.27642828362E+04  0.25500000920E-02 0.  1.
    10030    2    1    2    0    0  0.00000000000E+00  0.00000000000E+00 -0.15210400542E+04  0.40075256182E+04  0.37076540742E+04 0.  0.
        5    1    3    3  502    0 -0.13726215315E+04  0.11927927498E+04 -0.11499488854E+04  0.21515689489E+04  0.46999998093E+01 0. -1.
       -5    1    3    3    0  502  0.13726215315E+04 -0.11927927498E+04 -0.37109116874E+03  0.18559566693E+04  0.46999998093E+01 0.  1.
</event>
<event>
 5   0  0.7074157E-07  0.3636503E+04  0.7818609E-02  0.8082181E-01
       -2   -1    0    0    0  501  0.00000000000E+00  0.00000000000E+00  0.14778379709E+04  0.14778379709E+04  0.25500000920E-02 0. -1.
        2   -1    0    0  501    0  0.00000000000E+00  0.00000000000E+00 -0.22370776043E+04  0.22370776043E+04  0.25500000920E-02 0.  1.
    10030    2    1    2    0    0  0.00000000000E+00  0.00000000000E+00 -0.75923963332E+03  0.37149155752E+04  0.36365028406E+04 0.  0.
        3    1    3    3  502    0 -0.76246744884E+03 -0.11891594714E+03  0.13022523212E+04  0.15137234659E+04  0.10100000352E+00 0. -1.
       -3    1    3    3    0  502  0.76246744884E+03  0.11891594714E+03 -0.20614919545E+04  0.22011921093E+04  0.10100000352E+00 0.  1.
</event>
<event>
 5   0  0.6939921E-07  0.3713032E+04  0.7818609E-02  0.8065080E-01
        2   -1    0    0  501    0  0.00000000000E+00  0.00000000000E+00  0.23718164487E+04  0.23718164487E+04  0.25500000920E-02 0. -1.
       -2   -1    0    0    0  501  0.00000000000E+00  0.00000000000E+00 -0.14531695118E+04  0.14531695118E+04  0.25500000920E-02 0.  1.
    10030    2    1    2    0    0  0.00000000000E+00  0.00000000000E+00  0.91864693695E+03  0.38249859605E+04  0.37130318344E+04 0.  0.
        4    1    3    3  502    0 -0.54583730296E+03 -0.17179668326E+04  0.91690257795E+03  0.20223897620E+04  0.12699999809E+01 0. -1.
       -4    1    3    3    0  502  0.54583730296E+03  0.17179668326E+04  0.17443589994E+01  0.18025961985E+04  0.12699999809E+01 0.  1.
</event>
<event>
 5   0  0.2287500E-07  0.4454047E+04  0.7818609E-02  0.7918732E-01
        3   -1    0    0  501    0  0.00000000000E+00  0.00000000000E+00  0.24820767064E+04  0.24820767084E+04  0.10100000352E+00 0. -1.
       -3   -1    0    0    0  501  0.00000000000E+00  0.00000000000E+00 -0.19981788994E+04  0.19981789019E+04  0.10100000352E+00 0.  1.
    10030    2    1    2    0    0  0.00000000000E+00  0.00000000000E+00  0.48389780701E+03  0.44802556104E+04  0.44540468393E+04 0.  0.
        1    1    3    3  502    0  0.16477039209E+04  0.13835779768E+04  0.82015046333E+03  0.23025774713E+04  0.50400001928E-02 0. -1.
       -1    1    3    3    0  502 -0.16477039209E+04 -0.13835779768E+04 -0.33625265632E+03  0.21776781391E+04  0.50400001928E-02 0.  1.
</event>
<event>
 5   0  0.7074157E-07  0.3704380E+04  0.7818609E-02  0.8066992E-01
       -2   -1    0    0    0  501  0.00000000000E+00  0.00000000000E+00  0.15834445526E+04  0.15834445526E+04  0.25500000920E-02 0. -1.
        2   -1    0    0  501    0  0.00000000000E+00  0.00000000000E+00 -0.21665469967E+04  0.21665469967E+04  0.25500000920E-02 0.  1.
    10030    2    1    2    0    0  0.00000000000E+00  0.00000000000E+00 -0.58310244410E+03  0.37499915494E+04  0.37043795918E+04 0.  0.
        3    1    3    3  502    0  0.14859621365E+04  0.90605514107E+03  0.34996105907E+03  0.17752442488E+04  0.10100000352E+00 0. -1.
       -3    1    3    3    0  502 -0.14859621365E+04 -0.90605514107E+03 -0.93306350317E+03  0.19747473005E+04  0.10100000352E+00 0.  1.
</event>
<event>
 5   0  0.6939921E-07  0.3693541E+04  0.7818609E-02  0.8069395E-01
       -2   -1    0    0    0  501  0.00000000000E+00  0.00000000000E+00  0.17464960738E+04  0.17464960738E+04  0.25500000920E-02 0.  1.
        2   -1    0    0  501    0  0.00000000000E+00  0.00000000000E+00 -0.19528018780E+04  0.19528018780E+04  0.25500000920E-02 0. -1.
    10030    2    1    2    0    0  0.00000000000E+00  0.00000000000E+00 -0.20630580425E+03  0.36992979518E+04  0.36935407472E+04 0.  0.
        4    1    3    3  502    0  0.16114562964E+04 -0.90032541413E+03 -0.15964963423E+03  0.18527997369E+04  0.12699999809E+01 0. -1.
       -4    1    3    3    0  502 -0.16114562964E+04  0.90032541413E+03 -0.46656170019E+02  0.18464982149E+04  0.12699999809E+01 0.  1.
</event>
<event>
 5   0  0.7300916E-07  0.3687978E+04  0.7818609E-02  0.8070631E-01
       -2   -1    0    0    0  501  0.00000000000E+00  0.00000000000E+00  0.13364184415E+04  0.13364184415E+04  0.25500000920E-02 0.  1.
        2   -1    0    0  501    0  0.00000000000E+00  0.00000000000E+00 -0.25443346842E+04  0.25443346842E+04  0.25500000920E-02 0. -1.
    10030    2    1    2    0    0  0.00000000000E+00  0.00000000000E+00 -0.12079162427E+04  0.38807531257E+04  0.36879781959E+04 0.  0.
        1    1    3    3  502    0 -0.16855460585E+03  0.89803216962E+03 -0.22893744368E+04  0.24649762159E+04  0.50400001928E-02 0. -1.
       -1    1    3    3    0  502  0.16855460585E+03 -0.89803216962E+03  0.10814581941E+04  0.14157769098E+04  0.50400001928E-02 0.  1.
</event>
<event>
 5   0  0.2287500E-07  0.3714259E+04  0.7818609E-02  0.8064809E-01
        1   -1    0    0  501    0  0.00000000000E+00  0.00000000000E+00  0.17998915383E+04  0.17998915383E+04  0.50400001928E-02 0.  1.
       -1   -1    0    0    0  501  0.00000000000E+00  0.00000000000E+00 -0.19161880437E+04  0.19161880438E+04  0.50400001928E-02 0. -1.
    10030    2    1    2    0    0  0.00000000000E+00  0.00000000000E+00 -0.11629650543E+03  0.37160795821E+04  0.37142593586E+04 0.  0.
        4    1    3    3  502    0  0.10068407974E+04  0.67089889367E+02  0.15016858946E+04  0.18092240280E+04  0.12699999809E+01 0.  1.
       -4    1    3    3    0  502 -0.10068407974E+04 -0.67089889367E+02 -0.16179824000E+04  0.19068555541E+04  0.12699999809E+01 0. -1.
</event>
<event>
 5   0  0.7074157E-07  0.3655838E+04  0.7818609E-02  0.8077820E-01
        2   -1    0    0  501    0  0.00000000000E+00  0.00000000000E+00  0.22868648310E+04  0.22868648310E+04  0.25500000920E-02 0.  1.
       -2   -1    0    0    0  501  0.00000000000E+00  0.00000000000E+00 -0.14610780113E+04  0.14610780113E+04  0.25500000920E-02 0. -1.
    10030    2    1    2    0    0  0.00000000000E+00  0.00000000000E+00  0.82578681966E+03  0.37479428423E+04  0.36558380268E+04 0.  0.
        3    1    3    3  502    0 -0.21209768293E+03 -0.13841553235E+04  0.16174052894E+04  0.21393623506E+04  0.10100000352E+00 0.  1.
       -3    1    3    3    0  502  0.21209768293E+03  0.13841553235E+04 -0.79161846969E+03  0.16085804918E+04  0.10100000352E+00 0. -1.
</event>
<event>
 5   0  0.6949625E-07  0.3717145E+04  0.7818609E-02  0.8064173E-01
        2   -1    0    0  501    0  0.00000000000E+00  0.00000000000E+00  0.14482792252E+04  0.14482792252E+04  0.25500000920E-02 0. -1.
       -2   -1    0    0    0  501  0.00000000000E+00  0.00000000000E+00 -0.23851002405E+04  0.23851002405E+04  0.25500000920E-02 0.  1.
    10030    2    1    2    0    0  0.00000000000E+00  0.00000000000E+00 -0.93682101525E+03  0.38333794657E+04  0.37171446722E+04 0.  0.
        5    1    3    3  502    0  0.15269571629E+04 -0.96516033351E+03 -0.17548085862E+02  0.18065056524E+04  0.46999998093E+01 0.  1.
       -5    1    3    3    0  502 -0.15269571629E+04  0.96516033351E+03 -0.91927292939E+03  0.20268738134E+04  0.46999998093E+01 0. -1.
</event>
<event>
 5   0  0.2287500E-07  0.3707866E+04  0.7818609E-02  0.8066221E-01
        1   -1    0    0  501    0  0.00000000000E+00  0.00000000000E+00  0.22519773940E+04  0.22519773940E+04  0.50400001928E-02 0.  1.
       -1   -1    0    0    0  501  0.00000000000E+00  0.00000000000E+00 -0.15262446516E+04  0.15262446516E+04  0.50400001928E-02 0. -1.
    10030    2    1    2    0    0  0.00000000000E+00  0.00000000000E+00  0.72573274243E+03  0.37782220456E+04  0.37078664771E+04 0.  0.
        3    1    3    3  502    0  0.11279488121E+04 -0.14545047274E+04  0.13681029386E+03  0.18456894623E+04  0.10100000352E+00 0.  1.
       -3    1    3    3    0  502 -0.11279488121E+04  0.14545047274E+04  0.58892244857E+03  0.19325325832E+04  0.10100000352E+00 0. -1.
</event>
<event>
 5   0  0.2287500E-07  0.3410427E+04  0.7818609E-02  0.8135352E-01
        1   -1    0    0  501    0  0.00000000000E+00  0.00000000000E+00  0.26560530545E+04  0.26560530545E+04  0.50400001928E-02 0. -1.
       -1   -1    0    0    0  501  0.00000000000E+00  0.00000000000E+00 -0.10947647608E+04  0.10947647608E+04  0.50400001928E-02 0.  1.
    10030    2    1    2    0    0  0.00000000000E+00  0.00000000000E+00  0.15612882937E+04  0.37508178154E+04  0.34104271211E+04 0.  0.
        4    1    3    3  502    0  0.27168258510E+03 -0.58757475700E+03  0.25156587518E+04  0.25976135376E+04  0.12699999809E+01 0. -1.
       -4    1    3    3    0  502 -0.27168258510E+03  0.58757475700E+03 -0.95437045811E+03  0.11532042778E+04  0.12699999809E+01 0.  1.
</event>
<event>
 5   0  0.6939921E-07  0.3713265E+04  0.7818609E-02  0.8065029E-01
       -2   -1    0    0    0  501  0.00000000000E+00  0.00000000000E+00  0.15004905983E+04  0.15004905983E+04  0.25500000920E-02 0. -1.
        2   -1    0    0  501    0  0.00000000000E+00  0.00000000000E+00 -0.22973043819E+04  0.22973043819E+04  0.25500000920E-02 0.  1.
    10030    2    1    2    0    0  0.00000000000E+00  0.00000000000E+00 -0.79681378362E+03  0.37977949802E+04  0.37132646695E+04 0.  0.
        4    1    3    3  502    0 -0.74560275246E+03 -0.31533656459E+03  0.13104734290E+04  0.15403580215E+04  0.12699999809E+01 0. -1.
       -4    1    3    3    0  502  0.74560275246E+03  0.31533656459E+03 -0.21072872126E+04  0.22574369587E+04  0.12699999809E+01 0.  1.
</event>
<event>
 5   0  0.2287500E-07  0.3633036E+04  0.7818609E-02  0.8082966E-01
        1   -1    0    0  501    0  0.00000000000E+00  0.00000000000E+00  0.17420803675E+04  0.17420803675E+04  0.50400001928E-02 0.  1.
       -1   -1    0    0    0  501  0.00000000000E+00  0.00000000000E+00 -0.18941357904E+04  0.18941357904E+04  0.50400001928E-02 0. -1.
    10030    2    1    2    0    0  0.00000000000E+00  0.00000000000E+00 -0.15205542286E+03  0.36362161579E+04  0.36330355208E+04 0.  0.
        3    1    3    3  502    0  0.32776751888E+02  0.15957408574E+04  0.79206867524E+03  0.17818069468E+04  0.10100000352E+00 0.  1.
       -3    1    3    3    0  502 -0.32776751888E+02 -0.15957408574E+04 -0.94412409810E+03  0.18544092111E+04  0.10100000352E+00 0. -1.
</event>
<event>
 5   0  0.6949625E-07  0.3639014E+04  0.7818609E-02  0.8081613E-01
       -2   -1    0    0    0  501  0.00000000000E+00  0.00000000000E+00  0.13091214897E+04  0.13091214897E+04  0.25500000920E-02 0. -1.
        2   -1    0    0  501    0  0.00000000000E+00  0.00000000000E+00 -0.25288759398E+04  0.25288759398E+04  0.25500000920E-02 0.  1.
    10030    2    1    2    0    0  0.00000000000E+00  0.00000000000E+00 -0.12197544501E+04  0.38379974295E+04  0.36390140630E+04 0.  0.
        5    1    3    3  502    0 -0.56340514820E+03  0.78307347677E+02 -0.24326833205E+04  0.24983049513E+04  0.46999998093E+01 0.  1.
       -5    1    3    3    0  502  0.56340514820E+03 -0.78307347677E+02  0.12129288704E+04  0.13396924783E+04  0.46999998093E+01 0. -1.
</event>
<event>
 5   0  0.7124627E-07  0.3709474E+04  0.7818609E-02  0.8065865E-01
        2   -1    0    0  501    0  0.00000000000E+00  0.00000000000E+00  0.13782208169E+04  0.13782208169E+04  0.25500000920E-02 0.  1.
       -2   -1    0    0    0  501  0.00000000000E+00  0.00000000000E+00 -0.24960080282E+04  0.24960080282E+04  0.25500000920E-02 0. -1.
    10030    2    1    2    0    0  0.00000000000E+00  0.00000000000E+00 -0.11177872113E+04  0.38742288451E+04  0.37094744769E+04 0.  0.
        2    1    3    3  502    0 -0.77067938238E+03  0.14970246593E+04  0.25348409497E+03  0.17027283187E+04  0.25500000920E-02 0.  1.
       -2    1    3    3    0  502  0.77067938238E+03 -0.14970246593E+04 -0.13712713062E+04  0.21715005264E+04  0.25500000920E-02 0. -1.
</event>
<event>
 5   0  0.6949625E-07  0.3685285E+04  0.7818609E-02  0.8071231E-01
       -2   -1    0    0    0  501  0.00000000000E+00  0.00000000000E+00  0.27197305595E+04  0.27197305595E+04  0.25500000920E-02 0.  1.
        2   -1    0    0  501    0  0.00000000000E+00  0.00000000000E+00 -0.12484070116E+04  0.12484070116E+04  0.25500000920E-02 0. -1.
    10030    2    1    2    0    0  0.00000000000E+00  0.00000000000E+00  0.14713235480E+04  0.39681375711E+04  0.36852846295E+04 0.  0.
        5    1    3    3  502    0  0.12429249538E+04 -0.78037051094E+03 -0.46406805102E+03  0.15392276703E+04  0.46999998093E+01 0. -1.
       -5    1    3    3    0  502 -0.12429249538E+04  0.78037051094E+03  0.19353915990E+04  0.24289099008E+04  0.46999998093E+01 0.  1.
</event>
<event>
 5   0  0.2345471E-07  0.3655230E+04  0.7818609E-02  0.8077956E-01
       -1   -1    0    0    0  501  0.00000000000E+00  0.00000000000E+00  0.27666554215E+04  0.27666554215E+04  0.50400001928E-02 0.  1.
        1   -1    0    0  501    0  0.00000000000E+00  0.00000000000E+00 -0.12072978298E+04  0.12072978299E+04  0.50400001928E-02 0. -1.
    10030    2    1    2    0    0  0.00000000000E+00  0.00000000000E+00  0.15593575916E+04  0.39739532514E+04  0.36552302726E+04 0.  0.
        5    1    3    3  502    0 -0.63121917703E+03  0.13445527559E+04  0.19373746468E+04  0.24412501664E+04  0.46999998093E+01 0.  1.
       -5    1    3    3    0  502  0.63121917703E+03 -0.13445527559E+04 -0.37801705512E+03  0.15327030850E+04  0.46999998093E+01 0. -1.
</event>
<event>
 5   0  0.2287500E-07  0.3622209E+04  0.7818609E-02  0.8085423E-01
        1   -1    0    0  501    0  0.00000000000E+00  0.00000000000E+00  0.18740944419E+04  0.18740944419E+04  0.50400001928E-02 0.  1.
       -1   -1    0    0    0  501  0.00000000000E+00  0.00000000000E+00 -0.17502319499E+04  0.17502319499E+04  0.50400001928E-02 0. -1.
    10030    2    1    2    0    0  0.00000000000E+00  0.00000000000E+00  0.12386249200E+03  0.36243263918E+04  0.36222092537E+04 0.  0.
        4    1    3    3  502    0 -0.10280705761E+04 -0.87811682760E+03 -0.11437959318E+04  0.17709570912E+04  0.12699999809E+01 0. -1.
       -4    1    3    3    0  502  0.10280705761E+04  0.87811682760E+03  0.12676584238E+04  0.18533693006E+04  0.12699999809E+01 0.  1.
</event>
<event>
 5   0  0.7074157E-07  0.3231108E+04  0.7818609E-02  0.8180649E-01
       -2   -1    0    0    0  501  0.00000000000E+00  0.00000000000E+00  0.19092381138E+04  0.19092381138E+04  0.25500000920E-02 0.  1.
        2   -1    0    0  501    0  0.00000000000E+00  0.00000000000E+00 -0.13670455432E+04  0.13670455432E+04  0.25500000920E-02 0. -1.
    10030    2    1    2    0    0  0.00000000000E+00  0.00000000000E+00  0.54219257059E+03  0.32762836569E+04  0.32311084502E+04 0.  0.
        3    1    3    3  502    0 -0.34165129655E+03 -0.57422352883E+03  0.17625650021E+04  0.18849651631E+04  0.10100000352E+00 0.  1.
       -3    1    3    3    0  502  0.34165129655E+03  0.57422352883E+03 -0.12203724315E+04  0.13913184938E+04  0.10100000352E+00 0. -1.
</event>
<event>
 5   0  0.2287500E-07  0.3578451E+04  0.7818609E-02  0.8095446E-01
        1   -1    0    0  501    0  0.00000000000E+00  0.00000000000E+00  0.25289482615E+04  0.25289482615E+04  0.50400001928E-02 0. -1.
       -1   -1    0    0    0  501  0.00000000000E+00  0.00000000000E+00 -0.12658734091E+04  0.12658734091E+04  0.50400001928E-02 0.  1.
    10030    2    1    2    0    0  0.00000000000E+00  0.00000000000E+00  0.12630748524E+04  0.37948216706E+04  0.35784512612E+04 0.  0.
        2    1    3    3  502    0  0.16467950379E+04 -0.90905425178E+02  0.13671138209E+04  0.21422413246E+04  0.25500000920E-02 0. -1.
       -2    1    3    3    0  502 -0.16467950379E+04  0.90905425178E+02 -0.10403896853E+03  0.16525803461E+04  0.25500000920E-02 0.  1.
</event>
<event>
 5   0  0.6939921E-07  0.3032739E+04  0.7818609E-02  0.8234443E-01
        2   -1    0    0  501    0  0.00000000000E+00  0.00000000000E+00  0.13897289042E+04  0.13897289042E+04  0.25500000920E-02 0. -1.
       -2   -1    0    0    0  501  0.00000000000E+00  0.00000000000E+00 -0.16545508649E+04  0.16545508649E+04  0.25500000920E-02 0.  1.
    10030    2    1    2    0    0  0.00000000000E+00  0.00000000000E+00 -0.26482196070E+03  0.30442797692E+04  0.30327394616E+04 0.  0.
        4    1    3    3  502    0  0.10732770135E+04 -0.26512098959E+03  0.90940291313E+03  0.14315124722E+04  0.12699999809E+01 0. -1.
       -4    1    3    3    0  502 -0.10732770135E+04  0.26512098959E+03 -0.11742248738E+04  0.16127672969E+04  0.12699999809E+01 0.  1.
</event>
<event>
 5   0  0.2287500E-07  0.3858162E+04  0.7818609E-02  0.8033787E-01
       -1   -1    0    0    0  501  0.00000000000E+00  0.00000000000E+00  0.24109830768E+04  0.24109830768E+04  0.50400001928E-02 0. -1.
        1   -1    0    0  501    0  0.00000000000E+00  0.00000000000E+00 -0.15435002822E+04  0.15435002822E+04  0.50400001928E-02 0.  1.
    10030    2    1    2    0    0  0.00000000000E+00  0.00000000000E+00  0.86748279455E+03  0.39544833590E+04  0.38581617692E+04 0.  0.
        4    1    3    3  502    0  0.16600228359E+04 -0.92573546572E+03  0.95829820096E+02  0.19031150610E+04  0.12699999809E+01 0. -1.
       -4    1    3    3    0  502 -0.16600228359E+04  0.92573546572E+03  0.77165297446E+03  0.20513682980E+04  0.12699999809E+01 0.  1.
</event>
<event>
 5   0  0.2411746E-07  0.3688302E+04  0.7818609E-02  0.8070559E-01
        1   -1    0    0  501    0  0.00000000000E+00  0.00000000000E+00  0.12859117271E+04  0.12859117271E+04  0.50400001928E-02 0. -1.
       -1   -1    0    0    0  501  0.00000000000E+00  0.00000000000E+00 -0.26447324774E+04  0.26447324774E+04  0.50400001928E-02 0.  1.
    10030    2    1    2    0    0  0.00000000000E+00  0.00000000000E+00 -0.13588207503E+04  0.39306442045E+04  0.36883017814E+04 0.  0.
        1    1    3    3  502    0  0.53050621397E+03  0.13364084927E+04  0.55122270645E+03  0.15398931699E+04  0.50400001928E-02 0. -1.
       -1    1    3    3    0  502 -0.53050621397E+03 -0.13364084927E+04 -0.19100434568E+04  0.23907510346E+04  0.50400001928E-02 0.  1.
</event>
<event>
 5   0  0.2345471E-07  0.3753562E+04  0.7818609E-02  0.8056194E-01
        1   -1    0    0  501    0  0.00000000000E+00  0.00000000000E+00  0.19886455372E+04  0.19886455372E+04  0.50400001928E-02 0. -1.
       -1   -1    0    0    0  501  0.00000000000E+00  0.00000000000E+00 -0.17712092452E+04  0.17712092452E+04  0.50400001928E-02 0.  1.
    10030    2    1    2    0    0  0.00000000000E+00  0.00000000000E+00  0.21743629202E+03  0.37598547824E+04  0.37535622339E+04 0.  0.
        5    1    3    3  502    0 -0.91665905790E+03 -0.95259650902E+03 -0.12256491983E+04  0.18027595471E+04  0.46999998093E+01 0.  1.
       -5    1    3    3    0  502  0.91665905790E+03  0.95259650902E+03  0.14430854903E+04  0.19570952352E+04  0.46999998093E+01 0. -1.
</event>
<event>
 5   0  0.2287500E-07  0.3623906E+04  0.7818609E-02  0.8085038E-01
        1   -1    0    0  501    0  0.00000000000E+00  0.00000000000E+00  0.19898835567E+04  0.19898835567E+04  0.50400001928E-02 0.  1.
       -1   -1    0    0    0  501  0.00000000000E+00  0.00000000000E+00 -0.16499328677E+04  0.16499328677E+04  0.50400001928E-02 0. -1.
    10030    2    1    2    0    0  0.00000000000E+00  0.00000000000E+00  0.33995068898E+03  0.36398164244E+04  0.36239063361E+04 0.  0.
        3    1    3    3  502    0  0.29188404327E+03  0.14764623103E+04 -0.84343259526E+03  0.17252581840E+04  0.10100000352E+00 0. -1.
       -3    1    3    3    0  502 -0.29188404327E+03 -0.14764623103E+04  0.11833832842E+04  0.19145582404E+04  0.10100000352E+00 0.  1.
</event>
<event>
 5   0  0.7124627E-07  0.3295615E+04  0.7818609E-02  0.8164012E-01
       -2   -1    0    0    0  501  0.00000000000E+00  0.00000000000E+00  0.11927362356E+04  0.11927362356E+04  0.25500000920E-02 0.  1.
        2   -1    0    0  501    0  0.00000000000E+00  0.00000000000E+00 -0.22765042095E+04  0.22765042095E+04  0.25500000920E-02 0. -1.
    10030    2    1    2    0    0  0.00000000000E+00  0.00000000000E+00 -0.10837679740E+04  0.34692404451E+04  0.32956146990E+04 0.  0.
        2    1    3    3  502    0 -0.91310999555E+03 -0.86286220401E+01 -0.19857982133E+04  0.21856895619E+04  0.25500000920E-02 0. -1.
       -2    1    3    3    0  502  0.91310999555E+03  0.86286220401E+01  0.90203023931E+03  0.12835508832E+04  0.25500000920E-02 0.  1.
</event>
<event>
 5   0  0.2287500E-07  0.3695313E+04  0.7818609E-02  0.8069001E-01
        1   -1    0    0  501    0  0.00000000000E+00  0.00000000000E+00  0.16021753425E+04  0.16021753425E+04  0.50400001928E-02 0.  1.
       -1   -1    0    0    0  501  0.00000000000E+00  0.00000000000E+00 -0.21307491982E+04  0.21307491982E+04  0.50400001928E-02 0. -1.
    10030    2    1    2    0    0  0.00000000000E+00  0.00000000000E+00 -0.52857385566E+03  0.37329245407E+04  0.36953126127E+04 0.  0.
        4    1    3    3  502    0  0.16463826828E+03  0.15801323636E+04 -0.12172380438E+04  0.20013980399E+04  0.12699999809E+01 0. -1.
       -4    1    3    3    0  502 -0.16463826828E+03 -0.15801323636E+04  0.68866418816E+03  0.17315265008E+04  0.12699999809E+01 0.  1.
</event>
<event>
 5   0  0.7074157E-07  0.3625812E+04  0.7818609E-02  0.8084605E-01
        2   -1    0    0  501    0  0.00000000000E+00  0.00000000000E+00  0.20297272226E+04  0.20297272226E+04  0.25500000920E-02 0. -1.
       -2   -1    0    0    0  501  0.00000000000E+00  0.00000000000E+00 -0.16192461290E+04  0.16192461290E+04  0.25500000920E-02 0.  1.
    10030    2    1    2    0    0  0.00000000000E+00  0.00000000000E+00  0.41048109356E+03  0.36489733516E+04  0.36258118805E+04 0.  0.
        3    1    3    3  502    0 -0.16739912897E+04 -0.33110034143E+03  0.82132233045E+03  0.18937910801E+04  0.10100000352E+00 0. -1.
       -3    1    3    3    0  502  0.16739912897E+04  0.33110034143E+03 -0.41084123689E+03  0.17551822716E+04  0.10100000352E+00 0.  1.
</event>
<event>
 5   0  0.6939921E-07  0.3708768E+04  0.7818609E-02  0.8066021E-01
        2   -1    0    0  501    0  0.00000000000E+00  0.00000000000E+00  0.20888619755E+04  0.20888619755E+04  0.25500000920E-02 0. -1.
       -2   -1    0    0    0  501  0.00000000000E+00  0.00000000000E+00 -0.16462268024E+04  0.16462268024E+04  0.25500000920E-02 0.  1.
    10030    2    1    2    0    0  0.00000000000E+00  0.00000000000E+00  0.44263517315E+03  0.37350887779E+04  0.37087682972E+04 0.  0.
        4    1    3    3  502    0  0.73448888594E+03  0.29601829318E+03 -0.14673763532E+04  0.16674218808E+04  0.12699999809E+01 0.  1.
       -4    1    3    3    0  502 -0.73448888594E+03 -0.29601829318E+03  0.19100115264E+04  0.20676668971E+04  0.12699999809E+01 0. -1.
</event>
<event>
 5   0  0.2411746E-07  0.3671160E+04  0.7818609E-02  0.8074383E-01
        1   -1    0    0  501    0  0.00000000000E+00  0.00000000000E+00  0.17240805869E+04  0.17240805869E+04  0.50400001928E-02 0.  1.
       -1   -1    0    0    0  501  0.00000000000E+00  0.00000000000E+00 -0.19542903447E+04  0.19542903447E+04  0.50400001928E-02 0. -1.
    10030    2    1    2    0    0  0.00000000000E+00  0.00000000000E+00 -0.23020975786E+03  0.36783709316E+04  0.36711600589E+04 0.  0.
        1    1    3    3  502    0  0.35735919110E+03  0.33520553994E+03  0.16573484559E+04  0.17282569976E+04  0.50400001928E-02 0.  1.
       -1    1    3    3    0  502 -0.35735919110E+03 -0.33520553994E+03 -0.18875582137E+04  0.19501139340E+04  0.50400001928E-02 0. -1.
</event>
<event>
 5   0  0.6949625E-07  0.3690598E+04  0.7818609E-02  0.8070049E-01
       -2   -1    0    0    0  501  0.00000000000E+00  0.00000000000E+00  0.15930001214E+04  0.15930001214E+04  0.25500000920E-02 0. -1.
        2   -1    0    0  501    0  0.00000000000E+00  0.00000000000E+00 -0.21375569979E+04  0.21375569979E+04  0.25500000920E-02 0.  1.
    10030    2    1    2    0    0  0.00000000000E+00  0.00000000000E+00 -0.54455687655E+03  0.37305571193E+04  0.36905980855E+04 0.  0.
        5    1    3    3  502    0 -0.11014576087E+04 -0.11985455791E+04 -0.11508182281E+04  0.19935207681E+04  0.46999998093E+01 0.  1.
       -5    1    3    3    0  502  0.11014576087E+04  0.11985455791E+04  0.60626135151E+03  0.17370363512E+04  0.46999998093E+01 0. -1.
</event>
<event>
 5   0  0.7300916E-07  0.3687575E+04  0.7818609E-02  0.8070721E-01
        2   -1    0    0  501    0  0.00000000000E+00  0.00000000000E+00  0.29990490219E+04  0.29990490219E+04  0.25500000920E-02 0. -1.
       -2   -1    0    0    0  501  0.00000000000E+00  0.00000000000E+00 -0.11335434532E+04  0.11335434532E+04  0.25500000920E-02 0.  1.
    10030    2    1    2    0    0  0.00000000000E+00  0.00000000000E+00  0.18655055688E+04  0.41325924751E+04  0.36875750213E+04 0.  0.
        1    1    3    3  502    0  0.77683408768E+03  0.46277075890E+03 -0.86799744066E+03  0.12534143497E+04  0.50400001928E-02 0.  1.
       -1    1    3    3    0  502 -0.77683408768E+03 -0.46277075890E+03  0.27335030094E+04  0.28791781254E+04  0.50400001928E-02 0. -1.
</event>
<event>
 5   0  0.7074157E-07  0.3628172E+04  0.7818609E-02  0.8084069E-01
        2   -1    0    0  501    0  0.00000000000E+00  0.00000000000E+00  0.16990680707E+04  0.16990680707E+04  0.25500000920E-02 0.  1.
       -2   -1    0    0    0  501  0.00000000000E+00  0.00000000000E+00 -0.19368901508E+04  0.19368901508E+04  0.25500000920E-02 0. -1.
    10030    2    1    2    0    0  0.00000000000E+00  0.00000000000E+00 -0.23782208014E+03  0.36359582215E+04  0.36281721082E+04 0.  0.
        3    1    3    3  502    0  0.43279048013E+03 -0.79780832488E+03 -0.16929830589E+04  0.19209365869E+04  0.10100000352E+00 0. -1.
       -3    1    3    3    0  502 -0.43279048013E+03  0.79780832488E+03  0.14551609787E+04  0.17150216346E+04  0.10100000352E+00 0.  1.
</event>
<event>
 5   0  0.2411746E-07  0.3691298E+04  0.7818609E-02  0.8069893E-01
        1   -1    0    0  501    0  0.00000000000E+00  0.00000000000E+00  0.20921704477E+04  0.20921704477E+04  0.50400001928E-02 0.  1.
       -1   -1    0    0    0  501  0.00000000000E+00  0.00000000000E+00 -0.16281751329E+04  0.16281751329E+04  0.50400001928E-02 0. -1.
    10030    2    1    2    0    0  0.00000000000E+00  0.00000000000E+00  0.46399531481E+03  0.37203455805E+04  0.36912978187E+04 0.  0.
        1    1    3    3  502    0 -0.94028159690E+03 -0.48238812428E+03 -0.12930494441E+04  0.16699714515E+04  0.50400001928E-02 0. -1.
       -1    1    3    3    0  502  0.94028159690E+03  0.48238812428E+03  0.17570447590E+04  0.20503741290E+04  0.50400001928E-02 0.  1.
</event>
<event>
 5   0  0.2287500E-07  0.3671295E+04  0.7818609E-02  0.8074353E-01
        1   -1    0    0  501    0  0.00000000000E+00  0.00000000000E+00  0.28037527416E+04  0.28037527417E+04  0.50400001928E-02 0. -1.
       -1   -1    0    0    0  501  0.00000000000E+00  0.00000000000E+00 -0.12018187291E+04  0.12018187291E+04  0.50400001928E-02 0.  1.
    10030    2    1    2    0    0  0.00000000000E+00  0.00000000000E+00  0.16019340126E+04  0.40055714707E+04  0.36712954426E+04 0.  0.
        2    1    3    3  502    0  0.62981646005E+03 -0.16403335515E+04  0.13806013927E+04  0.22345968628E+04  0.25500000920E-02 0. -1.
       -2    1    3    3    0  502 -0.62981646005E+03  0.16403335515E+04  0.22133261987E+03  0.17709746080E+04  0.25500000920E-02 0.  1.
</event>
<event>
 5   0  0.7300916E-07  0.3687944E+04  0.7818609E-02  0.8070639E-01
        2   -1    0    0  501    0  0.00000000000E+00  0.00000000000E+00  0.20457682340E+04  0.20457682340E+04  0.25500000920E-02 0.  1.
       -2   -1    0    0    0  501  0.00000000000E+00  0.00000000000E+00 -0.16620812180E+04  0.16620812180E+04  0.25500000920E-02 0. -1.
    10030    2    1    2    0    0  0.00000000000E+00  0.00000000000E+00  0.38368701609E+03  0.37078494520E+04  0.36879441200E+04 0.  0.
        1    1    3    3  502    0  0.12572675064E+04  0.10475280787E+04  0.10462516729E+04  0.19423385960E+04  0.50400001928E-02 0.  1.
       -1    1    3    3    0  502 -0.12572675064E+04 -0.10475280787E+04 -0.66256465678E+03  0.17655108560E+04  0.50400001928E-02 0. -1.
</event>
<event>
 5   0  0.7074157E-07  0.3785202E+04  0.7818609E-02  0.8049338E-01
        2   -1    0    0  501    0  0.00000000000E+00  0.00000000000E+00  0.22239911042E+04  0.22239911042E+04  0.25500000920E-02 0.  1.
       -2   -1    0    0    0  501  0.00000000000E+00  0.00000000000E+00 -0.16105906883E+04  0.16105906883E+04  0.25500000920E-02 0. -1.
    10030    2    1    2    0    0  0.00000000000E+00  0.00000000000E+00  0.61340041594E+03  0.38345817925E+04  0.37852024323E+04 0.  0.
        3    1    3    3  502    0 -0.90656549849E+03  0.16579728639E+04  0.41393158752E+03  0.19344442069E+04  0.10100000352E+00 0. -1.
       -3    1    3    3    0  502  0.90656549849E+03 -0.16579728639E+04  0.19946882842E+03  0.19001375856E+04  0.10100000352E+00 0.  1.
</event>
<event>
 5   0  0.2345471E-07  0.3713584E+04  0.7818609E-02  0.8064958E-01
       -1   -1    0    0    0  501  0.00000000000E+00  0.00000000000E+00  0.16141991550E+04  0.16141991550E+04  0.50400001928E-02 0.  1.
        1   -1    0    0  501    0  0.00000000000E+00  0.00000000000E+00 -0.21358432553E+04  0.21358432553E+04  0.50400001928E-02 0. -1.
    10030    2    1    2    0    0  0.00000000000E+00  0.00000000000E+00 -0.52164410031E+03  0.37500424103E+04  0.37135839174E+04 0.  0.
        5    1    3    3  502    0  0.12487287861E+04  0.51851366900E+03 -0.15459014589E+04  0.20537802747E+04  0.46999998093E+01 0. -1.
       -5    1    3    3    0  502 -0.12487287861E+04 -0.51851366900E+03  0.10242573586E+04  0.16962621356E+04  0.46999998093E+01 0.  1.
</event>
<event>
 5   0  0.7074157E-07  0.4036627E+04  0.7818609E-02  0.7997198E-01
       -2   -1    0    0    0  501  0.00000000000E+00  0.00000000000E+00  0.14799678225E+04  0.14799678225E+04  0.25500000920E-02 0.  1.
        2   -1    0    0  501    0  0.00000000000E+00  0.00000000000E+00 -0.27524851352E+04  0.27524851352E+04  0.25500000920E-02 0. -1.
    10030    2    1    2    0    0  0.00000000000E+00  0.00000000000E+00 -0.12725173127E+04  0.42324529577E+04  0.40366270237E+04 0.  0.
        3    1    3    3  502    0 -0.25347712006E+03  0.19499947297E+04 -0.15937650412E+03  0.19728484423E+04  0.10100000352E+00 0.  1.
       -3    1    3    3    0  502  0.25347712006E+03 -0.19499947297E+04 -0.11131408086E+04  0.22596045154E+04  0.10100000352E+00 0. -1.
</event>
<event>
 5   0  0.2287500E-07  0.3679922E+04  0.7818609E-02  0.8072426E-01
       -1   -1    0    0    0  501  0.00000000000E+00  0.00000000000E+00  0.17809094553E+04  0.17809094553E+04  0.50400001928E-02 0.  1.
        1   -1    0    0  501    0  0.00000000000E+00  0.00000000000E+00 -0.19009707245E+04  0.19009707245E+04  0.50400001928E-02 0. -1.
    10030    2    1    2    0    0  0.00000000000E+00  0.00000000000E+00 -0.12006126920E+03  0.36818801798E+04  0.36799221391E+04 0.  0.
        4    1    3    3  502    0 -0.15277094076E+04  0.41216792940E+03  0.87944538763E+03  0.18103050127E+04  0.12699999809E+01 0.  1.
       -4    1    3    3    0  502  0.15277094076E+04 -0.41216792940E+03 -0.99950665683E+03  0.18715751671E+04  0.12699999809E+01 0. -1.
</event>
<event>
 5   0  0.2287500E-07  0.3653464E+04  0.7818609E-02  0.8078354E-01
        1   -1    0    0  501    0  0.00000000000E+00  0.00000000000E+00  0.23314775088E+04  0.23314775088E+04  0.50400001928E-02 0.  1.
       -1   -1    0    0    0  501  0.00000000000E+00  0.00000000000E+00 -0.14312594495E+04  0.14312594495E+04  0.50400001928E-02 0. -1.
    10030    2    1    2    0    0  0.00000000000E+00  0.00000000000E+00  0.90021805932E+03  0.37627369584E+04  0.36534636803E+04 0.  0.
        4    1    3    3  502    0  0.37475121608E+03 -0.87583682424E+03  0.20553871097E+04  0.22654241105E+04  0.12699999809E+01 0.  1.
       -4    1    3    3    0  502 -0.37475121608E+03  0.87583682424E+03 -0.11551690504E+04  0.14973128479E+04  0.12699999809E+01 0. -1.
</event>
<event>
 5   0  0.7074157E-07  0.2966780E+04  0.7818609E-02  0.8253281E-01
        2   -1    0    0  501    0  0.00000000000E+00  0.00000000000E+00  0.20226880920E+04  0.20226880920E+04  0.25500000920E-02 0. -1.
       -2   -1    0    0    0  501  0.00000000000E+00  0.00000000000E+00 -0.10878818844E+04  0.10878818844E+04  0.25500000920E-02 0.  1.
    10030    2    1    2    0    0  0.00000000000E+00  0.00000000000E+00  0.93480620756E+03  0.31105699764E+04  0.29667798929E+04 0.  0.
        3    1    3    3  502    0 -0.38834856054E+03  0.67538449421E+02  0.19667727116E+04  0.20058840834E+04  0.10100000352E+00 0. -1.
       -3    1    3    3    0  502  0.38834856054E+03 -0.67538449421E+02 -0.10319665041E+04  0.11046858931E+04  0.10100000352E+00 0.  1.
</event>
<event>
 5   0  0.2287500E-07  0.3542654E+04  0.7818609E-02  0.8103755E-01
        1   -1    0    0  501    0  0.00000000000E+00  0.00000000000E+00  0.16355842331E+04  0.16355842331E+04  0.50400001928E-02 0. -1.
       -1   -1    0    0    0  501  0.00000000000E+00  0.00000000000E+00 -0.19183352058E+04  0.19183352058E+04  0.50400001928E-02 0.  1.
    10030    2    1    2    0    0  0.00000000000E+00  0.00000000000E+00 -0.28275097270E+03  0.35539194388E+04  0.35426537038E+04 0.  0.
        3    1    3    3  502    0  0.52793337621E+03 -0.59459179101E+03  0.14464863556E+04  0.16506289210E+04  0.10100000352E+00 0. -1.
       -3    1    3    3    0  502 -0.52793337621E+03  0.59459179101E+03 -0.17292373283E+04  0.19032905179E+04  0.10100000352E+00 0.  1.
</event>
<event>
 5   0  0.2411746E-07  0.3646638E+04  0.7818609E-02  0.8079892E-01
       -1   -1    0    0    0  501  0.00000000000E+00  0.00000000000E+00  0.14070319314E+04  0.14070319314E+04  0.50400001928E-02 0.  1.
        1   -1    0    0  501    0  0.00000000000E+00  0.00000000000E+00 -0.23627692325E+04  0.23627692325E+04  0.50400001928E-02 0. -1.
    10030    2    1    2    0    0  0.00000000000E+00  0.00000000000E+00 -0.95573730107E+03  0.37698011639E+04  0.36466377701E+04 0.  0.
        1    1    3    3  502    0  0.80473156017E+03 -0.51621311628E+03 -0.20828590534E+04  0.22918051186E+04  0.50400001928E-02 0. -1.
       -1    1    3    3    0  502 -0.80473156017E+03  0.51621311628E+03  0.11271217523E+04  0.14779960453E+04  0.50400001928E-02 0.  1.
</event>
<event>
 5   0  0.2287500E-07  0.3556380E+04  0.7818609E-02  0.8100557E-01
        1   -1    0    0  501    0  0.00000000000E+00  0.00000000000E+00  0.26221456377E+04  0.26221456377E+04  0.50400001928E-02 0.  1.
       -1   -1    0    0    0  501  0.00000000000E+00  0.00000000000E+00 -0.12058672303E+04  0.12058672303E+04  0.50400001928E-02 0. -1.
    10030    2    1    2    0    0  0.00000000000E+00  0.00000000000E+00  0.14162784074E+04  0.38280128680E+04  0.35563798996E+04 0.  0.
        4    1    3    3  502    0  0.99309730943E+03 -0.22622027140E+03 -0.86076959608E+03  0.13335455701E+04  0.12699999809E+01 0. -1.
       -4    1    3    3    0  502 -0.99309730943E+03  0.22622027140E+03  0.22770480035E+04  0.24944672979E+04  0.12699999809E+01 0.  1.
</event>
<event>
 5   0  0.7124627E-07  0.3685408E+04  0.7818609E-02  0.8071203E-01
        2   -1    0    0  501    0  0.00000000000E+00  0.00000000000E+00  0.20357957497E+04  0.20357957497E+04  0.25500000920E-02 0. -1.
       -2   -1    0    0    0  501  0.00000000000E+00  0.00000000000E+00 -0.16679270227E+04  0.16679270227E+04  0.25500000920E-02 0.  1.
    10030    2    1    2    0    0  0.00000000000E+00  0.00000000000E+00  0.36786872706E+03  0.37037227724E+04  0.36854083864E+04 0.  0.
        2    1    3    3  502    0  0.13330282090E+04 -0.16826255494E+03  0.14512650707E+04  0.19777377983E+04  0.25500000920E-02 0. -1.
       -2    1    3    3    0  502 -0.13330282090E+04  0.16826255494E+03 -0.10833963437E+04  0.17259849741E+04  0.25500000920E-02 0.  1.
</event>
<event>
 5   0  0.7124627E-07  0.3411788E+04  0.7818609E-02  0.8135019E-01
        2   -1    0    0  501    0  0.00000000000E+00  0.00000000000E+00  0.24169225878E+04  0.24169225878E+04  0.25500000920E-02 0. -1.
       -2   -1    0    0    0  501  0.00000000000E+00  0.00000000000E+00 -0.12040411741E+04  0.12040411741E+04  0.25500000920E-02 0.  1.
    10030    2    1    2    0    0  0.00000000000E+00  0.00000000000E+00  0.12128814137E+04  0.36209637619E+04  0.34117879831E+04 0.  0.
        2    1    3    3  502    0  0.94259339510E+03  0.46692664902E+02 -0.90174419130E+03  0.13052988547E+04  0.25500000920E-02 0.  1.
       -2    1    3    3    0  502 -0.94259339510E+03 -0.46692664902E+02  0.21146256050E+04  0.23156649073E+04  0.25500000920E-02 0. -1.
</event>
<event>
 5   0  0.7124627E-07  0.3673697E+04  0.7818609E-02  0.8073816E-01
       -2   -1    0    0    0  501  0.00000000000E+00  0.00000000000E+00  0.12330206966E+04  0.12330206966E+04  0.25500000920E-02 0. -1.
        2   -1    0    0  501    0  0.00000000000E+00  0.00000000000E+00 -0.27363800187E+04  0.27363800187E+04  0.25500000920E-02 0.  1.
    10030    2    1    2    0    0  0.00000000000E+00  0.00000000000E+00 -0.15033593221E+04  0.39694007154E+04  0.36736974274E+04 0.  0.
        2    1    3    3  502    0  0.61966084743E+03  0.16968122770E+04 -0.39192007027E+03  0.18484460530E+04  0.25500000920E-02 0. -1.
       -2    1    3    3    0  502 -0.61966084743E+03 -0.16968122770E+04 -0.11114392518E+04  0.21209546624E+04  0.25500000920E-02 0.  1.
</event>
<event>
 5   0  0.2287500E-07  0.3736531E+04  0.7818609E-02  0.8059914E-01
        1   -1    0    0  501    0  0.00000000000E+00  0.00000000000E+00  0.21570980226E+04  0.21570980226E+04  0.50400001928E-02 0. -1.
       -1   -1    0    0    0  501  0.00000000000E+00  0.00000000000E+00 -0.16181068835E+04  0.16181068835E+04  0.50400001928E-02 0.  1.
    10030    2    1    2    0    0  0.00000000000E+00  0.00000000000E+00  0.53899113911E+03  0.37752049061E+04  0.37365305612E+04 0.  0.
        2    1    3    3  502    0 -0.40159233616E+03 -0.35944267993E+03 -0.15378570305E+04  0.16295642642E+04  0.25500000920E-02 0.  1.
       -2    1    3    3    0  502  0.40159233616E+03  0.35944267993E+03  0.20768481697E+04  0.21456406420E+04  0.25500000920E-02 0. -1.
</event>
<event>
 5   0  0.2287500E-07  0.2910956E+04  0.7818609E-02  0.8269625E-01
        1   -1    0    0  501    0  0.00000000000E+00  0.00000000000E+00  0.12391551814E+04  0.12391551814E+04  0.50400001928E-02 0.  1.
       -1   -1    0    0    0  501  0.00000000000E+00  0.00000000000E+00 -0.17095648540E+04  0.17095648540E+04  0.50400001928E-02 0. -1.
    10030    2    1    2    0    0  0.00000000000E+00  0.00000000000E+00 -0.47040967260E+03  0.29487200353E+04  0.29109559575E+04 0.  0.
        4    1    3    3  502    0  0.11203074622E+04  0.73515344849E+03  0.34038776622E+03  0.13825356585E+04  0.12699999809E+01 0.  1.
       -4    1    3    3    0  502 -0.11203074622E+04 -0.73515344849E+03 -0.81079743882E+03  0.15661843769E+04  0.12699999809E+01 0. -1.
</event>
<event>
 5   0  0.2287500E-07  0.3827812E+04  0.7818609E-02  0.8040213E-01
        1   -1    0    0  501    0  0.00000000000E+00  0.00000000000E+00  0.11368142063E+04  0.11368142063E+04  0.50400001928E-02 0. -1.
       -1   -1    0    0    0  501  0.00000000000E+00  0.00000000000E+00 -0.32221947221E+04  0.32221947221E+04  0.50400001928E-02 0.  1.
    10030    2    1    2    0    0  0.00000000000E+00  0.00000000000E+00 -0.20853805159E+04  0.43590089284E+04  0.38278122919E+04 0.  0.
        3    1    3    3  502    0  0.58168031120E+03 -0.52348131584E+03 -0.30316842166E+04  0.31310531569E+04  0.10100000352E+00 0.  1.
       -3    1    3    3    0  502 -0.58168031120E+03  0.52348131584E+03  0.94630370069E+03  0.12279557714E+04  0.10100000352E+00 0. -1.
</event>
<event>
 5   0  0.6949625E-07  0.3590130E+04  0.7818609E-02  0.8092756E-01
       -2   -1    0    0    0  501  0.00000000000E+00  0.00000000000E+00  0.14598924685E+04  0.14598924685E+04  0.25500000920E-02 0. -1.
        2   -1    0    0  501    0  0.00000000000E+00  0.00000000000E+00 -0.22071885782E+04  0.22071885782E+04  0.25500000920E-02 0.  1.
    10030    2    1    2    0    0  0.00000000000E+00  0.00000000000E+00 -0.74729610970E+03  0.36670810467E+04  0.35901297925E+04 0.  0.
        5    1    3    3  502    0 -0.31245160519E+03  0.17308865718E+04 -0.72939933883E+01  0.17588830611E+04  0.46999998093E+01 0.  1.
       -5    1    3    3    0  502  0.31245160519E+03 -0.17308865718E+04 -0.74000211632E+03  0.19081979856E+04  0.46999998093E+01 0. -1.
</event>
<event>
 5   0  0.2287500E-07  0.3077083E+04  0.7818609E-02  0.8222056E-01
       -1   -1    0    0    0  501  0.00000000000E+00  0.00000000000E+00  0.92869283137E+03  0.92869283138E+03  0.50400001928E-02 0.  1.
        1   -1    0    0  501    0  0.00000000000E+00  0.00000000000E+00 -0.25488623267E+04  0.25488623267E+04  0.50400001928E-02 0. -1.
    10030    2    1    2    0    0  0.00000000000E+00  0.00000000000E+00 -0.16201694953E+04  0.34775551581E+04  0.30770831454E+04 0.  0.
        4    1    3    3  502    0 -0.13139208111E+04  0.45750661999E+03 -0.67785414401E+02  0.13929453258E+04  0.12699999809E+01 0.  1.
       -4    1    3    3    0  502  0.13139208111E+04 -0.45750661999E+03 -0.15523840809E+04  0.20846098323E+04  0.12699999809E+01 0. -1.
</event>
<event>
 5   0  0.6949625E-07  0.3727380E+04  0.7818609E-02  0.8061921E-01
       -2   -1    0    0    0  501  0.00000000000E+00  0.00000000000E+00  0.17240512152E+04  0.17240512152E+04  0.25500000920E-02 0.  1.
        2   -1    0    0  501    0  0.00000000000E+00  0.00000000000E+00 -0.20146389614E+04  0.20146389614E+04  0.25500000920E-02 0. -1.
    10030    2    1    2    0    0  0.00000000000E+00  0.00000000000E+00 -0.29058774619E+03  0.37386901765E+04  0.37273801789E+04 0.  0.
        5    1    3    3  502    0  0.62403763245E+03 -0.12822156335E+04  0.10582715422E+04  0.17757985934E+04  0.46999998093E+01 0.  1.
       -5    1    3    3    0  502 -0.62403763245E+03  0.12822156335E+04 -0.13488592883E+04  0.19628915831E+04  0.46999998093E+01 0. -1.
</event>
<event>
 5   0  0.2287500E-07  0.3682639E+04  0.7818609E-02  0.8071820E-01
       -1   -1    0    0    0  501  0.00000000000E+00  0.00000000000E+00  0.15752610695E+04  0.15752610695E+04  0.50400001928E-02 0. -1.
        1   -1    0    0  501    0  0.00000000000E+00  0.00000000000E+00 -0.21523146291E+04  0.21523146291E+04  0.50400001928E-02 0.  1.
    10030    2    1    2    0    0  0.00000000000E+00  0.00000000000E+00 -0.57705355960E+03  0.37275756986E+04  0.36826389693E+04 0.  0.
        4    1    3    3  502    0  0.64602816700E+03  0.91139798132E+03  0.11930473991E+04  0.16344302929E+04  0.12699999809E+01 0. -1.
       -4    1    3    3    0  502 -0.64602816700E+03 -0.91139798132E+03 -0.17701009587E+04  0.20931454058E+04  0.12699999809E+01 0.  1.
</event>
<event>
 5   0  0.2287500E-07  0.3682334E+04  0.7818609E-02  0.8071888E-01
        3   -1    0    0  501    0  0.00000000000E+00  0.00000000000E+00  0.15338675085E+04  0.15338675118E+04  0.10100000352E+00 0.  1.
       -3   -1    0    0    0  501  0.00000000000E+00  0.00000000000E+00 -0.22100318570E+04  0.22100318593E+04  0.10100000352E+00 0. -1.
    10030    2    1    2    0    0  0.00000000000E+00  0.00000000000E+00 -0.67616434858E+03  0.37438993711E+04  0.36823340797E+04 0.  0.
        2    1    3    3  502    0 -0.66953583787E+03 -0.14610887672E+04 -0.12513412622E+04  0.20368882096E+04  0.25500000920E-02 0. -1.
       -2    1    3    3    0  502  0.66953583787E+03  0.14610887672E+04  0.57517691360E+03  0.17070111616E+04  0.25500000920E-02 0.  1.
</event>
<event>
 5   0  0.2287500E-07  0.3733758E+04  0.7818609E-02  0.8060522E-01
        1   -1    0    0  501    0  0.00000000000E+00  0.00000000000E+00  0.31333729678E+04  0.31333729678E+04  0.50400001928E-02 0.  1.
       -1   -1    0    0    0  501  0.00000000000E+00  0.00000000000E+00 -0.11122956519E+04  0.11122956519E+04  0.50400001928E-02 0. -1.
    10030    2    1    2    0    0  0.00000000000E+00  0.00000000000E+00  0.20210773159E+04  0.42456686197E+04  0.37337579611E+04 0.  0.
        3    1    3    3  502    0 -0.93703084766E+03 -0.12945323895E+04  0.21079442358E+04  0.26452353069E+04  0.10100000352E+00 0.  1.
       -3    1    3    3    0  502  0.93703084766E+03  0.12945323895E+04 -0.86866919940E+02  0.16004333129E+04  0.10100000352E+00 0. -1.
</event>
<event>
 5   0  0.2287500E-07  0.3565593E+04  0.7818609E-02  0.8098419E-01
       -1   -1    0    0    0  501  0.00000000000E+00  0.00000000000E+00  0.14208591560E+04  0.14208591561E+04  0.50400001928E-02 0. -1.
        1   -1    0    0  501    0  0.00000000000E+00  0.00000000000E+00 -0.22369310356E+04  0.22369310356E+04  0.50400001928E-02 0.  1.
    10030    2    1    2    0    0  0.00000000000E+00  0.00000000000E+00 -0.81607187958E+03  0.36577901917E+04  0.35655933270E+04 0.  0.
        3    1    3    3  502    0  0.62030404635E+03 -0.15863159037E+04 -0.94813662171E+03  0.19493943469E+04  0.10100000352E+00 0.  1.
       -3    1    3    3    0  502 -0.62030404635E+03  0.15863159037E+04  0.13206474213E+03  0.17083958448E+04  0.10100000352E+00 0. -1.
</event>
<event>
 5   0  0.6939921E-07  0.3708300E+04  0.7818609E-02  0.8066125E-01
        2   -1    0    0  501    0  0.00000000000E+00  0.00000000000E+00  0.24800734066E+04  0.24800734066E+04  0.25500000920E-02 0. -1.
       -2   -1    0    0    0  501  0.00000000000E+00  0.00000000000E+00 -0.13861981164E+04  0.13861981164E+04  0.25500000920E-02 0.  1.
    10030    2    1    2    0    0  0.00000000000E+00  0.00000000000E+00  0.10938752902E+04  0.38662715230E+04  0.37083004650E+04 0.  0.
        4    1    3    3  502    0 -0.60862940960E+02  0.13452378673E+04 -0.78191735325E+03  0.15571658798E+04  0.12699999809E+01 0.  1.
       -4    1    3    3    0  502  0.60862940960E+02 -0.13452378673E+04  0.18757926435E+04  0.23091056431E+04  0.12699999809E+01 0. -1.
</event>
<event>
 5   0  0.7124627E-07  0.3747610E+04  0.7818609E-02  0.8057492E-01
       -2   -1    0    0    0  501  0.00000000000E+00  0.00000000000E+00  0.20323085057E+04  0.20323085057E+04  0.25500000920E-02 0.  1.
        2   -1    0    0  501    0  0.00000000000E+00  0.00000000000E+00 -0.17276634085E+04  0.17276634085E+04  0.25500000920E-02 0. -1.
    10030    2    1    2    0    0  0.00000000000E+00  0.00000000000E+00  0.30464509725E+03  0.37599719142E+04  0.37476099264E+04 0.  0.
        2    1    3    3  502    0 -0.13176777111E+04  0.12996109031E+04 -0.14170042845E+03  0.18561632636E+04  0.25500000920E-02 0.  1.
       -2    1    3    3    0  502  0.13176777111E+04 -0.12996109031E+04  0.44634552570E+03  0.19038086506E+04  0.25500000920E-02 0. -1.
</event>
<event>
 5   0  0.2287500E-07  0.3722234E+04  0.7818609E-02  0.8063052E-01
        1   -1    0    0  501    0  0.00000000000E+00  0.00000000000E+00  0.12680908604E+04  0.12680908604E+04  0.50400001928E-02 0. -1.
       -1   -1    0    0    0  501  0.00000000000E+00  0.00000000000E+00 -0.27314728679E+04  0.27314728679E+04  0.50400001928E-02 0.  1.
    10030    2    1    2    0    0  0.00000000000E+00  0.00000000000E+00 -0.14633820075E+04  0.39995637283E+04  0.37222336193E+04 0.  0.
        3    1    3    3  502    0  0.82466665052E+03  0.99485059790E+03 -0.21708690344E+04  0.25263561054E+04  0.10100000352E+00 0.  1.
       -3    1    3    3    0  502 -0.82466665052E+03 -0.99485059790E+03  0.70748702691E+03  0.14732076229E+04  0.10100000352E+00 0. -1.
</event>
<event>
 5   0  0.7074157E-07  0.3698257E+04  0.7818609E-02  0.8068348E-01
        2   -1    0    0  501    0  0.00000000000E+00  0.00000000000E+00  0.16796026190E+04  0.16796026190E+04  0.25500000920E-02 0.  1.
       -2   -1    0    0    0  501  0.00000000000E+00  0.00000000000E+00 -0.20357646062E+04  0.20357646062E+04  0.25500000920E-02 0. -1.
    10030    2    1    2    0    0  0.00000000000E+00  0.00000000000E+00 -0.35616198714E+03  0.37153672252E+04  0.36982566510E+04 0.  0.
        3    1    3    3  502    0 -0.32998739637E+03 -0.12536181946E+03 -0.20016010589E+04  0.20324896252E+04  0.10100000352E+00 0. -1.
       -3    1    3    3    0  502  0.32998739637E+03  0.12536181946E+03  0.16454390717E+04  0.16828776000E+04  0.10100000352E+00 0.  1.
</event>
<event>
 5   0  0.2411746E-07  0.3728972E+04  0.7818609E-02  0.8061571E-01
        1   -1    0    0  501    0  0.00000000000E+00  0.00000000000E+00  0.18351359149E+04  0.18351359149E+04  0.50400001928E-02 0. -1.
       -1   -1    0    0    0  501  0.00000000000E+00  0.00000000000E+00 -0.18943056493E+04  0.18943056493E+04  0.50400001928E-02 0.  1.
    10030    2    1    2    0    0  0.00000000000E+00  0.00000000000E+00 -0.59169734340E+02  0.37294415642E+04  0.37289721537E+04 0.  0.
        1    1    3    3  502    0  0.96416682955E+03  0.12587089744E+03  0.15614790502E+04  0.18394776384E+04  0.50400001928E-02 0. -1.
       -1    1    3    3    0  502 -0.96416682955E+03 -0.12587089744E+03 -0.16206487845E+04  0.18899639258E+04  0.50400001928E-02 0.  1.
</event>
<event>
 5   0  0.2287500E-07  0.3454372E+04  0.7818609E-02  0.8124689E-01
       -1   -1    0    0    0  501  0.00000000000E+00  0.00000000000E+00  0.13912811460E+04  0.13912811460E+04  0.50400001928E-02 0.  1.
        1   -1    0    0  501    0  0.00000000000E+00  0.00000000000E+00 -0.21441896753E+04  0.21441896753E+04  0.50400001928E-02 0. -1.
    10030    2    1    2    0    0  0.00000000000E+00  0.00000000000E+00 -0.75290852933E+03  0.35354708213E+04  0.34543715310E+04 0.  0.
        4    1    3    3  502    0  0.32477397254E+02  0.14627142586E+04 -0.13159268521E+04  0.19678040747E+04  0.12699999809E+01 0. -1.
       -4    1    3    3    0  502 -0.32477397254E+02 -0.14627142586E+04  0.56301832277E+03  0.15676667465E+04  0.12699999809E+01 0.  1.
</event>
<event>
 5   0  0.2345471E-07  0.3710332E+04  0.7818609E-02  0.8065676E-01
        1   -1    0    0  501    0  0.00000000000E+00  0.00000000000E+00  0.19153593594E+04  0.19153593594E+04  0.50400001928E-02 0. -1.
       -1   -1    0    0    0  501  0.00000000000E+00  0.00000000000E+00 -0.17968642444E+04  0.17968642444E+04  0.50400001928E-02 0.  1.
    10030    2    1    2    0    0  0.00000000000E+00  0.00000000000E+00  0.11849511500E+03  0.37122236038E+04  0.37103319248E+04 0.  0.
        5    1    3    3  502    0  0.13066295572E+03  0.62386426188E+03 -0.16838631969E+04  0.18004712664E+04  0.46999998093E+01 0.  1.
       -5    1    3    3    0  502 -0.13066295572E+03 -0.62386426188E+03  0.18023583119E+04  0.19117523374E+04  0.46999998093E+01 0. -1.
</event>
<event>
 5   0  0.7074157E-07  0.3761877E+04  0.7818609E-02  0.8054386E-01
        2   -1    0    0  501    0  0.00000000000E+00  0.00000000000E+00  0.18790000856E+04  0.18790000856E+04  0.25500000920E-02 0. -1.
       -2   -1    0    0    0  501  0.00000000000E+00  0.00000000000E+00 -0.18828791497E+04  0.18828791497E+04  0.25500000920E-02 0.  1.
    10030    2    1    2    0    0  0.00000000000E+00  0.00000000000E+00 -0.38790640796E+01  0.37618792353E+04  0.37618772354E+04 0.  0.
        3    1    3    3  502    0  0.12768296336E+04 -0.13809794468E+04 -0.25003098827E+02  0.18809633997E+04  0.10100000352E+00 0. -1.
       -3    1    3    3    0  502 -0.12768296336E+04  0.13809794468E+04  0.21124034747E+02  0.18809158357E+04  0.10100000352E+00 0.  1.
</event>
<event>
 5   0  0.2411746E-07  0.3671497E+04  0.7818609E-02  0.8074308E-01
        1   -1    0    0  501    0  0.00000000000E+00  0.00000000000E+00  0.21183088799E+04  0.21183088799E+04  0.50400001928E-02 0. -1.
       -1   -1    0    0    0  501  0.00000000000E+00  0.00000000000E+00 -0.15908786105E+04  0.15908786105E+04  0.50400001928E-02 0.  1.
    10030    2    1    2    0    0  0.00000000000E+00  0.00000000000E+00  0.52743026932E+03  0.37091874904E+04  0.36714968541E+04 0.  0.
        1    1    3    3  502    0 -0.20675739265E+03 -0.92976913986E+03  0.18491414252E+04  0.20800344428E+04  0.50400001928E-02 0. -1.
       -1    1    3    3    0  502  0.20675739265E+03  0.92976913986E+03 -0.13217111559E+04  0.16291530476E+04  0.50400001928E-02 0.  1.
</event>
<event>
 5   0  0.7300916E-07  0.3689447E+04  0.7818609E-02  0.8070305E-01
       -2   -1    0    0    0  501  0.00000000000E+00  0.00000000000E+00  0.16198895193E+04  0.16198895193E+04  0.25500000920E-02 0.  1.
        2   -1    0    0  501    0  0.00000000000E+00  0.00000000000E+00 -0.21007633579E+04  0.21007633579E+04  0.25500000920E-02 0. -1.
    10030    2    1    2    0    0  0.00000000000E+00  0.00000000000E+00 -0.48087383858E+03  0.37206528772E+04  0.36894468670E+04 0.  0.
        1    1    3    3  502    0 -0.11014519640E+04 -0.17900308067E+03  0.12409212192E+04  0.16688690794E+04  0.50400001928E-02 0.  1.
       -1    1    3    3    0  502  0.11014519640E+04  0.17900308067E+03 -0.17217950578E+04  0.20517837978E+04  0.50400001928E-02 0. -1.
</event>
<event>
 5   0  0.2287500E-07  0.3741361E+04  0.7818609E-02  0.8058857E-01
       -1   -1    0    0    0  501  0.00000000000E+00  0.00000000000E+00  0.22146450549E+04  0.22146450549E+04  0.50400001928E-02 0. -1.
        1   -1    0    0  501    0  0.00000000000E+00  0.00000000000E+00 -0.15801380968E+04  0.15801380968E+04  0.50400001928E-02 0.  1.
    10030    2    1    2    0    0  0.00000000000E+00  0.00000000000E+00  0.63450695812E+03  0.37947831517E+04  0.37413607269E+04 0.  0.
        4    1    3    3  502    0  0.60218596158E+03  0.16837460501E+04 -0.23996766310E+03  0.18042213794E+04  0.12699999809E+01 0. -1.
       -4    1    3    3    0  502 -0.60218596158E+03 -0.16837460501E+04  0.87447462122E+03  0.19905617724E+04  0.12699999809E+01 0.  1.
</event>
<event>
 5   0  0.2345471E-07  0.3749558E+04  0.7818609E-02  0.8057067E-01
       -1   -1    0    0    0  501  0.00000000000E+00  0.00000000000E+00  0.11931905163E+04  0.11931905163E+04  0.50400001928E-02 0. -1.
        1   -1    0    0  501    0  0.00000000000E+00  0.00000000000E+00 -0.29457128283E+04  0.29457128283E+04  0.50400001928E-02 0.  1.
    10030    2    1    2    0    0  0.00000000000E+00  0.00000000000E+00 -0.17525223120E+04  0.41389033446E+04  0.37495581663E+04 0.  0.
        5    1    3    3  502    0 -0.33868187970E+03 -0.20748039822E+03  0.11462094465E+04  0.12130835571E+04  0.46999998093E+01 0. -1.
       -5    1    3    3    0  502  0.33868187970E+03  0.20748039822E+03 -0.28987317585E+04  0.29258197875E+04  0.46999998093E+01 0.  1.
</event>
<event>
 5   0  0.2287500E-07  0.3699388E+04  0.7818609E-02  0.8068098E-01
        1   -1    0    0  501    0  0.00000000000E+00  0.00000000000E+00  0.23776070231E+04  0.23776070231E+04  0.50400001928E-02 0.  1.
       -1   -1    0    0    0  501  0.00000000000E+00  0.00000000000E+00 -0.14389961937E+04  0.14389961938E+04  0.50400001928E-02 0. -1.
    10030    2    1    2    0    0  0.00000000000E+00  0.00000000000E+00  0.93861082936E+03  0.38166032169E+04  0.36993877637E+04 0.  0.
        2    1    3    3  502    0 -0.95112172069E+03 -0.97787587054E+03  0.17580835741E+04  0.22252486601E+04  0.25500000920E-02 0.  1.
       -2    1    3    3    0  502  0.95112172069E+03  0.97787587054E+03 -0.81947274478E+03  0.15913545567E+04  0.25500000920E-02 0. -1.
</event>
<event>
 5   0  0.2287500E-07  0.2768385E+04  0.7818609E-02  0.8313151E-01
       -1   -1    0    0    0  501  0.00000000000E+00  0.00000000000E+00  0.15248860811E+04  0.15248860811E+04  0.50400001928E-02 0. -1.
        1   -1    0    0  501    0  0.00000000000E+00  0.00000000000E+00 -0.12564795739E+04  0.12564795740E+04  0.50400001928E-02 0.  1.
    10030    2    1    2    0    0  0.00000000000E+00  0.00000000000E+00  0.26840650712E+03  0.27813656550E+04  0.27683845206E+04 0.  0.
        2    1    3    3  502    0 -0.41335129718E+03 -0.88990362255E+03 -0.84669462949E+03  0.12960245167E+04  0.25500000920E-02 0.  1.
       -2    1    3    3    0  502  0.41335129718E+03  0.88990362255E+03  0.11151011366E+04  0.14853411383E+04  0.25500000920E-02 0. -1.
</event>
<event>
 5   0  0.2345471E-07  0.3744345E+04  0.7818609E-02  0.8058205E-01
        1   -1    0    0  501    0  0.00000000000E+00  0.00000000000E+00  0.22851701326E+04  0.22851701326E+04  0.50400001928E-02 0. -1.
       -1   -1    0    0    0  501  0.00000000000E+00  0.00000000000E+00 -0.15338159803E+04  0.15338159803E+04  0.50400001928E-02 0.  1.
    10030    2    1    2    0    0  0.00000000000E+00  0.00000000000E+00  0.75135415229E+03  0.38189861130E+04  0.37443453191E+04 0.  0.
        5    1    3    3  502    0  0.11353509423E+04 -0.14455494401E+04  0.73825392806E+03  0.19808270742E+04  0.46999998093E+01 0. -1.
       -5    1    3    3    0  502 -0.11353509423E+04  0.14455494401E+04  0.13100224225E+02  0.18381590387E+04  0.46999998093E+01 0.  1.
</event>
<event>
 5   0  0.7124627E-07  0.3667080E+04  0.7818609E-02  0.8075297E-01
        2   -1    0    0  501    0  0.00000000000E+00  0.00000000000E+00  0.13297848864E+04  0.13297848864E+04  0.25500000920E-02 0.  1.
       -2   -1    0    0    0  501  0.00000000000E+00  0.00000000000E+00 -0.25281299639E+04  0.25281299639E+04  0.25500000920E-02 0. -1.
    10030    2    1    2    0    0  0.00000000000E+00  0.00000000000E+00 -0.11983450775E+04  0.38579148503E+04  0.36670800465E+04 0.  0.
        2    1    3    3  502    0 -0.29369722231E+03 -0.36896832059E+03  0.12648907240E+04  0.13499423038E+04  0.25500000920E-02 0.  1.
       -2    1    3    3    0  502  0.29369722231E+03  0.36896832059E+03 -0.24632358015E+04  0.25079725465E+04  0.25500000920E-02 0. -1.
</event>
<event>
 5   0  0.2411746E-07  0.3682462E+04  0.7818609E-02  0.8071860E-01
        1   -1    0    0  501    0  0.00000000000E+00  0.00000000000E+00  0.22772204853E+04  0.22772204853E+04  0.50400001928E-02 0.  1.
       -1   -1    0    0    0  501  0.00000000000E+00  0.00000000000E+00 -0.14887143564E+04  0.14887143564E+04  0.50400001928E-02 0. -1.
    10030    2    1    2    0    0  0.00000000000E+00  0.00000000000E+00  0.78850612887E+03  0.37659348417E+04  0.36824615839E+04 0.  0.
        1    1    3    3  502    0  0.34563102561E+03  0.17961353177E+04  0.17835642801E+03  0.18377632875E+04  0.50400001928E-02 0. -1.
       -1    1    3    3    0  502 -0.34563102561E+03 -0.17961353177E+04  0.61014970087E+03  0.19281715543E+04  0.50400001928E-02 0.  1.
</event>
<event>
 5   0  0.2411746E-07  0.3757120E+04  0.7818609E-02  0.8055420E-01
        1   -1    0    0  501    0  0.00000000000E+00  0.00000000000E+00  0.12903698618E+04  0.12903698619E+04  0.50400001928E-02 0.  1.
       -1   -1    0    0    0  501  0.00000000000E+00  0.00000000000E+00 -0.27348651683E+04  0.27348651683E+04  0.50400001928E-02 0. -1.
    10030    2    1    2    0    0  0.00000000000E+00  0.00000000000E+00 -0.14444953065E+04  0.40252350302E+04  0.37571199552E+04 0.  0.
        1    1    3    3  502    0  0.15720453632E+03 -0.45690863954E+02  0.12827128774E+04  0.12931176463E+04  0.50400001928E-02 0.  1.
       -1    1    3    3    0  502 -0.15720453632E+03  0.45690863954E+02 -0.27272081839E+04  0.27321173839E+04  0.50400001928E-02 0. -1.
</event>
<event>
 5   0  0.2411746E-07  0.3569371E+04  0.7818609E-02  0.8097544E-01
        1   -1    0    0  501    0  0.00000000000E+00  0.00000000000E+00  0.24943571888E+04  0.24943571888E+04  0.50400001928E-02 0. -1.
       -1   -1    0    0    0  501  0.00000000000E+00  0.00000000000E+00 -0.12769233009E+04  0.12769233009E+04  0.50400001928E-02 0.  1.
    10030    2    1    2    0    0  0.00000000000E+00  0.00000000000E+00  0.12174338879E+04  0.37712804897E+04  0.35693712696E+04 0.  0.
        1    1    3    3  502    0 -0.96974183224E+03  0.64685174537E+03  0.20365635541E+04  0.23465735683E+04  0.50400001928E-02 0. -1.
       -1    1    3    3    0  502  0.96974183224E+03 -0.64685174537E+03 -0.81912966620E+03  0.14247069214E+04  0.50400001928E-02 0.  1.
</event>
<event>
 5   0  0.6939921E-07  0.3319370E+04  0.7818609E-02  0.8157984E-01
        2   -1    0    0  501    0  0.00000000000E+00  0.00000000000E+00  0.25126207106E+04  0.25126207106E+04  0.25500000920E-02 0. -1.
       -2   -1    0    0    0  501  0.00000000000E+00  0.00000000000E+00 -0.10962871300E+04  0.10962871300E+04  0.25500000920E-02 0.  1.
    10030    2    1    2    0    0  0.00000000000E+00  0.00000000000E+00  0.14163335807E+04  0.36089078406E+04  0.33193696676E+04 0.  0.
        4    1    3    3  502    0  0.15306657316E+04 -0.51371039672E+03  0.29030351288E+03  0.16404614278E+04  0.12699999809E+01 0.  1.
       -4    1    3    3    0  502 -0.15306657316E+04  0.51371039672E+03  0.11260300678E+04  0.19684464128E+04  0.12699999809E+01 0. -1.
</event>
<event>
 5   0  0.2287500E-07  0.3603487E+04  0.7818609E-02  0.8089693E-01
        1   -1    0    0  501    0  0.00000000000E+00  0.00000000000E+00  0.20233187525E+04  0.20233187525E+04  0.50400001928E-02 0.  1.
       -1   -1    0    0    0  501  0.00000000000E+00  0.00000000000E+00 -0.16044334122E+04  0.16044334122E+04  0.50400001928E-02 0. -1.
    10030    2    1    2    0    0  0.00000000000E+00  0.00000000000E+00  0.41888534038E+03  0.36277521647E+04  0.36034873165E+04 0.  0.
        3    1    3    3  502    0 -0.79288862045E+03  0.13947778672E+04 -0.61595775006E+03  0.17185696446E+04  0.10100000352E+00 0. -1.
       -3    1    3    3    0  502  0.79288862045E+03 -0.13947778672E+04  0.10348430904E+04  0.19091825201E+04  0.10100000352E+00 0.  1.
</event>
<event>
 5   0  0.6939921E-07  0.3612434E+04  0.7818609E-02  0.8087649E-01
        2   -1    0    0  501    0  0.00000000000E+00  0.00000000000E+00  0.10539056519E+04  0.10539056519E+04  0.25500000920E-02 0.  1.
       -2   -1    0    0    0  501  0.00000000000E+00  0.00000000000E+00 -0.30955521457E+04  0.30955521457E+04  0.25500000920E-02 0. -1.
    10030    2    1    2    0    0  0.00000000000E+00  0.00000000000E+00 -0.20416464938E+04  0.41494577976E+04  0.36124340283E+04 0.  0.
        4    1    3    3  502    0 -0.61574096184E+03  0.10509992848E+04 -0.25527590469E+04  0.28284831258E+04  0.12699999809E+01 0. -1.
       -4    1    3    3    0  502  0.61574096184E+03 -0.10509992848E+04  0.51111255305E+03  0.13209746718E+04  0.12699999809E+01 0.  1.
</event>
<event>
 5   0  0.7074157E-07  0.3685993E+04  0.7818609E-02  0.8071073E-01
        2   -1    0    0  501    0  0.00000000000E+00  0.00000000000E+00  0.10730409411E+04  0.10730409411E+04  0.25500000920E-02 0. -1.
       -2   -1    0    0    0  501  0.00000000000E+00  0.00000000000E+00 -0.31654306903E+04  0.31654306903E+04  0.25500000920E-02 0.  1.
    10030    2    1    2    0    0  0.00000000000E+00  0.00000000000E+00 -0.20923897492E+04  0.42384716313E+04  0.36859933406E+04 0.  0.
        3    1    3    3  502    0 -0.52084228059E+03  0.60482225990E+02 -0.30778521667E+04  0.31221961423E+04  0.10100000352E+00 0.  1.
       -3    1    3    3    0  502  0.52084228059E+03 -0.60482225990E+02  0.98546241750E+03  0.11162754890E+04  0.10100000352E+00 0. -1.
</event>
<event>
 5   0  0.7300916E-07  0.3719670E+04  0.7818609E-02  0.8063617E-01
        2   -1    0    0  501    0  0.00000000000E+00  0.00000000000E+00  0.23650712881E+04  0.23650712881E+04  0.25500000920E-02 0.  1.
       -2   -1    0    0    0  501  0.00000000000E+00  0.00000000000E+00 -0.14625291952E+04  0.14625291952E+04  0.25500000920E-02 0. -1.
    10030    2    1    2    0    0  0.00000000000E+00  0.00000000000E+00  0.90254209281E+03  0.38276004833E+04  0.37196697744E+04 0.  0.
        1    1    3    3  502    0 -0.15070224962E+04 -0.10320341077E+04  0.90711925430E+02  0.18287809757E+04  0.50400001928E-02 0.  1.
       -1    1    3    3    0  502  0.15070224962E+04  0.10320341077E+04  0.81183016738E+03  0.19988195077E+04  0.50400001928E-02 0. -1.
</event>
<event>
 5   0  0.6939921E-07  0.3757238E+04  0.7818609E-02  0.8055394E-01
        2   -1    0    0  501    0  0.00000000000E+00  0.00000000000E+00  0.17883113128E+04  0.17883113128E+04  0.25500000920E-02 0. -1.
       -2   -1    0    0    0  501  0.00000000000E+00  0.00000000000E+00 -0.19734871461E+04  0.19734871461E+04  0.25500000920E-02 0.  1.
    10030    2    1    2    0    0  0.00000000000E+00  0.00000000000E+00 -0.18517583336E+03  0.37617984589E+04  0.37572380223E+04 0.  0.
        4    1    3    3  502    0  0.41460918755E+03  0.12695006016E+04  0.12302558010E+04  0.18157817888E+04  0.12699999809E+01 0. -1.
       -4    1    3    3    0  502 -0.41460918755E+03 -0.12695006016E+04 -0.14154316343E+04  0.19460166701E+04  0.12699999809E+01 0.  1.
</event>
<event>
 5   0  0.2287500E-07  0.3653743E+04  0.7818609E-02  0.8078291E-01
       -1   -1    0    0    0  501  0.00000000000E+00  0.00000000000E+00  0.14454694866E+04  0.14454694866E+04  0.50400001928E-02 0. -1.
        1   -1    0    0  501    0  0.00000000000E+00  0.00000000000E+00 -0.23089104901E+04  0.23089104901E+04  0.50400001928E-02 0.  1.
    10030    2    1    2    0    0  0.00000000000E+00  0.00000000000E+00 -0.86344100350E+03  0.37543799768E+04  0.36537431003E+04 0.  0.
        3    1    3    3  502    0 -0.10522711170E+04  0.66949505907E+03 -0.18033896693E+04  0.21926496408E+04  0.10100000352E+00 0.  1.
       -3    1    3    3    0  502  0.10522711170E+04 -0.66949505907E+03  0.93994866579E+03  0.15617303360E+04  0.10100000352E+00 0. -1.
</event>
<event>
 5   0  0.7074157E-07  0.3752277E+04  0.7818609E-02  0.8056474E-01
       -2   -1    0    0    0  501  0.00000000000E+00  0.00000000000E+00  0.16617306499E+04  0.16617306499E+04  0.25500000920E-02 0. -1.
        2   -1    0    0  501    0  0.00000000000E+00  0.00000000000E+00 -0.21182107498E+04  0.21182107498E+04  0.25500000920E-02 0.  1.
    10030    2    1    2    0    0  0.00000000000E+00  0.00000000000E+00 -0.45648009995E+03  0.37799413997E+04  0.37522770292E+04 0.  0.
        3    1    3    3  502    0 -0.13955937778E+04 -0.38833503770E+03 -0.14292588283E+04  0.20350102954E+04  0.10100000352E+00 0.  1.
       -3    1    3    3    0  502  0.13955937778E+04  0.38833503770E+03  0.97277872834E+03  0.17449311043E+04  0.10100000352E+00 0. -1.
</event>
<event>
 5   0  0.2287500E-07  0.3703558E+04  0.7818609E-02  0.8067174E-01
       -1   -1    0    0    0  501  0.00000000000E+00  0.00000000000E+00  0.15156134266E+04  0.15156134266E+04  0.50400001928E-02 0. -1.
        1   -1    0    0  501    0  0.00000000000E+00  0.00000000000E+00 -0.22625071073E+04  0.22625071074E+04  0.50400001928E-02 0.  1.
    10030    2    1    2    0    0  0.00000000000E+00  0.00000000000E+00 -0.74689368078E+03  0.37781205339E+04  0.37035583698E+04 0.  0.
        3    1    3    3  502    0  0.15821293110E+04 -0.96164504951E+03 -0.33822963301E+03  0.18820982049E+04  0.10100000352E+00 0. -1.
       -3    1    3    3    0  502 -0.15821293110E+04  0.96164504951E+03 -0.40866404777E+03  0.18960223290E+04  0.10100000352E+00 0.  1.
</event>
<event>
 5   0  0.6939921E-07  0.3729407E+04  0.7818609E-02  0.8061476E-01
       -2   -1    0    0    0  501  0.00000000000E+00  0.00000000000E+00  0.12968498781E+04  0.12968498781E+04  0.25500000920E-02 0.  1.
        2   -1    0    0  501    0  0.00000000000E+00  0.00000000000E+00 -0.26812044781E+04  0.26812044781E+04  0.25500000920E-02 0. -1.
    10030    2    1    2    0    0  0.00000000000E+00  0.00000000000E+00 -0.13843546000E+04  0.39780543562E+04  0.37294072991E+04 0.  0.
        4    1    3    3  502    0  0.21093938507E+03  0.94266592170E+03  0.10091573980E+04  0.13969662598E+04  0.12699999809E+01 0.  1.
       -4    1    3    3    0  502 -0.21093938507E+03 -0.94266592170E+03 -0.23935119980E+04  0.25810880964E+04  0.12699999809E+01 0. -1.
</event>
<event>
 5   0  0.7124627E-07  0.3561315E+04  0.7818609E-02  0.8099411E-01
       -2   -1    0    0    0  501  0.00000000000E+00  0.00000000000E+00  0.16207422472E+04  0.16207422472E+04  0.25500000920E-02 0. -1.
        2   -1    0    0  501    0  0.00000000000E+00  0.00000000000E+00 -0.19563510048E+04  0.19563510048E+04  0.25500000920E-02 0.  1.
    10030    2    1    2    0    0  0.00000000000E+00  0.00000000000E+00 -0.33560875761E+03  0.35770932520E+04  0.35613147706E+04 0.  0.
        2    1    3    3  502    0  0.19250884682E+03  0.18559759551E+03 -0.19360684675E+04  0.19544480639E+04  0.25500000920E-02 0.  1.
       -2    1    3    3    0  502 -0.19250884682E+03 -0.18559759551E+03  0.16004597099E+04  0.16226451881E+04  0.25500000920E-02 0. -1.
</event>
<event>
 5   0  0.7300916E-07  0.3733512E+04  0.7818609E-02  0.8060576E-01
       -2   -1    0    0    0  501  0.00000000000E+00  0.00000000000E+00  0.18726423608E+04  0.18726423608E+04  0.25500000920E-02 0.  1.
        2   -1    0    0  501    0  0.00000000000E+00  0.00000000000E+00 -0.18608879555E+04  0.18608879555E+04  0.25500000920E-02 0. -1.
    10030    2    1    2    0    0  0.00000000000E+00  0.00000000000E+00  0.11754405268E+02  0.37335303163E+04  0.37335118129E+04 0.  0.
        1    1    3    3  502    0 -0.14162430875E+04  0.86346227997E+03 -0.85055335064E+03  0.18640688276E+04  0.50400001928E-02 0. -1.
       -1    1    3    3    0  502  0.14162430875E+04 -0.86346227997E+03  0.86230775591E+03  0.18694614887E+04  0.50400001928E-02 0.  1.
</event>
<event>
 5   0  0.7074157E-07  0.3453185E+04  0.7818609E-02  0.8124975E-01
        2   -1    0    0  501    0  0.00000000000E+00  0.00000000000E+00  0.13969906270E+04  0.13969906270E+04  0.25500000920E-02 0.  1.
       -2   -1    0    0    0  501  0.00000000000E+00  0.00000000000E+00 -0.21339596937E+04  0.21339596937E+04  0.25500000920E-02 0. -1.
    10030    2    1    2    0    0  0.00000000000E+00  0.00000000000E+00 -0.73696906672E+03  0.35309503208E+04  0.34531850171E+04 0.  0.
        3    1    3    3  502    0  0.16166591102E+04 -0.58778029735E+03 -0.21665040569E+03  0.17337848093E+04  0.10100000352E+00 0. -1.
       -3    1    3    3    0  502 -0.16166591102E+04  0.58778029735E+03 -0.52031866103E+03  0.17971655115E+04  0.10100000352E+00 0.  1.
</event>
<event>
 5   0  0.7124627E-07  0.3766828E+04  0.7818609E-02  0.8053311E-01
       -2   -1    0    0    0  501  0.00000000000E+00  0.00000000000E+00  0.20375127048E+04  0.20375127048E+04  0.25500000920E-02 0.  1.
        2   -1    0    0  501    0  0.00000000000E+00  0.00000000000E+00 -0.17409697772E+04  0.17409697772E+04  0.25500000920E-02 0. -1.
    10030    2    1    2    0    0  0.00000000000E+00  0.00000000000E+00  0.29654292763E+03  0.37784824820E+04  0.37668278643E+04 0.  0.
        2    1    3    3  502    0  0.21134576234E+02  0.18829029395E+04  0.18683374056E+03  0.18922676863E+04  0.25500000920E-02 0. -1.
       -2    1    3    3    0  502 -0.21134576234E+02 -0.18829029395E+04  0.10970918707E+03  0.18862147957E+04  0.25500000920E-02 0.  1.
</event>
<event>
 5   0  0.2287500E-07  0.3729948E+04  0.7818609E-02  0.8061357E-01
       -1   -1    0    0    0  501  0.00000000000E+00  0.00000000000E+00  0.16066137946E+04  0.16066137946E+04  0.50400001928E-02 0.  1.
        1   -1    0    0  501    0  0.00000000000E+00  0.00000000000E+00 -0.21648807653E+04  0.21648807653E+04  0.50400001928E-02 0. -1.
    10030    2    1    2    0    0  0.00000000000E+00  0.00000000000E+00 -0.55826697071E+03  0.37714945600E+04  0.37299476143E+04 0.  0.
        2    1    3    3  502    0 -0.75399878191E+03  0.12675954753E+04 -0.14332565047E+04  0.20565837353E+04  0.25500000920E-02 0. -1.
       -2    1    3    3    0  502  0.75399878191E+03 -0.12675954753E+04  0.87498953396E+03  0.17149108247E+04  0.25500000920E-02 0.  1.
</event>
<event>
 5   0  0.2287500E-07  0.3649112E+04  0.7818609E-02  0.8079334E-01
        1   -1    0    0  501    0  0.00000000000E+00  0.00000000000E+00  0.23758945523E+04  0.23758945523E+04  0.50400001928E-02 0.  1.
       -1   -1    0    0    0  501  0.00000000000E+00  0.00000000000E+00 -0.14011586704E+04  0.14011586704E+04  0.50400001928E-02 0. -1.
    10030    2    1    2    0    0  0.00000000000E+00  0.00000000000E+00  0.97473588185E+03  0.37770532227E+04  0.36491123589E+04 0.  0.
        2    1    3    3  502    0  0.17167066220E+04 -0.40959531525E+02 -0.15089284579E+03  0.17238120431E+04  0.25500000920E-02 0.  1.
       -2    1    3    3    0  502 -0.17167066220E+04  0.40959531525E+02  0.11256287276E+04  0.20532411796E+04  0.25500000920E-02 0. -1.
</event>
<event>
 5   0  0.2287500E-07  0.3627389E+04  0.7818609E-02  0.8084247E-01
       -1   -1    0    0    0  501  0.00000000000E+00  0.00000000000E+00  0.30860274622E+04  0.30860274622E+04  0.50400001928E-02 0.  1.
        1   -1    0    0  501    0  0.00000000000E+00  0.00000000000E+00 -0.10659292516E+04  0.10659292516E+04  0.50400001928E-02 0. -1.
    10030    2    1    2    0    0  0.00000000000E+00  0.00000000000E+00  0.20200982106E+04  0.41519567138E+04  0.36273885611E+04 0.  0.
        4    1    3    3  502    0  0.91156308093E+03 -0.66919090723E+03  0.26331096133E+04  0.28656642457E+04  0.12699999809E+01 0.  1.
       -4    1    3    3    0  502 -0.91156308093E+03  0.66919090723E+03 -0.61301140264E+03  0.12862924681E+04  0.12699999809E+01 0. -1.
</event>
<event>
 5   0  0.2345471E-07  0.3708103E+04  0.7818609E-02  0.8066169E-01
        1   -1    0    0  501    0  0.00000000000E+00  0.00000000000E+00  0.17519953569E+04  0.17519953569E+04  0.50400001928E-02 0.  1.
       -1   -1    0    0    0  501  0.00000000000E+00  0.00000000000E+00 -0.19620522346E+04  0.19620522346E+04  0.50400001928E-02 0. -1.
    10030    2    1    2    0    0  0.00000000000E+00  0.00000000000E+00 -0.21005687773E+03  0.37140475915E+04  0.37081026981E+04 0.  0.
        5    1    3    3  502    0 -0.66910309393E+03 -0.15369864177E+04 -0.89842092205E+03  0.19018960123E+04  0.46999998093E+01 0. -1.
       -5    1    3    3    0  502  0.66910309393E+03  0.15369864177E+04  0.68836404432E+03  0.18121515792E+04  0.46999998093E+01 0.  1.
</event>
<event>
 5   0  0.2345471E-07  0.3023170E+04  0.7818609E-02  0.8237145E-01
        1   -1    0    0  501    0  0.00000000000E+00  0.00000000000E+00  0.11581035157E+04  0.11581035157E+04  0.50400001928E-02 0.  1.
       -1   -1    0    0    0  501  0.00000000000E+00  0.00000000000E+00 -0.19729583166E+04  0.19729583166E+04  0.50400001928E-02 0. -1.
    10030    2    1    2    0    0  0.00000000000E+00  0.00000000000E+00 -0.81485480089E+03  0.31310618323E+04  0.30231704965E+04 0.  0.
        5    1    3    3  502    0  0.13037604259E+03 -0.73886151796E+03  0.95163603455E+03  0.12118364112E+04  0.46999998093E+01 0.  1.
       -5    1    3    3    0  502 -0.13037604259E+03  0.73886151796E+03 -0.17664908354E+04  0.19192254211E+04  0.46999998093E+01 0. -1.
</event>
<event>
 5   0  0.7074157E-07  0.3544915E+04  0.7818609E-02  0.8103228E-01
        2   -1    0    0  501    0  0.00000000000E+00  0.00000000000E+00  0.19500172670E+04  0.19500172670E+04  0.25500000920E-02 0.  1.
       -2   -1    0    0    0  501  0.00000000000E+00  0.00000000000E+00 -0.16110650796E+04  0.16110650796E+04  0.25500000920E-02 0. -1.
    10030    2    1    2    0    0  0.00000000000E+00  0.00000000000E+00  0.33895218742E+03  0.35610823467E+04  0.35449145116E+04 0.  0.
        3    1    3    3  502    0  0.15191959202E+04 -0.48878453239E+03  0.94418607083E+03  0.18542798898E+04  0.10100000352E+00 0. -1.
       -3    1    3    3    0  502 -0.15191959202E+04  0.48878453239E+03 -0.60523388341E+03  0.17068024569E+04  0.10100000352E+00 0.  1.
</event>
<event>
 5   0  0.7074157E-07  0.3745661E+04  0.7818609E-02  0.8057917E-01
        2   -1    0    0  501    0  0.00000000000E+00  0.00000000000E+00  0.25926292696E+04  0.25926292696E+04  0.25500000920E-02 0. -1.
       -2   -1    0    0    0  501  0.00000000000E+00  0.00000000000E+00 -0.13528714461E+04  0.13528714461E+04  0.25500000920E-02 0.  1.
    10030    2    1    2    0    0  0.00000000000E+00  0.00000000000E+00  0.12397578234E+04  0.39455007157E+04  0.37456610146E+04 0.  0.
        3    1    3    3  502    0 -0.10299364868E+04  0.42553267982E+01  0.22675276204E+04  0.24904756161E+04  0.10100000352E+00 0. -1.
       -3    1    3    3    0  502  0.10299364868E+04 -0.42553267982E+01 -0.10277697970E+04  0.14550250996E+04  0.10100000352E+00 0.  1.
</event>
<event>
 5   0  0.2345471E-07  0.3625351E+04  0.7818609E-02  0.8084709E-01
       -1   -1    0    0    0  501  0.00000000000E+00  0.00000000000E+00  0.21247986339E+04  0.21247986339E+04  0.50400001928E-02 0.  1.
        1   -1    0    0  501    0  0.00000000000E+00  0.00000000000E+00 -0.15464018956E+04  0.15464018956E+04  0.50400001928E-02 0. -1.
    10030    2    1    2    0    0  0.00000000000E+00  0.00000000000E+00  0.57839673838E+03  0.36712005295E+04  0.36253510921E+04 0.  0.
        5    1    3    3  502    0 -0.24171877914E+03  0.11919847270E+04 -0.10718664868E+04  0.16211648322E+04  0.46999998093E+01 0. -1.
       -5    1    3    3    0  502  0.24171877914E+03 -0.11919847270E+04  0.16502632252E+04  0.20500356973E+04  0.46999998093E+01 0.  1.
</event>
<event>
 5   0  0.7300916E-07  0.3312620E+04  0.7818609E-02  0.8159692E-01
        2   -1    0    0  501    0  0.00000000000E+00  0.00000000000E+00  0.26213496937E+04  0.26213496937E+04  0.25500000920E-02 0. -1.
       -2   -1    0    0    0  501  0.00000000000E+00  0.00000000000E+00 -0.10465457899E+04  0.10465457899E+04  0.25500000920E-02 0.  1.
    10030    2    1    2    0    0  0.00000000000E+00  0.00000000000E+00  0.15748039037E+04  0.36678954836E+04  0.33126198006E+04 0.  0.
        1    1    3    3  502    0  0.28573070240E+03  0.26223956399E+02 -0.10188173076E+04  0.10584509608E+04  0.50400001928E-02 0.  1.
       -1    1    3    3    0  502 -0.28573070240E+03 -0.26223956399E+02  0.25936212113E+04  0.26094445229E+04  0.50400001928E-02 0. -1.
</event>
<event>
 5   0  0.2287500E-07  0.3721772E+04  0.7818609E-02  0.8063154E-01
       -1   -1    0    0    0  501  0.00000000000E+00  0.00000000000E+00  0.16815058304E+04  0.16815058304E+04  0.50400001928E-02 0.  1.
        1   -1    0    0  501    0  0.00000000000E+00  0.00000000000E+00 -0.20594016854E+04  0.20594016854E+04  0.50400001928E-02 0. -1.
    10030    2    1    2    0    0  0.00000000000E+00  0.00000000000E+00 -0.37789585507E+03  0.37409075158E+04  0.37217715895E+04 0.  0.
        2    1    3    3  502    0  0.76442747394E+03  0.14359466486E+04  0.71935968414E+03  0.17786991021E+04  0.25500000920E-02 0.  1.
       -2    1    3    3    0  502 -0.76442747394E+03 -0.14359466486E+04 -0.10972555392E+04  0.19622084137E+04  0.25500000920E-02 0. -1.
</event>
<event>
 5   0  0.7074157E-07  0.3766185E+04  0.7818609E-02  0.8053451E-01
        2   -1    0    0  501    0  0.00000000000E+00  0.00000000000E+00  0.13326390734E+04  0.13326390734E+04  0.25500000920E-02 0. -1.
       -2   -1    0    0    0  501  0.00000000000E+00  0.00000000000E+00 -0.26609128506E+04  0.26609128506E+04  0.25500000920E-02 0.  1.
    10030    2    1    2    0    0  0.00000000000E+00  0.00000000000E+00 -0.13282737773E+04  0.39935519240E+04  0.37661845072E+04 0.  0.
        3    1    3    3  502    0 -0.16613052705E+04  0.22539547922E+03  0.24512599893E+03  0.16943509346E+04  0.10100000352E+00 0. -1.
       -3    1    3    3    0  502  0.16613052705E+04 -0.22539547922E+03 -0.15733997762E+04  0.22992009894E+04  0.10100000352E+00 0.  1.
</event>
<event>
 5   0  0.6939921E-07  0.3644002E+04  0.7818609E-02  0.8080486E-01
        2   -1    0    0  501    0  0.00000000000E+00  0.00000000000E+00  0.23847071476E+04  0.23847071476E+04  0.25500000920E-02 0.  1.
       -2   -1    0    0    0  501  0.00000000000E+00  0.00000000000E+00 -0.13920737098E+04  0.13920737098E+04  0.25500000920E-02 0. -1.
    10030    2    1    2    0    0  0.00000000000E+00  0.00000000000E+00  0.99263343774E+03  0.37767808574E+04  0.36440022644E+04 0.  0.
        4    1    3    3  502    0 -0.59963580286E+03 -0.13864645910E+04  0.15521812850E+04  0.21658983153E+04  0.12699999809E+01 0.  1.
       -4    1    3    3    0  502  0.59963580286E+03  0.13864645910E+04 -0.55954784721E+03  0.16108825421E+04  0.12699999809E+01 0. -1.
</event>
<event>
 5   0  0.6949625E-07  0.3917457E+04  0.7818609E-02  0.8021408E-01
       -2   -1    0    0    0  501  0.00000000000E+00  0.00000000000E+00  0.13714162067E+04  0.13714162067E+04  0.25500000920E-02 0. -1.
        2   -1    0    0  501    0  0.00000000000E+00  0.00000000000E+00 -0.27975583054E+04  0.27975583054E+04  0.25500000920E-02 0.  1.
    10030    2    1    2    0    0  0.00000000000E+00  0.00000000000E+00 -0.14261420987E+04  0.41689745121E+04  0.39174567256E+04 0.  0.
        5    1    3    3  502    0  0.87090454489E+03 -0.14324934783E+04  0.36492248296E+03  0.17157222387E+04  0.46999998093E+01 0. -1.
       -5    1    3    3    0  502 -0.87090454489E+03  0.14324934783E+04 -0.17910645816E+04  0.24532522735E+04  0.46999998093E+01 0.  1.
</event>
<event>
 5   0  0.2411746E-07  0.3370132E+04  0.7818609E-02  0.8145276E-01
        1   -1    0    0  501    0  0.00000000000E+00  0.00000000000E+00  0.14553353973E+04  0.14553353973E+04  0.50400001928E-02 0. -1.
       -1   -1    0    0    0  501  0.00000000000E+00  0.00000000000E+00 -0.19510609708E+04  0.19510609708E+04  0.50400001928E-02 0.  1.
    10030    2    1    2    0    0  0.00000000000E+00  0.00000000000E+00 -0.49572557356E+03  0.34063963681E+04  0.33701323969E+04 0.  0.
        1    1    3    3  502    0  0.15305380881E+04  0.35569974876E+03  0.36727352203E+03  0.16136787135E+04  0.50400001928E-02 0. -1.
       -1    1    3    3    0  502 -0.15305380881E+04 -0.35569974876E+03 -0.86299909558E+03  0.17927176547E+04  0.50400001928E-02 0.  1.
</event>
<event>
 5   0  0.2287500E-07  0.3400904E+04  0.7818609E-02  0.8137684E-01
        1   -1    0    0  501    0  0.00000000000E+00  0.00000000000E+00  0.96405431820E+03  0.96405431822E+03  0.50400001928E-02 0. -1.
       -1   -1    0    0    0  501  0.00000000000E+00  0.00000000000E+00 -0.29993514213E+04  0.29993514213E+04  0.50400001928E-02 0.  1.
    10030    2    1    2    0    0  0.00000000000E+00  0.00000000000E+00 -0.20352971031E+04  0.39634057396E+04  0.34009044030E+04 0.  0.
        3    1    3    3  502    0  0.10324704245E+04  0.11615165318E+04 -0.18220446294E+04  0.23947781678E+04  0.10100000352E+00 0. -1.
       -3    1    3    3    0  502 -0.10324704245E+04 -0.11615165318E+04 -0.21325247371E+03  0.15686275718E+04  0.10100000352E+00 0.  1.
</event>
<event>
 5   0  0.2287500E-07  0.3695237E+04  0.7818609E-02  0.8069018E-01
       -1   -1    0    0    0  501  0.00000000000E+00  0.00000000000E+00  0.16939138160E+04  0.16939138160E+04  0.50400001928E-02 0.  1.
        1   -1    0    0  501    0  0.00000000000E+00  0.00000000000E+00 -0.20152702619E+04  0.20152702619E+04  0.50400001928E-02 0. -1.
    10030    2    1    2    0    0  0.00000000000E+00  0.00000000000E+00 -0.32135644590E+03  0.37091840780E+04  0.36952370099E+04 0.  0.
        4    1    3    3  502    0  0.46167149060E+03  0.64427968924E+03 -0.18359459085E+04  0.19997339511E+04  0.12699999809E+01 0. -1.
       -4    1    3    3    0  502 -0.46167149060E+03 -0.64427968924E+03  0.15145894626E+04  0.17094501269E+04  0.12699999809E+01 0.  1.
</event>
<event>
 5   0  0.2345471E-07  0.3681838E+04  0.7818609E-02  0.8071999E-01
       -1   -1    0    0    0  501  0.00000000000E+00  0.00000000000E+00  0.25974280789E+04  0.25974280789E+04  0.50400001928E-02 0. -1.
        1   -1    0    0  501    0  0.00000000000E+00  0.00000000000E+00 -0.13047454278E+04  0.13047454278E+04  0.50400001928E-02 0.  1.
    10030    2    1    2    0    0  0.00000000000E+00  0.00000000000E+00  0.12926826511E+04  0.39021735067E+04  0.36818378074E+04 0.  0.
        5    1    3    3  502    0  0.17895277937E+04 -0.58452658287E+02  0.10998924772E+04  0.21013357631E+04  0.46999998093E+01 0. -1.
       -5    1    3    3    0  502 -0.17895277937E+04  0.58452658287E+02  0.19279017391E+03  0.18008377437E+04  0.46999998093E+01 0.  1.
</event>
<event>
 5   0  0.7074157E-07  0.2841371E+04  0.7818609E-02  0.8290538E-01
       -2   -1    0    0    0  501  0.00000000000E+00  0.00000000000E+00  0.12295492128E+04  0.12295492128E+04  0.25500000920E-02 0. -1.
        2   -1    0    0  501    0  0.00000000000E+00  0.00000000000E+00 -0.16415338028E+04  0.16415338028E+04  0.25500000920E-02 0.  1.
    10030    2    1    2    0    0  0.00000000000E+00  0.00000000000E+00 -0.41198458998E+03  0.28710830156E+04  0.28413705108E+04 0.  0.
        3    1    3    3  502    0 -0.68175245780E+03 -0.78924973947E+03  0.76879511200E+03  0.12956648870E+04  0.10100000352E+00 0. -1.
       -3    1    3    3    0  502  0.68175245780E+03  0.78924973947E+03 -0.11807797020E+04  0.15754181286E+04  0.10100000352E+00 0.  1.
</event>
<event>
 5   0  0.2287500E-07  0.3719921E+04  0.7818609E-02  0.8063561E-01
        1   -1    0    0  501    0  0.00000000000E+00  0.00000000000E+00  0.26966348961E+04  0.26966348961E+04  0.50400001928E-02 0.  1.
       -1   -1    0    0    0  501  0.00000000000E+00  0.00000000000E+00 -0.12828774961E+04  0.12828774961E+04  0.50400001928E-02 0. -1.
    10030    2    1    2    0    0  0.00000000000E+00  0.00000000000E+00  0.14137574001E+04  0.39795123922E+04  0.37199205493E+04 0.  0.
        2    1    3    3  502    0 -0.14140952232E+04  0.10080632338E+04  0.14193866814E+04  0.22428810345E+04  0.25500000920E-02 0.  1.
       -2    1    3    3    0  502  0.14140952232E+04 -0.10080632338E+04 -0.56292813332E+01  0.17366313577E+04  0.25500000920E-02 0. -1.
</event>
<event>
 5   0  0.2287500E-07  0.3760954E+04  0.7818609E-02  0.8054586E-01
        1   -1    0    0  501    0  0.00000000000E+00  0.00000000000E+00  0.17601949741E+04  0.17601949741E+04  0.50400001928E-02 0.  1.
       -1   -1    0    0    0  501  0.00000000000E+00  0.00000000000E+00 -0.20089781496E+04  0.20089781496E+04  0.50400001928E-02 0. -1.
    10030    2    1    2    0    0  0.00000000000E+00  0.00000000000E+00 -0.24878317549E+03  0.37691731237E+04  0.37609537311E+04 0.  0.
        4    1    3    3  502    0  0.12603975673E+03 -0.18318099195E+04  0.28242414970E+03  0.18577348074E+04  0.12699999809E+01 0.  1.
       -4    1    3    3    0  502 -0.12603975673E+03  0.18318099195E+04 -0.53120732520E+03  0.19114383162E+04  0.12699999809E+01 0. -1.
</event>
<event>
 5   0  0.2287500E-07  0.2652426E+04  0.7818609E-02  0.8350608E-01
       -1   -1    0    0    0  501  0.00000000000E+00  0.00000000000E+00  0.79674596592E+03  0.79674596593E+03  0.50400001928E-02 0.  1.
        1   -1    0    0  501    0  0.00000000000E+00  0.00000000000E+00 -0.22075302190E+04  0.22075302190E+04  0.50400001928E-02 0. -1.
    10030    2    1    2    0    0  0.00000000000E+00  0.00000000000E+00 -0.14107842531E+04  0.30042761849E+04  0.26524259060E+04 0.  0.
        3    1    3    3  502    0 -0.77359651016E+03 -0.62010831865E+03  0.29227772275E+03  0.10336402492E+04  0.10100000352E+00 0.  1.
       -3    1    3    3    0  502  0.77359651016E+03  0.62010831865E+03 -0.17030619758E+04  0.19706359357E+04  0.10100000352E+00 0. -1.
</event>
<event>
 5   0  0.2287500E-07  0.3714603E+04  0.7818609E-02  0.8064733E-01
       -1   -1    0    0    0  501  0.00000000000E+00  0.00000000000E+00  0.17281362128E+04  0.17281362128E+04  0.50400001928E-02 0. -1.
        1   -1    0    0  501    0  0.00000000000E+00  0.00000000000E+00 -0.19961207144E+04  0.19961207144E+04  0.50400001928E-02 0.  1.
    10030    2    1    2    0    0  0.00000000000E+00  0.00000000000E+00 -0.26798450156E+03  0.37242569272E+04  0.37146028007E+04 0.  0.
        4    1    3    3  502    0  0.77713089029E+03 -0.93162675370E+03 -0.15439565732E+04  0.19635845644E+04  0.12699999809E+01 0.  1.
       -4    1    3    3    0  502 -0.77713089029E+03  0.93162675370E+03  0.12759720716E+04  0.17606723628E+04  0.12699999809E+01 0. -1.
</event>
<event>
 5   0  0.7124627E-07  0.3830459E+04  0.7818609E-02  0.8039650E-01
        2   -1    0    0  501    0  0.00000000000E+00  0.00000000000E+00  0.16333911963E+04  0.16333911963E+04  0.25500000920E-02 0. -1.
       -2   -1    0    0    0  501  0.00000000000E+00  0.00000000000E+00 -0.22456986937E+04  0.22456986937E+04  0.25500000920E-02 0.  1.
    10030    2    1    2    0    0  0.00000000000E+00  0.00000000000E+00 -0.61230749744E+03  0.38790898900E+04  0.38304592288E+04 0.  0.
        2    1    3    3  502    0 -0.88315549767E+03  0.16974400255E+04 -0.38989703151E+03  0.19527636745E+04  0.25500000920E-02 0.  1.
       -2    1    3    3    0  502  0.88315549767E+03 -0.16974400255E+04 -0.22241046593E+03  0.19263262155E+04  0.25500000920E-02 0. -1.
</event>
<event>
 5   0  0.6949625E-07  0.3668527E+04  0.7818609E-02  0.8074973E-01
       -2   -1    0    0    0  501  0.00000000000E+00  0.00000000000E+00  0.18212410051E+04  0.18212410051E+04  0.25500000920E-02 0.  1.
        2   -1    0    0  501    0  0.00000000000E+00  0.00000000000E+00 -0.18473794020E+04  0.18473794020E+04  0.25500000920E-02 0. -1.
    10030    2    1    2    0    0  0.00000000000E+00  0.00000000000E+00 -0.26138396894E+02  0.36686204072E+04  0.36685272898E+04 0.  0.
        5    1    3    3  502    0 -0.17583747316E+04 -0.31110943109E+03  0.40626262756E+03  0.18313225242E+04  0.46999998093E+01 0. -1.
       -5    1    3    3    0  502  0.17583747316E+04  0.31110943109E+03 -0.43240102446E+03  0.18372978830E+04  0.46999998093E+01 0.  1.
</event>
<event>
 5   0  0.7074157E-07  0.2658372E+04  0.7818609E-02  0.8348639E-01
        2   -1    0    0  501    0  0.00000000000E+00  0.00000000000E+00  0.25674678976E+04  0.25674678976E+04  0.25500000920E-02 0.  1.
       -2   -1    0    0    0  501  0.00000000000E+00  0.00000000000E+00 -0.68812380929E+03  0.68812380930E+03  0.25500000920E-02 0. -1.
    10030    2    1    2    0    0  0.00000000000E+00  0.00000000000E+00  0.18793440883E+04  0.32555917069E+04  0.26583722764E+04 0.  0.
        3    1    3    3  502    0 -0.49367853626E+03  0.10917807345E+04  0.23506140608E+03  0.12210477239E+04  0.10100000352E+00 0. -1.
       -3    1    3    3    0  502  0.49367853626E+03 -0.10917807345E+04  0.16442826822E+04  0.20345439830E+04  0.10100000352E+00 0.  1.
</event>
<event>
 5   0  0.6949625E-07  0.3656356E+04  0.7818609E-02  0.8077703E-01
        2   -1    0    0  501    0  0.00000000000E+00  0.00000000000E+00  0.14419906890E+04  0.14419906890E+04  0.25500000920E-02 0.  1.
       -2   -1    0    0    0  501  0.00000000000E+00  0.00000000000E+00 -0.23177925315E+04  0.23177925315E+04  0.25500000920E-02 0. -1.
    10030    2    1    2    0    0  0.00000000000E+00  0.00000000000E+00 -0.87580184249E+03  0.37597832204E+04  0.36563562459E+04 0.  0.
        5    1    3    3  502    0  0.58556432066E+03  0.14884413960E+04  0.47250750239E+03  0.16678215710E+04  0.46999998093E+01 0.  1.
       -5    1    3    3    0  502 -0.58556432066E+03 -0.14884413960E+04 -0.13483093449E+04  0.20919616494E+04  0.46999998093E+01 0. -1.
</event>
<event>
 5   0  0.2287500E-07  0.3669056E+04  0.7818609E-02  0.8074854E-01
        1   -1    0    0  501    0  0.00000000000E+00  0.00000000000E+00  0.23519517048E+04  0.23519517048E+04  0.50400001928E-02 0. -1.
       -1   -1    0    0    0  501  0.00000000000E+00  0.00000000000E+00 -0.14309359596E+04  0.14309359596E+04  0.50400001928E-02 0.  1.
    10030    2    1    2    0    0  0.00000000000E+00  0.00000000000E+00  0.92101574526E+03  0.37828876644E+04  0.36690556112E+04 0.  0.
        4    1    3    3  502    0 -0.21200936003E+02 -0.14835763346E+04  0.15728888594E+04  0.21622740800E+04  0.12699999809E+01 0. -1.
       -4    1    3    3    0  502  0.21200936003E+02  0.14835763346E+04 -0.65187311411E+03  0.16206135844E+04  0.12699999809E+01 0.  1.
</event>
<event>
 5   0  0.2345471E-07  0.3678360E+04  0.7818609E-02  0.8072774E-01
        1   -1    0    0  501    0  0.00000000000E+00  0.00000000000E+00  0.25060342194E+04  0.25060342194E+04  0.50400001928E-02 0. -1.
       -1   -1    0    0    0  501  0.00000000000E+00  0.00000000000E+00 -0.13497754378E+04  0.13497754378E+04  0.50400001928E-02 0.  1.
    10030    2    1    2    0    0  0.00000000000E+00  0.00000000000E+00  0.11562587816E+04  0.38558096573E+04  0.36783601976E+04 0.  0.
        5    1    3    3  502    0 -0.75283745010E+03  0.14872002946E+04 -0.23655885536E+03  0.16836006428E+04  0.46999998093E+01 0. -1.
       -5    1    3    3    0  502  0.75283745010E+03 -0.14872002946E+04  0.13928176369E+04  0.21722090144E+04  0.46999998093E+01 0.  1.
</event>
<event>
 5   0  0.2287500E-07  0.3773429E+04  0.7818609E-02  0.8051881E-01
       -1   -1    0    0    0  501  0.00000000000E+00  0.00000000000E+00  0.17012222766E+04  0.17012222766E+04  0.50400001928E-02 0. -1.
        1   -1    0    0  501    0  0.00000000000E+00  0.00000000000E+00 -0.20924323429E+04  0.20924323429E+04  0.50400001928E-02 0.  1.
    10030    2    1    2    0    0  0.00000000000E+00  0.00000000000E+00 -0.39121006633E+03  0.37936546195E+04  0.37734294820E+04 0.  0.
        3    1    3    3  502    0 -0.69992147145E+03  0.15449120926E+04  0.63529256070E+03  0.18111433096E+04  0.10100000352E+00 0. -1.
       -3    1    3    3    0  502  0.69992147145E+03 -0.15449120926E+04 -0.10265026270E+04  0.19825113098E+04  0.10100000352E+00 0.  1.
</event>
<event>
 5   0  0.2345471E-07  0.3629537E+04  0.7818609E-02  0.8083759E-01
       -1   -1    0    0    0  501  0.00000000000E+00  0.00000000000E+00  0.15080350513E+04  0.15080350513E+04  0.50400001928E-02 0. -1.
        1   -1    0    0  501    0  0.00000000000E+00  0.00000000000E+00 -0.21838911312E+04  0.21838911312E+04  0.50400001928E-02 0.  1.
    10030    2    1    2    0    0  0.00000000000E+00  0.00000000000E+00 -0.67585607991E+03  0.36919261826E+04  0.36295368157E+04 0.  0.
        5    1    3    3  502    0  0.17877197787E+04 -0.18429533628E+03 -0.81694215500E+02  0.17990560895E+04  0.46999998093E+01 0.  1.
       -5    1    3    3    0  502 -0.17877197787E+04  0.18429533628E+03 -0.59416186441E+03  0.18928700931E+04  0.46999998093E+01 0. -1.
</event>
<event>
 5   0  0.7124627E-07  0.3694696E+04  0.7818609E-02  0.8069138E-01
       -2   -1    0    0    0  501  0.00000000000E+00  0.00000000000E+00  0.23717380411E+04  0.23717380411E+04  0.25500000920E-02 0.  1.
        2   -1    0    0  501    0  0.00000000000E+00  0.00000000000E+00 -0.14389001980E+04  0.14389001980E+04  0.25500000920E-02 0. -1.
    10030    2    1    2    0    0  0.00000000000E+00  0.00000000000E+00  0.93283784303E+03  0.38106382391E+04  0.36946958397E+04 0.  0.
        2    1    3    3  502    0 -0.16057756088E+04 -0.86519983831E+03  0.76818949787E+03  0.19791920500E+04  0.25500000920E-02 0.  1.
       -2    1    3    3    0  502  0.16057756088E+04  0.86519983831E+03  0.16464834515E+03  0.18314461891E+04  0.25500000920E-02 0. -1.
</event>
<event>
 5   0  0.7074157E-07  0.3668824E+04  0.7818609E-02  0.8074906E-01
       -2   -1    0    0    0  501  0.00000000000E+00  0.00000000000E+00  0.12818449246E+04  0.12818449246E+04  0.25500000920E-02 0.  1.
        2   -1    0    0  501    0  0.00000000000E+00  0.00000000000E+00 -0.26251750494E+04  0.26251750494E+04  0.25500000920E-02 0. -1.
    10030    2    1    2    0    0  0.00000000000E+00  0.00000000000E+00 -0.13433301248E+04  0.39070199740E+04  0.36688239605E+04 0.  0.
        3    1    3    3  502    0 -0.81256349639E+03 -0.16392714007E+04 -0.81293177159E+03  0.20020809765E+04  0.10100000352E+00 0. -1.
       -3    1    3    3    0  502  0.81256349639E+03  0.16392714007E+04 -0.53039835316E+03  0.19049389975E+04  0.10100000352E+00 0.  1.
</event>
<event>
 5   0  0.7074157E-07  0.3713176E+04  0.7818609E-02  0.8065048E-01
       -2   -1    0    0    0  501  0.00000000000E+00  0.00000000000E+00  0.17499165096E+04  0.17499165096E+04  0.25500000920E-02 0.  1.
        2   -1    0    0  501    0  0.00000000000E+00  0.00000000000E+00 -0.19697623113E+04  0.19697623113E+04  0.25500000920E-02 0. -1.
    10030    2    1    2    0    0  0.00000000000E+00  0.00000000000E+00 -0.21984580166E+03  0.37196788209E+04  0.37131763161E+04 0.  0.
        3    1    3    3  502    0 -0.12179874785E+04  0.67647848075E+03  0.11193376411E+04  0.17871858878E+04  0.10100000352E+00 0.  1.
       -3    1    3    3    0  502  0.12179874785E+04 -0.67647848075E+03 -0.13391834428E+04  0.19324929331E+04  0.10100000352E+00 0. -1.
</event>
<event>
 5   0  0.2287500E-07  0.3682779E+04  0.7818609E-02  0.8071789E-01
        1   -1    0    0  501    0  0.00000000000E+00  0.00000000000E+00  0.31650436764E+04  0.31650436765E+04  0.50400001928E-02 0. -1.
       -1   -1    0    0    0  501  0.00000000000E+00  0.00000000000E+00 -0.10713010435E+04  0.10713010435E+04  0.50400001928E-02 0.  1.
    10030    2    1    2    0    0  0.00000000000E+00  0.00000000000E+00  0.20937426330E+04  0.42363447199E+04  0.36827786212E+04 0.  0.
        2    1    3    3  502    0 -0.77882241328E+03  0.19344052299E+03 -0.85957132752E+03  0.11759449198E+04  0.25500000920E-02 0.  1.
       -2    1    3    3    0  502  0.77882241328E+03 -0.19344052299E+03  0.29533139605E+04  0.30603998001E+04  0.25500000920E-02 0. -1.
</event>
<event>
 5   0  0.6939921E-07  0.3713958E+04  0.7818609E-02  0.8064876E-01
        2   -1    0    0  501    0  0.00000000000E+00  0.00000000000E+00  0.24998039121E+04  0.24998039121E+04  0.25500000920E-02 0. -1.
       -2   -1    0    0    0  501  0.00000000000E+00  0.00000000000E+00 -0.13794564718E+04  0.13794564718E+04  0.25500000920E-02 0.  1.
    10030    2    1    2    0    0  0.00000000000E+00  0.00000000000E+00  0.11203474403E+04  0.38792603839E+04  0.37139578267E+04 0.  0.
        4    1    3    3  502    0  0.33050029447E+02 -0.42126997316E+03 -0.13285703528E+04  0.13941526064E+04  0.12699999809E+01 0.  1.
       -4    1    3    3    0  502 -0.33050029447E+02  0.42126997316E+03  0.24489177932E+04  0.24851077774E+04  0.12699999809E+01 0. -1.
</event>
<event>
 5   0  0.7074157E-07  0.3645111E+04  0.7818609E-02  0.8080236E-01
        2   -1    0    0  501    0  0.00000000000E+00  0.00000000000E+00  0.27327420129E+04  0.27327420129E+04  0.25500000920E-02 0. -1.
       -2   -1    0    0    0  501  0.00000000000E+00  0.00000000000E+00 -0.12155219904E+04  0.12155219904E+04  0.25500000920E-02 0.  1.
    10030    2    1    2    0    0  0.00000000000E+00  0.00000000000E+00  0.15172200225E+04  0.39482640033E+04  0.36451107038E+04 0.  0.
        3    1    3    3  502    0 -0.54863776735E+03  0.12494217024E+04  0.20672489213E+04  0.24770095080E+04  0.10100000352E+00 0. -1.
       -3    1    3    3    0  502  0.54863776735E+03 -0.12494217024E+04 -0.55002889874E+03  0.14712544953E+04  0.10100000352E+00 0.  1.
</event>
<event>
 5   0  0.7074157E-07  0.3668799E+04  0.7818609E-02  0.8074912E-01
        2   -1    0    0  501    0  0.00000000000E+00  0.00000000000E+00  0.10999428631E+04  0.10999428631E+04  0.25500000920E-02 0. -1.
       -2   -1    0    0    0  501  0.00000000000E+00  0.00000000000E+00 -0.30592691326E+04  0.30592691326E+04  0.25500000920E-02 0.  1.
    10030    2    1    2    0    0  0.00000000000E+00  0.00000000000E+00 -0.19593262695E+04  0.41592119957E+04  0.36687988491E+04 0.  0.
        3    1    3    3  502    0 -0.49037630055E+03  0.44072799215E+02 -0.29829632810E+04  0.30233228861E+04  0.10100000352E+00 0.  1.
       -3    1    3    3    0  502  0.49037630055E+03 -0.44072799215E+02  0.10236370115E+04  0.11358891096E+04  0.10100000352E+00 0. -1.
</event>
<event>
 5   0  0.7074157E-07  0.3234452E+04  0.7818609E-02  0.8179777E-01
       -2   -1    0    0    0  501  0.00000000000E+00  0.00000000000E+00  0.10823059763E+04  0.10823059763E+04  0.25500000920E-02 0. -1.
        2   -1    0    0  501    0  0.00000000000E+00  0.00000000000E+00 -0.24165259096E+04  0.24165259096E+04  0.25500000920E-02 0.  1.
    10030    2    1    2    0    0  0.00000000000E+00  0.00000000000E+00 -0.13342199333E+04  0.34988318859E+04  0.32344523085E+04 0.  0.
        3    1    3    3  502    0  0.14839406344E+04 -0.15780616466E+03  0.70812409039E+01  0.14923246116E+04  0.10100000352E+00 0. -1.
       -3    1    3    3    0  502 -0.14839406344E+04  0.15780616466E+03 -0.13413011742E+04  0.20065072744E+04  0.10100000352E+00 0.  1.
</event>
<event>
 5   0  0.6949625E-07  0.3645437E+04  0.7818609E-02  0.8080162E-01
       -2   -1    0    0    0  501  0.00000000000E+00  0.00000000000E+00  0.11747276127E+04  0.11747276127E+04  0.25500000920E-02 0. -1.
        2   -1    0    0  501    0  0.00000000000E+00  0.00000000000E+00 -0.28281479275E+04  0.28281479275E+04  0.25500000920E-02 0.  1.
    10030    2    1    2    0    0  0.00000000000E+00  0.00000000000E+00 -0.16534203148E+04  0.40028755403E+04  0.36454374022E+04 0.  0.
        5    1    3    3  502    0 -0.17225385742E+04  0.59569361223E+03 -0.84545289408E+03  0.20091796100E+04  0.46999998093E+01 0.  1.
       -5    1    3    3    0  502  0.17225385742E+04 -0.59569361223E+03 -0.80796742073E+03  0.19936959302E+04  0.46999998093E+01 0. -1.
</event>
<event>
 5   0  0.2287500E-07  0.3693757E+04  0.7818609E-02  0.8069347E-01
        1   -1    0    0  501    0  0.00000000000E+00  0.00000000000E+00  0.11853269008E+04  0.11853269008E+04  0.50400001928E-02 0.  1.
       -1   -1    0    0    0  501  0.00000000000E+00  0.00000000000E+00 -0.28776541297E+04  0.28776541297E+04  0.50400001928E-02 0. -1.
    10030    2    1    2    0    0  0.00000000000E+00  0.00000000000E+00 -0.16923272290E+04  0.40629810305E+04  0.36937573559E+04 0.  0.
        3    1    3    3  502    0  0.99255955166E+03  0.41024587808E+03  0.80651664265E+03  0.13431102893E+04  0.10100000352E+00 0.  1.
       -3    1    3    3    0  502 -0.99255955166E+03 -0.41024587808E+03 -0.24988438716E+04  0.27198707412E+04  0.10100000352E+00 0. -1.
</event>
<event>
 5   0  0.2287500E-07  0.3671837E+04  0.7818609E-02  0.8074232E-01
        1   -1    0    0  501    0  0.00000000000E+00  0.00000000000E+00  0.12051880345E+04  0.12051880345E+04  0.50400001928E-02 0.  1.
       -1   -1    0    0    0  501  0.00000000000E+00  0.00000000000E+00 -0.27967393384E+04  0.27967393384E+04  0.50400001928E-02 0. -1.
    10030    2    1    2    0    0  0.00000000000E+00  0.00000000000E+00 -0.15915513039E+04  0.40019273729E+04  0.36718370260E+04 0.  0.
        2    1    3    3  502    0  0.49379918591E+03  0.37261514302E+03 -0.26797287136E+04  0.27502046577E+04  0.25500000920E-02 0. -1.
       -2    1    3    3    0  502 -0.49379918591E+03 -0.37261514302E+03  0.10881774097E+04  0.12517227152E+04  0.25500000920E-02 0.  1.
</event>
<event>
 5   0  0.2287500E-07  0.3358768E+04  0.7818609E-02  0.8148101E-01
       -1   -1    0    0    0  501  0.00000000000E+00  0.00000000000E+00  0.15074237005E+04  0.15074237005E+04  0.50400001928E-02 0.  1.
        1   -1    0    0  501    0  0.00000000000E+00  0.00000000000E+00 -0.18709605049E+04  0.18709605050E+04  0.50400001928E-02 0. -1.
    10030    2    1    2    0    0  0.00000000000E+00  0.00000000000E+00 -0.36353680449E+03  0.33783842054E+04  0.33587677549E+04 0.  0.
        4    1    3    3  502    0  0.14212799846E+04  0.76990808092E+03 -0.63998731249E+03  0.17384995314E+04  0.12699999809E+01 0. -1.
       -4    1    3    3    0  502 -0.14212799846E+04 -0.76990808092E+03  0.27645050800E+03  0.16398846740E+04  0.12699999809E+01 0.  1.
</event>
<event>
 5   0  0.7074157E-07  0.3697427E+04  0.7818609E-02  0.8068532E-01
        2   -1    0    0  501    0  0.00000000000E+00  0.00000000000E+00  0.23495441181E+04  0.23495441181E+04  0.25500000920E-02 0. -1.
       -2   -1    0    0    0  501  0.00000000000E+00  0.00000000000E+00 -0.14546403908E+04  0.14546403908E+04  0.25500000920E-02 0.  1.
    10030    2    1    2    0    0  0.00000000000E+00  0.00000000000E+00  0.89490372728E+03  0.38041845089E+04  0.36974270915E+04 0.  0.
        3    1    3    3  502    0  0.27122097295E+03 -0.18285024939E+04  0.47580806506E+03  0.19087628222E+04  0.10100000352E+00 0. -1.
       -3    1    3    3    0  502 -0.27122097295E+03  0.18285024939E+04  0.41909566222E+03  0.18954216867E+04  0.10100000352E+00 0.  1.
</event>
<event>
 5   0  0.7074157E-07  0.3705685E+04  0.7818609E-02  0.8066703E-01
        2   -1    0    0  501    0  0.00000000000E+00  0.00000000000E+00  0.14740168263E+04  0.14740168263E+04  0.25500000920E-02 0. -1.
       -2   -1    0    0    0  501  0.00000000000E+00  0.00000000000E+00 -0.23290269460E+04  0.23290269460E+04  0.25500000920E-02 0.  1.
    10030    2    1    2    0    0  0.00000000000E+00  0.00000000000E+00 -0.85501011968E+03  0.38030437723E+04  0.37056847720E+04 0.  0.
        3    1    3    3  502    0 -0.30521474302E+03 -0.86163360196E+03 -0.20815106915E+04  0.22733797026E+04  0.10100000352E+00 0.  1.
       -3    1    3    3    0  502  0.30521474302E+03  0.86163360196E+03  0.12265005718E+04  0.15296640697E+04  0.10100000352E+00 0. -1.
</event>
<event>
 5   0  0.7300916E-07  0.3725035E+04  0.7818609E-02  0.8062436E-01
       -2   -1    0    0    0  501  0.00000000000E+00  0.00000000000E+00  0.13507704633E+04  0.13507704634E+04  0.25500000920E-02 0.  1.
        2   -1    0    0  501    0  0.00000000000E+00  0.00000000000E+00 -0.25681428754E+04  0.25681428754E+04  0.25500000920E-02 0. -1.
    10030    2    1    2    0    0  0.00000000000E+00  0.00000000000E+00 -0.12173724121E+04  0.39189133388E+04  0.37250350558E+04 0.  0.
        1    1    3    3  502    0 -0.86145509599E+03 -0.11448104864E+03  0.11244036245E+04  0.14210891259E+04  0.50400001928E-02 0.  1.
       -1    1    3    3    0  502  0.86145509599E+03  0.11448104864E+03 -0.23417760366E+04  0.24978242129E+04  0.50400001928E-02 0. -1.
</event>
<event>
 5   0  0.2411746E-07  0.3710017E+04  0.7818609E-02  0.8065746E-01
        1   -1    0    0  501    0  0.00000000000E+00  0.00000000000E+00  0.17824860020E+04  0.17824860020E+04  0.50400001928E-02 0. -1.
       -1   -1    0    0    0  501  0.00000000000E+00  0.00000000000E+00 -0.19304814863E+04  0.19304814863E+04  0.50400001928E-02 0.  1.
    10030    2    1    2    0    0  0.00000000000E+00  0.00000000000E+00 -0.14799548430E+03  0.37129674882E+04  0.37100168336E+04 0.  0.
        1    1    3    3  502    0  0.11973946647E+04  0.13857737551E+04  0.22108136200E+03  0.18447221612E+04  0.50400001928E-02 0. -1.
       -1    1    3    3    0  502 -0.11973946647E+04 -0.13857737551E+04 -0.36907684630E+03  0.18682453270E+04  0.50400001928E-02 0.  1.
</event>
<event>
 5   0  0.7124627E-07  0.3724454E+04  0.7818609E-02  0.8062564E-01
        2   -1    0    0  501    0  0.00000000000E+00  0.00000000000E+00  0.19930757747E+04  0.19930757747E+04  0.25500000920E-02 0.  1.
       -2   -1    0    0    0  501  0.00000000000E+00  0.00000000000E+00 -0.17399682037E+04  0.17399682037E+04  0.25500000920E-02 0. -1.
    10030    2    1    2    0    0  0.00000000000E+00  0.00000000000E+00  0.25310757100E+03  0.37330439785E+04  0.37244535039E+04 0.  0.
        2    1    3    3  502    0  0.93245410173E+03  0.12025056839E+04  0.12025277908E+04  0.19394750990E+04  0.25500000920E-02 0.  1.
       -2    1    3    3    0  502 -0.93245410173E+03 -0.12025056839E+04 -0.94942021984E+03  0.17935688795E+04  0.25500000920E-02 0. -1.
</event>
<event>
 5   0  0.7074157E-07  0.3624469E+04  0.7818609E-02  0.8084910E-01
        2   -1    0    0  501    0  0.00000000000E+00  0.00000000000E+00  0.18535397451E+04  0.18535397451E+04  0.25500000920E-02 0.  1.
       -2   -1    0    0    0  501  0.00000000000E+00  0.00000000000E+00 -0.17718493983E+04  0.17718493983E+04  0.25500000920E-02 0. -1.
    10030    2    1    2    0    0  0.00000000000E+00  0.00000000000E+00  0.81690346835E+02  0.36253891434E+04  0.36244686684E+04 0.  0.
        3    1    3    3  502    0 -0.20587194254E+03 -0.81838043037E+03  0.16450178766E+04  0.18488411533E+04  0.10100000352E+00 0.  1.
       -3    1    3    3    0  502  0.20587194254E+03  0.81838043037E+03 -0.15633275298E+04  0.17765479901E+04  0.10100000352E+00 0. -1.
</event>
<event>
 5   0  0.2411746E-07  0.3059439E+04  0.7818609E-02  0.8226958E-01
        1   -1    0    0  501    0  0.00000000000E+00  0.00000000000E+00  0.15823899673E+04  0.15823899673E+04  0.50400001928E-02 0. -1.
       -1   -1    0    0    0  501  0.00000000000E+00  0.00000000000E+00 -0.14788024940E+04  0.14788024940E+04  0.50400001928E-02 0.  1.
    10030    2    1    2    0    0  0.00000000000E+00  0.00000000000E+00  0.10358747331E+03  0.30611924614E+04  0.30594393148E+04 0.  0.
        1    1    3    3  502    0  0.13416534459E+04 -0.72283352503E+03  0.18423255644E+03  0.15350778185E+04  0.50400001928E-02 0. -1.
       -1    1    3    3    0  502 -0.13416534459E+04  0.72283352503E+03 -0.80645083129E+02  0.15261146429E+04  0.50400001928E-02 0.  1.
</event>
<event>
 5   0  0.6939921E-07  0.3714279E+04  0.7818609E-02  0.8064805E-01
        2   -1    0    0  501    0  0.00000000000E+00  0.00000000000E+00  0.20389156300E+04  0.20389156300E+04  0.25500000920E-02 0.  1.
       -2   -1    0    0    0  501  0.00000000000E+00  0.00000000000E+00 -0.16915696990E+04  0.16915696990E+04  0.25500000920E-02 0. -1.
    10030    2    1    2    0    0  0.00000000000E+00  0.00000000000E+00  0.34734593100E+03  0.37304853290E+04  0.37142794178E+04 0.  0.
        4    1    3    3  502    0 -0.73520452808E+03 -0.12917480048E+04  0.12920067077E+04  0.19693708517E+04  0.12699999809E+01 0.  1.
       -4    1    3    3    0  502  0.73520452808E+03  0.12917480048E+04 -0.94466077667E+03  0.17611144772E+04  0.12699999809E+01 0. -1.
</event>
<event>
 5   0  0.2287500E-07  0.3715827E+04  0.7818609E-02  0.8064463E-01
       -3   -1    0    0    0  501  0.00000000000E+00  0.00000000000E+00  0.18003815125E+04  0.18003815153E+04  0.10100000352E+00 0. -1.
        3   -1    0    0  501    0  0.00000000000E+00  0.00000000000E+00 -0.19172840506E+04  0.19172840533E+04  0.10100000352E+00 0.  1.
    10030    2    1    2    0    0  0.00000000000E+00  0.00000000000E+00 -0.11690253814E+03  0.37176655686E+04  0.37158271053E+04 0.  0.
        4    1    3    3  502    0  0.49616367646E+03  0.16616213598E+04  0.60871988574E+03  0.18378534897E+04  0.12699999809E+01 0. -1.
       -4    1    3    3    0  502 -0.49616367646E+03 -0.16616213598E+04 -0.72562242389E+03  0.18798120790E+04  0.12699999809E+01 0.  1.
</event>
<event>
 5   0  0.6949625E-07  0.3692291E+04  0.7818609E-02  0.8069672E-01
       -2   -1    0    0    0  501  0.00000000000E+00  0.00000000000E+00  0.28455058774E+04  0.28455058774E+04  0.25500000920E-02 0.  1.
        2   -1    0    0  501    0  0.00000000000E+00  0.00000000000E+00 -0.11977671690E+04  0.11977671690E+04  0.25500000920E-02 0. -1.
    10030    2    1    2    0    0  0.00000000000E+00  0.00000000000E+00  0.16477387084E+04  0.40432730465E+04  0.36922911691E+04 0.  0.
        5    1    3    3  502    0 -0.81131141643E+03  0.16541581404E+04  0.95235126245E+03  0.20739962356E+04  0.46999998093E+01 0.  1.
       -5    1    3    3    0  502  0.81131141643E+03 -0.16541581404E+04  0.69538744597E+03  0.19692768109E+04  0.46999998093E+01 0. -1.
</event>
<event>
 5   0  0.6939921E-07  0.3631195E+04  0.7818609E-02  0.8083383E-01
        2   -1    0    0  501    0  0.00000000000E+00  0.00000000000E+00  0.18381000000E+04  0.18381000000E+04  0.25500000920E-02 0.  1.
       -2   -1    0    0    0  501  0.00000000000E+00  0.00000000000E+00 -0.17933707748E+04  0.17933707748E+04  0.25500000920E-02 0. -1.
    10030    2    1    2    0    0  0.00000000000E+00  0.00000000000E+00  0.44729225185E+02  0.36314707748E+04  0.36311952970E+04 0.  0.
        4    1    3    3  502    0 -0.55573463658E+03  0.15430733465E+04 -0.75646071611E+03  0.18061425101E+04  0.12699999809E+01 0. -1.
       -4    1    3    3    0  502  0.55573463658E+03 -0.15430733465E+04  0.80118994129E+03  0.18253282647E+04  0.12699999809E+01 0.  1.
</event>
<event>
 5   0  0.7074157E-07  0.3675475E+04  0.7818609E-02  0.8073419E-01
       -2   -1    0    0    0  501  0.00000000000E+00  0.00000000000E+00  0.16514658665E+04  0.16514658665E+04  0.25500000920E-02 0. -1.
        2   -1    0    0  501    0  0.00000000000E+00  0.00000000000E+00 -0.20450190002E+04  0.20450190002E+04  0.25500000920E-02 0.  1.
    10030    2    1    2    0    0  0.00000000000E+00  0.00000000000E+00 -0.39355313371E+03  0.36964848667E+04  0.36754749762E+04 0.  0.
        3    1    3    3  502    0  0.10180185779E+04  0.10196257745E+04 -0.13440341223E+04  0.19703873419E+04  0.10100000352E+00 0. -1.
       -3    1    3    3    0  502 -0.10180185779E+04 -0.10196257745E+04  0.95048098858E+03  0.17260975248E+04  0.10100000352E+00 0.  1.
</event>
<event>
 5   0  0.7074157E-07  0.3627601E+04  0.7818609E-02  0.8084198E-01
        2   -1    0    0  501    0  0.00000000000E+00  0.00000000000E+00  0.28595671288E+04  0.28595671288E+04  0.25500000920E-02 0.  1.
       -2   -1    0    0    0  501  0.00000000000E+00  0.00000000000E+00 -0.11504792386E+04  0.11504792386E+04  0.25500000920E-02 0. -1.
    10030    2    1    2    0    0  0.00000000000E+00  0.00000000000E+00  0.17090878901E+04  0.40100463674E+04  0.36276011981E+04 0.  0.
        3    1    3    3  502    0  0.14248800337E+04  0.11770121093E+03 -0.37925061433E+03  0.14791780569E+04  0.10100000352E+00 0. -1.
       -3    1    3    3    0  502 -0.14248800337E+04 -0.11770121093E+03  0.20883385045E+04  0.25308683105E+04  0.10100000352E+00 0.  1.
</event>
<event>
 5   0  0.7124627E-07  0.3721034E+04  0.7818609E-02  0.8063316E-01
       -2   -1    0    0    0  501  0.00000000000E+00  0.00000000000E+00  0.20308122747E+04  0.20308122747E+04  0.25500000920E-02 0.  1.
        2   -1    0    0  501    0  0.00000000000E+00  0.00000000000E+00 -0.17045015558E+04  0.17045015558E+04  0.25500000920E-02 0. -1.
    10030    2    1    2    0    0  0.00000000000E+00  0.00000000000E+00  0.32631071890E+03  0.37353138306E+04  0.37210335564E+04 0.  0.
        2    1    3    3  502    0 -0.71913925917E+03 -0.16462930041E+04  0.64883104494E+03  0.19100847244E+04  0.25500000920E-02 0. -1.
       -2    1    3    3    0  502  0.71913925917E+03  0.16462930041E+04 -0.32252032604E+03  0.18252291062E+04  0.25500000920E-02 0.  1.
</event>
<event>
 5   0  0.7074157E-07  0.3685748E+04  0.7818609E-02  0.8071128E-01
       -2   -1    0    0    0  501  0.00000000000E+00  0.00000000000E+00  0.13784067778E+04  0.13784067778E+04  0.25500000920E-02 0.  1.
        2   -1    0    0  501    0  0.00000000000E+00  0.00000000000E+00 -0.24638479944E+04  0.24638479944E+04  0.25500000920E-02 0. -1.
    10030    2    1    2    0    0  0.00000000000E+00  0.00000000000E+00 -0.10854412167E+04  0.38422547722E+04  0.36857481058E+04 0.  0.
        3    1    3    3  502    0  0.14123106572E+04  0.90325083907E+03 -0.13405289988E+04  0.21465091375E+04  0.10100000352E+00 0. -1.
       -3    1    3    3    0  502 -0.14123106572E+04 -0.90325083907E+03  0.25508778214E+03  0.16957456347E+04  0.10100000352E+00 0.  1.
</event>
<event>
 5   0  0.2345471E-07  0.3747222E+04  0.7818609E-02  0.8057577E-01
       -1   -1    0    0    0  501  0.00000000000E+00  0.00000000000E+00  0.19763587556E+04  0.19763587557E+04  0.50400001928E-02 0. -1.
        1   -1    0    0  501    0  0.00000000000E+00  0.00000000000E+00 -0.17762053049E+04  0.17762053049E+04  0.50400001928E-02 0.  1.
    10030    2    1    2    0    0  0.00000000000E+00  0.00000000000E+00  0.20015345076E+03  0.37525640605E+04  0.37472223879E+04 0.  0.
        5    1    3    3  502    0 -0.54230195242E+03 -0.15902632474E+04  0.93033529882E+03  0.19205661826E+04  0.46999998093E+01 0. -1.
       -5    1    3    3    0  502  0.54230195242E+03  0.15902632474E+04 -0.73018184806E+03  0.18319978779E+04  0.46999998093E+01 0.  1.
</event>
<event>
 5   0  0.7300916E-07  0.2909919E+04  0.7818609E-02  0.8269932E-01
       -2   -1    0    0    0  501  0.00000000000E+00  0.00000000000E+00  0.12854156121E+04  0.12854156121E+04  0.25500000920E-02 0.  1.
        2   -1    0    0  501    0  0.00000000000E+00  0.00000000000E+00 -0.16468664427E+04  0.16468664427E+04  0.25500000920E-02 0. -1.
    10030    2    1    2    0    0  0.00000000000E+00  0.00000000000E+00 -0.36145083052E+03  0.29322820548E+04  0.29099194742E+04 0.  0.
        1    1    3    3  502    0 -0.62639268261E+03  0.72383975255E+03  0.92341225677E+03  0.13300383364E+04  0.50400001928E-02 0.  1.
       -1    1    3    3    0  502  0.62639268261E+03 -0.72383975255E+03 -0.12848630873E+04  0.16022437184E+04  0.50400001928E-02 0. -1.
</event>
<event>
 5   0  0.2287500E-07  0.3638474E+04  0.7818609E-02  0.8081735E-01
       -1   -1    0    0    0  501  0.00000000000E+00  0.00000000000E+00  0.11785610638E+04  0.11785610638E+04  0.50400001928E-02 0. -1.
        1   -1    0    0  501    0  0.00000000000E+00  0.00000000000E+00 -0.28081906507E+04  0.28081906507E+04  0.50400001928E-02 0.  1.
    10030    2    1    2    0    0  0.00000000000E+00  0.00000000000E+00 -0.16296295869E+04  0.39867517145E+04  0.36384744939E+04 0.  0.
        3    1    3    3  502    0  0.16430964844E+03  0.17936862678E+04 -0.10948482064E+04  0.21078426632E+04  0.10100000352E+00 0.  1.
       -3    1    3    3    0  502 -0.16430964844E+03 -0.17936862678E+04 -0.53478138052E+03  0.18789090513E+04  0.10100000352E+00 0. -1.
</event>
<event>
 5   0  0.6939921E-07  0.3697277E+04  0.7818609E-02  0.8068566E-01
        2   -1    0    0  501    0  0.00000000000E+00  0.00000000000E+00  0.20915813773E+04  0.20915813773E+04  0.25500000920E-02 0. -1.
       -2   -1    0    0    0  501  0.00000000000E+00  0.00000000000E+00 -0.16339137941E+04  0.16339137941E+04  0.25500000920E-02 0.  1.
    10030    2    1    2    0    0  0.00000000000E+00  0.00000000000E+00  0.45766758329E+03  0.37254951714E+04  0.36972766539E+04 0.  0.
        4    1    3    3  502    0 -0.13012013674E+04  0.13082262570E+04  0.34319500382E+03  0.18767965690E+04  0.12699999809E+01 0. -1.
       -4    1    3    3    0  502  0.13012013674E+04 -0.13082262570E+04  0.11447257947E+03  0.18486986024E+04  0.12699999809E+01 0.  1.
</event>
<event>
 5   0  0.6939921E-07  0.3688384E+04  0.7818609E-02  0.8070541E-01
        2   -1    0    0  501    0  0.00000000000E+00  0.00000000000E+00  0.18437155344E+04  0.18437155344E+04  0.25500000920E-02 0.  1.
       -2   -1    0    0    0  501  0.00000000000E+00  0.00000000000E+00 -0.18446683835E+04  0.18446683835E+04  0.25500000920E-02 0. -1.
    10030    2    1    2    0    0  0.00000000000E+00  0.00000000000E+00 -0.95284905174E+00  0.36883839179E+04  0.36883837948E+04 0.  0.
        4    1    3    3  502    0  0.66100610350E+02  0.18334374192E+04  0.18708711990E+03  0.18441435042E+04  0.12699999809E+01 0.  1.
       -4    1    3    3    0  502 -0.66100610350E+02 -0.18334374192E+04 -0.18803996895E+03  0.18442404137E+04  0.12699999809E+01 0. -1.
</event>
<event>
 5   0  0.6939921E-07  0.3707835E+04  0.7818609E-02  0.8066228E-01
        2   -1    0    0  501    0  0.00000000000E+00  0.00000000000E+00  0.25872647465E+04  0.25872647465E+04  0.25500000920E-02 0. -1.
       -2   -1    0    0    0  501  0.00000000000E+00  0.00000000000E+00 -0.13284341619E+04  0.13284341619E+04  0.25500000920E-02 0.  1.
    10030    2    1    2    0    0  0.00000000000E+00  0.00000000000E+00  0.12588305846E+04  0.39156989084E+04  0.37078354199E+04 0.  0.
        4    1    3    3  502    0  0.58917885984E+03  0.50485514552E+02  0.24849978414E+04  0.25543876763E+04  0.12699999809E+01 0. -1.
       -4    1    3    3    0  502 -0.58917885984E+03 -0.50485514552E+02 -0.12261672568E+04  0.13613112321E+04  0.12699999809E+01 0.  1.
</event>
<event>
 5   0  0.7300916E-07  0.3683539E+04  0.7818609E-02  0.8071619E-01
        2   -1    0    0  501    0  0.00000000000E+00  0.00000000000E+00  0.17821395285E+04  0.17821395285E+04  0.25500000920E-02 0. -1.
       -2   -1    0    0    0  501  0.00000000000E+00  0.00000000000E+00 -0.19033951707E+04  0.19033951707E+04  0.25500000920E-02 0.  1.
    10030    2    1    2    0    0  0.00000000000E+00  0.00000000000E+00 -0.12125564219E+03  0.36855346991E+04  0.36835394782E+04 0.  0.
        1    1    3    3  502    0 -0.31479413906E+03  0.75000433226E+03  0.15926939072E+04  0.17883723691E+04  0.50400001928E-02 0. -1.
       -1    1    3    3    0  502  0.31479413906E+03 -0.75000433226E+03 -0.17139495494E+04  0.18971623300E+04  0.50400001928E-02 0.  1.
</event>
<event>
 5   0  0.2287500E-07  0.3715160E+04  0.7818609E-02  0.8064610E-01
        1   -1    0    0  501    0  0.00000000000E+00  0.00000000000E+00  0.17044567184E+04  0.17044567184E+04  0.50400001928E-02 0.  1.
       -1   -1    0    0    0  501  0.00000000000E+00  0.00000000000E+00 -0.20244594225E+04  0.20244594225E+04  0.50400001928E-02 0. -1.
    10030    2    1    2    0    0  0.00000000000E+00  0.00000000000E+00 -0.32000270402E+03  0.37289161409E+04  0.37151600040E+04 0.  0.
        4    1    3    3  502    0 -0.16532652614E+04 -0.71863004161E+03 -0.60986476658E+03  0.19030637949E+04  0.12699999809E+01 0. -1.
       -4    1    3    3    0  502  0.16532652614E+04  0.71863004161E+03  0.28986206255E+03  0.18258523460E+04  0.12699999809E+01 0.  1.
</event>
<event>
 5   0  0.2345471E-07  0.3759167E+04  0.7818609E-02  0.8054975E-01
       -1   -1    0    0    0  501  0.00000000000E+00  0.00000000000E+00  0.13549339605E+04  0.13549339605E+04  0.50400001928E-02 0.  1.
        1   -1    0    0  501    0  0.00000000000E+00  0.00000000000E+00 -0.26073849712E+04  0.26073849712E+04  0.50400001928E-02 0. -1.
    10030    2    1    2    0    0  0.00000000000E+00  0.00000000000E+00 -0.12524510107E+04  0.39623189317E+04  0.37591671660E+04 0.  0.
        5    1    3    3  502    0  0.11521726026E+04  0.14849260204E+04 -0.60780649682E+03  0.19753373939E+04  0.46999998093E+01 0. -1.
       -5    1    3    3    0  502 -0.11521726026E+04 -0.14849260204E+04 -0.64464451390E+03  0.19869815378E+04  0.46999998093E+01 0.  1.
</event>
<event>
 5   0  0.6939921E-07  0.3734900E+04  0.7818609E-02  0.8060271E-01
       -2   -1    0    0    0  501  0.00000000000E+00  0.00000000000E+00  0.14307713564E+04  0.14307713564E+04  0.25500000920E-02 0.  1.
        2   -1    0    0  501    0  0.00000000000E+00  0.00000000000E+00 -0.24374051064E+04  0.24374051064E+04  0.25500000920E-02 0. -1.
    10030    2    1    2    0    0  0.00000000000E+00  0.00000000000E+00 -0.10066337500E+04  0.38681764628E+04  0.37348999505E+04 0.  0.
        4    1    3    3  502    0  0.63342720121E+03 -0.74670528132E+03  0.11435735711E+04  0.15055101865E+04  0.12699999809E+01 0.  1.
       -4    1    3    3    0  502 -0.63342720121E+03  0.74670528132E+03 -0.21502073211E+04  0.23626662762E+04  0.12699999809E+01 0. -1.
</event>
<event>
 5   0  0.7300916E-07  0.2775556E+04  0.7818609E-02  0.8310898E-01
       -2   -1    0    0    0  501  0.00000000000E+00  0.00000000000E+00  0.12635590461E+04  0.12635590461E+04  0.25500000920E-02 0. -1.
        2   -1    0    0  501    0  0.00000000000E+00  0.00000000000E+00 -0.15242085241E+04  0.15242085241E+04  0.25500000920E-02 0.  1.
    10030    2    1    2    0    0  0.00000000000E+00  0.00000000000E+00 -0.26064947799E+03  0.27877675701E+04  0.27755557776E+04 0.  0.
        1    1    3    3  502    0  0.11716900633E+04 -0.56507588832E+03 -0.61593837132E+03  0.14392874769E+04  0.50400001928E-02 0. -1.
       -1    1    3    3    0  502 -0.11716900633E+04  0.56507588832E+03  0.35528889333E+03  0.13484800932E+04  0.50400001928E-02 0.  1.
</event>
<event>
 5   0  0.7124627E-07  0.3724193E+04  0.7818609E-02  0.8062621E-01
        2   -1    0    0  501    0  0.00000000000E+00  0.00000000000E+00  0.10780038962E+04  0.10780038962E+04  0.25500000920E-02 0. -1.
       -2   -1    0    0    0  501  0.00000000000E+00  0.00000000000E+00 -0.32165040644E+04  0.32165040644E+04  0.25500000920E-02 0.  1.
    10030    2    1    2    0    0  0.00000000000E+00  0.00000000000E+00 -0.21385001682E+04  0.42945079606E+04  0.37241932891E+04 0.  0.
        2    1    3    3  502    0 -0.47882772124E+03 -0.16149232176E+04 -0.15386572153E+03  0.16914276944E+04  0.25500000920E-02 0. -1.
       -2    1    3    3    0  502  0.47882772124E+03  0.16149232176E+04 -0.19846344467E+04  0.26030802662E+04  0.25500000920E-02 0.  1.
</event>
<event>
 5   0  0.6949625E-07  0.2784998E+04  0.7818609E-02  0.8307941E-01
        2   -1    0    0  501    0  0.00000000000E+00  0.00000000000E+00  0.22140505771E+04  0.22140505771E+04  0.25500000920E-02 0.  1.
       -2   -1    0    0    0  501  0.00000000000E+00  0.00000000000E+00 -0.87579449019E+03  0.87579449020E+03  0.25500000920E-02 0. -1.
    10030    2    1    2    0    0  0.00000000000E+00  0.00000000000E+00  0.13382560869E+04  0.30898450673E+04  0.27849978790E+04 0.  0.
        5    1    3    3  502    0 -0.12442844628E+04 -0.48406723826E+03  0.23027185355E+03  0.13548476417E+04  0.46999998093E+01 0. -1.
       -5    1    3    3    0  502  0.12442844628E+04  0.48406723826E+03  0.11079842334E+04  0.17349974256E+04  0.46999998093E+01 0.  1.
</event>
<event>
 5   0  0.7124627E-07  0.3690341E+04  0.7818609E-02  0.8070106E-01
       -2   -1    0    0    0  501  0.00000000000E+00  0.00000000000E+00  0.14079054019E+04  0.14079054019E+04  0.25500000920E-02 0.  1.
        2   -1    0    0  501    0  0.00000000000E+00  0.00000000000E+00 -0.24182404043E+04  0.24182404043E+04  0.25500000920E-02 0. -1.
    10030    2    1    2    0    0  0.00000000000E+00  0.00000000000E+00 -0.10103350024E+04  0.38261458062E+04  0.36903407585E+04 0.  0.
        2    1    3    3  502    0  0.97488324149E+03  0.12745713940E+04 -0.14495804065E+04  0.21624553008E+04  0.25500000920E-02 0. -1.
       -2    1    3    3    0  502 -0.97488324149E+03 -0.12745713940E+04  0.43924540419E+03  0.16636905055E+04  0.25500000920E-02 0.  1.
</event>
<event>
 5   0  0.2287500E-07  0.3536590E+04  0.7818609E-02  0.8105173E-01
       -1   -1    0    0    0  501  0.00000000000E+00  0.00000000000E+00  0.91799722309E+03  0.91799722310E+03  0.50400001928E-02 0.  1.
        1   -1    0    0  501    0  0.00000000000E+00  0.00000000000E+00 -0.34061834920E+04  0.34061834920E+04  0.50400001928E-02 0. -1.
    10030    2    1    2    0    0  0.00000000000E+00  0.00000000000E+00 -0.24881862689E+04  0.43241807151E+04  0.35365898756E+04 0.  0.
        3    1    3    3  502    0  0.13935489741E+04  0.55546194713E+03 -0.99481921798E+02  0.15034671200E+04  0.10100000352E+00 0.  1.
       -3    1    3    3    0  502 -0.13935489741E+04 -0.55546194713E+03 -0.23887043471E+04  0.28207135952E+04  0.10100000352E+00 0. -1.
</event>
<event>
 5   0  0.7300916E-07  0.3653908E+04  0.7818609E-02  0.8078254E-01
        2   -1    0    0  501    0  0.00000000000E+00  0.00000000000E+00  0.16337690451E+04  0.16337690451E+04  0.25500000920E-02 0.  1.
       -2   -1    0    0    0  501  0.00000000000E+00  0.00000000000E+00 -0.20429816477E+04  0.20429816477E+04  0.25500000920E-02 0. -1.
    10030    2    1    2    0    0  0.00000000000E+00  0.00000000000E+00 -0.40921260262E+03  0.36767506928E+04  0.36539075936E+04 0.  0.
        1    1    3    3  502    0  0.14721884156E+04  0.66164361207E+03  0.65669411181E+03  0.17425148943E+04  0.50400001928E-02 0.  1.
       -1    1    3    3    0  502 -0.14721884156E+04 -0.66164361207E+03 -0.10659067144E+04  0.19342357985E+04  0.50400001928E-02 0. -1.
</event>
<event>
 5   0  0.2287500E-07  0.3684390E+04  0.7818609E-02  0.8071430E-01
        1   -1    0    0  501    0  0.00000000000E+00  0.00000000000E+00  0.24321373869E+04  0.24321373869E+04  0.50400001928E-02 0.  1.
       -1   -1    0    0    0  501  0.00000000000E+00  0.00000000000E+00 -0.13953499398E+04  0.13953499398E+04  0.50400001928E-02 0. -1.
    10030    2    1    2    0    0  0.00000000000E+00  0.00000000000E+00  0.10367874470E+04  0.38274873267E+04  0.36843901837E+04 0.  0.
        2    1    3    3  502    0 -0.10050855334E+04  0.15153496434E+04  0.82516139337E+03  0.19968407038E+04  0.25500000920E-02 0.  1.
       -2    1    3    3    0  502  0.10050855334E+04 -0.15153496434E+04  0.21162605367E+03  0.18306466229E+04  0.25500000920E-02 0. -1.
</event>
<event>
 5   0  0.2287500E-07  0.3709082E+04  0.7818609E-02  0.8065952E-01
       -1   -1    0    0    0  501  0.00000000000E+00  0.00000000000E+00  0.28975572644E+04  0.28975572644E+04  0.50400001928E-02 0.  1.
        1   -1    0    0  501    0  0.00000000000E+00  0.00000000000E+00 -0.11869728818E+04  0.11869728818E+04  0.50400001928E-02 0. -1.
    10030    2    1    2    0    0  0.00000000000E+00  0.00000000000E+00  0.17105843826E+04  0.40845301462E+04  0.37090817712E+04 0.  0.
        4    1    3    3  502    0  0.11874461307E+03  0.16023624062E+04  0.18751319491E+04  0.24693697583E+04  0.12699999809E+01 0.  1.
       -4    1    3    3    0  502 -0.11874461307E+03 -0.16023624062E+04 -0.16454756644E+03  0.16151603879E+04  0.12699999809E+01 0. -1.
</event>
<event>
 5   0  0.7074157E-07  0.3684732E+04  0.7818609E-02  0.8071354E-01
       -2   -1    0    0    0  501  0.00000000000E+00  0.00000000000E+00  0.13157345317E+04  0.13157345317E+04  0.25500000920E-02 0. -1.
        2   -1    0    0  501    0  0.00000000000E+00  0.00000000000E+00 -0.25797851843E+04  0.25797851843E+04  0.25500000920E-02 0.  1.
    10030    2    1    2    0    0  0.00000000000E+00  0.00000000000E+00 -0.12640506526E+04  0.38955197159E+04  0.36847319855E+04 0.  0.
        3    1    3    3  502    0 -0.31393582851E+03  0.13064932860E+04 -0.19646212966E+04  0.23801716871E+04  0.10100000352E+00 0.  1.
       -3    1    3    3    0  502  0.31393582851E+03 -0.13064932860E+04  0.70057064405E+03  0.15153480288E+04  0.10100000352E+00 0. -1.
</event>
<event>
 5   0  0.6949625E-07  0.3468775E+04  0.7818609E-02  0.8121230E-01
        2   -1    0    0  501    0  0.00000000000E+00  0.00000000000E+00  0.29027435916E+04  0.29027435916E+04  0.25500000920E-02 0.  1.
       -2   -1    0    0    0  501  0.00000000000E+00  0.00000000000E+00 -0.10362953344E+04  0.10362953344E+04  0.25500000920E-02 0. -1.
    10030    2    1    2    0    0  0.00000000000E+00  0.00000000000E+00  0.18664482572E+04  0.39390389259E+04  0.34687747928E+04 0.  0.
        5    1    3    3  502    0  0.14011826911E+04  0.64869123597E+03  0.36220833922E+02  0.15444893306E+04  0.46999998093E+01 0. -1.
       -5    1    3    3    0  502 -0.14011826911E+04 -0.64869123597E+03  0.18302274233E+04  0.23945495953E+04  0.46999998093E+01 0.  1.
</event>
<event>
 5   0  0.6949625E-07  0.3628574E+04  0.7818609E-02  0.8083978E-01
       -2   -1    0    0    0  501  0.00000000000E+00  0.00000000000E+00  0.17398401338E+04  0.17398401338E+04  0.25500000920E-02 0.  1.
        2   -1    0    0  501    0  0.00000000000E+00  0.00000000000E+00 -0.18919190869E+04  0.18919190869E+04  0.25500000920E-02 0. -1.
    10030    2    1    2    0    0  0.00000000000E+00  0.00000000000E+00 -0.15207895305E+03  0.36317592207E+04  0.36285736907E+04 0.  0.
        5    1    3    3  502    0  0.72346891663E+02 -0.11901240328E+04  0.12926351188E+04  0.17585667251E+04  0.46999998093E+01 0.  1.
       -5    1    3    3    0  502 -0.72346891663E+02  0.11901240328E+04 -0.14447140719E+04  0.18731924956E+04  0.46999998093E+01 0. -1.
</event>
<event>
 5   0  0.7300916E-07  0.3679589E+04  0.7818609E-02  0.8072500E-01
       -2   -1    0    0    0  501  0.00000000000E+00  0.00000000000E+00  0.14941403458E+04  0.14941403458E+04  0.25500000920E-02 0.  1.
        2   -1    0    0  501    0  0.00000000000E+00  0.00000000000E+00 -0.22654121706E+04  0.22654121706E+04  0.25500000920E-02 0. -1.
    10030    2    1    2    0    0  0.00000000000E+00  0.00000000000E+00 -0.77127182476E+03  0.37595525164E+04  0.36795889574E+04 0.  0.
        1    1    3    3  502    0  0.99942245595E+03  0.72118529110E+03  0.10100249406E+04  0.15934565730E+04  0.50400001928E-02 0.  1.
       -1    1    3    3    0  502 -0.99942245595E+03 -0.72118529110E+03 -0.17812967653E+04  0.21660959433E+04  0.50400001928E-02 0. -1.
</event>
<event>
 5   0  0.2287500E-07  0.3736609E+04  0.7818609E-02  0.8059897E-01
        1   -1    0    0  501    0  0.00000000000E+00  0.00000000000E+00  0.28041389728E+04  0.28041389728E+04  0.50400001928E-02 0. -1.
       -1   -1    0    0    0  501  0.00000000000E+00  0.00000000000E+00 -0.12447894401E+04  0.12447894401E+04  0.50400001928E-02 0.  1.
    10030    2    1    2    0    0  0.00000000000E+00  0.00000000000E+00  0.15593495327E+04  0.40489284129E+04  0.37366094695E+04 0.  0.
        4    1    3    3  502    0  0.14334544432E+04  0.10763525871E+04  0.13502146060E+04  0.22441942045E+04  0.12699999809E+01 0. -1.
       -4    1    3    3    0  502 -0.14334544432E+04 -0.10763525871E+04  0.20913492675E+03  0.18047342084E+04  0.12699999809E+01 0.  1.
</event>
<event>
 5   0  0.2287500E-07  0.2811453E+04  0.7818609E-02  0.8299721E-01
        3   -1    0    0  501    0  0.00000000000E+00  0.00000000000E+00  0.15413182544E+04  0.15413182577E+04  0.10100000352E+00 0. -1.
       -3   -1    0    0    0  501  0.00000000000E+00  0.00000000000E+00 -0.12820629507E+04  0.12820629547E+04  0.10100000352E+00 0.  1.
    10030    2    1    2    0    0  0.00000000000E+00  0.00000000000E+00  0.25925530368E+03  0.28233812124E+04  0.28114530332E+04 0.  0.
        4    1    3    3  502    0  0.28608171137E+03 -0.44990532753E+03 -0.11765859717E+04  0.12917483156E+04  0.12699999809E+01 0.  1.
       -4    1    3    3    0  502 -0.28608171137E+03  0.44990532753E+03  0.14358412754E+04  0.15316328967E+04  0.12699999809E+01 0. -1.
</event>
<event>
 5   0  0.6949625E-07  0.3709657E+04  0.7818609E-02  0.8065825E-01
        2   -1    0    0  501    0  0.00000000000E+00  0.00000000000E+00  0.22491387098E+04  0.22491387098E+04  0.25500000920E-02 0.  1.
       -2   -1    0    0    0  501  0.00000000000E+00  0.00000000000E+00 -0.15296471619E+04  0.15296471619E+04  0.25500000920E-02 0. -1.
    10030    2    1    2    0    0  0.00000000000E+00  0.00000000000E+00  0.71949154795E+03  0.37787858717E+04  0.37096569351E+04 0.  0.
        5    1    3    3  502    0  0.33375316497E+03 -0.15066676184E+04 -0.68847259062E+03  0.16898091861E+04  0.46999998093E+01 0. -1.
       -5    1    3    3    0  502 -0.33375316497E+03  0.15066676184E+04  0.14079641386E+04  0.20889766856E+04  0.46999998093E+01 0.  1.
</event>
<event>
 5   0  0.7124627E-07  0.3848992E+04  0.7818609E-02  0.8035722E-01
        2   -1    0    0  501    0  0.00000000000E+00  0.00000000000E+00  0.24352646628E+04  0.24352646628E+04  0.25500000920E-02 0. -1.
       -2   -1    0    0    0  501  0.00000000000E+00  0.00000000000E+00 -0.15208554511E+04  0.15208554511E+04  0.25500000920E-02 0.  1.
    10030    2    1    2    0    0  0.00000000000E+00  0.00000000000E+00  0.91440921162E+03  0.39561201139E+04  0.38489923551E+04 0.  0.
        2    1    3    3  502    0  0.75779059655E+03  0.17033081791E+04  0.94818188503E+03  0.20915435038E+04  0.25500000920E-02 0. -1.
       -2    1    3    3    0  502 -0.75779059655E+03 -0.17033081791E+04 -0.33772673417E+02  0.18645766101E+04  0.25500000920E-02 0.  1.
</event>
<event>
 5   0  0.7074157E-07  0.3670563E+04  0.7818609E-02  0.8074517E-01
        2   -1    0    0  501    0  0.00000000000E+00  0.00000000000E+00  0.23214401048E+04  0.23214401048E+04  0.25500000920E-02 0. -1.
       -2   -1    0    0    0  501  0.00000000000E+00  0.00000000000E+00 -0.14509344194E+04  0.14509344194E+04  0.25500000920E-02 0.  1.
    10030    2    1    2    0    0  0.00000000000E+00  0.00000000000E+00  0.87050568541E+03  0.37723745242E+04  0.36705625457E+04 0.  0.
        3    1    3    3  502    0 -0.83440198708E+03 -0.16025516685E+04  0.76646315804E+03  0.19626166995E+04  0.10100000352E+00 0. -1.
       -3    1    3    3    0  502  0.83440198708E+03  0.16025516685E+04  0.10404252737E+03  0.18097578247E+04  0.10100000352E+00 0.  1.
</event>
<event>
 5   0  0.2411746E-07  0.3705738E+04  0.7818609E-02  0.8066691E-01
       -1   -1    0    0    0  501  0.00000000000E+00  0.00000000000E+00  0.14770863733E+04  0.14770863733E+04  0.50400001928E-02 0. -1.
        1   -1    0    0  501    0  0.00000000000E+00  0.00000000000E+00 -0.23242540174E+04  0.23242540174E+04  0.50400001928E-02 0.  1.
    10030    2    1    2    0    0  0.00000000000E+00  0.00000000000E+00 -0.84716764415E+03  0.38013403907E+04  0.37057382192E+04 0.  0.
        1    1    3    3  502    0 -0.61849999580E+03  0.16012391424E+04 -0.11391581074E+04  0.20601432547E+04  0.50400001928E-02 0.  1.
       -1    1    3    3    0  502  0.61849999580E+03 -0.16012391424E+04  0.29199046330E+03  0.17411971361E+04  0.50400001928E-02 0. -1.
</event>
<event>
 5   0  0.7074157E-07  0.3625382E+04  0.7818609E-02  0.8084702E-01
       -2   -1    0    0    0  501  0.00000000000E+00  0.00000000000E+00  0.19521467432E+04  0.19521467432E+04  0.25500000920E-02 0. -1.
        2   -1    0    0  501    0  0.00000000000E+00  0.00000000000E+00 -0.16831979647E+04  0.16831979647E+04  0.25500000920E-02 0.  1.
    10030    2    1    2    0    0  0.00000000000E+00  0.00000000000E+00  0.26894877849E+03  0.36353447079E+04  0.36253824211E+04 0.  0.
        3    1    3    3  502    0 -0.13197277395E+04 -0.95532565354E+03  0.93134107817E+03  0.18766258617E+04  0.10100000352E+00 0. -1.
       -3    1    3    3    0  502  0.13197277395E+04  0.95532565354E+03 -0.66239229968E+03  0.17587188461E+04  0.10100000352E+00 0.  1.
</event>
<event>
 5   0  0.6949625E-07  0.2864304E+04  0.7818609E-02  0.8283578E-01
       -2   -1    0    0    0  501  0.00000000000E+00  0.00000000000E+00  0.10757904533E+04  0.10757904533E+04  0.25500000920E-02 0. -1.
        2   -1    0    0  501    0  0.00000000000E+00  0.00000000000E+00 -0.19065607017E+04  0.19065607017E+04  0.25500000920E-02 0.  1.
    10030    2    1    2    0    0  0.00000000000E+00  0.00000000000E+00 -0.83077024842E+03  0.29823511550E+04  0.28643043145E+04 0.  0.
        5    1    3    3  502    0 -0.80597740432E+03  0.22788392405E+03  0.79417427305E+03  0.11542380712E+04  0.46999998093E+01 0. -1.
       -5    1    3    3    0  502  0.80597740432E+03 -0.22788392405E+03 -0.16249445215E+04  0.18281130838E+04  0.46999998093E+01 0.  1.
</event>
<event>
 5   0  0.2411746E-07  0.3415931E+04  0.7818609E-02  0.8134007E-01
       -1   -1    0    0    0  501  0.00000000000E+00  0.00000000000E+00  0.14496165724E+04  0.14496165724E+04  0.50400001928E-02 0. -1.
        1   -1    0    0  501    0  0.00000000000E+00  0.00000000000E+00 -0.20123570393E+04  0.20123570394E+04  0.50400001928E-02 0.  1.
    10030    2    1    2    0    0  0.00000000000E+00  0.00000000000E+00 -0.56274046695E+03  0.34619736118E+04  0.34159309793E+04 0.  0.
        1    1    3    3  502    0 -0.66599218620E+03 -0.29517702493E+03  0.12842728042E+04  0.14764930422E+04  0.50400001928E-02 0. -1.
       -1    1    3    3    0  502  0.66599218620E+03  0.29517702493E+03 -0.18470132712E+04  0.19854805695E+04  0.50400001928E-02 0.  1.
</event>
<event>
 5   0  0.2287500E-07  0.3869918E+04  0.7818609E-02  0.8031315E-01
       -1   -1    0    0    0  501  0.00000000000E+00  0.00000000000E+00  0.21611157763E+04  0.21611157763E+04  0.50400001928E-02 0. -1.
        1   -1    0    0  501    0  0.00000000000E+00  0.00000000000E+00 -0.17324687834E+04  0.17324687834E+04  0.50400001928E-02 0.  1.
    10030    2    1    2    0    0  0.00000000000E+00  0.00000000000E+00  0.42864699292E+03  0.38935845597E+04  0.38699176321E+04 0.  0.
        2    1    3    3  502    0  0.94432335233E+03 -0.27923168617E+03  0.18901475185E+04  0.21312847229E+04  0.25500000920E-02 0. -1.
       -2    1    3    3    0  502 -0.94432335233E+03  0.27923168617E+03 -0.14615005256E+04  0.17622998368E+04  0.25500000920E-02 0.  1.
</event>
<event>
 5   0  0.6939921E-07  0.3684261E+04  0.7818609E-02  0.8071459E-01
       -2   -1    0    0    0  501  0.00000000000E+00  0.00000000000E+00  0.23252895059E+04  0.23252895059E+04  0.25500000920E-02 0. -1.
        2   -1    0    0  501    0  0.00000000000E+00  0.00000000000E+00 -0.14593644324E+04  0.14593644324E+04  0.25500000920E-02 0.  1.
    10030    2    1    2    0    0  0.00000000000E+00  0.00000000000E+00  0.86592507354E+03  0.37846539383E+04  0.36842610113E+04 0.  0.
        4    1    3    3  502    0  0.30233351304E+03  0.13270987116E+04 -0.84217048512E+03  0.16005777964E+04  0.12699999809E+01 0.  1.
       -4    1    3    3    0  502 -0.30233351304E+03 -0.13270987116E+04  0.17080955587E+04  0.21840761419E+04  0.12699999809E+01 0. -1.
</event>
<event>
 5   0  0.6939921E-07  0.3186318E+04  0.7818609E-02  0.8192440E-01
        2   -1    0    0  501    0  0.00000000000E+00  0.00000000000E+00  0.19745125681E+04  0.19745125681E+04  0.25500000920E-02 0.  1.
       -2   -1    0    0    0  501  0.00000000000E+00  0.00000000000E+00 -0.12854593307E+04  0.12854593307E+04  0.25500000920E-02 0. -1.
    10030    2    1    2    0    0  0.00000000000E+00  0.00000000000E+00  0.68905323735E+03  0.32599718988E+04  0.31863180031E+04 0.  0.
        4    1    3    3  502    0  0.14064757158E+04 -0.46046793334E+03  0.94803421962E+03  0.17575480509E+04  0.12699999809E+01 0.  1.
       -4    1    3    3    0  502 -0.14064757158E+04  0.46046793334E+03 -0.25898098227E+03  0.15024238479E+04  0.12699999809E+01 0. -1.
</event>
<event>
 5   0  0.7124627E-07  0.3520815E+04  0.7818609E-02  0.8108875E-01
        2   -1    0    0  501    0  0.00000000000E+00  0.00000000000E+00  0.18930324234E+04  0.18930324234E+04  0.25500000920E-02 0.  1.
       -2   -1    0    0    0  501  0.00000000000E+00  0.00000000000E+00 -0.16370739086E+04  0.16370739086E+04  0.25500000920E-02 0. -1.
    10030    2    1    2    0    0  0.00000000000E+00  0.00000000000E+00  0.25595851484E+03  0.35301063320E+04  0.35208146719E+04 0.  0.
        2    1    3    3  502    0  0.10031412284E+04 -0.30604952353E+03  0.15455972093E+04  0.18678408306E+04  0.25500000920E-02 0.  1.
       -2    1    3    3    0  502 -0.10031412284E+04  0.30604952353E+03 -0.12896386944E+04  0.16622655014E+04  0.25500000920E-02 0. -1.
</event>
<event>
 5   0  0.7300916E-07  0.3459122E+04  0.7818609E-02  0.8123546E-01
       -2   -1    0    0    0  501  0.00000000000E+00  0.00000000000E+00  0.17227766232E+04  0.17227766232E+04  0.25500000920E-02 0.  1.
        2   -1    0    0  501    0  0.00000000000E+00  0.00000000000E+00 -0.17363719404E+04  0.17363719404E+04  0.25500000920E-02 0. -1.
    10030    2    1    2    0    0  0.00000000000E+00  0.00000000000E+00 -0.13595317212E+02  0.34591485636E+04  0.34591218470E+04 0.  0.
        1    1    3    3  502    0 -0.13287789004E+04 -0.12636768341E+03 -0.11066965257E+04  0.17338971589E+04  0.50400001928E-02 0. -1.
       -1    1    3    3    0  502  0.13287789004E+04  0.12636768341E+03  0.10931012085E+04  0.17252514048E+04  0.50400001928E-02 0.  1.
</event>
<event>
 5   0  0.6939921E-07  0.3714546E+04  0.7818609E-02  0.8064746E-01
       -2   -1    0    0    0  501  0.00000000000E+00  0.00000000000E+00  0.15830152041E+04  0.15830152041E+04  0.25500000920E-02 0. -1.
        2   -1    0    0  501    0  0.00000000000E+00  0.00000000000E+00 -0.21790457450E+04  0.21790457450E+04  0.25500000920E-02 0.  1.
    10030    2    1    2    0    0  0.00000000000E+00  0.00000000000E+00 -0.59603054088E+03  0.37620609492E+04  0.37145457568E+04 0.  0.
        4    1    3    3  502    0  0.51589390070E+03  0.17830989329E+04 -0.36104160210E+03  0.18910158573E+04  0.12699999809E+01 0.  1.
       -4    1    3    3    0  502 -0.51589390070E+03 -0.17830989329E+04 -0.23498893878E+03  0.18710450918E+04  0.12699999809E+01 0. -1.
</event>
<event>
 5   0  0.7074157E-07  0.3677127E+04  0.7818609E-02  0.8073050E-01
       -2   -1    0    0    0  501  0.00000000000E+00  0.00000000000E+00  0.16427130624E+04  0.16427130624E+04  0.25500000920E-02 0. -1.
        2   -1    0    0  501    0  0.00000000000E+00  0.00000000000E+00 -0.20577641983E+04  0.20577641983E+04  0.25500000920E-02 0.  1.
    10030    2    1    2    0    0  0.00000000000E+00  0.00000000000E+00 -0.41505113588E+03  0.37004772606E+04  0.36771272090E+04 0.  0.
        3    1    3    3  502    0  0.50554446111E+03 -0.14319251224E+04  0.83555585746E+03  0.17332450373E+04  0.10100000352E+00 0. -1.
       -3    1    3    3    0  502 -0.50554446111E+03  0.14319251224E+04 -0.12506069933E+04  0.19672322233E+04  0.10100000352E+00 0.  1.
</event>
<event>
 5   0  0.2287500E-07  0.3739905E+04  0.7818609E-02  0.8059175E-01
       -1   -1    0    0    0  501  0.00000000000E+00  0.00000000000E+00  0.12839044679E+04  0.12839044679E+04  0.50400001928E-02 0.  1.
        1   -1    0    0  501    0  0.00000000000E+00  0.00000000000E+00 -0.27235066558E+04  0.27235066558E+04  0.50400001928E-02 0. -1.
    10030    2    1    2    0    0  0.00000000000E+00  0.00000000000E+00 -0.14396021879E+04  0.40074111237E+04  0.37399050061E+04 0.  0.
        3    1    3    3  502    0 -0.62069539961E+03 -0.12180125528E+04 -0.20869564118E+04  0.24948355522E+04  0.10100000352E+00 0. -1.
       -3    1    3    3    0  502  0.62069539961E+03  0.12180125528E+04  0.64735422394E+03  0.15125755714E+04  0.10100000352E+00 0.  1.
</event>
<event>
 5   0  0.2287500E-07  0.3659530E+04  0.7818609E-02  0.8076990E-01
       -1   -1    0    0    0  501  0.00000000000E+00  0.00000000000E+00  0.16361157352E+04  0.16361157352E+04  0.50400001928E-02 0. -1.
        1   -1    0    0  501    0  0.00000000000E+00  0.00000000000E+00 -0.20463339300E+04  0.20463339300E+04  0.50400001928E-02 0.  1.
    10030    2    1    2    0    0  0.00000000000E+00  0.00000000000E+00 -0.41021819478E+03  0.36824496652E+04  0.36595295558E+04 0.  0.
        3    1    3    3  502    0 -0.17603665497E+04  0.19319567018E+03 -0.66823526782E+03  0.18928162456E+04  0.10100000352E+00 0.  1.
       -3    1    3    3    0  502  0.17603665497E+04 -0.19319567018E+03  0.25801707304E+03  0.17896334196E+04  0.10100000352E+00 0. -1.
</event>
<event>
 5   0  0.2287500E-07  0.3677499E+04  0.7818609E-02  0.8072967E-01
       -1   -1    0    0    0  501  0.00000000000E+00  0.00000000000E+00  0.16571530925E+04  0.16571530925E+04  0.50400001928E-02 0. -1.
        1   -1    0    0  501    0  0.00000000000E+00  0.00000000000E+00 -0.20402453718E+04  0.20402453718E+04  0.50400001928E-02 0.  1.
    10030    2    1    2    0    0  0.00000000000E+00  0.00000000000E+00 -0.38309227927E+03  0.36973984643E+04  0.36774985669E+04 0.  0.
        4    1    3    3  502    0  0.58482164795E+03  0.13036697739E+04  0.97205226997E+03  0.17281372827E+04  0.12699999809E+01 0. -1.
       -4    1    3    3    0  502 -0.58482164795E+03 -0.13036697739E+04 -0.13551445492E+04  0.19692611816E+04  0.12699999809E+01 0.  1.
</event>
<event>
 5   0  0.2411746E-07  0.3694728E+04  0.7818609E-02  0.8069131E-01
        1   -1    0    0  501    0  0.00000000000E+00  0.00000000000E+00  0.21406678012E+04  0.21406678012E+04  0.50400001928E-02 0. -1.
       -1   -1    0    0    0  501  0.00000000000E+00  0.00000000000E+00 -0.15942470656E+04  0.15942470656E+04  0.50400001928E-02 0.  1.
    10030    2    1    2    0    0  0.00000000000E+00  0.00000000000E+00  0.54642073565E+03  0.37349148668E+04  0.36947277899E+04 0.  0.
        1    1    3    3  502    0  0.13656273585E+04 -0.78916887461E+03 -0.69903446604E+03  0.17252173138E+04  0.50400001928E-02 0.  1.
       -1    1    3    3    0  502 -0.13656273585E+04  0.78916887461E+03  0.12454552017E+04  0.20096975530E+04  0.50400001928E-02 0. -1.
</event>
<event>
 5   0  0.7300916E-07  0.3635052E+04  0.7818609E-02  0.8082510E-01
       -2   -1    0    0    0  501  0.00000000000E+00  0.00000000000E+00  0.12915357391E+04  0.12915357391E+04  0.25500000920E-02 0. -1.
        2   -1    0    0  501    0  0.00000000000E+00  0.00000000000E+00 -0.25577303178E+04  0.25577303178E+04  0.25500000920E-02 0.  1.
    10030    2    1    2    0    0  0.00000000000E+00  0.00000000000E+00 -0.12661945787E+04  0.38492660569E+04  0.36350516455E+04 0.  0.
        1    1    3    3  502    0 -0.69339589289E+02  0.91311836495E+03 -0.22955863755E+04  0.24714995315E+04  0.50400001928E-02 0.  1.
       -1    1    3    3    0  502  0.69339589289E+02 -0.91311836495E+03  0.10293917968E+04  0.13777665254E+04  0.50400001928E-02 0. -1.
</event>
<event>
 5   0  0.6939921E-07  0.3707168E+04  0.7818609E-02  0.8066375E-01
       -2   -1    0    0    0  501  0.00000000000E+00  0.00000000000E+00  0.17556810188E+04  0.17556810188E+04  0.25500000920E-02 0.  1.
        2   -1    0    0  501    0  0.00000000000E+00  0.00000000000E+00 -0.19569460101E+04  0.19569460101E+04  0.25500000920E-02 0. -1.
    10030    2    1    2    0    0  0.00000000000E+00  0.00000000000E+00 -0.20126499136E+03  0.37126270289E+04  0.37071676330E+04 0.  0.
        4    1    3    3  502    0  0.14934796458E+04  0.10331944494E+04  0.27112722603E+03  0.18361600715E+04  0.12699999809E+01 0.  1.
       -4    1    3    3    0  502 -0.14934796458E+04 -0.10331944494E+04 -0.47239221739E+03  0.18764669575E+04  0.12699999809E+01 0. -1.
</event>
<event>
 5   0  0.7124627E-07  0.3567513E+04  0.7818609E-02  0.8097974E-01
       -2   -1    0    0    0  501  0.00000000000E+00  0.00000000000E+00  0.11750331787E+04  0.11750331787E+04  0.25500000920E-02 0.  1.
        2   -1    0    0  501    0  0.00000000000E+00  0.00000000000E+00 -0.27078277170E+04  0.27078277170E+04  0.25500000920E-02 0. -1.
    10030    2    1    2    0    0  0.00000000000E+00  0.00000000000E+00 -0.15327945382E+04  0.38828608957E+04  0.35675130888E+04 0.  0.
        2    1    3    3  502    0 -0.12005156507E+04 -0.72343878879E+03 -0.19671807745E+04  0.24154506222E+04  0.25500000920E-02 0. -1.
       -2    1    3    3    0  502  0.12005156507E+04  0.72343878879E+03  0.43438623623E+03  0.14674102735E+04  0.25500000920E-02 0.  1.
</event>
<event>
 5   0  0.2345471E-07  0.3271908E+04  0.7818609E-02  0.8170080E-01
        1   -1    0    0  501    0  0.00000000000E+00  0.00000000000E+00  0.18172085084E+04  0.18172085084E+04  0.50400001928E-02 0. -1.
       -1   -1    0    0    0  501  0.00000000000E+00  0.00000000000E+00 -0.14727786566E+04  0.14727786566E+04  0.50400001928E-02 0.  1.
    10030    2    1    2    0    0  0.00000000000E+00  0.00000000000E+00  0.34442985179E+03  0.32899871651E+04  0.32719082542E+04 0.  0.
        5    1    3    3  502    0  0.13392701161E+04 -0.60829962252E+03  0.89216762768E+03  0.17203656706E+04  0.46999998093E+01 0. -1.
       -5    1    3    3    0  502 -0.13392701161E+04  0.60829962252E+03 -0.54773777589E+03  0.15696214945E+04  0.46999998093E+01 0.  1.
</event>
<event>
 5   0  0.2287500E-07  0.3038456E+04  0.7818609E-02  0.8232834E-01
       -1   -1    0    0    0  501  0.00000000000E+00  0.00000000000E+00  0.16785318151E+04  0.16785318151E+04  0.50400001928E-02 0. -1.
        1   -1    0    0  501    0  0.00000000000E+00  0.00000000000E+00 -0.13750435887E+04  0.13750435887E+04  0.50400001928E-02 0.  1.
    10030    2    1    2    0    0  0.00000000000E+00  0.00000000000E+00  0.30348822639E+03  0.30535754038E+04  0.30384564574E+04 0.  0.
        3    1    3    3  502    0  0.78358243128E+03 -0.12636460415E+04 -0.16165959718E+03  0.14956391879E+04  0.10100000352E+00 0.  1.
       -3    1    3    3    0  502 -0.78358243128E+03  0.12636460415E+04  0.46514782357E+03  0.15579362159E+04  0.10100000352E+00 0. -1.
</event>
<event>
 5   0  0.7300916E-07  0.3792571E+04  0.7818609E-02  0.8047751E-01
       -2   -1    0    0    0  501  0.00000000000E+00  0.00000000000E+00  0.25792587985E+04  0.25792587985E+04  0.25500000920E-02 0. -1.
        2   -1    0    0  501    0  0.00000000000E+00  0.00000000000E+00 -0.13941593618E+04  0.13941593619E+04  0.25500000920E-02 0.  1.
    10030    2    1    2    0    0  0.00000000000E+00  0.00000000000E+00  0.11850994367E+04  0.39734181604E+04  0.37925705270E+04 0.  0.
        1    1    3    3  502    0  0.43802647640E+03 -0.16445726837E+04 -0.28363752788E+03  0.17253801765E+04  0.50400001928E-02 0.  1.
       -1    1    3    3    0  502 -0.43802647640E+03  0.16445726837E+04  0.14687369646E+04  0.22480379839E+04  0.50400001928E-02 0. -1.
</event>
<event>
 5   0  0.2287500E-07  0.3680137E+04  0.7818609E-02  0.8072378E-01
       -1   -1    0    0    0  501  0.00000000000E+00  0.00000000000E+00  0.13687254461E+04  0.13687254462E+04  0.50400001928E-02 0.  1.
        1   -1    0    0  501    0  0.00000000000E+00  0.00000000000E+00 -0.24737261726E+04  0.24737261726E+04  0.50400001928E-02 0. -1.
    10030    2    1    2    0    0  0.00000000000E+00  0.00000000000E+00 -0.11050007264E+04  0.38424516187E+04  0.36801369318E+04 0.  0.
        4    1    3    3  502    0 -0.81670798830E+03 -0.38728164228E+03 -0.22259548893E+04  0.24024728491E+04  0.12699999809E+01 0. -1.
       -4    1    3    3    0  502  0.81670798830E+03  0.38728164228E+03  0.11209541629E+04  0.14399787696E+04  0.12699999809E+01 0.  1.
</event>
<event>
 5   0  0.2287500E-07  0.3898521E+04  0.7818609E-02  0.8025337E-01
        1   -1    0    0  501    0  0.00000000000E+00  0.00000000000E+00  0.22263771945E+04  0.22263771945E+04  0.50400001928E-02 0.  1.
       -1   -1    0    0    0  501  0.00000000000E+00  0.00000000000E+00 -0.17066366031E+04  0.17066366031E+04  0.50400001928E-02 0. -1.
    10030    2    1    2    0    0  0.00000000000E+00  0.00000000000E+00  0.51974059138E+03  0.39330137975E+04  0.38985211618E+04 0.  0.
        3    1    3    3  502    0 -0.37170692336E+03  0.39854644321E+03  0.21479553674E+04  0.22160138932E+04  0.10100000352E+00 0.  1.
       -3    1    3    3    0  502  0.37170692336E+03 -0.39854644321E+03 -0.16282147761E+04  0.17169999043E+04  0.10100000352E+00 0. -1.
</event>
<event>
 5   0  0.2411746E-07  0.3723803E+04  0.7818609E-02  0.8062707E-01
       -1   -1    0    0    0  501  0.00000000000E+00  0.00000000000E+00  0.14846680533E+04  0.14846680533E+04  0.50400001928E-02 0. -1.
        1   -1    0    0  501    0  0.00000000000E+00  0.00000000000E+00 -0.23349850534E+04  0.23349850534E+04  0.50400001928E-02 0.  1.
    10030    2    1    2    0    0  0.00000000000E+00  0.00000000000E+00 -0.85031700010E+03  0.38196531067E+04  0.37238032782E+04 0.  0.
        1    1    3    3  502    0 -0.67234952524E+03  0.45529272833E+03 -0.21437953087E+04  0.22924231019E+04  0.50400001928E-02 0.  1.
       -1    1    3    3    0  502  0.67234952524E+03 -0.45529272833E+03  0.12934783086E+04  0.15272300048E+04  0.50400001928E-02 0. -1.
</event>
<event>
 5   0  0.2345471E-07  0.3707614E+04  0.7818609E-02  0.8066276E-01
        1   -1    0    0  501    0  0.00000000000E+00  0.00000000000E+00  0.19819290340E+04  0.19819290340E+04  0.50400001928E-02 0. -1.
       -1   -1    0    0    0  501  0.00000000000E+00  0.00000000000E+00 -0.17339678503E+04  0.17339678503E+04  0.50400001928E-02 0.  1.
    10030    2    1    2    0    0  0.00000000000E+00  0.00000000000E+00  0.24796118371E+03  0.37158968843E+04  0.37076144495E+04 0.  0.
        5    1    3    3  502    0  0.14052714764E+04 -0.51157246105E+03  0.12219116261E+04  0.19312131983E+04  0.46999998093E+01 0.  1.
       -5    1    3    3    0  502 -0.14052714764E+04  0.51157246105E+03 -0.97395044235E+03  0.17846836861E+04  0.46999998093E+01 0. -1.
</event>
<event>
 5   0  0.2287500E-07  0.3513034E+04  0.7818609E-02  0.8110708E-01
        1   -1    0    0  501    0  0.00000000000E+00  0.00000000000E+00  0.22859216051E+04  0.22859216051E+04  0.50400001928E-02 0.  1.
       -1   -1    0    0    0  501  0.00000000000E+00  0.00000000000E+00 -0.13497190380E+04  0.13497190380E+04  0.50400001928E-02 0. -1.
    10030    2    1    2    0    0  0.00000000000E+00  0.00000000000E+00  0.93620256714E+03  0.36356406431E+04  0.35130339650E+04 0.  0.
        3    1    3    3  502    0 -0.13588841665E+04  0.32363413358E+03  0.15701836783E+04  0.21016141473E+04  0.10100000352E+00 0.  1.
       -3    1    3    3    0  502  0.13588841665E+04 -0.32363413358E+03 -0.63398111119E+03  0.15340264958E+04  0.10100000352E+00 0. -1.
</event>
<event>
 5   0  0.6939921E-07  0.3709119E+04  0.7818609E-02  0.8065944E-01
       -2   -1    0    0    0  501  0.00000000000E+00  0.00000000000E+00  0.14279641710E+04  0.14279641710E+04  0.25500000920E-02 0. -1.
        2   -1    0    0  501    0  0.00000000000E+00  0.00000000000E+00 -0.24085969581E+04  0.24085969581E+04  0.25500000920E-02 0.  1.
    10030    2    1    2    0    0  0.00000000000E+00  0.00000000000E+00 -0.98063278708E+03  0.38365611291E+04  0.37091185791E+04 0.  0.
        4    1    3    3  502    0 -0.98514471665E+03 -0.90832982289E+03  0.83584970742E+03  0.15793098259E+04  0.12699999809E+01 0. -1.
       -4    1    3    3    0  502  0.98514471665E+03  0.90832982289E+03 -0.18164824945E+04  0.22572513032E+04  0.12699999809E+01 0.  1.
</event>
<event>
 5   0  0.7300916E-07  0.2990826E+04  0.7818609E-02  0.8246355E-01
        2   -1    0    0  501    0  0.00000000000E+00  0.00000000000E+00  0.15111861636E+04  0.15111861636E+04  0.25500000920E-02 0. -1.
       -2   -1    0    0    0  501  0.00000000000E+00  0.00000000000E+00 -0.14798047143E+04  0.14798047143E+04  0.25500000920E-02 0.  1.
    10030    2    1    2    0    0  0.00000000000E+00  0.00000000000E+00  0.31381449315E+02  0.29909908780E+04  0.29908262465E+04 0.  0.
        1    1    3    3  502    0 -0.58607773048E+02 -0.14563355924E+04  0.35024191829E+03  0.14990055471E+04  0.50400001928E-02 0. -1.
       -1    1    3    3    0  502  0.58607773048E+02  0.14563355924E+04 -0.31886046898E+03  0.14919853309E+04  0.50400001928E-02 0.  1.
</event>
<event>
 5   0  0.2287500E-07  0.3739150E+04  0.7818609E-02  0.8059341E-01
       -1   -1    0    0    0  501  0.00000000000E+00  0.00000000000E+00  0.17113926156E+04  0.17113926156E+04  0.50400001928E-02 0. -1.
        1   -1    0    0  501    0  0.00000000000E+00  0.00000000000E+00 -0.20423780435E+04  0.20423780435E+04  0.50400001928E-02 0.  1.
    10030    2    1    2    0    0  0.00000000000E+00  0.00000000000E+00 -0.33098542786E+03  0.37537706591E+04  0.37391500114E+04 0.  0.
        4    1    3    3  502    0 -0.54058650343E+03 -0.87720586076E+03  0.14006023620E+04  0.17387962730E+04  0.12699999809E+01 0. -1.
       -4    1    3    3    0  502  0.54058650343E+03  0.87720586076E+03 -0.17315877898E+04  0.20149743861E+04  0.12699999809E+01 0.  1.
</event>
<event>
 5   0  0.6949625E-07  0.3689494E+04  0.7818609E-02  0.8070294E-01
       -2   -1    0    0    0  501  0.00000000000E+00  0.00000000000E+00  0.17911331413E+04  0.17911331413E+04  0.25500000920E-02 0.  1.
        2   -1    0    0  501    0  0.00000000000E+00  0.00000000000E+00 -0.18999655953E+04  0.18999655953E+04  0.25500000920E-02 0. -1.
    10030    2    1    2    0    0  0.00000000000E+00  0.00000000000E+00 -0.10883245400E+03  0.36910987365E+04  0.36894939192E+04 0.  0.
        5    1    3    3  502    0 -0.16029171439E+03 -0.10542767815E+04 -0.15603537729E+04  0.18899521032E+04  0.46999998093E+01 0. -1.
       -5    1    3    3    0  502  0.16029171439E+03  0.10542767815E+04  0.14515213189E+04  0.18011466334E+04  0.46999998093E+01 0.  1.
</event>
<event>
 5   0  0.2287500E-07  0.3735762E+04  0.7818609E-02  0.8060083E-01
       -1   -1    0    0    0  501  0.00000000000E+00  0.00000000000E+00  0.20366352234E+04  0.20366352234E+04  0.50400001928E-02 0. -1.
        1   -1    0    0  501    0  0.00000000000E+00  0.00000000000E+00 -0.17131092061E+04  0.17131092061E+04  0.50400001928E-02 0.  1.
    10030    2    1    2    0    0  0.00000000000E+00  0.00000000000E+00  0.32352601729E+03  0.37497444295E+04  0.37357615292E+04 0.  0.
        4    1    3    3  502    0 -0.35532778793E+03  0.54545517609E+02 -0.16780581514E+04  0.17161333930E+04  0.12699999809E+01 0.  1.
       -4    1    3    3    0  502  0.35532778793E+03 -0.54545517609E+02  0.20015841687E+04  0.20336110365E+04  0.12699999809E+01 0. -1.
</event>
<event>
 5   0  0.2411746E-07  0.3684506E+04  0.7818609E-02  0.8071404E-01
        1   -1    0    0  501    0  0.00000000000E+00  0.00000000000E+00  0.21896089092E+04  0.21896089092E+04  0.50400001928E-02 0.  1.
       -1   -1    0    0    0  501  0.00000000000E+00  0.00000000000E+00 -0.15500014521E+04  0.15500014521E+04  0.50400001928E-02 0. -1.
    10030    2    1    2    0    0  0.00000000000E+00  0.00000000000E+00  0.63960745714E+03  0.37396103613E+04  0.36845064738E+04 0.  0.
        1    1    3    3  502    0 -0.11359507621E+04  0.39419786150E+03  0.17364289947E+04  0.21120988949E+04  0.50400001928E-02 0.  1.
       -1    1    3    3    0  502  0.11359507621E+04 -0.39419786150E+03 -0.10968215376E+04  0.16275114664E+04  0.50400001928E-02 0. -1.
</event>
<event>
 5   0  0.2411746E-07  0.3689635E+04  0.7818609E-02  0.8070263E-01
        1   -1    0    0  501    0  0.00000000000E+00  0.00000000000E+00  0.21698964226E+04  0.21698964226E+04  0.50400001928E-02 0.  1.
       -1   -1    0    0    0  501  0.00000000000E+00  0.00000000000E+00 -0.15684394811E+04  0.15684394811E+04  0.50400001928E-02 0. -1.
    10030    2    1    2    0    0  0.00000000000E+00  0.00000000000E+00  0.60145694150E+03  0.37383359036E+04  0.36896347890E+04 0.  0.
        1    1    3    3  502    0  0.18296603322E+04 -0.21016040735E+03  0.40950896599E+03  0.18866695316E+04  0.50400001928E-02 0. -1.
       -1    1    3    3    0  502 -0.18296603322E+04  0.21016040735E+03  0.19194797551E+03  0.18516663721E+04  0.50400001928E-02 0.  1.
</event>
<event>
 5   0  0.2287500E-07  0.3916966E+04  0.7818609E-02  0.8021510E-01
       -1   -1    0    0    0  501  0.00000000000E+00  0.00000000000E+00  0.15976933671E+04  0.15976933671E+04  0.50400001928E-02 0.  1.
        1   -1    0    0  501    0  0.00000000000E+00  0.00000000000E+00 -0.24007454879E+04  0.24007454879E+04  0.50400001928E-02 0. -1.
    10030    2    1    2    0    0  0.00000000000E+00  0.00000000000E+00 -0.80305212078E+03  0.39984388550E+04  0.39169657349E+04 0.  0.
        3    1    3    3  502    0 -0.90318199446E+03 -0.15601294910E+04 -0.11828972562E+04  0.21561511248E+04  0.10100000352E+00 0. -1.
       -3    1    3    3    0  502  0.90318199446E+03  0.15601294910E+04  0.37984513545E+03  0.18422877302E+04  0.10100000352E+00 0.  1.
</event>
<event>
 5   0  0.6949625E-07  0.3485304E+04  0.7818609E-02  0.8117282E-01
        2   -1    0    0  501    0  0.00000000000E+00  0.00000000000E+00  0.23659751715E+04  0.23659751715E+04  0.25500000920E-02 0.  1.
       -2   -1    0    0    0  501  0.00000000000E+00  0.00000000000E+00 -0.12835451261E+04  0.12835451261E+04  0.25500000920E-02 0. -1.
    10030    2    1    2    0    0  0.00000000000E+00  0.00000000000E+00  0.10824300454E+04  0.36495202975E+04  0.34853039464E+04 0.  0.
        5    1    3    3  502    0  0.84533863731E+03  0.13920297702E+04  0.11904861364E+04  0.20173308166E+04  0.46999998093E+01 0.  1.
       -5    1    3    3    0  502 -0.84533863731E+03 -0.13920297702E+04 -0.10805609096E+03  0.16321894809E+04  0.46999998093E+01 0. -1.
</event>
<event>
 5   0  0.7300916E-07  0.3415256E+04  0.7818609E-02  0.8134172E-01
       -2   -1    0    0    0  501  0.00000000000E+00  0.00000000000E+00  0.15757805280E+04  0.15757805280E+04  0.25500000920E-02 0.  1.
        2   -1    0    0  501    0  0.00000000000E+00  0.00000000000E+00 -0.18505070841E+04  0.18505070841E+04  0.25500000920E-02 0. -1.
    10030    2    1    2    0    0  0.00000000000E+00  0.00000000000E+00 -0.27472655610E+03  0.34262876121E+04  0.34152557914E+04 0.  0.
        1    1    3    3  502    0  0.70385112614E+03 -0.91020734490E+03 -0.14032271557E+04  0.18146432898E+04  0.50400001928E-02 0. -1.
       -1    1    3    3    0  502 -0.70385112614E+03  0.91020734490E+03  0.11285005996E+04  0.16116443224E+04  0.50400001928E-02 0.  1.
</event>
<event>
 5   0  0.2287500E-07  0.3756983E+04  0.7818609E-02  0.8055450E-01
        1   -1    0    0  501    0  0.00000000000E+00  0.00000000000E+00  0.19875111197E+04  0.19875111197E+04  0.50400001928E-02 0. -1.
       -1   -1    0    0    0  501  0.00000000000E+00  0.00000000000E+00 -0.17754515473E+04  0.17754515473E+04  0.50400001928E-02 0.  1.
    10030    2    1    2    0    0  0.00000000000E+00  0.00000000000E+00  0.21205957236E+03  0.37629626670E+04  0.37569826684E+04 0.  0.
        4    1    3    3  502    0 -0.13309895596E+04 -0.61682924311E+03 -0.10691734691E+04  0.18152534376E+04  0.12699999809E+01 0. -1.
       -4    1    3    3    0  502  0.13309895596E+04  0.61682924311E+03  0.12812330414E+04  0.19477092294E+04  0.12699999809E+01 0.  1.
</event>
<event>
 5   0  0.2287500E-07  0.4439139E+04  0.7818609E-02  0.7921379E-01
        1   -1    0    0  501    0  0.00000000000E+00  0.00000000000E+00  0.29166222518E+04  0.29166222518E+04  0.50400001928E-02 0. -1.
       -1   -1    0    0    0  501  0.00000000000E+00  0.00000000000E+00 -0.16891077142E+04  0.16891077142E+04  0.50400001928E-02 0.  1.
    10030    2    1    2    0    0  0.00000000000E+00  0.00000000000E+00  0.12275145376E+04  0.46057299659E+04  0.44391391709E+04 0.  0.
        3    1    3    3  502    0 -0.20584880585E+04 -0.82927749679E+03  0.65278377248E+03  0.23132662876E+04  0.10100000352E+00 0. -1.
       -3    1    3    3    0  502  0.20584880585E+04  0.82927749679E+03  0.57473076512E+03  0.22924636783E+04  0.10100000352E+00 0.  1.
</event>
<event>
 5   0  0.6949625E-07  0.3523997E+04  0.7818609E-02  0.8108126E-01
        2   -1    0    0  501    0  0.00000000000E+00  0.00000000000E+00  0.23318236079E+04  0.23318236079E+04  0.25500000920E-02 0. -1.
       -2   -1    0    0    0  501  0.00000000000E+00  0.00000000000E+00 -0.13314209401E+04  0.13314209401E+04  0.25500000920E-02 0.  1.
    10030    2    1    2    0    0  0.00000000000E+00  0.00000000000E+00  0.10004026678E+04  0.36632445480E+04  0.35239970375E+04 0.  0.
        5    1    3    3  502    0 -0.27570736612E+03 -0.17259242226E+04  0.73214978644E+03  0.18949655337E+04  0.46999998093E+01 0.  1.
       -5    1    3    3    0  502  0.27570736612E+03  0.17259242226E+04  0.26825288139E+03  0.17682790143E+04  0.46999998093E+01 0. -1.
</event>
<event>
 5   0  0.2287500E-07  0.3219850E+04  0.7818609E-02  0.8183594E-01
        1   -1    0    0  501    0  0.00000000000E+00  0.00000000000E+00  0.24106868174E+04  0.24106868174E+04  0.50400001928E-02 0.  1.
       -1   -1    0    0    0  501  0.00000000000E+00  0.00000000000E+00 -0.10751537140E+04  0.10751537141E+04  0.50400001928E-02 0. -1.
    10030    2    1    2    0    0  0.00000000000E+00  0.00000000000E+00  0.13355331034E+04  0.34858405315E+04  0.32198502358E+04 0.  0.
        3    1    3    3  502    0  0.40369882601E+03 -0.12135580341E+04 -0.39084789750E+03  0.13373323945E+04  0.10100000352E+00 0. -1.
       -3    1    3    3    0  502 -0.40369882601E+03  0.12135580341E+04  0.17263810009E+04  0.21485081370E+04  0.10100000352E+00 0.  1.
</event>
<event>
 5   0  0.2287500E-07  0.3694547E+04  0.7818609E-02  0.8069171E-01
        1   -1    0    0  501    0  0.00000000000E+00  0.00000000000E+00  0.13760451844E+04  0.13760451844E+04  0.50400001928E-02 0.  1.
       -1   -1    0    0    0  501  0.00000000000E+00  0.00000000000E+00 -0.24798746774E+04  0.24798746775E+04  0.50400001928E-02 0. -1.
    10030    2    1    2    0    0  0.00000000000E+00  0.00000000000E+00 -0.11038294931E+04  0.38559198618E+04  0.36945471213E+04 0.  0.
        3    1    3    3  502    0  0.17630586898E+04  0.52947775531E+03 -0.71257672585E+03  0.19739524405E+04  0.10100000352E+00 0. -1.
       -3    1    3    3    0  502 -0.17630586898E+04 -0.52947775531E+03 -0.39125276721E+03  0.18819674213E+04  0.10100000352E+00 0.  1.
</event>
<event>
 5   0  0.6939921E-07  0.3676996E+04  0.7818609E-02  0.8073079E-01
        2   -1    0    0  501    0  0.00000000000E+00  0.00000000000E+00  0.21760283370E+04  0.21760283370E+04  0.25500000920E-02 0.  1.
       -2   -1    0    0    0  501  0.00000000000E+00  0.00000000000E+00 -0.15533226613E+04  0.15533226613E+04  0.25500000920E-02 0. -1.
    10030    2    1    2    0    0  0.00000000000E+00  0.00000000000E+00  0.62270567566E+03  0.37293509983E+04  0.36769955820E+04 0.  0.
        4    1    3    3  502    0  0.28004344461E+03 -0.12155132047E+04 -0.10584986980E+04  0.16359455334E+04  0.12699999809E+01 0. -1.
       -4    1    3    3    0  502 -0.28004344461E+03  0.12155132047E+04  0.16812043736E+04  0.20934054649E+04  0.12699999809E+01 0.  1.
</event>
<event>
 5   0  0.7124627E-07  0.3691528E+04  0.7818609E-02  0.8069842E-01
        2   -1    0    0  501    0  0.00000000000E+00  0.00000000000E+00  0.24718267740E+04  0.24718267740E+04  0.25500000920E-02 0.  1.
       -2   -1    0    0    0  501  0.00000000000E+00  0.00000000000E+00 -0.13782700467E+04  0.13782700467E+04  0.25500000920E-02 0. -1.
    10030    2    1    2    0    0  0.00000000000E+00  0.00000000000E+00  0.10935567273E+04  0.38500968207E+04  0.36915280322E+04 0.  0.
        2    1    3    3  502    0  0.22529240248E+03 -0.65181362520E+03 -0.12388464672E+04  0.14178710231E+04  0.25500000920E-02 0. -1.
       -2    1    3    3    0  502 -0.22529240248E+03  0.65181362520E+03  0.23324031946E+04  0.24322257976E+04  0.25500000920E-02 0.  1.
</event>
<event>
 5   0  0.2287500E-07  0.3710509E+04  0.7818609E-02  0.8065637E-01
       -1   -1    0    0    0  501  0.00000000000E+00  0.00000000000E+00  0.17577020643E+04  0.17577020643E+04  0.50400001928E-02 0. -1.
        1   -1    0    0  501    0  0.00000000000E+00  0.00000000000E+00 -0.19582208501E+04  0.19582208501E+04  0.50400001928E-02 0.  1.
    10030    2    1    2    0    0  0.00000000000E+00  0.00000000000E+00 -0.20051878581E+03  0.37159229144E+04  0.37105087687E+04 0.  0.
        2    1    3    3  502    0 -0.38405762650E+03  0.86192142186E+03  0.14994317096E+04  0.17716388598E+04  0.25500000920E-02 0. -1.
       -2    1    3    3    0  502  0.38405762650E+03 -0.86192142186E+03 -0.16999504954E+04  0.19442840546E+04  0.25500000920E-02 0.  1.
</event>
<event>
 5   0  0.7124627E-07  0.3723543E+04  0.7818609E-02  0.8062764E-01
        2   -1    0    0  501    0  0.00000000000E+00  0.00000000000E+00  0.25522261922E+04  0.25522261922E+04  0.25500000920E-02 0. -1.
       -2   -1    0    0    0  501  0.00000000000E+00  0.00000000000E+00 -0.13581056572E+04  0.13581056572E+04  0.25500000920E-02 0.  1.
    10030    2    1    2    0    0  0.00000000000E+00  0.00000000000E+00  0.11941205350E+04  0.39103318494E+04  0.37235428452E+04 0.  0.
        2    1    3    3  502    0 -0.13513097478E+04  0.33487343270E+03  0.18951987032E+04  0.23515859277E+04  0.25500000920E-02 0. -1.
       -2    1    3    3    0  502  0.13513097478E+04 -0.33487343270E+03 -0.70107816823E+03  0.15587459217E+04  0.25500000920E-02 0.  1.
</event>
<event>
 5   0  0.2287500E-07  0.3770540E+04  0.7818609E-02  0.8052507E-01
        1   -1    0    0  501    0  0.00000000000E+00  0.00000000000E+00  0.23065425274E+04  0.23065425274E+04  0.50400001928E-02 0. -1.
       -1   -1    0    0    0  501  0.00000000000E+00  0.00000000000E+00 -0.15409396188E+04  0.15409396188E+04  0.50400001928E-02 0.  1.
    10030    2    1    2    0    0  0.00000000000E+00  0.00000000000E+00  0.76560290855E+03  0.38474821462E+04  0.37705398886E+04 0.  0.
        2    1    3    3  502    0  0.35527622397E+02  0.16603261268E+04  0.12933661445E+04  0.21049325507E+04  0.25500000920E-02 0. -1.
       -2    1    3    3    0  502 -0.35527622397E+02 -0.16603261268E+04 -0.52776323598E+03  0.17425495954E+04  0.25500000920E-02 0.  1.
</event>
<event>
 5   0  0.2411746E-07  0.3729686E+04  0.7818609E-02  0.8061415E-01
       -1   -1    0    0    0  501  0.00000000000E+00  0.00000000000E+00  0.17791349991E+04  0.17791349991E+04  0.50400001928E-02 0. -1.
        1   -1    0    0  501    0  0.00000000000E+00  0.00000000000E+00 -0.19546799045E+04  0.19546799045E+04  0.50400001928E-02 0.  1.
    10030    2    1    2    0    0  0.00000000000E+00  0.00000000000E+00 -0.17554490538E+03  0.37338149036E+04  0.37296860083E+04 0.  0.
        1    1    3    3  502    0  0.20973172052E+03  0.18376453570E+04  0.15063310569E+03  0.18556988401E+04  0.50400001928E-02 0.  1.
       -1    1    3    3    0  502 -0.20973172052E+03 -0.18376453570E+04 -0.32617801107E+03  0.18781160634E+04  0.50400001928E-02 0. -1.
</event>
<event>
 5   0  0.7124627E-07  0.3631647E+04  0.7818609E-02  0.8083281E-01
       -2   -1    0    0    0  501  0.00000000000E+00  0.00000000000E+00  0.12527366052E+04  0.12527366052E+04  0.25500000920E-02 0. -1.
        2   -1    0    0  501    0  0.00000000000E+00  0.00000000000E+00 -0.26320097270E+04  0.26320097270E+04  0.25500000920E-02 0.  1.
    10030    2    1    2    0    0  0.00000000000E+00  0.00000000000E+00 -0.13792731218E+04  0.38847463322E+04  0.36316469708E+04 0.  0.
        2    1    3    3  502    0 -0.38876472899E+03 -0.51671068369E+03 -0.25046775366E+04  0.25868006315E+04  0.25500000920E-02 0.  1.
       -2    1    3    3    0  502  0.38876472899E+03  0.51671068369E+03  0.11254044147E+04  0.12979457006E+04  0.25500000920E-02 0. -1.
</event>
<event>
 5   0  0.6939921E-07  0.3610521E+04  0.7818609E-02  0.8088086E-01
        2   -1    0    0  501    0  0.00000000000E+00  0.00000000000E+00  0.19842238416E+04  0.19842238416E+04  0.25500000920E-02 0.  1.
       -2   -1    0    0    0  501  0.00000000000E+00  0.00000000000E+00 -0.16424388746E+04  0.16424388746E+04  0.25500000920E-02 0. -1.
    10030    2    1    2    0    0  0.00000000000E+00  0.00000000000E+00  0.34178496701E+03  0.36266627161E+04  0.36105214987E+04 0.  0.
        4    1    3    3  502    0  0.14472986981E+04 -0.68955132547E+03  0.10045487511E+04  0.18918970263E+04  0.12699999809E+01 0.  1.
       -4    1    3    3    0  502 -0.14472986981E+04  0.68955132547E+03 -0.66276378412E+03  0.17347656898E+04  0.12699999809E+01 0. -1.
</event>
<event>
 5   0  0.7300916E-07  0.3731503E+04  0.7818609E-02  0.8061016E-01
        2   -1    0    0  501    0  0.00000000000E+00  0.00000000000E+00  0.24073439090E+04  0.24073439090E+04  0.25500000920E-02 0.  1.
       -2   -1    0    0    0  501  0.00000000000E+00  0.00000000000E+00 -0.14460040827E+04  0.14460040827E+04  0.25500000920E-02 0. -1.
    10030    2    1    2    0    0  0.00000000000E+00  0.00000000000E+00  0.96133982626E+03  0.38533479917E+04  0.37315032472E+04 0.  0.
        1    1    3    3  502    0 -0.18342720603E+04 -0.25094244377E+03  0.24180984333E+03  0.18670827784E+04  0.50400001928E-02 0.  1.
       -1    1    3    3    0  502  0.18342720603E+04  0.25094244377E+03  0.71952998294E+03  0.19862652133E+04  0.50400001928E-02 0. -1.
</event>
<event>
 5   0  0.7300916E-07  0.3681531E+04  0.7818609E-02  0.8072067E-01
       -2   -1    0    0    0  501  0.00000000000E+00  0.00000000000E+00  0.18221717892E+04  0.18221717892E+04  0.25500000920E-02 0.  1.
        2   -1    0    0  501    0  0.00000000000E+00  0.00000000000E+00 -0.18595485481E+04  0.18595485481E+04  0.25500000920E-02 0. -1.
    10030    2    1    2    0    0  0.00000000000E+00  0.00000000000E+00 -0.37376758934E+02  0.36817203372E+04  0.36815306083E+04 0.  0.
        1    1    3    3  502    0 -0.69322189814E+02  0.18227633790E+04  0.22859952023E+03  0.18383497063E+04  0.50400001928E-02 0.  1.
       -1    1    3    3    0  502  0.69322189814E+02 -0.18227633790E+04 -0.26597627916E+03  0.18433706310E+04  0.50400001928E-02 0. -1.
</event>
<event>
 5   0  0.2287500E-07  0.3718509E+04  0.7818609E-02  0.8063872E-01
        1   -1    0    0  501    0  0.00000000000E+00  0.00000000000E+00  0.12682582373E+04  0.12682582373E+04  0.50400001928E-02 0. -1.
       -1   -1    0    0    0  501  0.00000000000E+00  0.00000000000E+00 -0.27256500210E+04  0.27256500210E+04  0.50400001928E-02 0.  1.
    10030    2    1    2    0    0  0.00000000000E+00  0.00000000000E+00 -0.14573917837E+04  0.39939082584E+04  0.37185094278E+04 0.  0.
        2    1    3    3  502    0  0.13415592278E+04 -0.16125539613E+03  0.64301310330E+03  0.14964124818E+04  0.25500000920E-02 0. -1.
       -2    1    3    3    0  502 -0.13415592278E+04  0.16125539613E+03 -0.21004048870E+04  0.24974957766E+04  0.25500000920E-02 0.  1.
</event>
<event>
 5   0  0.6949625E-07  0.3680967E+04  0.7818609E-02  0.8072193E-01
       -2   -1    0    0    0  501  0.00000000000E+00  0.00000000000E+00  0.25231860882E+04  0.25231860882E+04  0.25500000920E-02 0.  1.
        2   -1    0    0  501    0  0.00000000000E+00  0.00000000000E+00 -0.13425005577E+04  0.13425005577E+04  0.25500000920E-02 0. -1.
    10030    2    1    2    0    0  0.00000000000E+00  0.00000000000E+00  0.11806855305E+04  0.38656866459E+04  0.36809665744E+04 0.  0.
        5    1    3    3  502    0 -0.11917832523E+04  0.53903695361E+03  0.19500953069E+04  0.23481486226E+04  0.46999998093E+01 0.  1.
       -5    1    3    3    0  502  0.11917832523E+04 -0.53903695361E+03 -0.76940977643E+03  0.15175380232E+04  0.46999998093E+01 0. -1.
</event>
<event>
 5   0  0.7300916E-07  0.3713704E+04  0.7818609E-02  0.8064932E-01
       -2   -1    0    0    0  501  0.00000000000E+00  0.00000000000E+00  0.16747617410E+04  0.16747617410E+04  0.25500000920E-02 0. -1.
        2   -1    0    0  501    0  0.00000000000E+00  0.00000000000E+00 -0.20587406685E+04  0.20587406685E+04  0.25500000920E-02 0.  1.
    10030    2    1    2    0    0  0.00000000000E+00  0.00000000000E+00 -0.38397892747E+03  0.37335024095E+04  0.37137044073E+04 0.  0.
        1    1    3    3  502    0 -0.45561774505E+03 -0.88052993268E+03  0.13864057992E+04  0.17044182386E+04  0.50400001928E-02 0. -1.
       -1    1    3    3    0  502  0.45561774505E+03  0.88052993268E+03 -0.17703847267E+04  0.20290841709E+04  0.50400001928E-02 0.  1.
</event>
<event>
 5   0  0.6949625E-07  0.3757949E+04  0.7818609E-02  0.8055240E-01
        2   -1    0    0  501    0  0.00000000000E+00  0.00000000000E+00  0.22700035987E+04  0.22700035987E+04  0.25500000920E-02 0.  1.
       -2   -1    0    0    0  501  0.00000000000E+00  0.00000000000E+00 -0.15553038277E+04  0.15553038277E+04  0.25500000920E-02 0. -1.
    10030    2    1    2    0    0  0.00000000000E+00  0.00000000000E+00  0.71469977100E+03  0.38253074264E+04  0.37579490608E+04 0.  0.
        5    1    3    3  502    0  0.53169171294E+03 -0.11909281199E+04  0.17341906593E+04  0.21698952041E+04  0.46999998093E+01 0.  1.
       -5    1    3    3    0  502 -0.53169171294E+03  0.11909281199E+04 -0.10194908883E+04  0.16554122222E+04  0.46999998093E+01 0. -1.
</event>
<event>
 5   0  0.6939921E-07  0.3692122E+04  0.7818609E-02  0.8069710E-01
       -2   -1    0    0    0  501  0.00000000000E+00  0.00000000000E+00  0.29522397953E+04  0.29522397953E+04  0.25500000920E-02 0. -1.
        2   -1    0    0  501    0  0.00000000000E+00  0.00000000000E+00 -0.11543579399E+04  0.11543579399E+04  0.25500000920E-02 0.  1.
    10030    2    1    2    0    0  0.00000000000E+00  0.00000000000E+00  0.17978818555E+04  0.41065977352E+04  0.36921221259E+04 0.  0.
        4    1    3    3  502    0 -0.64542275815E+03  0.16200595227E+03 -0.10163179728E+04  0.12147922868E+04  0.12699999809E+01 0.  1.
       -4    1    3    3    0  502  0.64542275815E+03 -0.16200595227E+03  0.28141998282E+04  0.28918054484E+04  0.12699999809E+01 0. -1.
</event>
<event>
 5   0  0.2411746E-07  0.3767839E+04  0.7818609E-02  0.8053092E-01
       -1   -1    0    0    0  501  0.00000000000E+00  0.00000000000E+00  0.11404177981E+04  0.11404177981E+04  0.50400001928E-02 0.  1.
        1   -1    0    0  501    0  0.00000000000E+00  0.00000000000E+00 -0.31121514029E+04  0.31121514029E+04  0.50400001928E-02 0. -1.
    10030    2    1    2    0    0  0.00000000000E+00  0.00000000000E+00 -0.19717336047E+04  0.42525692010E+04  0.37678390891E+04 0.  0.
        1    1    3    3  502    0  0.31740589892E+03  0.17138974422E+04 -0.17909018503E+03  0.17522169504E+04  0.50400001928E-02 0.  1.
       -1    1    3    3    0  502 -0.31740589892E+03 -0.17138974422E+04 -0.17926434197E+04  0.25003522506E+04  0.50400001928E-02 0. -1.
</event>
<event>
 5   0  0.7074157E-07  0.3691919E+04  0.7818609E-02  0.8069755E-01
        2   -1    0    0  501    0  0.00000000000E+00  0.00000000000E+00  0.25079306763E+04  0.25079306763E+04  0.25500000920E-02 0.  1.
       -2   -1    0    0    0  501  0.00000000000E+00  0.00000000000E+00 -0.13587161543E+04  0.13587161543E+04  0.25500000920E-02 0. -1.
    10030    2    1    2    0    0  0.00000000000E+00  0.00000000000E+00  0.11492145220E+04  0.38666468306E+04  0.36919187010E+04 0.  0.
        3    1    3    3  502    0  0.55584862046E+03 -0.11063614195E+04  0.20085518040E+04  0.23595091945E+04  0.10100000352E+00 0.  1.
       -3    1    3    3    0  502 -0.55584862046E+03  0.11063614195E+04 -0.85933728203E+03  0.15071376360E+04  0.10100000352E+00 0. -1.
</event>
<event>
 5   0  0.7300916E-07  0.3727497E+04  0.7818609E-02  0.8061895E-01
        2   -1    0    0  501    0  0.00000000000E+00  0.00000000000E+00  0.18448026854E+04  0.18448026854E+04  0.25500000920E-02 0. -1.
       -2   -1    0    0    0  501  0.00000000000E+00  0.00000000000E+00 -0.18828891453E+04  0.18828891453E+04  0.25500000920E-02 0.  1.
    10030    2    1    2    0    0  0.00000000000E+00  0.00000000000E+00 -0.38086459826E+02  0.37276918307E+04  0.37274972577E+04 0.  0.
        1    1    3    3  502    0 -0.72331435770E+03 -0.40605615064E+03 -0.16881101859E+04  0.18808990556E+04  0.50400001928E-02 0.  1.
       -1    1    3    3    0  502  0.72331435770E+03  0.40605615064E+03  0.16500237261E+04  0.18467927751E+04  0.50400001928E-02 0. -1.
</event>
<event>
 5   0  0.2287500E-07  0.3701561E+04  0.7818609E-02  0.8067616E-01
        1   -1    0    0  501    0  0.00000000000E+00  0.00000000000E+00  0.14541381650E+04  0.14541381650E+04  0.50400001928E-02 0.  1.
       -1   -1    0    0    0  501  0.00000000000E+00  0.00000000000E+00 -0.23556144033E+04  0.23556144033E+04  0.50400001928E-02 0. -1.
    10030    2    1    2    0    0  0.00000000000E+00  0.00000000000E+00 -0.90147623834E+03  0.38097525684E+04  0.37015611874E+04 0.  0.
        4    1    3    3  502    0 -0.53182732642E+03  0.16950129257E+03 -0.22669157597E+04  0.23346262373E+04  0.12699999809E+01 0. -1.
       -4    1    3    3    0  502  0.53182732642E+03 -0.16950129257E+03  0.13654395214E+04  0.14751263311E+04  0.12699999809E+01 0.  1.
</event>
<event>
 5   0  0.7074157E-07  0.3684104E+04  0.7818609E-02  0.8071494E-01
        2   -1    0    0  501    0  0.00000000000E+00  0.00000000000E+00  0.21929761779E+04  0.21929761779E+04  0.25500000920E-02 0. -1.
       -2   -1    0    0    0  501  0.00000000000E+00  0.00000000000E+00 -0.15472835041E+04  0.15472835041E+04  0.25500000920E-02 0.  1.
    10030    2    1    2    0    0  0.00000000000E+00  0.00000000000E+00  0.64569267381E+03  0.37402596820E+04  0.36841041597E+04 0.  0.
        3    1    3    3  502    0  0.41252210102E+03 -0.16615085233E+04 -0.36749686757E+03  0.17509537443E+04  0.10100000352E+00 0.  1.
       -3    1    3    3    0  502 -0.41252210102E+03  0.16615085233E+04  0.10131895414E+04  0.19893059377E+04  0.10100000352E+00 0. -1.
</event>
<event>
 5   0  0.7300916E-07  0.3839839E+04  0.7818609E-02  0.8037659E-01
        2   -1    0    0  501    0  0.00000000000E+00  0.00000000000E+00  0.14768737373E+04  0.14768737373E+04  0.25500000920E-02 0. -1.
       -2   -1    0    0    0  501  0.00000000000E+00  0.00000000000E+00 -0.24958737261E+04  0.24958737261E+04  0.25500000920E-02 0.  1.
    10030    2    1    2    0    0  0.00000000000E+00  0.00000000000E+00 -0.10189999887E+04  0.39727474634E+04  0.38398387246E+04 0.  0.
        1    1    3    3  502    0  0.11969966295E+04 -0.12986901162E+04 -0.12883468224E+04  0.21861460344E+04  0.50400001928E-02 0.  1.
       -1    1    3    3    0  502 -0.11969966295E+04  0.12986901162E+04  0.26934683365E+03  0.17866014289E+04  0.50400001928E-02 0. -1.
</event>
<event>
 5   0  0.2287500E-07  0.3691857E+04  0.7818609E-02  0.8069769E-01
        1   -1    0    0  501    0  0.00000000000E+00  0.00000000000E+00  0.16708305958E+04  0.16708305958E+04  0.50400001928E-02 0. -1.
       -1   -1    0    0    0  501  0.00000000000E+00  0.00000000000E+00 -0.20393766034E+04  0.20393766034E+04  0.50400001928E-02 0.  1.
    10030    2    1    2    0    0  0.00000000000E+00  0.00000000000E+00 -0.36854600767E+03  0.37102071992E+04  0.36918574324E+04 0.  0.
        2    1    3    3  502    0  0.10645066130E+04 -0.11581427915E+04  0.78643874652E+03  0.17586798904E+04  0.25500000920E-02 0. -1.
       -2    1    3    3    0  502 -0.10645066130E+04  0.11581427915E+04 -0.11549847542E+04  0.19515273088E+04  0.25500000920E-02 0.  1.
</event>
<event>
 5   0  0.6949625E-07  0.3630196E+04  0.7818609E-02  0.8083610E-01
       -2   -1    0    0    0  501  0.00000000000E+00  0.00000000000E+00  0.14825087285E+04  0.14825087285E+04  0.25500000920E-02 0. -1.
        2   -1    0    0  501    0  0.00000000000E+00  0.00000000000E+00 -0.22223009915E+04  0.22223009915E+04  0.25500000920E-02 0.  1.
    10030    2    1    2    0    0  0.00000000000E+00  0.00000000000E+00 -0.73979226299E+03  0.37048097200E+04  0.36301959271E+04 0.  0.
        5    1    3    3  502    0  0.76366488942E+03 -0.84412005133E+03 -0.18127568238E+04  0.21405214591E+04  0.46999998093E+01 0.  1.
       -5    1    3    3    0  502 -0.76366488942E+03  0.84412005133E+03  0.10729645609E+04  0.15642882609E+04  0.46999998093E+01 0. -1.
</event>
<event>
 5   0  0.2411746E-07  0.3628325E+04  0.7818609E-02  0.8084034E-01
       -1   -1    0    0    0  501  0.00000000000E+00  0.00000000000E+00  0.15098096983E+04  0.15098096983E+04  0.50400001928E-02 0. -1.
        1   -1    0    0  501    0  0.00000000000E+00  0.00000000000E+00 -0.21798680912E+04  0.21798680912E+04  0.50400001928E-02 0.  1.
    10030    2    1    2    0    0  0.00000000000E+00  0.00000000000E+00 -0.67005839293E+03  0.36896777895E+04  0.36283252253E+04 0.  0.
        1    1    3    3  502    0  0.81823810606E+03  0.15987937096E+04 -0.59534817632E+03  0.18921137321E+04  0.50400001928E-02 0.  1.
       -1    1    3    3    0  502 -0.81823810606E+03 -0.15987937096E+04 -0.74710216608E+02  0.17975640574E+04  0.50400001928E-02 0. -1.
</event>
<event>
 5   0  0.7300916E-07  0.3158745E+04  0.7818609E-02  0.8199798E-01
       -2   -1    0    0    0  501  0.00000000000E+00  0.00000000000E+00  0.21784590487E+04  0.21784590487E+04  0.25500000920E-02 0.  1.
        2   -1    0    0  501    0  0.00000000000E+00  0.00000000000E+00 -0.11450372381E+04  0.11450372381E+04  0.25500000920E-02 0. -1.
    10030    2    1    2    0    0  0.00000000000E+00  0.00000000000E+00  0.10334218106E+04  0.33234962869E+04  0.31587445180E+04 0.  0.
        1    1    3    3  502    0  0.56781083976E+03  0.77018819104E+03 -0.80533548450E+03  0.12506655196E+04  0.50400001928E-02 0. -1.
       -1    1    3    3    0  502 -0.56781083976E+03 -0.77018819104E+03  0.18387572951E+04  0.20728307672E+04  0.50400001928E-02 0.  1.
</event>
<event>
 5   0  0.7124627E-07  0.3766451E+04  0.7818609E-02  0.8053393E-01
       -2   -1    0    0    0  501  0.00000000000E+00  0.00000000000E+00  0.25619706376E+04  0.25619706377E+04  0.25500000920E-02 0.  1.
        2   -1    0    0  501    0  0.00000000000E+00  0.00000000000E+00 -0.13843006528E+04  0.13843006528E+04  0.25500000920E-02 0. -1.
    10030    2    1    2    0    0  0.00000000000E+00  0.00000000000E+00  0.11776699849E+04  0.39462712904E+04  0.37664506507E+04 0.  0.
        2    1    3    3  502    0 -0.34398056251E+02 -0.18694294108E+04  0.82449112465E+03  0.20434615638E+04  0.25500000920E-02 0.  1.
       -2    1    3    3    0  502  0.34398056251E+02  0.18694294108E+04  0.35317886024E+03  0.19028097266E+04  0.25500000920E-02 0. -1.
</event>
<event>
 5   0  0.2345471E-07  0.3628612E+04  0.7818609E-02  0.8083969E-01
        1   -1    0    0  501    0  0.00000000000E+00  0.00000000000E+00  0.13740607422E+04  0.13740607422E+04  0.50400001928E-02 0.  1.
       -1   -1    0    0    0  501  0.00000000000E+00  0.00000000000E+00 -0.23956042220E+04  0.23956042220E+04  0.50400001928E-02 0. -1.
    10030    2    1    2    0    0  0.00000000000E+00  0.00000000000E+00 -0.10215434798E+04  0.37696649642E+04  0.36286116989E+04 0.  0.
        5    1    3    3  502    0 -0.10692381183E+04 -0.30257381795E+03  0.97915492579E+03  0.14810764759E+04  0.46999998093E+01 0.  1.
       -5    1    3    3    0  502  0.10692381183E+04  0.30257381795E+03 -0.20006984055E+04  0.22885884883E+04  0.46999998093E+01 0. -1.
</event>
<event>
 5   0  0.2287500E-07  0.3777199E+04  0.7818609E-02  0.8051066E-01
        1   -1    0    0  501    0  0.00000000000E+00  0.00000000000E+00  0.27151822448E+04  0.27151822448E+04  0.50400001928E-02 0.  1.
       -1   -1    0    0    0  501  0.00000000000E+00  0.00000000000E+00 -0.13136530633E+04  0.13136530633E+04  0.50400001928E-02 0. -1.
    10030    2    1    2    0    0  0.00000000000E+00  0.00000000000E+00  0.14015291816E+04  0.40288353081E+04  0.37771986833E+04 0.  0.
        3    1    3    3  502    0  0.64741693943E+03 -0.54610180796E+03 -0.10997174837E+04  0.13880758021E+04  0.10100000352E+00 0. -1.
       -3    1    3    3    0  502 -0.64741693943E+03  0.54610180796E+03  0.25012466653E+04  0.26407595061E+04  0.10100000352E+00 0.  1.
</event>
<event>
 5   0  0.7300916E-07  0.3962151E+04  0.7818609E-02  0.8012226E-01
       -2   -1    0    0    0  501  0.00000000000E+00  0.00000000000E+00  0.15552280875E+04  0.15552280875E+04  0.25500000920E-02 0. -1.
        2   -1    0    0  501    0  0.00000000000E+00  0.00000000000E+00 -0.25235274497E+04  0.25235274497E+04  0.25500000920E-02 0.  1.
    10030    2    1    2    0    0  0.00000000000E+00  0.00000000000E+00 -0.96829936226E+03  0.40787555372E+04  0.39621513194E+04 0.  0.
        1    1    3    3  502    0  0.13248500740E+04  0.78973114101E+02 -0.19982149041E+04  0.23988178911E+04  0.50400001928E-02 0.  1.
       -1    1    3    3    0  502 -0.13248500740E+04 -0.78973114101E+02  0.10299155419E+04  0.16799376461E+04  0.50400001928E-02 0. -1.
</event>
<event>
 5   0  0.6949625E-07  0.3771459E+04  0.7818609E-02  0.8052308E-01
       -2   -1    0    0    0  501  0.00000000000E+00  0.00000000000E+00  0.19642538072E+04  0.19642538072E+04  0.25500000920E-02 0. -1.
        2   -1    0    0  501    0  0.00000000000E+00  0.00000000000E+00 -0.18103443870E+04  0.18103443870E+04  0.25500000920E-02 0.  1.
    10030    2    1    2    0    0  0.00000000000E+00  0.00000000000E+00  0.15390942024E+03  0.37745981942E+04  0.37714590569E+04 0.  0.
        5    1    3    3  502    0 -0.79683121430E+03 -0.61620130403E+03  0.16724301762E+04  0.19523546848E+04  0.46999998093E+01 0. -1.
       -5    1    3    3    0  502  0.79683121430E+03  0.61620130403E+03 -0.15185207559E+04  0.18222435094E+04  0.46999998093E+01 0.  1.
</event>
<event>
 5   0  0.2345471E-07  0.3689372E+04  0.7818609E-02  0.8070321E-01
        1   -1    0    0  501    0  0.00000000000E+00  0.00000000000E+00  0.15251749007E+04  0.15251749007E+04  0.50400001928E-02 0. -1.
       -1   -1    0    0    0  501  0.00000000000E+00  0.00000000000E+00 -0.22311318394E+04  0.22311318395E+04  0.50400001928E-02 0.  1.
    10030    2    1    2    0    0  0.00000000000E+00  0.00000000000E+00 -0.70595693872E+03  0.37563067402E+04  0.36893719150E+04 0.  0.
        5    1    3    3  502    0  0.24426942332E+03 -0.79717011495E+03 -0.20283402344E+04  0.21930193661E+04  0.46999998093E+01 0.  1.
       -5    1    3    3    0  502 -0.24426942332E+03  0.79717011495E+03  0.13223832957E+04  0.15632873741E+04  0.46999998093E+01 0. -1.
</event>
<event>
 5   0  0.7300916E-07  0.3692393E+04  0.7818609E-02  0.8069650E-01
        2   -1    0    0  501    0  0.00000000000E+00  0.00000000000E+00  0.18599584468E+04  0.18599584468E+04  0.25500000920E-02 0. -1.
       -2   -1    0    0    0  501  0.00000000000E+00  0.00000000000E+00 -0.18325359000E+04  0.18325359000E+04  0.25500000920E-02 0.  1.
    10030    2    1    2    0    0  0.00000000000E+00  0.00000000000E+00  0.27422546717E+02  0.36924943468E+04  0.36923925177E+04 0.  0.
        1    1    3    3  502    0  0.76995062966E+03  0.67216137102E+03 -0.15238016944E+04  0.18348287345E+04  0.50400001928E-02 0.  1.
       -1    1    3    3    0  502 -0.76995062966E+03 -0.67216137102E+03  0.15512242412E+04  0.18576656123E+04  0.50400001928E-02 0. -1.
</event>
<event>
 5   0  0.2411746E-07  0.3722105E+04  0.7818609E-02  0.8063081E-01
       -1   -1    0    0    0  501  0.00000000000E+00  0.00000000000E+00  0.23649095490E+04  0.23649095490E+04  0.50400001928E-02 0. -1.
        1   -1    0    0  501    0  0.00000000000E+00  0.00000000000E+00 -0.14645446799E+04  0.14645446799E+04  0.50400001928E-02 0.  1.
    10030    2    1    2    0    0  0.00000000000E+00  0.00000000000E+00  0.90036486909E+03  0.38294542289E+04  0.37221046189E+04 0.  0.
        1    1    3    3  502    0  0.16499517468E+04 -0.44344153809E+02 -0.43438672029E+03  0.17067510051E+04  0.50400001928E-02 0.  1.
       -1    1    3    3    0  502 -0.16499517468E+04  0.44344153809E+02  0.13347515894E+04  0.21227032238E+04  0.50400001928E-02 0. -1.
</event>
<event>
 5   0  0.7074157E-07  0.3736909E+04  0.7818609E-02  0.8059831E-01
        2   -1    0    0  501    0  0.00000000000E+00  0.00000000000E+00  0.14922898427E+04  0.14922898427E+04  0.25500000920E-02 0.  1.
       -2   -1    0    0    0  501  0.00000000000E+00  0.00000000000E+00 -0.23394403864E+04  0.23394403864E+04  0.25500000920E-02 0. -1.
    10030    2    1    2    0    0  0.00000000000E+00  0.00000000000E+00 -0.84715054371E+03  0.38317302292E+04  0.37369094859E+04 0.  0.
        3    1    3    3  502    0  0.54529756284E+03  0.63647917175E+03 -0.21358787905E+04  0.22944353087E+04  0.10100000352E+00 0. -1.
       -3    1    3    3    0  502 -0.54529756284E+03 -0.63647917175E+03  0.12887282468E+04  0.15372949204E+04  0.10100000352E+00 0.  1.
</event>
<event>
 5   0  0.6939921E-07  0.3745837E+04  0.7818609E-02  0.8057879E-01
        2   -1    0    0  501    0  0.00000000000E+00  0.00000000000E+00  0.25611386563E+04  0.25611386563E+04  0.25500000920E-02 0.  1.
       -2   -1    0    0    0  501  0.00000000000E+00  0.00000000000E+00 -0.13696341826E+04  0.13696341826E+04  0.25500000920E-02 0. -1.
    10030    2    1    2    0    0  0.00000000000E+00  0.00000000000E+00  0.11915044736E+04  0.39307728389E+04  0.37458366489E+04 0.  0.
        4    1    3    3  502    0 -0.18408943344E+04 -0.28359725925E+03  0.80165928617E+03  0.20278014153E+04  0.12699999809E+01 0.  1.
       -4    1    3    3    0  502  0.18408943344E+04  0.28359725925E+03  0.38984518747E+03  0.19029714236E+04  0.12699999809E+01 0. -1.
</event>
<event>
 5   0  0.7124627E-07  0.3377463E+04  0.7818609E-02  0.8143460E-01
        2   -1    0    0  501    0  0.00000000000E+00  0.00000000000E+00  0.15443778742E+04  0.15443778743E+04  0.25500000920E-02 0. -1.
       -2   -1    0    0    0  501  0.00000000000E+00  0.00000000000E+00 -0.18465776527E+04  0.18465776527E+04  0.25500000920E-02 0.  1.
    10030    2    1    2    0    0  0.00000000000E+00  0.00000000000E+00 -0.30219977847E+03  0.33909555270E+04  0.33774627577E+04 0.  0.
        2    1    3    3  502    0 -0.99482832871E+03  0.42544117579E+03  0.11506638904E+04  0.15794654116E+04  0.25500000920E-02 0. -1.
       -2    1    3    3    0  502  0.99482832871E+03 -0.42544117579E+03 -0.14528636689E+04  0.18114901154E+04  0.25500000920E-02 0.  1.
</event>
<event>
 5   0  0.7124627E-07  0.3375071E+04  0.7818609E-02  0.8144052E-01
        2   -1    0    0  501    0  0.00000000000E+00  0.00000000000E+00  0.34232173137E+04  0.34232173137E+04  0.25500000920E-02 0. -1.
       -2   -1    0    0    0  501  0.00000000000E+00  0.00000000000E+00 -0.83190025685E+03  0.83190025685E+03  0.25500000920E-02 0.  1.
    10030    2    1    2    0    0  0.00000000000E+00  0.00000000000E+00  0.25913170569E+04  0.42551175706E+04  0.33750705845E+04 0.  0.
        2    1    3    3  502    0  0.10233604151E+04  0.12144315414E+04  0.57618610815E+03  0.16894084584E+04  0.25500000920E-02 0.  1.
       -2    1    3    3    0  502 -0.10233604151E+04 -0.12144315414E+04  0.20151309487E+04  0.25657091122E+04  0.25500000920E-02 0. -1.
</event>
<event>
 5   0  0.7300916E-07  0.3838872E+04  0.7818609E-02  0.8037864E-01
        2   -1    0    0  501    0  0.00000000000E+00  0.00000000000E+00  0.18153122662E+04  0.18153122662E+04  0.25500000920E-02 0. -1.
       -2   -1    0    0    0  501  0.00000000000E+00  0.00000000000E+00 -0.20295318793E+04  0.20295318793E+04  0.25500000920E-02 0.  1.
    10030    2    1    2    0    0  0.00000000000E+00  0.00000000000E+00 -0.21421961305E+03  0.38448441455E+04  0.38388717693E+04 0.  0.
        1    1    3    3  502    0 -0.70082749962E+03 -0.12011757185E+04 -0.14321388689E+04  0.19962474873E+04  0.50400001928E-02 0.  1.
       -1    1    3    3    0  502  0.70082749962E+03  0.12011757185E+04  0.12179192558E+04  0.18485966582E+04  0.50400001928E-02 0. -1.
</event>
<event>
 5   0  0.2345471E-07  0.3751412E+04  0.7818609E-02  0.8056663E-01
       -1   -1    0    0    0  501  0.00000000000E+00  0.00000000000E+00  0.25857801121E+04  0.25857801121E+04  0.50400001928E-02 0. -1.
        1   -1    0    0  501    0  0.00000000000E+00  0.00000000000E+00 -0.13606237513E+04  0.13606237513E+04  0.50400001928E-02 0.  1.
    10030    2    1    2    0    0  0.00000000000E+00  0.00000000000E+00  0.12251563608E+04  0.39464038634E+04  0.37514124466E+04 0.  0.
        5    1    3    3  502    0 -0.73382833563E+03 -0.67827431936E+03 -0.10572831685E+04  0.14547954725E+04  0.46999998093E+01 0.  1.
       -5    1    3    3    0  502  0.73382833563E+03  0.67827431936E+03  0.22824395293E+04  0.24916083908E+04  0.46999998093E+01 0. -1.
</event>
<event>
 5   0  0.2411746E-07  0.3621225E+04  0.7818609E-02  0.8085647E-01
        1   -1    0    0  501    0  0.00000000000E+00  0.00000000000E+00  0.24380772552E+04  0.24380772552E+04  0.50400001928E-02 0.  1.
       -1   -1    0    0    0  501  0.00000000000E+00  0.00000000000E+00 -0.13446321430E+04  0.13446321430E+04  0.50400001928E-02 0. -1.
    10030    2    1    2    0    0  0.00000000000E+00  0.00000000000E+00  0.10934451122E+04  0.37827093982E+04  0.36212246793E+04 0.  0.
        1    1    3    3  502    0 -0.43424415715E+03  0.38919988317E+03  0.23373017869E+04  0.24089466952E+04  0.50400001928E-02 0.  1.
       -1    1    3    3    0  502  0.43424415715E+03 -0.38919988317E+03 -0.12438566747E+04  0.13737627030E+04  0.50400001928E-02 0. -1.
</event>
<event>
 5   0  0.7300916E-07  0.3752678E+04  0.7818609E-02  0.8056387E-01
       -2   -1    0    0    0  501  0.00000000000E+00  0.00000000000E+00  0.17150529049E+04  0.17150529049E+04  0.25500000920E-02 0.  1.
        2   -1    0    0  501    0  0.00000000000E+00  0.00000000000E+00 -0.20527922218E+04  0.20527922218E+04  0.25500000920E-02 0. -1.
    10030    2    1    2    0    0  0.00000000000E+00  0.00000000000E+00 -0.33773931693E+03  0.37678451267E+04  0.37526775844E+04 0.  0.
        1    1    3    3  502    0 -0.12217836875E+04  0.13062208145E+04 -0.73832961542E+03  0.19349673941E+04  0.50400001928E-02 0. -1.
       -1    1    3    3    0  502  0.12217836875E+04 -0.13062208145E+04  0.40059029850E+03  0.18328777326E+04  0.50400001928E-02 0.  1.
</event>
<event>
 5   0  0.2287500E-07  0.3674805E+04  0.7818609E-02  0.8073568E-01
       -1   -1    0    0    0  501  0.00000000000E+00  0.00000000000E+00  0.26696561577E+04  0.26696561577E+04  0.50400001928E-02 0.  1.
        1   -1    0    0  501    0  0.00000000000E+00  0.00000000000E+00 -0.12646000983E+04  0.12646000983E+04  0.50400001928E-02 0. -1.
    10030    2    1    2    0    0  0.00000000000E+00  0.00000000000E+00  0.14050560594E+04  0.39342562560E+04  0.36748047238E+04 0.  0.
        2    1    3    3  502    0  0.11922806649E+04  0.36863144069E+03  0.21463045357E+04  0.24827495813E+04  0.25500000920E-02 0.  1.
       -2    1    3    3    0  502 -0.11922806649E+04 -0.36863144069E+03 -0.74124847639E+03  0.14515066747E+04  0.25500000920E-02 0. -1.
</event>
<event>
 5   0  0.2287500E-07  0.3857415E+04  0.7818609E-02  0.8033945E-01
       -1   -1    0    0    0  501  0.00000000000E+00  0.00000000000E+00  0.28074292177E+04  0.28074292177E+04  0.50400001928E-02 0.  1.
        1   -1    0    0  501    0  0.00000000000E+00  0.00000000000E+00 -0.13250246402E+04  0.13250246402E+04  0.50400001928E-02 0. -1.
    10030    2    1    2    0    0  0.00000000000E+00  0.00000000000E+00  0.14824045775E+04  0.41324538579E+04  0.38574151392E+04 0.  0.
        3    1    3    3  502    0  0.67143263057E+03 -0.56932872478E+03  0.25796489347E+04  0.27257192832E+04  0.10100000352E+00 0.  1.
       -3    1    3    3    0  502 -0.67143263057E+03  0.56932872478E+03 -0.10972443571E+04  0.14067345747E+04  0.10100000352E+00 0. -1.
</event>
<event>
 5   0  0.2287500E-07  0.3800218E+04  0.7818609E-02  0.8046108E-01
       -1   -1    0    0    0  501  0.00000000000E+00  0.00000000000E+00  0.19443635408E+04  0.19443635408E+04  0.50400001928E-02 0.  1.
        1   -1    0    0  501    0  0.00000000000E+00  0.00000000000E+00 -0.18568615161E+04  0.18568615161E+04  0.50400001928E-02 0. -1.
    10030    2    1    2    0    0  0.00000000000E+00  0.00000000000E+00  0.87502024633E+02  0.38012250569E+04  0.38002178002E+04 0.  0.
        4    1    3    3  502    0  0.11529948527E+04 -0.94884944122E+03 -0.11315922735E+04  0.18735567989E+04  0.12699999809E+01 0. -1.
       -4    1    3    3    0  502 -0.11529948527E+04  0.94884944122E+03  0.12190942981E+04  0.19276682580E+04  0.12699999809E+01 0.  1.
</event>
<event>
 5   0  0.7300916E-07  0.3668037E+04  0.7818609E-02  0.8075082E-01
        2   -1    0    0  501    0  0.00000000000E+00  0.00000000000E+00  0.13039142636E+04  0.13039142636E+04  0.25500000920E-02 0. -1.
       -2   -1    0    0    0  501  0.00000000000E+00  0.00000000000E+00 -0.25796357162E+04  0.25796357162E+04  0.25500000920E-02 0.  1.
    10030    2    1    2    0    0  0.00000000000E+00  0.00000000000E+00 -0.12757214525E+04  0.38835499798E+04  0.36680369711E+04 0.  0.
        1    1    3    3  502    0  0.92982018874E+03  0.10361796660E+04 -0.19019042742E+04  0.23570052507E+04  0.50400001928E-02 0.  1.
       -1    1    3    3    0  502 -0.92982018874E+03 -0.10361796660E+04  0.62618282171E+03  0.15265447291E+04  0.50400001928E-02 0. -1.
</event>
<event>
 5   0  0.2287500E-07  0.3795491E+04  0.7818609E-02  0.8047123E-01
       -1   -1    0    0    0  501  0.00000000000E+00  0.00000000000E+00  0.13428033369E+04  0.13428033369E+04  0.50400001928E-02 0. -1.
        1   -1    0    0  501    0  0.00000000000E+00  0.00000000000E+00 -0.26820287054E+04  0.26820287054E+04  0.50400001928E-02 0.  1.
    10030    2    1    2    0    0  0.00000000000E+00  0.00000000000E+00 -0.13392253686E+04  0.40248320423E+04  0.37954905323E+04 0.  0.
        2    1    3    3  502    0 -0.25016081055E+03 -0.29365334140E+03  0.13007878463E+04  0.13567836000E+04  0.25500000920E-02 0. -1.
       -2    1    3    3    0  502  0.25016081055E+03  0.29365334140E+03 -0.26400132149E+04  0.26680484424E+04  0.25500000920E-02 0.  1.
</event>
<event>
 5   0  0.2345471E-07  0.2959899E+04  0.7818609E-02  0.8255275E-01
       -1   -1    0    0    0  501  0.00000000000E+00  0.00000000000E+00  0.15318778508E+04  0.15318778508E+04  0.50400001928E-02 0.  1.
        1   -1    0    0  501    0  0.00000000000E+00  0.00000000000E+00 -0.14297816898E+04  0.14297816899E+04  0.50400001928E-02 0. -1.
    10030    2    1    2    0    0  0.00000000000E+00  0.00000000000E+00  0.10209616090E+03  0.29616595406E+04  0.29598992565E+04 0.  0.
        5    1    3    3  502    0  0.12761970188E+04 -0.60358709216E+03  0.49542097104E+03  0.14961484677E+04  0.46999998093E+01 0. -1.
       -5    1    3    3    0  502 -0.12761970188E+04  0.60358709216E+03 -0.39332481014E+03  0.14655110730E+04  0.46999998093E+01 0.  1.
</event>
<event>
 5   0  0.2345471E-07  0.3683946E+04  0.7818609E-02  0.8071529E-01
       -1   -1    0    0    0  501  0.00000000000E+00  0.00000000000E+00  0.14345824711E+04  0.14345824711E+04  0.50400001928E-02 0.  1.
        1   -1    0    0  501    0  0.00000000000E+00  0.00000000000E+00 -0.23650537261E+04  0.23650537261E+04  0.50400001928E-02 0. -1.
    10030    2    1    2    0    0  0.00000000000E+00  0.00000000000E+00 -0.93047125497E+03  0.37996361972E+04  0.36839460467E+04 0.  0.
        5    1    3    3  502    0 -0.16388492555E+04  0.82665004080E+03 -0.30656911338E+03  0.18609631602E+04  0.46999998093E+01 0. -1.
       -5    1    3    3    0  502  0.16388492555E+04 -0.82665004080E+03 -0.62390214159E+03  0.19386730370E+04  0.46999998093E+01 0.  1.
</event>
<event>
 5   0  0.7300916E-07  0.3681687E+04  0.7818609E-02  0.8072032E-01
        2   -1    0    0  501    0  0.00000000000E+00  0.00000000000E+00  0.14607444880E+04  0.14607444880E+04  0.25500000920E-02 0.  1.
       -2   -1    0    0    0  501  0.00000000000E+00  0.00000000000E+00 -0.23198481123E+04  0.23198481123E+04  0.25500000920E-02 0. -1.
    10030    2    1    2    0    0  0.00000000000E+00  0.00000000000E+00 -0.85910362424E+03  0.37805926003E+04  0.36816872997E+04 0.  0.
        1    1    3    3  502    0 -0.46995926539E+03 -0.50451319076E+02  0.13973714370E+04  0.14751454097E+04  0.50400001928E-02 0.  1.
       -1    1    3    3    0  502  0.46995926539E+03  0.50451319076E+02 -0.22564750613E+04  0.23054471906E+04  0.50400001928E-02 0. -1.
</event>
<event>
 5   0  0.2345471E-07  0.3681633E+04  0.7818609E-02  0.8072045E-01
       -1   -1    0    0    0  501  0.00000000000E+00  0.00000000000E+00  0.16339104278E+04  0.16339104278E+04  0.50400001928E-02 0. -1.
        1   -1    0    0  501    0  0.00000000000E+00  0.00000000000E+00 -0.20739230685E+04  0.20739230685E+04  0.50400001928E-02 0.  1.
    10030    2    1    2    0    0  0.00000000000E+00  0.00000000000E+00 -0.44001264069E+03  0.37078334964E+04  0.36816325336E+04 0.  0.
        5    1    3    3  502    0 -0.13347629220E+04  0.10132140950E+04 -0.98725975065E+03  0.19449675487E+04  0.46999998093E+01 0.  1.
       -5    1    3    3    0  502  0.13347629220E+04 -0.10132140950E+04  0.54724710996E+03  0.17628659477E+04  0.46999998093E+01 0. -1.
</event>
<event>
 5   0  0.7124627E-07  0.3687894E+04  0.7818609E-02  0.8070650E-01
        2   -1    0    0  501    0  0.00000000000E+00  0.00000000000E+00  0.22082597864E+04  0.22082597864E+04  0.25500000920E-02 0.  1.
       -2   -1    0    0    0  501  0.00000000000E+00  0.00000000000E+00 -0.15397377465E+04  0.15397377465E+04  0.25500000920E-02 0. -1.
    10030    2    1    2    0    0  0.00000000000E+00  0.00000000000E+00  0.66852203991E+03  0.37479975329E+04  0.36878942215E+04 0.  0.
        2    1    3    3  502    0 -0.16743525509E+03  0.16857213184E+04  0.10744507846E+04  0.20060247796E+04  0.25500000920E-02 0.  1.
       -2    1    3    3    0  502  0.16743525509E+03 -0.16857213184E+04 -0.40592874465E+03  0.17419727534E+04  0.25500000920E-02 0. -1.
</event>
<event>
 5   0  0.2287500E-07  0.3570172E+04  0.7818609E-02  0.8097358E-01
        1   -1    0    0  501    0  0.00000000000E+00  0.00000000000E+00  0.23554729729E+04  0.23554729729E+04  0.50400001928E-02 0.  1.
       -1   -1    0    0    0  501  0.00000000000E+00  0.00000000000E+00 -0.13528206932E+04  0.13528206932E+04  0.50400001928E-02 0. -1.
    10030    2    1    2    0    0  0.00000000000E+00  0.00000000000E+00  0.10026522797E+04  0.37082936662E+04  0.35701723096E+04 0.  0.
        2    1    3    3  502    0 -0.73250150364E+03  0.15904507572E+04  0.86179789908E+03  0.19516115604E+04  0.25500000920E-02 0.  1.
       -2    1    3    3    0  502  0.73250150364E+03 -0.15904507572E+04  0.14085438063E+03  0.17566821057E+04  0.25500000920E-02 0. -1.
</event>
<event>
 5   0  0.6949625E-07  0.3685878E+04  0.7818609E-02  0.8071099E-01
        2   -1    0    0  501    0  0.00000000000E+00  0.00000000000E+00  0.19046566734E+04  0.19046566734E+04  0.25500000920E-02 0.  1.
       -2   -1    0    0    0  501  0.00000000000E+00  0.00000000000E+00 -0.17832213817E+04  0.17832213817E+04  0.25500000920E-02 0. -1.
    10030    2    1    2    0    0  0.00000000000E+00  0.00000000000E+00  0.12143529165E+03  0.36878780551E+04  0.36858781883E+04 0.  0.
        5    1    3    3  502    0 -0.14145825457E+04  0.11492996411E+04 -0.21232045240E+03  0.18349483666E+04  0.46999998093E+01 0.  1.
       -5    1    3    3    0  502  0.14145825457E+04 -0.11492996411E+04  0.33375574404E+03  0.18529296885E+04  0.46999998093E+01 0. -1.
</event>
<event>
 5   0  0.6939921E-07  0.3742847E+04  0.7818609E-02  0.8058532E-01
        2   -1    0    0  501    0  0.00000000000E+00  0.00000000000E+00  0.20804966559E+04  0.20804966559E+04  0.25500000920E-02 0. -1.
       -2   -1    0    0    0  501  0.00000000000E+00  0.00000000000E+00 -0.16833608766E+04  0.16833608766E+04  0.25500000920E-02 0.  1.
    10030    2    1    2    0    0  0.00000000000E+00  0.00000000000E+00  0.39713577929E+03  0.37638575324E+04  0.37428474050E+04 0.  0.
        4    1    3    3  502    0 -0.13324359839E+04  0.13130297503E+04  0.25170658900E+03  0.18875355881E+04  0.12699999809E+01 0.  1.
       -4    1    3    3    0  502  0.13324359839E+04 -0.13130297503E+04  0.14542919030E+03  0.18763219443E+04  0.12699999809E+01 0. -1.
</event>
<event>
 5   0  0.6939921E-07  0.3664935E+04  0.7818609E-02  0.8075777E-01
        2   -1    0    0  501    0  0.00000000000E+00  0.00000000000E+00  0.14429432764E+04  0.14429432764E+04  0.25500000920E-02 0.  1.
       -2   -1    0    0    0  501  0.00000000000E+00  0.00000000000E+00 -0.23271448419E+04  0.23271448419E+04  0.25500000920E-02 0. -1.
    10030    2    1    2    0    0  0.00000000000E+00  0.00000000000E+00 -0.88420156554E+03  0.37700881182E+04  0.36649354716E+04 0.  0.
        4    1    3    3  502    0 -0.72795912600E+03  0.15991876149E+04 -0.97722892354E+03  0.20105480593E+04  0.12699999809E+01 0. -1.
       -4    1    3    3    0  502  0.72795912600E+03 -0.15991876149E+04  0.93027358007E+02  0.17595400590E+04  0.12699999809E+01 0.  1.
</event>
<event>
 5   0  0.2345471E-07  0.3696004E+04  0.7818609E-02  0.8068848E-01
        1   -1    0    0  501    0  0.00000000000E+00  0.00000000000E+00  0.14227889157E+04  0.14227889157E+04  0.50400001928E-02 0. -1.
       -1   -1    0    0    0  501  0.00000000000E+00  0.00000000000E+00 -0.24002934101E+04  0.24002934101E+04  0.50400001928E-02 0.  1.
    10030    2    1    2    0    0  0.00000000000E+00  0.00000000000E+00 -0.97750449442E+03  0.38230823258E+04  0.36960037112E+04 0.  0.
        5    1    3    3  502    0 -0.14172472245E+04 -0.11644846121E+04 -0.25636196825E+03  0.18521224733E+04  0.46999998093E+01 0.  1.
       -5    1    3    3    0  502  0.14172472245E+04  0.11644846121E+04 -0.72114252617E+03  0.19709598525E+04  0.46999998093E+01 0. -1.
</event>
<event>
 5   0  0.2287500E-07  0.3672877E+04  0.7818609E-02  0.8073999E-01
       -3   -1    0    0    0  501  0.00000000000E+00  0.00000000000E+00  0.15707919447E+04  0.15707919480E+04  0.10100000352E+00 0.  1.
        3   -1    0    0  501    0  0.00000000000E+00  0.00000000000E+00 -0.21470102001E+04  0.21470102024E+04  0.10100000352E+00 0. -1.
    10030    2    1    2    0    0  0.00000000000E+00  0.00000000000E+00 -0.57621825531E+03  0.37178021504E+04  0.36728769857E+04 0.  0.
        1    1    3    3  502    0  0.10280702644E+04  0.90532074531E+03 -0.15261690222E+04  0.20507866795E+04  0.50400001928E-02 0. -1.
       -1    1    3    3    0  502 -0.10280702644E+04 -0.90532074531E+03  0.94995076694E+03  0.16670154709E+04  0.50400001928E-02 0.  1.
</event>
<event>
 5   0  0.2345471E-07  0.3972478E+04  0.7818609E-02  0.8010122E-01
       -1   -1    0    0    0  501  0.00000000000E+00  0.00000000000E+00  0.21403962272E+04  0.21403962272E+04  0.50400001928E-02 0.  1.
        1   -1    0    0  501    0  0.00000000000E+00  0.00000000000E+00 -0.18431843923E+04  0.18431843923E+04  0.50400001928E-02 0. -1.
    10030    2    1    2    0    0  0.00000000000E+00  0.00000000000E+00  0.29721183484E+03  0.39835806195E+04  0.39724777755E+04 0.  0.
        5    1    3    3  502    0  0.19843316652E+04  0.17539700297E+02  0.63262054942E+02  0.19854228709E+04  0.46999998093E+01 0.  1.
       -5    1    3    3    0  502 -0.19843316652E+04 -0.17539700297E+02  0.23394977989E+03  0.19981577486E+04  0.46999998093E+01 0. -1.
</event>
<event>
 5   0  0.6939921E-07  0.3666513E+04  0.7818609E-02  0.8075424E-01
       -2   -1    0    0    0  501  0.00000000000E+00  0.00000000000E+00  0.15808463807E+04  0.15808463807E+04  0.25500000920E-02 0.  1.
        2   -1    0    0  501    0  0.00000000000E+00  0.00000000000E+00 -0.21259682943E+04  0.21259682943E+04  0.25500000920E-02 0. -1.
    10030    2    1    2    0    0  0.00000000000E+00  0.00000000000E+00 -0.54512191353E+03  0.37068146750E+04  0.36665129393E+04 0.  0.
        4    1    3    3  502    0 -0.33553557153E+03 -0.18020823961E+04 -0.30011097059E+03  0.18574588258E+04  0.12699999809E+01 0. -1.
       -4    1    3    3    0  502  0.33553557153E+03  0.18020823961E+04 -0.24501094295E+03  0.18493558492E+04  0.12699999809E+01 0.  1.
</event>
<event>
 5   0  0.6949625E-07  0.3725053E+04  0.7818609E-02  0.8062432E-01
        2   -1    0    0  501    0  0.00000000000E+00  0.00000000000E+00  0.19772007750E+04  0.19772007750E+04  0.25500000920E-02 0. -1.
       -2   -1    0    0    0  501  0.00000000000E+00  0.00000000000E+00 -0.17545030818E+04  0.17545030818E+04  0.25500000920E-02 0.  1.
    10030    2    1    2    0    0  0.00000000000E+00  0.00000000000E+00  0.22269769323E+03  0.37317038569E+04  0.37250529409E+04 0.  0.
        5    1    3    3  502    0  0.53986588604E+03 -0.11501261331E+03  0.18933727540E+04  0.19721981522E+04  0.46999998093E+01 0. -1.
       -5    1    3    3    0  502 -0.53986588604E+03  0.11501261331E+03 -0.16706750607E+04  0.17595057046E+04  0.46999998093E+01 0.  1.
</event>
<event>
 5   0  0.2287500E-07  0.3678700E+04  0.7818609E-02  0.8072699E-01
       -1   -1    0    0    0  501  0.00000000000E+00  0.00000000000E+00  0.32329519311E+04  0.32329519311E+04  0.50400001928E-02 0.  1.
        1   -1    0    0  501    0  0.00000000000E+00  0.00000000000E+00 -0.10464763833E+04  0.10464763834E+04  0.50400001928E-02 0. -1.
    10030    2    1    2    0    0  0.00000000000E+00  0.00000000000E+00  0.21864755477E+04  0.42794283144E+04  0.36786996857E+04 0.  0.
        3    1    3    3  502    0 -0.64308121903E+03 -0.28252812787E+03  0.30707889732E+04  0.31500984946E+04  0.10100000352E+00 0.  1.
       -3    1    3    3    0  502  0.64308121903E+03  0.28252812787E+03 -0.88431342549E+03  0.11293298199E+04  0.10100000352E+00 0. -1.
</event>
<event>
 5   0  0.6939921E-07  0.3608154E+04  0.7818609E-02  0.8088626E-01
       -2   -1    0    0    0  501  0.00000000000E+00  0.00000000000E+00  0.14752131640E+04  0.14752131640E+04  0.25500000920E-02 0. -1.
        2   -1    0    0  501    0  0.00000000000E+00  0.00000000000E+00 -0.22062538182E+04  0.22062538182E+04  0.25500000920E-02 0.  1.
    10030    2    1    2    0    0  0.00000000000E+00  0.00000000000E+00 -0.73104065420E+03  0.36814669822E+04  0.36081544733E+04 0.  0.
        4    1    3    3  502    0  0.14881888165E+04  0.10252436596E+03 -0.14007670677E+04  0.20463057421E+04  0.12699999809E+01 0.  1.
       -4    1    3    3    0  502 -0.14881888165E+04 -0.10252436596E+03  0.66972641350E+03  0.16351612401E+04  0.12699999809E+01 0. -1.
</event>
<event>
 5   0  0.7300916E-07  0.3716675E+04  0.7818609E-02  0.8064277E-01
        2   -1    0    0  501    0  0.00000000000E+00  0.00000000000E+00  0.14383984402E+04  0.14383984402E+04  0.25500000920E-02 0.  1.
       -2   -1    0    0    0  501  0.00000000000E+00  0.00000000000E+00 -0.24008770316E+04  0.24008770316E+04  0.25500000920E-02 0. -1.
    10030    2    1    2    0    0  0.00000000000E+00  0.00000000000E+00 -0.96247859139E+03  0.38392754718E+04  0.37166747382E+04 0.  0.
        1    1    3    3  502    0  0.59853802233E+03  0.15007492976E+04 -0.14296322073E+04  0.21573929792E+04  0.50400001928E-02 0. -1.
       -1    1    3    3    0  502 -0.59853802233E+03 -0.15007492976E+04  0.46715361589E+03  0.16818824927E+04  0.50400001928E-02 0.  1.
</event>
<event>
 5   0  0.2287500E-07  0.3620200E+04  0.7818609E-02  0.8085880E-01
        1   -1    0    0  501    0  0.00000000000E+00  0.00000000000E+00  0.20274501430E+04  0.20274501430E+04  0.50400001928E-02 0.  1.
       -1   -1    0    0    0  501  0.00000000000E+00  0.00000000000E+00 -0.16160507037E+04  0.16160507037E+04  0.50400001928E-02 0. -1.
    10030    2    1    2    0    0  0.00000000000E+00  0.00000000000E+00  0.41139943925E+03  0.36435008467E+04  0.36202001217E+04 0.  0.
        3    1    3    3  502    0  0.43494545742E+02  0.22907071682E+03 -0.16008736533E+04  0.16177643935E+04  0.10100000352E+00 0. -1.
       -3    1    3    3    0  502 -0.43494545742E+02 -0.22907071682E+03  0.20122730925E+04  0.20257364532E+04  0.10100000352E+00 0.  1.
</event>
<event>
 5   0  0.7074157E-07  0.3665695E+04  0.7818609E-02  0.8075607E-01
       -2   -1    0    0    0  501  0.00000000000E+00  0.00000000000E+00  0.17100299347E+04  0.17100299347E+04  0.25500000920E-02 0. -1.
        2   -1    0    0  501    0  0.00000000000E+00  0.00000000000E+00 -0.19644862099E+04  0.19644862099E+04  0.25500000920E-02 0.  1.
    10030    2    1    2    0    0  0.00000000000E+00  0.00000000000E+00 -0.25445627519E+03  0.36745161446E+04  0.36656951456E+04 0.  0.
        3    1    3    3  502    0 -0.90657514781E+03 -0.67267503139E+03 -0.15746418447E+04  0.19374899086E+04  0.10100000352E+00 0.  1.
       -3    1    3    3    0  502  0.90657514781E+03  0.67267503139E+03  0.13201855695E+04  0.17370262360E+04  0.10100000352E+00 0. -1.
</event>
<event>
 5   0  0.2287500E-07  0.3690770E+04  0.7818609E-02  0.8070010E-01
       -1   -1    0    0    0  501  0.00000000000E+00  0.00000000000E+00  0.17591165250E+04  0.17591165250E+04  0.50400001928E-02 0. -1.
        1   -1    0    0  501    0  0.00000000000E+00  0.00000000000E+00 -0.19358840705E+04  0.19358840705E+04  0.50400001928E-02 0.  1.
    10030    2    1    2    0    0  0.00000000000E+00  0.00000000000E+00 -0.17676754555E+03  0.36950005955E+04  0.36907699245E+04 0.  0.
        3    1    3    3  502    0  0.42658249330E+03  0.15817446807E+04  0.76203492201E+03  0.18068165627E+04  0.10100000352E+00 0. -1.
       -3    1    3    3    0  502 -0.42658249330E+03 -0.15817446807E+04 -0.93880246757E+03  0.18881840329E+04  0.10100000352E+00 0.  1.
</event>
<event>
 5   0  0.2345471E-07  0.3720186E+04  0.7818609E-02  0.8063503E-01
       -1   -1    0    0    0  501  0.00000000000E+00  0.00000000000E+00  0.26341759633E+04  0.26341759633E+04  0.50400001928E-02 0.  1.
        1   -1    0    0  501    0  0.00000000000E+00  0.00000000000E+00 -0.13134833205E+04  0.13134833205E+04  0.50400001928E-02 0. -1.
    10030    2    1    2    0    0  0.00000000000E+00  0.00000000000E+00  0.13206926428E+04  0.39476592838E+04  0.37201861196E+04 0.  0.
        5    1    3    3  502    0  0.16872564855E+03  0.11691847446E+04  0.21850256915E+04  0.24839123724E+04  0.46999998093E+01 0.  1.
       -5    1    3    3    0  502 -0.16872564855E+03 -0.11691847446E+04 -0.86433304875E+03  0.14637469114E+04  0.46999998093E+01 0. -1.
</event>
<event>
 5   0  0.2411746E-07  0.3628029E+04  0.7818609E-02  0.8084101E-01
       -1   -1    0    0    0  501  0.00000000000E+00  0.00000000000E+00  0.11446622596E+04  0.11446622597E+04  0.50400001928E-02 0.  1.
        1   -1    0    0  501    0  0.00000000000E+00  0.00000000000E+00 -0.28747764472E+04  0.28747764472E+04  0.50400001928E-02 0. -1.
    10030    2    1    2    0    0  0.00000000000E+00  0.00000000000E+00 -0.17301141875E+04  0.40194387069E+04  0.36280287232E+04 0.  0.
        1    1    3    3  502    0  0.67884057436E+03  0.12858445719E+03  0.99318338093E+03  0.12098643379E+04  0.50400001928E-02 0.  1.
       -1    1    3    3    0  502 -0.67884057436E+03 -0.12858445719E+03 -0.27232975685E+04  0.28095743689E+04  0.50400001928E-02 0. -1.
</event>
<event>
 5   0  0.2411746E-07  0.3798127E+04  0.7818609E-02  0.8046557E-01
        1   -1    0    0  501    0  0.00000000000E+00  0.00000000000E+00  0.23434075638E+04  0.23434075638E+04  0.50400001928E-02 0.  1.
       -1   -1    0    0    0  501  0.00000000000E+00  0.00000000000E+00 -0.15389735121E+04  0.15389735121E+04  0.50400001928E-02 0. -1.
    10030    2    1    2    0    0  0.00000000000E+00  0.00000000000E+00  0.80443405168E+03  0.38823810759E+04  0.37981269956E+04 0.  0.
        1    1    3    3  502    0  0.11627139887E+03  0.11820175051E+04 -0.11124629759E+04  0.16273470107E+04  0.50400001928E-02 0. -1.
       -1    1    3    3    0  502 -0.11627139887E+03 -0.11820175051E+04  0.19168970276E+04  0.22550340651E+04  0.50400001928E-02 0.  1.
</event>
<event>
 5   0  0.7074157E-07  0.3747636E+04  0.7818609E-02  0.8057486E-01
       -2   -1    0    0    0  501  0.00000000000E+00  0.00000000000E+00  0.27750366154E+04  0.27750366154E+04  0.25500000920E-02 0.  1.
        2   -1    0    0  501    0  0.00000000000E+00  0.00000000000E+00 -0.12652780948E+04  0.12652780948E+04  0.25500000920E-02 0. -1.
    10030    2    1    2    0    0  0.00000000000E+00  0.00000000000E+00  0.15097585206E+04  0.40403147102E+04  0.37476355436E+04 0.  0.
        3    1    3    3  502    0 -0.13098321712E+04  0.11499713481E+04  0.13340796374E+02  0.17430640853E+04  0.10100000352E+00 0.  1.
       -3    1    3    3    0  502  0.13098321712E+04 -0.11499713481E+04  0.14964177242E+04  0.22972506250E+04  0.10100000352E+00 0. -1.
</event>
<event>
 5   0  0.2411746E-07  0.2776574E+04  0.7818609E-02  0.8310578E-01
        1   -1    0    0  501    0  0.00000000000E+00  0.00000000000E+00  0.19050599986E+04  0.19050599986E+04  0.50400001928E-02 0. -1.
       -1   -1    0    0    0  501  0.00000000000E+00  0.00000000000E+00 -0.10116954964E+04  0.10116954964E+04  0.50400001928E-02 0.  1.
    10030    2    1    2    0    0  0.00000000000E+00  0.00000000000E+00  0.89336450216E+03  0.29167554950E+04  0.27765738751E+04 0.  0.
        1    1    3    3  502    0 -0.17647849171E+03  0.12108968925E+04  0.11354724828E+04  0.16693452912E+04  0.50400001928E-02 0. -1.
       -1    1    3    3    0  502  0.17647849171E+03 -0.12108968925E+04 -0.24210798062E+03  0.12474102038E+04  0.50400001928E-02 0.  1.
</event>
<event>
 5   0  0.2287500E-07  0.3273362E+04  0.7818609E-02  0.8169707E-01
        1   -1    0    0  501    0  0.00000000000E+00  0.00000000000E+00  0.12691896167E+04  0.12691896167E+04  0.50400001928E-02 0. -1.
       -1   -1    0    0    0  501  0.00000000000E+00  0.00000000000E+00 -0.21105787387E+04  0.21105787387E+04  0.50400001928E-02 0.  1.
    10030    2    1    2    0    0  0.00000000000E+00  0.00000000000E+00 -0.84138912198E+03  0.33797683554E+04  0.32733619540E+04 0.  0.
        2    1    3    3  502    0 -0.10067302216E+04 -0.55836268712E+03 -0.16218909329E+04  0.19889205182E+04  0.25500000920E-02 0.  1.
       -2    1    3    3    0  502  0.10067302216E+04  0.55836268712E+03  0.78050181091E+03  0.13908478372E+04  0.25500000920E-02 0. -1.
</event>
<event>
 5   0  0.2345471E-07  0.3642699E+04  0.7818609E-02  0.8080780E-01
       -1   -1    0    0    0  501  0.00000000000E+00  0.00000000000E+00  0.17885164755E+04  0.17885164756E+04  0.50400001928E-02 0. -1.
        1   -1    0    0  501    0  0.00000000000E+00  0.00000000000E+00 -0.18547855364E+04  0.18547855364E+04  0.50400001928E-02 0.  1.
    10030    2    1    2    0    0  0.00000000000E+00  0.00000000000E+00 -0.66269060843E+02  0.36433020120E+04  0.36426992687E+04 0.  0.
        5    1    3    3  502    0 -0.10093089966E+04 -0.19020308744E+02  0.14831064127E+04  0.17940716664E+04  0.46999998093E+01 0. -1.
       -5    1    3    3    0  502  0.10093089966E+04  0.19020308744E+02 -0.15493754736E+04  0.18492303455E+04  0.46999998093E+01 0.  1.
</event>
<event>
 5   0  0.6939921E-07  0.3717939E+04  0.7818609E-02  0.8063998E-01
       -2   -1    0    0    0  501  0.00000000000E+00  0.00000000000E+00  0.11548472388E+04  0.11548472388E+04  0.25500000920E-02 0. -1.
        2   -1    0    0  501    0  0.00000000000E+00  0.00000000000E+00 -0.29924025240E+04  0.29924025240E+04  0.25500000920E-02 0.  1.
    10030    2    1    2    0    0  0.00000000000E+00  0.00000000000E+00 -0.18375552852E+04  0.41472497628E+04  0.37179391024E+04 0.  0.
        4    1    3    3  502    0 -0.10842373586E+04  0.15091266401E+04 -0.86047030620E+03  0.20477901812E+04  0.12699999809E+01 0. -1.
       -4    1    3    3    0  502  0.10842373586E+04 -0.15091266401E+04 -0.97708497904E+03  0.20994595816E+04  0.12699999809E+01 0.  1.
</event>
<event>
 5   0  0.7074157E-07  0.3698127E+04  0.7818609E-02  0.8068377E-01
        2   -1    0    0  501    0  0.00000000000E+00  0.00000000000E+00  0.22074085922E+04  0.22074085922E+04  0.25500000920E-02 0. -1.
       -2   -1    0    0    0  501  0.00000000000E+00  0.00000000000E+00 -0.15488915959E+04  0.15488915959E+04  0.25500000920E-02 0.  1.
    10030    2    1    2    0    0  0.00000000000E+00  0.00000000000E+00  0.65851699636E+03  0.37563001881E+04  0.36981274273E+04 0.  0.
        3    1    3    3  502    0 -0.43097405841E+03 -0.55984588275E+03 -0.14063837766E+04  0.15738746420E+04  0.10100000352E+00 0.  1.
       -3    1    3    3    0  502  0.43097405841E+03  0.55984588275E+03  0.20649007730E+04  0.21824255460E+04  0.10100000352E+00 0. -1.
</event>
<event>
 5   0  0.2287500E-07  0.3680885E+04  0.7818609E-02  0.8072211E-01
        1   -1    0    0  501    0  0.00000000000E+00  0.00000000000E+00  0.17762403402E+04  0.17762403402E+04  0.50400001928E-02 0. -1.
       -1   -1    0    0    0  501  0.00000000000E+00  0.00000000000E+00 -0.19069656648E+04  0.19069656648E+04  0.50400001928E-02 0.  1.
    10030    2    1    2    0    0  0.00000000000E+00  0.00000000000E+00 -0.13072532464E+03  0.36832060050E+04  0.36808854050E+04 0.  0.
        4    1    3    3  502    0 -0.14319001610E+04  0.77261311272E+03 -0.92611346101E+03  0.18721529982E+04  0.12699999809E+01 0.  1.
       -4    1    3    3    0  502  0.14319001610E+04 -0.77261311272E+03  0.79538813637E+03  0.18110530068E+04  0.12699999809E+01 0. -1.
</event>
<event>
 5   0  0.2287500E-07  0.3790041E+04  0.7818609E-02  0.8048295E-01
        1   -1    0    0  501    0  0.00000000000E+00  0.00000000000E+00  0.10930777770E+04  0.10930777770E+04  0.50400001928E-02 0. -1.
       -1   -1    0    0    0  501  0.00000000000E+00  0.00000000000E+00 -0.32853129319E+04  0.32853129319E+04  0.50400001928E-02 0.  1.
    10030    2    1    2    0    0  0.00000000000E+00  0.00000000000E+00 -0.21922351549E+04  0.43783907090E+04  0.37900409267E+04 0.  0.
        2    1    3    3  502    0  0.83729882141E+03 -0.47932562592E+03 -0.29803492670E+04  0.31326193713E+04  0.25500000920E-02 0.  1.
       -2    1    3    3    0  502 -0.83729882141E+03  0.47932562592E+03  0.78811411210E+03  0.12457713376E+04  0.25500000920E-02 0. -1.
</event>
<event>
 5   0  0.2287500E-07  0.3566500E+04  0.7818609E-02  0.8098209E-01
        1   -1    0    0  501    0  0.00000000000E+00  0.00000000000E+00  0.92980683323E+03  0.92980683324E+03  0.50400001928E-02 0. -1.
       -1   -1    0    0    0  501  0.00000000000E+00  0.00000000000E+00 -0.34200434716E+04  0.34200434716E+04  0.50400001928E-02 0.  1.
    10030    2    1    2    0    0  0.00000000000E+00  0.00000000000E+00 -0.24902366384E+04  0.43498503049E+04  0.35664995667E+04 0.  0.
        4    1    3    3  502    0 -0.22991097884E+03  0.64724922402E+03  0.76199320880E+03  0.10258781016E+04  0.12699999809E+01 0. -1.
       -4    1    3    3    0  502  0.22991097884E+03 -0.64724922402E+03 -0.32522298472E+04  0.33239722033E+04  0.12699999809E+01 0.  1.
</event>
<event>
 5   0  0.2411746E-07  0.3709587E+04  0.7818609E-02  0.8065840E-01
       -1   -1    0    0    0  501  0.00000000000E+00  0.00000000000E+00  0.12014791160E+04  0.12014791160E+04  0.50400001928E-02 0.  1.
        1   -1    0    0  501    0  0.00000000000E+00  0.00000000000E+00 -0.28633535491E+04  0.28633535491E+04  0.50400001928E-02 0. -1.
    10030    2    1    2    0    0  0.00000000000E+00  0.00000000000E+00 -0.16618744331E+04  0.40648326651E+04  0.37095873037E+04 0.  0.
        1    1    3    3  502    0  0.18569717274E+03 -0.44564381804E+03 -0.27932967657E+04  0.28347113916E+04  0.50400001928E-02 0. -1.
       -1    1    3    3    0  502 -0.18569717274E+03  0.44564381804E+03  0.11314223326E+04  0.12301212734E+04  0.50400001928E-02 0.  1.
</event>
<event>
 5   0  0.2287500E-07  0.3691589E+04  0.7818609E-02  0.8069828E-01
        1   -1    0    0  501    0  0.00000000000E+00  0.00000000000E+00  0.20088228079E+04  0.20088228079E+04  0.50400001928E-02 0.  1.
       -1   -1    0    0    0  501  0.00000000000E+00  0.00000000000E+00 -0.16959969591E+04  0.16959969591E+04  0.50400001928E-02 0. -1.
    10030    2    1    2    0    0  0.00000000000E+00  0.00000000000E+00  0.31282584877E+03  0.37048197670E+04  0.36915890203E+04 0.  0.
        4    1    3    3  502    0 -0.38605399944E+02 -0.85218370223E+03  0.17991203610E+04  0.19911160502E+04  0.12699999809E+01 0.  1.
       -4    1    3    3    0  502  0.38605399944E+02  0.85218370223E+03 -0.14862945122E+04  0.17137037168E+04  0.12699999809E+01 0. -1.
</event>
<event>
 5   0  0.6939921E-07  0.3720978E+04  0.7818609E-02  0.8063329E-01
       -2   -1    0    0    0  501  0.00000000000E+00  0.00000000000E+00  0.14921598328E+04  0.14921598328E+04  0.25500000920E-02 0.  1.
        2   -1    0    0  501    0  0.00000000000E+00  0.00000000000E+00 -0.23197371278E+04  0.23197371278E+04  0.25500000920E-02 0. -1.
    10030    2    1    2    0    0  0.00000000000E+00  0.00000000000E+00 -0.82757729495E+03  0.38118969606E+04  0.37209775945E+04 0.  0.
        4    1    3    3  502    0  0.78967612436E+03 -0.14764813585E+04 -0.12446745437E+04  0.20863369613E+04  0.12699999809E+01 0. -1.
       -4    1    3    3    0  502 -0.78967612436E+03  0.14764813585E+04  0.41709724871E+03  0.17255599993E+04  0.12699999809E+01 0.  1.
</event>
<event>
 5   0  0.6939921E-07  0.3710675E+04  0.7818609E-02  0.8065600E-01
       -2   -1    0    0    0  501  0.00000000000E+00  0.00000000000E+00  0.16834863477E+04  0.16834863477E+04  0.25500000920E-02 0. -1.
        2   -1    0    0  501    0  0.00000000000E+00  0.00000000000E+00 -0.20447307923E+04  0.20447307923E+04  0.25500000920E-02 0.  1.
    10030    2    1    2    0    0  0.00000000000E+00  0.00000000000E+00 -0.36124444463E+03  0.37282171400E+04  0.37106745336E+04 0.  0.
        4    1    3    3  502    0 -0.18729497728E+03  0.66910013056E+03 -0.19090750609E+04  0.20315864723E+04  0.12699999809E+01 0.  1.
       -4    1    3    3    0  502  0.18729497728E+03 -0.66910013056E+03  0.15478306163E+04  0.16966306678E+04  0.12699999809E+01 0. -1.
</event>
<event>
 5   0  0.2411746E-07  0.3740958E+04  0.7818609E-02  0.8058945E-01
       -1   -1    0    0    0  501  0.00000000000E+00  0.00000000000E+00  0.21476940242E+04  0.21476940242E+04  0.50400001928E-02 0. -1.
        1   -1    0    0  501    0  0.00000000000E+00  0.00000000000E+00 -0.16290457727E+04  0.16290457727E+04  0.50400001928E-02 0.  1.
    10030    2    1    2    0    0  0.00000000000E+00  0.00000000000E+00  0.51864825151E+03  0.37767397969E+04  0.37409580971E+04 0.  0.
        1    1    3    3  502    0  0.33964820209E+03  0.45247464036E+03  0.20592391466E+04  0.21355467834E+04  0.50400001928E-02 0. -1.
       -1    1    3    3    0  502 -0.33964820209E+03 -0.45247464036E+03 -0.15405908951E+04  0.16411930134E+04  0.50400001928E-02 0.  1.
</event>
<event>
 5   0  0.2287500E-07  0.3680750E+04  0.7818609E-02  0.8072241E-01
        1   -1    0    0  501    0  0.00000000000E+00  0.00000000000E+00  0.26086806313E+04  0.26086806313E+04  0.50400001928E-02 0.  1.
       -1   -1    0    0    0  501  0.00000000000E+00  0.00000000000E+00 -0.12983497547E+04  0.12983497547E+04  0.50400001928E-02 0. -1.
    10030    2    1    2    0    0  0.00000000000E+00  0.00000000000E+00  0.13103308765E+04  0.39070303860E+04  0.36807498463E+04 0.  0.
        4    1    3    3  502    0  0.69095397708E+03 -0.55235999674E+03  0.23682124126E+04  0.25280329524E+04  0.12699999809E+01 0.  1.
       -4    1    3    3    0  502 -0.69095397708E+03  0.55235999674E+03 -0.10578815361E+04  0.13789974335E+04  0.12699999809E+01 0. -1.
</event>
<event>
 5   0  0.6939921E-07  0.3683077E+04  0.7818609E-02  0.8071723E-01
        2   -1    0    0  501    0  0.00000000000E+00  0.00000000000E+00  0.19893836228E+04  0.19893836228E+04  0.25500000920E-02 0. -1.
       -2   -1    0    0    0  501  0.00000000000E+00  0.00000000000E+00 -0.17046804810E+04  0.17046804810E+04  0.25500000920E-02 0.  1.
    10030    2    1    2    0    0  0.00000000000E+00  0.00000000000E+00  0.28470314185E+03  0.36940641038E+04  0.36830766655E+04 0.  0.
        4    1    3    3  502    0 -0.75868592392E+03  0.10659035095E+04  0.14421757247E+04  0.19472100700E+04  0.12699999809E+01 0. -1.
       -4    1    3    3    0  502  0.75868592392E+03 -0.10659035095E+04 -0.11574725829E+04  0.17468540339E+04  0.12699999809E+01 0.  1.
</event>
<event>
 5   0  0.6939921E-07  0.3723170E+04  0.7818609E-02  0.8062846E-01
        2   -1    0    0  501    0  0.00000000000E+00  0.00000000000E+00  0.14663966874E+04  0.14663966874E+04  0.25500000920E-02 0. -1.
       -2   -1    0    0    0  501  0.00000000000E+00  0.00000000000E+00 -0.23632749371E+04  0.23632749371E+04  0.25500000920E-02 0.  1.
    10030    2    1    2    0    0  0.00000000000E+00  0.00000000000E+00 -0.89687824968E+03  0.38296716245E+04  0.37231699071E+04 0.  0.
        4    1    3    3  502    0 -0.14186511513E+04  0.11663947126E+03  0.78559600430E+03  0.16258347241E+04  0.12699999809E+01 0. -1.
       -4    1    3    3    0  502  0.14186511513E+04 -0.11663947126E+03 -0.16824742540E+04  0.22038369004E+04  0.12699999809E+01 0.  1.
</event>
<event>
 5   0  0.6949625E-07  0.3841052E+04  0.7818609E-02  0.8037402E-01
        2   -1    0    0  501    0  0.00000000000E+00  0.00000000000E+00  0.21561061705E+04  0.21561061705E+04  0.25500000920E-02 0.  1.
       -2   -1    0    0    0  501  0.00000000000E+00  0.00000000000E+00 -0.17106856441E+04  0.17106856441E+04  0.25500000920E-02 0. -1.
    10030    2    1    2    0    0  0.00000000000E+00  0.00000000000E+00  0.44542052639E+03  0.38667918145E+04  0.38410518731E+04 0.  0.
        5    1    3    3  502    0  0.16344373628E+04  0.85211117931E+03  0.76569363869E+03  0.19959428331E+04  0.46999998093E+01 0.  1.
       -5    1    3    3    0  502 -0.16344373628E+04 -0.85211117931E+03 -0.32027311229E+03  0.18708489814E+04  0.46999998093E+01 0. -1.
</event>
<event>
 5   0  0.7300916E-07  0.3706019E+04  0.7818609E-02  0.8066629E-01
       -2   -1    0    0    0  501  0.00000000000E+00  0.00000000000E+00  0.14590844644E+04  0.14590844644E+04  0.25500000920E-02 0. -1.
        2   -1    0    0  501    0  0.00000000000E+00  0.00000000000E+00 -0.23532865871E+04  0.23532865871E+04  0.25500000920E-02 0.  1.
    10030    2    1    2    0    0  0.00000000000E+00  0.00000000000E+00 -0.89420212274E+03  0.38123710516E+04  0.37060188341E+04 0.  0.
        1    1    3    3  502    0 -0.65008409512E+03  0.14178201843E+04 -0.14762201552E+04  0.21475682416E+04  0.50400001928E-02 0.  1.
       -1    1    3    3    0  502  0.65008409512E+03 -0.14178201843E+04  0.58201803246E+03  0.16648028099E+04  0.50400001928E-02 0. -1.
</event>
<event>
 5   0  0.2345471E-07  0.3706574E+04  0.7818609E-02  0.8066506E-01
       -1   -1    0    0    0  501  0.00000000000E+00  0.00000000000E+00  0.12159328863E+04  0.12159328863E+04  0.50400001928E-02 0. -1.
        1   -1    0    0  501    0  0.00000000000E+00  0.00000000000E+00 -0.28247225495E+04  0.28247225495E+04  0.50400001928E-02 0.  1.
    10030    2    1    2    0    0  0.00000000000E+00  0.00000000000E+00 -0.16087896632E+04  0.40406554358E+04  0.37065741825E+04 0.  0.
        5    1    3    3  502    0  0.37781269332E+02  0.65073089923E+02  0.12142604795E+04  0.12165987561E+04  0.46999998093E+01 0. -1.
       -5    1    3    3    0  502 -0.37781269332E+02 -0.65073089923E+02 -0.28230501427E+04  0.28240566796E+04  0.46999998093E+01 0.  1.
</event>
<event>
 5   0  0.6949625E-07  0.2927376E+04  0.7818609E-02  0.8264779E-01
       -2   -1    0    0    0  501  0.00000000000E+00  0.00000000000E+00  0.14478565637E+04  0.14478565637E+04  0.25500000920E-02 0. -1.
        2   -1    0    0  501    0  0.00000000000E+00  0.00000000000E+00 -0.14796923910E+04  0.14796923910E+04  0.25500000920E-02 0.  1.
    10030    2    1    2    0    0  0.00000000000E+00  0.00000000000E+00 -0.31835827341E+02  0.29275489547E+04  0.29273758492E+04 0.  0.
        5    1    3    3  502    0 -0.70050097257E+03  0.57681251057E+03  0.11326037264E+04  0.14512848018E+04  0.46999998093E+01 0. -1.
       -5    1    3    3    0  502  0.70050097257E+03 -0.57681251057E+03 -0.11644395537E+04  0.14762641529E+04  0.46999998093E+01 0.  1.
</event>
<event>
 5   0  0.2287500E-07  0.3703583E+04  0.7818609E-02  0.8067168E-01
       -1   -1    0    0    0  501  0.00000000000E+00  0.00000000000E+00  0.27548079140E+04  0.27548079140E+04  0.50400001928E-02 0.  1.
        1   -1    0    0  501    0  0.00000000000E+00  0.00000000000E+00 -0.12447803983E+04  0.12447803983E+04  0.50400001928E-02 0. -1.
    10030    2    1    2    0    0  0.00000000000E+00  0.00000000000E+00  0.15100275157E+04  0.39995883123E+04  0.37035825318E+04 0.  0.
        2    1    3    3  502    0 -0.57985658631E+03 -0.17495565691E+04  0.56198492149E+03  0.19269169419E+04  0.25500000920E-02 0.  1.
       -2    1    3    3    0  502  0.57985658631E+03  0.17495565691E+04  0.94804259422E+03  0.20726713704E+04  0.25500000920E-02 0. -1.
</event>
<event>
 5   0  0.6949625E-07  0.3444796E+04  0.7818609E-02  0.8126999E-01
       -2   -1    0    0    0  501  0.00000000000E+00  0.00000000000E+00  0.11410658886E+04  0.11410658886E+04  0.25500000920E-02 0.  1.
        2   -1    0    0  501    0  0.00000000000E+00  0.00000000000E+00 -0.25998980392E+04  0.25998980392E+04  0.25500000920E-02 0. -1.
    10030    2    1    2    0    0  0.00000000000E+00  0.00000000000E+00 -0.14588321505E+04  0.37409639278E+04  0.34447960558E+04 0.  0.
        5    1    3    3  502    0 -0.78089796701E+02 -0.12389732655E+04 -0.20259998598E+04  0.23760998066E+04  0.46999998093E+01 0.  1.
       -5    1    3    3    0  502  0.78089796701E+02  0.12389732655E+04  0.56716770924E+03  0.13648641212E+04  0.46999998093E+01 0. -1.
</event>
<event>
 5   0  0.2287500E-07  0.3715478E+04  0.7818609E-02  0.8064540E-01
        1   -1    0    0  501    0  0.00000000000E+00  0.00000000000E+00  0.20098299242E+04  0.20098299242E+04  0.50400001928E-02 0. -1.
       -1   -1    0    0    0  501  0.00000000000E+00  0.00000000000E+00 -0.17171569704E+04  0.17171569704E+04  0.50400001928E-02 0.  1.
    10030    2    1    2    0    0  0.00000000000E+00  0.00000000000E+00  0.29267295376E+03  0.37269868946E+04  0.37154776078E+04 0.  0.
        3    1    3    3  502    0  0.57227101659E+03 -0.16733349360E+04  0.71700078010E+03  0.19083065931E+04  0.10100000352E+00 0.  1.
       -3    1    3    3    0  502 -0.57227101659E+03  0.16733349360E+04 -0.42432782634E+03  0.18186803014E+04  0.10100000352E+00 0. -1.
</event>
<event>
 5   0  0.2287500E-07  0.3648618E+04  0.7818609E-02  0.8079445E-01
        1   -1    0    0  501    0  0.00000000000E+00  0.00000000000E+00  0.22248694222E+04  0.22248694222E+04  0.50400001928E-02 0. -1.
       -1   -1    0    0    0  501  0.00000000000E+00  0.00000000000E+00 -0.14958649522E+04  0.14958649522E+04  0.50400001928E-02 0.  1.
    10030    2    1    2    0    0  0.00000000000E+00  0.00000000000E+00  0.72900447004E+03  0.37207343744E+04  0.36486184738E+04 0.  0.
        4    1    3    3  502    0 -0.13340564687E+04 -0.12579394497E+03 -0.89793742314E+03  0.16130170511E+04  0.12699999809E+01 0.  1.
       -4    1    3    3    0  502  0.13340564687E+04  0.12579394497E+03  0.16269418932E+04  0.21077173233E+04  0.12699999809E+01 0. -1.
</event>
<event>
 5   0  0.2287500E-07  0.3862542E+04  0.7818609E-02  0.8032865E-01
        1   -1    0    0  501    0  0.00000000000E+00  0.00000000000E+00  0.23960137446E+04  0.23960137446E+04  0.50400001928E-02 0.  1.
       -1   -1    0    0    0  501  0.00000000000E+00  0.00000000000E+00 -0.15566721215E+04  0.15566721215E+04  0.50400001928E-02 0. -1.
    10030    2    1    2    0    0  0.00000000000E+00  0.00000000000E+00  0.83934162308E+03  0.39526858661E+04  0.38625420640E+04 0.  0.
        3    1    3    3  502    0 -0.15743297293E+04  0.20678736016E+03  0.15446598170E+04  0.22152311548E+04  0.10100000352E+00 0.  1.
       -3    1    3    3    0  502  0.15743297293E+04 -0.20678736016E+03 -0.70531819388E+03  0.17374547113E+04  0.10100000352E+00 0. -1.
</event>
<event>
 5   0  0.2287500E-07  0.3664517E+04  0.7818609E-02  0.8075871E-01
        1   -1    0    0  501    0  0.00000000000E+00  0.00000000000E+00  0.18383974365E+04  0.18383974365E+04  0.50400001928E-02 0.  1.
       -1   -1    0    0    0  501  0.00000000000E+00  0.00000000000E+00 -0.18261399693E+04  0.18261399693E+04  0.50400001928E-02 0. -1.
    10030    2    1    2    0    0  0.00000000000E+00  0.00000000000E+00  0.12257467179E+02  0.36645374058E+04  0.36645169058E+04 0.  0.
        3    1    3    3  502    0  0.14446528775E+04 -0.42136301323E+03  0.10514107660E+04  0.18357650542E+04  0.10100000352E+00 0.  1.
       -3    1    3    3    0  502 -0.14446528775E+04  0.42136301323E+03 -0.10391532988E+04  0.18287723516E+04  0.10100000352E+00 0. -1.
</event>
<event>
 5   0  0.7124627E-07  0.3696573E+04  0.7818609E-02  0.8068722E-01
        2   -1    0    0  501    0  0.00000000000E+00  0.00000000000E+00  0.20999866972E+04  0.20999866972E+04  0.25500000920E-02 0. -1.
       -2   -1    0    0    0  501  0.00000000000E+00  0.00000000000E+00 -0.16267542203E+04  0.16267542203E+04  0.25500000920E-02 0.  1.
    10030    2    1    2    0    0  0.00000000000E+00  0.00000000000E+00  0.47323247690E+03  0.37267409175E+04  0.36965725868E+04 0.  0.
        2    1    3    3  502    0  0.55257671765E+03 -0.80671450053E+03 -0.13446333357E+04  0.16625787565E+04  0.25500000920E-02 0.  1.
       -2    1    3    3    0  502 -0.55257671765E+03  0.80671450053E+03  0.18178658126E+04  0.20641621610E+04  0.25500000920E-02 0. -1.
</event>
<event>
 5   0  0.2345471E-07  0.3700119E+04  0.7818609E-02  0.8067936E-01
       -1   -1    0    0    0  501  0.00000000000E+00  0.00000000000E+00  0.20385385419E+04  0.20385385419E+04  0.50400001928E-02 0. -1.
        1   -1    0    0  501    0  0.00000000000E+00  0.00000000000E+00 -0.16790064373E+04  0.16790064373E+04  0.50400001928E-02 0.  1.
    10030    2    1    2    0    0  0.00000000000E+00  0.00000000000E+00  0.35953210461E+03  0.37175449792E+04  0.37001185573E+04 0.  0.
        5    1    3    3  502    0 -0.59075129248E+03  0.13598988256E+04 -0.93196478519E+03  0.17512545093E+04  0.46999998093E+01 0.  1.
       -5    1    3    3    0  502  0.59075129248E+03 -0.13598988256E+04  0.12914968898E+04  0.19662904699E+04  0.46999998093E+01 0. -1.
</event>
<event>
 5   0  0.2287500E-07  0.3493052E+04  0.7818609E-02  0.8115438E-01
       -1   -1    0    0    0  501  0.00000000000E+00  0.00000000000E+00  0.19651707147E+04  0.19651707147E+04  0.50400001928E-02 0.  1.
        1   -1    0    0  501    0  0.00000000000E+00  0.00000000000E+00 -0.15522080121E+04  0.15522080121E+04  0.50400001928E-02 0. -1.
    10030    2    1    2    0    0  0.00000000000E+00  0.00000000000E+00  0.41296270261E+03  0.35173787268E+04  0.34930523778E+04 0.  0.
        2    1    3    3  502    0 -0.81199157882E+03  0.14851766895E+04 -0.22695048829E+03  0.17078017002E+04  0.25500000920E-02 0. -1.
       -2    1    3    3    0  502  0.81199157882E+03 -0.14851766895E+04  0.63991319090E+03  0.18095770266E+04  0.25500000920E-02 0.  1.
</event>
<event>
 5   0  0.2287500E-07  0.3688139E+04  0.7818609E-02  0.8070595E-01
       -1   -1    0    0    0  501  0.00000000000E+00  0.00000000000E+00  0.16672417638E+04  0.16672417638E+04  0.50400001928E-02 0. -1.
        1   -1    0    0  501    0  0.00000000000E+00  0.00000000000E+00 -0.20396516165E+04  0.20396516165E+04  0.50400001928E-02 0.  1.
    10030    2    1    2    0    0  0.00000000000E+00  0.00000000000E+00 -0.37240985266E+03  0.37068933803E+04  0.36881390205E+04 0.  0.
        3    1    3    3  502    0  0.71339423628E+02  0.14758273819E+04 -0.12951907234E+04  0.19648599937E+04  0.10100000352E+00 0.  1.
       -3    1    3    3    0  502 -0.71339423628E+02 -0.14758273819E+04  0.92278087072E+03  0.17420333866E+04  0.10100000352E+00 0. -1.
</event>
<event>
 5   0  0.7300916E-07  0.3721633E+04  0.7818609E-02  0.8063184E-01
        2   -1    0    0  501    0  0.00000000000E+00  0.00000000000E+00  0.23424660121E+04  0.23424660121E+04  0.25500000920E-02 0. -1.
       -2   -1    0    0    0  501  0.00000000000E+00  0.00000000000E+00 -0.14782023350E+04  0.14782023351E+04  0.25500000920E-02 0.  1.
    10030    2    1    2    0    0  0.00000000000E+00  0.00000000000E+00  0.86426367705E+03  0.38206683472E+04  0.37216333666E+04 0.  0.
        1    1    3    3  502    0 -0.12018005797E+04  0.87664705368E+03 -0.71556375853E+03  0.16507168693E+04  0.50400001928E-02 0.  1.
       -1    1    3    3    0  502  0.12018005797E+04 -0.87664705368E+03  0.15798274356E+04  0.21699514779E+04  0.50400001928E-02 0. -1.
</event>
<event>
 5   0  0.7124627E-07  0.3633498E+04  0.7818609E-02  0.8082861E-01
       -2   -1    0    0    0  501  0.00000000000E+00  0.00000000000E+00  0.22849626805E+04  0.22849626805E+04  0.25500000920E-02 0.  1.
        2   -1    0    0  501    0  0.00000000000E+00  0.00000000000E+00 -0.14444776519E+04  0.14444776519E+04  0.25500000920E-02 0. -1.
    10030    2    1    2    0    0  0.00000000000E+00  0.00000000000E+00  0.84048502858E+03  0.37294403325E+04  0.36334983295E+04 0.  0.
        2    1    3    3  502    0 -0.37737016672E+03  0.16003222078E+04  0.12133939144E+04  0.20434686694E+04  0.25500000920E-02 0.  1.
       -2    1    3    3    0  502  0.37737016672E+03 -0.16003222078E+04 -0.37290888579E+03  0.16859716630E+04  0.25500000920E-02 0. -1.
</event>
<event>
 5   0  0.2287500E-07  0.3670970E+04  0.7818609E-02  0.8074426E-01
       -1   -1    0    0    0  501  0.00000000000E+00  0.00000000000E+00  0.13414575951E+04  0.13414575951E+04  0.50400001928E-02 0.  1.
        1   -1    0    0  501    0  0.00000000000E+00  0.00000000000E+00 -0.25114508029E+04  0.25114508030E+04  0.50400001928E-02 0. -1.
    10030    2    1    2    0    0  0.00000000000E+00  0.00000000000E+00 -0.11699932079E+04  0.38529083980E+04  0.36709697652E+04 0.  0.
        3    1    3    3  502    0 -0.18407106904E+03  0.34991482941E+03  0.12962328063E+04  0.13551907780E+04  0.10100000352E+00 0.  1.
       -3    1    3    3    0  502  0.18407106904E+03 -0.34991482941E+03 -0.24662260142E+04  0.24977176201E+04  0.10100000352E+00 0. -1.
</event>
<event>
 5   0  0.7300916E-07  0.3540346E+04  0.7818609E-02  0.8104294E-01
        2   -1    0    0  501    0  0.00000000000E+00  0.00000000000E+00  0.18545190878E+04  0.18545190878E+04  0.25500000920E-02 0.  1.
       -2   -1    0    0    0  501  0.00000000000E+00  0.00000000000E+00 -0.16896635463E+04  0.16896635463E+04  0.25500000920E-02 0. -1.
    10030    2    1    2    0    0  0.00000000000E+00  0.00000000000E+00  0.16485554144E+03  0.35441826341E+04  0.35403464794E+04 0.  0.
        1    1    3    3  502    0  0.14594115733E+04  0.72977228797E+03  0.76951216451E+03  0.18040506378E+04  0.50400001928E-02 0.  1.
       -1    1    3    3    0  502 -0.14594115733E+04 -0.72977228797E+03 -0.60465662307E+03  0.17401319963E+04  0.50400001928E-02 0. -1.
</event>
<event>
 5   0  0.2411746E-07  0.3767191E+04  0.7818609E-02  0.8053232E-01
       -1   -1    0    0    0  501  0.00000000000E+00  0.00000000000E+00  0.28474086168E+04  0.28474086168E+04  0.50400001928E-02 0. -1.
        1   -1    0    0  501    0  0.00000000000E+00  0.00000000000E+00 -0.12460216952E+04  0.12460216952E+04  0.50400001928E-02 0.  1.
    10030    2    1    2    0    0  0.00000000000E+00  0.00000000000E+00  0.16013869216E+04  0.40934303120E+04  0.37671914799E+04 0.  0.
        1    1    3    3  502    0 -0.64984921349E+03 -0.17679171754E+04  0.78994917473E+03  0.20425118942E+04  0.50400001928E-02 0. -1.
       -1    1    3    3    0  502  0.64984921349E+03  0.17679171754E+04  0.81143774691E+03  0.20509184178E+04  0.50400001928E-02 0.  1.
</event>
<event>
 5   0  0.2287500E-07  0.3331160E+04  0.7818609E-02  0.8155012E-01
       -1   -1    0    0    0  501  0.00000000000E+00  0.00000000000E+00  0.14151629840E+04  0.14151629840E+04  0.50400001928E-02 0. -1.
        1   -1    0    0  501    0  0.00000000000E+00  0.00000000000E+00 -0.19603095556E+04  0.19603095556E+04  0.50400001928E-02 0.  1.
    10030    2    1    2    0    0  0.00000000000E+00  0.00000000000E+00 -0.54514657156E+03  0.33754725396E+04  0.33311604706E+04 0.  0.
        3    1    3    3  502    0  0.13772324724E+04 -0.62087081771E+03 -0.98326428516E+03  0.18025144993E+04  0.10100000352E+00 0.  1.
       -3    1    3    3    0  502 -0.13772324724E+04  0.62087081771E+03  0.43811771360E+03  0.15729580403E+04  0.10100000352E+00 0. -1.
</event>
<event>
 5   0  0.6939921E-07  0.3411232E+04  0.7818609E-02  0.8135155E-01
       -2   -1    0    0    0  501  0.00000000000E+00  0.00000000000E+00  0.19756512734E+04  0.19756512734E+04  0.25500000920E-02 0. -1.
        2   -1    0    0  501    0  0.00000000000E+00  0.00000000000E+00 -0.14724899158E+04  0.14724899158E+04  0.25500000920E-02 0.  1.
    10030    2    1    2    0    0  0.00000000000E+00  0.00000000000E+00  0.50316135766E+03  0.34481411892E+04  0.34112323739E+04 0.  0.
        4    1    3    3  502    0  0.11670081831E+04 -0.42891762811E+03 -0.92863379566E+03  0.15518507565E+04  0.12699999809E+01 0.  1.
       -4    1    3    3    0  502 -0.11670081831E+04  0.42891762811E+03  0.14317951533E+04  0.18962904327E+04  0.12699999809E+01 0. -1.
</event>
<event>
 5   0  0.6949625E-07  0.3710495E+04  0.7818609E-02  0.8065640E-01
       -2   -1    0    0    0  501  0.00000000000E+00  0.00000000000E+00  0.18223030205E+04  0.18223030205E+04  0.25500000920E-02 0.  1.
        2   -1    0    0  501    0  0.00000000000E+00  0.00000000000E+00 -0.18887874510E+04  0.18887874510E+04  0.25500000920E-02 0. -1.
    10030    2    1    2    0    0  0.00000000000E+00  0.00000000000E+00 -0.66484430473E+02  0.37110904715E+04  0.37104948873E+04 0.  0.
        5    1    3    3  502    0  0.97250679592E+03  0.11337180333E+04 -0.11337982937E+04  0.18752617705E+04  0.46999998093E+01 0. -1.
       -5    1    3    3    0  502 -0.97250679592E+03 -0.11337180333E+04  0.10673138632E+04  0.18358287011E+04  0.46999998093E+01 0.  1.
</event>
<event>
 5   0  0.7300916E-07  0.3639551E+04  0.7818609E-02  0.8081492E-01
        2   -1    0    0  501    0  0.00000000000E+00  0.00000000000E+00  0.16396043567E+04  0.16396043567E+04  0.25500000920E-02 0.  1.
       -2   -1    0    0    0  501  0.00000000000E+00  0.00000000000E+00 -0.20197452428E+04  0.20197452428E+04  0.25500000920E-02 0. -1.
    10030    2    1    2    0    0  0.00000000000E+00  0.00000000000E+00 -0.38014088606E+03  0.36593495995E+04  0.36395511260E+04 0.  0.
        1    1    3    3  502    0 -0.10873053620E+04  0.14495337277E+04 -0.21222036119E+02  0.18121344743E+04  0.50400001928E-02 0. -1.
       -1    1    3    3    0  502  0.10873053620E+04 -0.14495337277E+04 -0.35891884994E+03  0.18472151252E+04  0.50400001928E-02 0.  1.
</event>
<event>
 5   0  0.6949625E-07  0.3794917E+04  0.7818609E-02  0.8047247E-01
       -2   -1    0    0    0  501  0.00000000000E+00  0.00000000000E+00  0.14264358295E+04  0.14264358295E+04  0.25500000920E-02 0.  1.
        2   -1    0    0  501    0  0.00000000000E+00  0.00000000000E+00 -0.25240168246E+04  0.25240168246E+04  0.25500000920E-02 0. -1.
    10030    2    1    2    0    0  0.00000000000E+00  0.00000000000E+00 -0.10975809951E+04  0.39504526541E+04  0.37949166172E+04 0.  0.
        5    1    3    3  502    0  0.93615150312E+03 -0.16165550191E+04 -0.20244389393E+03  0.18789985063E+04  0.46999998093E+01 0.  1.
       -5    1    3    3    0  502 -0.93615150312E+03  0.16165550191E+04 -0.89513710117E+03  0.20714541478E+04  0.46999998093E+01 0. -1.
</event>
<event>
 5   0  0.6939921E-07  0.3725473E+04  0.7818609E-02  0.8062340E-01
       -2   -1    0    0    0  501  0.00000000000E+00  0.00000000000E+00  0.22143403527E+04  0.22143403527E+04  0.25500000920E-02 0.  1.
        2   -1    0    0  501    0  0.00000000000E+00  0.00000000000E+00 -0.15669620614E+04  0.15669620614E+04  0.25500000920E-02 0. -1.
    10030    2    1    2    0    0  0.00000000000E+00  0.00000000000E+00  0.64737829128E+03  0.37813024141E+04  0.37254730297E+04 0.  0.
        4    1    3    3  502    0  0.12723451054E+04 -0.14570697321E+03 -0.10492431338E+04  0.16555981868E+04  0.12699999809E+01 0. -1.
       -4    1    3    3    0  502 -0.12723451054E+04  0.14570697321E+03  0.16966214251E+04  0.21257042274E+04  0.12699999809E+01 0.  1.
</event>
<event>
 5   0  0.2287500E-07  0.3676803E+04  0.7818609E-02  0.8073122E-01
        1   -1    0    0  501    0  0.00000000000E+00  0.00000000000E+00  0.20485357874E+04  0.20485357874E+04  0.50400001928E-02 0. -1.
       -1   -1    0    0    0  501  0.00000000000E+00  0.00000000000E+00 -0.16498224382E+04  0.16498224382E+04  0.50400001928E-02 0.  1.
    10030    2    1    2    0    0  0.00000000000E+00  0.00000000000E+00  0.39871334924E+03  0.36983582256E+04  0.36768031263E+04 0.  0.
        3    1    3    3  502    0 -0.10042369759E+04 -0.11728976434E+04 -0.80425995602E+03  0.17409810087E+04  0.10100000352E+00 0.  1.
       -3    1    3    3    0  502  0.10042369759E+04  0.11728976434E+04  0.12029733053E+04  0.19573772168E+04  0.10100000352E+00 0. -1.
</event>
<event>
 5   0  0.2287500E-07  0.3163801E+04  0.7818609E-02  0.8198443E-01
        1   -1    0    0  501    0  0.00000000000E+00  0.00000000000E+00  0.18848879027E+04  0.18848879027E+04  0.50400001928E-02 0.  1.
       -1   -1    0    0    0  501  0.00000000000E+00  0.00000000000E+00 -0.13276171110E+04  0.13276171110E+04  0.50400001928E-02 0. -1.
    10030    2    1    2    0    0  0.00000000000E+00  0.00000000000E+00  0.55727079172E+03  0.32125050137E+04  0.31638011518E+04 0.  0.
        3    1    3    3  502    0  0.84319776740E+03  0.59949805583E+02 -0.10790467443E+04  0.13707364227E+04  0.10100000352E+00 0. -1.
       -3    1    3    3    0  502 -0.84319776740E+03 -0.59949805583E+02  0.16363175360E+04  0.18417685910E+04  0.10100000352E+00 0.  1.
</event>
<event>
 5   0  0.7074157E-07  0.3696194E+04  0.7818609E-02  0.8068806E-01
       -2   -1    0    0    0  501  0.00000000000E+00  0.00000000000E+00  0.12057899590E+04  0.12057899591E+04  0.25500000920E-02 0.  1.
        2   -1    0    0  501    0  0.00000000000E+00  0.00000000000E+00 -0.28325522429E+04  0.28325522429E+04  0.25500000920E-02 0. -1.
    10030    2    1    2    0    0  0.00000000000E+00  0.00000000000E+00 -0.16267622838E+04  0.40383422019E+04  0.36961942876E+04 0.  0.
        3    1    3    3  502    0 -0.12671674225E+04 -0.78899004783E+03  0.37708871605E+03  0.15396150435E+04  0.10100000352E+00 0.  1.
       -3    1    3    3    0  502  0.12671674225E+04  0.78899004783E+03 -0.20038509999E+04  0.24987271584E+04  0.10100000352E+00 0. -1.
</event>
<event>
 5   0  0.6939921E-07  0.3686356E+04  0.7818609E-02  0.8070992E-01
       -2   -1    0    0    0  501  0.00000000000E+00  0.00000000000E+00  0.15628685947E+04  0.15628685947E+04  0.25500000920E-02 0.  1.
        2   -1    0    0  501    0  0.00000000000E+00  0.00000000000E+00 -0.21737622326E+04  0.21737622326E+04  0.25500000920E-02 0. -1.
    10030    2    1    2    0    0  0.00000000000E+00  0.00000000000E+00 -0.61089363798E+03  0.37366308273E+04  0.36863557754E+04 0.  0.
        4    1    3    3  502    0 -0.75908648217E+03 -0.18840319045E+03 -0.19972192256E+04  0.21448996008E+04  0.12699999809E+01 0. -1.
       -4    1    3    3    0  502  0.75908648217E+03  0.18840319045E+03  0.13863255876E+04  0.15917312265E+04  0.12699999809E+01 0.  1.
</event>
<event>
 5   0  0.2287500E-07  0.3682715E+04  0.7818609E-02  0.8071803E-01
       -1   -1    0    0    0  501  0.00000000000E+00  0.00000000000E+00  0.29403541139E+04  0.29403541139E+04  0.50400001928E-02 0. -1.
        1   -1    0    0  501    0  0.00000000000E+00  0.00000000000E+00 -0.11531254249E+04  0.11531254249E+04  0.50400001928E-02 0.  1.
    10030    2    1    2    0    0  0.00000000000E+00  0.00000000000E+00  0.17872286890E+04  0.40934795387E+04  0.36827148067E+04 0.  0.
        2    1    3    3  502    0  0.84912959265E+03  0.66229109847E+03 -0.76661893855E+03  0.13218756224E+04  0.25500000920E-02 0.  1.
       -2    1    3    3    0  502 -0.84912959265E+03 -0.66229109847E+03  0.25538476275E+04  0.27716039163E+04  0.25500000920E-02 0. -1.
</event>
<event>
 5   0  0.2411746E-07  0.3657389E+04  0.7818609E-02  0.8077471E-01
       -1   -1    0    0    0  501  0.00000000000E+00  0.00000000000E+00  0.28477281676E+04  0.28477281676E+04  0.50400001928E-02 0.  1.
        1   -1    0    0  501    0  0.00000000000E+00  0.00000000000E+00 -0.11743130898E+04  0.11743130899E+04  0.50400001928E-02 0. -1.
    10030    2    1    2    0    0  0.00000000000E+00  0.00000000000E+00  0.16734150777E+04  0.40220412574E+04  0.36573894862E+04 0.  0.
        1    1    3    3  502    0  0.96787842312E+03  0.15497064747E+04  0.92006517914E+03  0.20457025037E+04  0.50400001928E-02 0. -1.
       -1    1    3    3    0  502 -0.96787842312E+03 -0.15497064747E+04  0.75334989857E+03  0.19763387537E+04  0.50400001928E-02 0.  1.
</event>
<event>
 5   0  0.2287500E-07  0.3738803E+04  0.7818609E-02  0.8059417E-01
       -1   -1    0    0    0  501  0.00000000000E+00  0.00000000000E+00  0.15677648194E+04  0.15677648194E+04  0.50400001928E-02 0.  1.
        1   -1    0    0  501    0  0.00000000000E+00  0.00000000000E+00 -0.22290725157E+04  0.22290725157E+04  0.50400001928E-02 0. -1.
    10030    2    1    2    0    0  0.00000000000E+00  0.00000000000E+00 -0.66130769624E+03  0.37968373351E+04  0.37388027335E+04 0.  0.
        2    1    3    3  502    0 -0.75604563177E+03  0.16625235069E+04  0.74375408208E+02  0.18278733845E+04  0.25500000920E-02 0.  1.
       -2    1    3    3    0  502  0.75604563177E+03 -0.16625235069E+04 -0.73568310445E+03  0.19689639506E+04  0.25500000920E-02 0. -1.
</event>
<event>
 5   0  0.6939921E-07  0.3680627E+04  0.7818609E-02  0.8072269E-01
       -2   -1    0    0    0  501  0.00000000000E+00  0.00000000000E+00  0.15075802707E+04  0.15075802707E+04  0.25500000920E-02 0. -1.
        2   -1    0    0  501    0  0.00000000000E+00  0.00000000000E+00 -0.22464832584E+04  0.22464832584E+04  0.25500000920E-02 0.  1.
    10030    2    1    2    0    0  0.00000000000E+00  0.00000000000E+00 -0.73890298777E+03  0.37540635291E+04  0.36806270329E+04 0.  0.
        4    1    3    3  502    0  0.16333915568E+04 -0.20765698018E+03 -0.12078390413E+04  0.20420495004E+04  0.12699999809E+01 0.  1.
       -4    1    3    3    0  502 -0.16333915568E+04  0.20765698018E+03  0.46893605355E+03  0.17120140287E+04  0.12699999809E+01 0. -1.
</event>
<event>
 5   0  0.6939921E-07  0.3679138E+04  0.7818609E-02  0.8072601E-01
        2   -1    0    0  501    0  0.00000000000E+00  0.00000000000E+00  0.20973388268E+04  0.20973388268E+04  0.25500000920E-02 0.  1.
       -2   -1    0    0    0  501  0.00000000000E+00  0.00000000000E+00 -0.16134795324E+04  0.16134795324E+04  0.25500000920E-02 0. -1.
    10030    2    1    2    0    0  0.00000000000E+00  0.00000000000E+00  0.48385929445E+03  0.37108183592E+04  0.36791375455E+04 0.  0.
        4    1    3    3  502    0  0.10552793162E+04  0.24193661838E+03  0.17419697573E+04  0.20510017091E+04  0.12699999809E+01 0.  1.
       -4    1    3    3    0  502 -0.10552793162E+04 -0.24193661838E+03 -0.12581104628E+04  0.16598166501E+04  0.12699999809E+01 0. -1.
</event>
<event>
 5   0  0.6949625E-07  0.3713627E+04  0.7818609E-02  0.8064949E-01
       -2   -1    0    0    0  501  0.00000000000E+00  0.00000000000E+00  0.29304592217E+04  0.29304592217E+04  0.25500000920E-02 0. -1.
        2   -1    0    0  501    0  0.00000000000E+00  0.00000000000E+00 -0.11765241027E+04  0.11765241027E+04  0.25500000920E-02 0.  1.
    10030    2    1    2    0    0  0.00000000000E+00  0.00000000000E+00  0.17539351190E+04  0.41069833243E+04  0.37136267482E+04 0.  0.
        5    1    3    3  502    0  0.92226699518E+03  0.55647533848E+03  0.25496154899E+04  0.27678154651E+04  0.46999998093E+01 0. -1.
       -5    1    3    3    0  502 -0.92226699518E+03 -0.55647533848E+03 -0.79568037081E+03  0.13391678592E+04  0.46999998093E+01 0.  1.
</event>
<event>
 5   0  0.2287500E-07  0.3728023E+04  0.7818609E-02  0.8061780E-01
        1   -1    0    0  501    0  0.00000000000E+00  0.00000000000E+00  0.30737411646E+04  0.30737411646E+04  0.50400001928E-02 0.  1.
       -1   -1    0    0    0  501  0.00000000000E+00  0.00000000000E+00 -0.11303940648E+04  0.11303940648E+04  0.50400001928E-02 0. -1.
    10030    2    1    2    0    0  0.00000000000E+00  0.00000000000E+00  0.19433470998E+04  0.42041352294E+04  0.37280229447E+04 0.  0.
        3    1    3    3  502    0 -0.69661242003E+03  0.14323265223E+04 -0.12035129622E+03  0.15972828725E+04  0.10100000352E+00 0.  1.
       -3    1    3    3    0  502  0.69661242003E+03 -0.14323265223E+04  0.20636983961E+04  0.26068523568E+04  0.10100000352E+00 0. -1.
</event>
<event>
 5   0  0.2287500E-07  0.3704988E+04  0.7818609E-02  0.8066857E-01
        1   -1    0    0  501    0  0.00000000000E+00  0.00000000000E+00  0.22715512632E+04  0.22715512632E+04  0.50400001928E-02 0.  1.
       -1   -1    0    0    0  501  0.00000000000E+00  0.00000000000E+00 -0.15107446838E+04  0.15107446838E+04  0.50400001928E-02 0. -1.
    10030    2    1    2    0    0  0.00000000000E+00  0.00000000000E+00  0.76080657944E+03  0.37822959470E+04  0.37049879864E+04 0.  0.
        2    1    3    3  502    0 -0.80501041975E+03 -0.30674661185E+03  0.20546229949E+04  0.22279162711E+04  0.25500000920E-02 0.  1.
       -2    1    3    3    0  502  0.80501041975E+03  0.30674661185E+03 -0.12938164155E+04  0.15543796759E+04  0.25500000920E-02 0. -1.
</event>
<event>
 5   0  0.7300916E-07  0.3652297E+04  0.7818609E-02  0.8078616E-01
        2   -1    0    0  501    0  0.00000000000E+00  0.00000000000E+00  0.21011025765E+04  0.21011025765E+04  0.25500000920E-02 0. -1.
       -2   -1    0    0    0  501  0.00000000000E+00  0.00000000000E+00 -0.15871757627E+04  0.15871757627E+04  0.25500000920E-02 0.  1.
    10030    2    1    2    0    0  0.00000000000E+00  0.00000000000E+00  0.51392681376E+03  0.36882783392E+04  0.36522974054E+04 0.  0.
        1    1    3    3  502    0  0.12668872833E+04 -0.48195510510E+03  0.14927572864E+04  0.20163353957E+04  0.50400001928E-02 0. -1.
       -1    1    3    3    0  502 -0.12668872833E+04  0.48195510510E+03 -0.97883047265E+03  0.16719429435E+04  0.50400001928E-02 0.  1.
</event>
<event>
 5   0  0.2287500E-07  0.3694546E+04  0.7818609E-02  0.8069172E-01
       -1   -1    0    0    0  501  0.00000000000E+00  0.00000000000E+00  0.13451103039E+04  0.13451103039E+04  0.50400001928E-02 0.  1.
        1   -1    0    0  501    0  0.00000000000E+00  0.00000000000E+00 -0.25369050090E+04  0.25369050090E+04  0.50400001928E-02 0. -1.
    10030    2    1    2    0    0  0.00000000000E+00  0.00000000000E+00 -0.11917947051E+04  0.38820153129E+04  0.36945457462E+04 0.  0.
        4    1    3    3  502    0  0.57535524254E+03  0.56510459738E+03  0.11503713365E+04  0.14048959698E+04  0.12699999809E+01 0.  1.
       -4    1    3    3    0  502 -0.57535524254E+03 -0.56510459738E+03 -0.23421660416E+04  0.24771193431E+04  0.12699999809E+01 0. -1.
</event>
<event>
 5   0  0.6939921E-07  0.3764230E+04  0.7818609E-02  0.8053875E-01
       -2   -1    0    0    0  501  0.00000000000E+00  0.00000000000E+00  0.16475965979E+04  0.16475965979E+04  0.25500000920E-02 0.  1.
        2   -1    0    0  501    0  0.00000000000E+00  0.00000000000E+00 -0.21500143983E+04  0.21500143983E+04  0.25500000920E-02 0. -1.
    10030    2    1    2    0    0  0.00000000000E+00  0.00000000000E+00 -0.50241780044E+03  0.37976109961E+04  0.37642297528E+04 0.  0.
        4    1    3    3  502    0  0.83873675804E+02  0.18206487087E+04  0.22259216991E+03  0.18361223818E+04  0.12699999809E+01 0.  1.
       -4    1    3    3    0  502 -0.83873675804E+02 -0.18206487087E+04 -0.72500997035E+03  0.19614886143E+04  0.12699999809E+01 0. -1.
</event>
<event>
 5   0  0.7124627E-07  0.3661502E+04  0.7818609E-02  0.8076547E-01
        2   -1    0    0  501    0  0.00000000000E+00  0.00000000000E+00  0.23981178474E+04  0.23981178474E+04  0.25500000920E-02 0. -1.
       -2   -1    0    0    0  501  0.00000000000E+00  0.00000000000E+00 -0.13976164632E+04  0.13976164632E+04  0.25500000920E-02 0.  1.
    10030    2    1    2    0    0  0.00000000000E+00  0.00000000000E+00  0.10005013841E+04  0.37957343106E+04  0.36615018691E+04 0.  0.
        2    1    3    3  502    0 -0.18108501470E+04  0.23576772411E+03  0.36554740260E+03  0.18623612909E+04  0.25500000920E-02 0.  1.
       -2    1    3    3    0  502  0.18108501470E+04 -0.23576772411E+03  0.63495398154E+03  0.19333730197E+04  0.25500000920E-02 0. -1.
</event>
<event>
 5   0  0.2287500E-07  0.3397310E+04  0.7818609E-02  0.8138567E-01
        1   -1    0    0  501    0  0.00000000000E+00  0.00000000000E+00  0.28843816977E+04  0.28843816977E+04  0.50400001928E-02 0.  1.
       -1   -1    0    0    0  501  0.00000000000E+00  0.00000000000E+00 -0.10003628262E+04  0.10003628262E+04  0.50400001928E-02 0. -1.
    10030    2    1    2    0    0  0.00000000000E+00  0.00000000000E+00  0.18840188715E+04  0.38847445239E+04  0.33973096573E+04 0.  0.
        4    1    3    3  502    0 -0.56585688684E+03  0.15344807911E+04  0.41725290449E+03  0.16878764510E+04  0.12699999809E+01 0. -1.
       -4    1    3    3    0  502  0.56585688684E+03 -0.15344807911E+04  0.14667659671E+04  0.21968680729E+04  0.12699999809E+01 0.  1.
</event>
<event>
 5   0  0.6939921E-07  0.3667472E+04  0.7818609E-02  0.8075209E-01
        2   -1    0    0  501    0  0.00000000000E+00  0.00000000000E+00  0.18728139456E+04  0.18728139456E+04  0.25500000920E-02 0.  1.
       -2   -1    0    0    0  501  0.00000000000E+00  0.00000000000E+00 -0.17954732035E+04  0.17954732035E+04  0.25500000920E-02 0. -1.
    10030    2    1    2    0    0  0.00000000000E+00  0.00000000000E+00  0.77340742191E+02  0.36682871491E+04  0.36674717474E+04 0.  0.
        4    1    3    3  502    0  0.42182887767E+02 -0.88142023431E+03  0.16464805965E+04  0.18680420212E+04  0.12699999809E+01 0.  1.
       -4    1    3    3    0  502 -0.42182887767E+02  0.88142023431E+03 -0.15691398543E+04  0.18002451279E+04  0.12699999809E+01 0. -1.
</event>
<event>
 5   0  0.2287500E-07  0.3697225E+04  0.7818609E-02  0.8068577E-01
        1   -1    0    0  501    0  0.00000000000E+00  0.00000000000E+00  0.23793097084E+04  0.23793097084E+04  0.50400001928E-02 0.  1.
       -1   -1    0    0    0  501  0.00000000000E+00  0.00000000000E+00 -0.14362854299E+04  0.14362854299E+04  0.50400001928E-02 0. -1.
    10030    2    1    2    0    0  0.00000000000E+00  0.00000000000E+00  0.94302427845E+03  0.38155951383E+04  0.36972248336E+04 0.  0.
        3    1    3    3  502    0  0.12697979695E+04  0.95964218164E+03  0.14418639614E+04  0.21476200068E+04  0.10100000352E+00 0.  1.
       -3    1    3    3    0  502 -0.12697979695E+04 -0.95964218164E+03 -0.49883968296E+03  0.16679751316E+04  0.10100000352E+00 0. -1.
</event>
<event>
 5   0  0.6949625E-07  0.3694331E+04  0.7818609E-02  0.8069219E-01
        2   -1    0    0  501    0  0.00000000000E+00  0.00000000000E+00  0.18587100231E+04  0.18587100231E+04  0.25500000920E-02 0. -1.
       -2   -1    0    0    0  501  0.00000000000E+00  0.00000000000E+00 -0.18356929104E+04  0.18356929104E+04  0.25500000920E-02 0.  1.
    10030    2    1    2    0    0  0.00000000000E+00  0.00000000000E+00  0.23017112675E+02  0.36944029334E+04  0.36943312314E+04 0.  0.
        5    1    3    3  502    0  0.15909261061E+04 -0.87184672669E+02 -0.92304244870E+03  0.18413789654E+04  0.46999998093E+01 0.  1.
       -5    1    3    3    0  502 -0.15909261061E+04  0.87184672669E+02  0.94605956138E+03  0.18530239680E+04  0.46999998093E+01 0. -1.
</event>
<event>
 5   0  0.6949625E-07  0.3687306E+04  0.7818609E-02  0.8070781E-01
       -2   -1    0    0    0  501  0.00000000000E+00  0.00000000000E+00  0.20466677350E+04  0.20466677350E+04  0.25500000920E-02 0.  1.
        2   -1    0    0  501    0  0.00000000000E+00  0.00000000000E+00 -0.16607755054E+04  0.16607755054E+04  0.25500000920E-02 0. -1.
    10030    2    1    2    0    0  0.00000000000E+00  0.00000000000E+00  0.38589222955E+03  0.37074432404E+04  0.36873055973E+04 0.  0.
        5    1    3    3  502    0 -0.65523155072E+01  0.59611024318E+03  0.19470780199E+04  0.20363018589E+04  0.46999998093E+01 0.  1.
       -5    1    3    3    0  502  0.65523155072E+01 -0.59611024318E+03 -0.15611857904E+04  0.16711413815E+04  0.46999998093E+01 0. -1.
</event>
<event>
 5   0  0.7300916E-07  0.3669491E+04  0.7818609E-02  0.8074757E-01
       -2   -1    0    0    0  501  0.00000000000E+00  0.00000000000E+00  0.22871204896E+04  0.22871204896E+04  0.25500000920E-02 0. -1.
        2   -1    0    0  501    0  0.00000000000E+00  0.00000000000E+00 -0.14718467766E+04  0.14718467766E+04  0.25500000920E-02 0.  1.
    10030    2    1    2    0    0  0.00000000000E+00  0.00000000000E+00  0.81527371300E+03  0.37589672663E+04  0.36694909295E+04 0.  0.
        1    1    3    3  502    0  0.83551887340E+03  0.16078401814E+04  0.11242747977E+03  0.18154563545E+04  0.50400001928E-02 0.  1.
       -1    1    3    3    0  502 -0.83551887340E+03 -0.16078401814E+04  0.70284623324E+03  0.19435109118E+04  0.50400001928E-02 0. -1.
</event>
<event>
 5   0  0.2287500E-07  0.3725596E+04  0.7818609E-02  0.8062313E-01
       -1   -1    0    0    0  501  0.00000000000E+00  0.00000000000E+00  0.18269818511E+04  0.18269818511E+04  0.50400001928E-02 0.  1.
        1   -1    0    0  501    0  0.00000000000E+00  0.00000000000E+00 -0.18993158554E+04  0.18993158554E+04  0.50400001928E-02 0. -1.
    10030    2    1    2    0    0  0.00000000000E+00  0.00000000000E+00 -0.72334004294E+02  0.37262977064E+04  0.37255955750E+04 0.  0.
        2    1    3    3  502    0 -0.22788937132E+03  0.13344355681E+04 -0.13160033059E+04  0.18879927310E+04  0.25500000920E-02 0. -1.
       -2    1    3    3    0  502  0.22788937132E+03 -0.13344355681E+04  0.12436693016E+04  0.18383049755E+04  0.25500000920E-02 0.  1.
</event>
<event>
 5   0  0.2287500E-07  0.3703460E+04  0.7818609E-02  0.8067195E-01
        1   -1    0    0  501    0  0.00000000000E+00  0.00000000000E+00  0.24675680061E+04  0.24675680061E+04  0.50400001928E-02 0. -1.
       -1   -1    0    0    0  501  0.00000000000E+00  0.00000000000E+00 -0.13895886875E+04  0.13895886876E+04  0.50400001928E-02 0.  1.
    10030    2    1    2    0    0  0.00000000000E+00  0.00000000000E+00  0.10779793186E+04  0.38571566937E+04  0.37034603209E+04 0.  0.
        3    1    3    3  502    0 -0.25317959558E+03  0.18540285462E+03  0.24396730100E+04  0.24597720488E+04  0.10100000352E+00 0. -1.
       -3    1    3    3    0  502  0.25317959558E+03 -0.18540285462E+03 -0.13616936915E+04  0.13973846449E+04  0.10100000352E+00 0.  1.
</event>
<event>
 5   0  0.2287500E-07  0.3099363E+04  0.7818609E-02  0.8215913E-01
       -1   -1    0    0    0  501  0.00000000000E+00  0.00000000000E+00  0.18029062095E+04  0.18029062095E+04  0.50400001928E-02 0.  1.
        1   -1    0    0  501    0  0.00000000000E+00  0.00000000000E+00 -0.13320227807E+04  0.13320227807E+04  0.50400001928E-02 0. -1.
    10030    2    1    2    0    0  0.00000000000E+00  0.00000000000E+00  0.47088342879E+03  0.31349289902E+04  0.30993626071E+04 0.  0.
        3    1    3    3  502    0  0.25665226194E+03 -0.11124799036E+04 -0.82445235964E+03  0.14082626257E+04  0.10100000352E+00 0. -1.
       -3    1    3    3    0  502 -0.25665226194E+03  0.11124799036E+04  0.12953357884E+04  0.17266663645E+04  0.10100000352E+00 0.  1.
</event>
<event>
 5   0  0.6939921E-07  0.3686860E+04  0.7818609E-02  0.8070880E-01
       -2   -1    0    0    0  501  0.00000000000E+00  0.00000000000E+00  0.22373365080E+04  0.22373365080E+04  0.25500000920E-02 0. -1.
        2   -1    0    0  501    0  0.00000000000E+00  0.00000000000E+00 -0.15188748425E+04  0.15188748425E+04  0.25500000920E-02 0.  1.
    10030    2    1    2    0    0  0.00000000000E+00  0.00000000000E+00  0.71846166555E+03  0.37562113505E+04  0.36868599845E+04 0.  0.
        4    1    3    3  502    0  0.14093205006E+04  0.52225737363E+03 -0.72822484271E+03  0.16701048087E+04  0.12699999809E+01 0.  1.
       -4    1    3    3    0  502 -0.14093205006E+04 -0.52225737363E+03  0.14466865083E+04  0.20861065418E+04  0.12699999809E+01 0. -1.
</event>
<event>
 5   0  0.2345471E-07  0.3493686E+04  0.7818609E-02  0.8115288E-01
        1   -1    0    0  501    0  0.00000000000E+00  0.00000000000E+00  0.15389041540E+04  0.15389041540E+04  0.50400001928E-02 0. -1.
       -1   -1    0    0    0  501  0.00000000000E+00  0.00000000000E+00 -0.19828786695E+04  0.19828786695E+04  0.50400001928E-02 0.  1.
    10030    2    1    2    0    0  0.00000000000E+00  0.00000000000E+00 -0.44397451549E+03  0.35217828236E+04  0.34936858596E+04 0.  0.
        5    1    3    3  502    0 -0.14842952369E+04 -0.31371005057E+03 -0.10949144393E+04  0.18709372158E+04  0.46999998093E+01 0.  1.
       -5    1    3    3    0  502  0.14842952369E+04  0.31371005057E+03  0.65093992384E+03  0.16508456077E+04  0.46999998093E+01 0. -1.
</event>
<event>
 5   0  0.2287500E-07  0.3722135E+04  0.7818609E-02  0.8063074E-01
        1   -1    0    0  501    0  0.00000000000E+00  0.00000000000E+00  0.22055226487E+04  0.22055226488E+04  0.50400001928E-02 0. -1.
       -1   -1    0    0    0  501  0.00000000000E+00  0.00000000000E+00 -0.15704088821E+04  0.15704088822E+04  0.50400001928E-02 0.  1.
    10030    2    1    2    0    0  0.00000000000E+00  0.00000000000E+00  0.63511376660E+03  0.37759315309E+04  0.37221350633E+04 0.  0.
        4    1    3    3  502    0  0.11739960819E+04 -0.12038438566E+04 -0.49150615451E+03  0.17518809162E+04  0.12699999809E+01 0.  1.
       -4    1    3    3    0  502 -0.11739960819E+04  0.12038438566E+04  0.11266199211E+04  0.20240506148E+04  0.12699999809E+01 0. -1.
</event>
<event>
 5   0  0.2287500E-07  0.2870489E+04  0.7818609E-02  0.8281712E-01
       -1   -1    0    0    0  501  0.00000000000E+00  0.00000000000E+00  0.18916822098E+04  0.18916822098E+04  0.50400001928E-02 0.  1.
        1   -1    0    0  501    0  0.00000000000E+00  0.00000000000E+00 -0.10889392880E+04  0.10889392880E+04  0.50400001928E-02 0. -1.
    10030    2    1    2    0    0  0.00000000000E+00  0.00000000000E+00  0.80274292182E+03  0.29806214977E+04  0.28704892117E+04 0.  0.
        2    1    3    3  502    0 -0.14723266889E+03 -0.26327440209E+02  0.18835678097E+04  0.18894968343E+04  0.25500000920E-02 0.  1.
       -2    1    3    3    0  502  0.14723266889E+03  0.26327440209E+02 -0.10808248879E+04  0.10911246635E+04  0.25500000920E-02 0. -1.
</event>
<event>
 5   0  0.7074157E-07  0.3661320E+04  0.7818609E-02  0.8076588E-01
        2   -1    0    0  501    0  0.00000000000E+00  0.00000000000E+00  0.24020877707E+04  0.24020877707E+04  0.25500000920E-02 0.  1.
       -2   -1    0    0    0  501  0.00000000000E+00  0.00000000000E+00 -0.13951679912E+04  0.13951679912E+04  0.25500000920E-02 0. -1.
    10030    2    1    2    0    0  0.00000000000E+00  0.00000000000E+00  0.10069197795E+04  0.37972557619E+04  0.36613199640E+04 0.  0.
        3    1    3    3  502    0  0.75548534030E+03  0.16375538046E+04  0.82974390107E+03  0.19851487385E+04  0.10100000352E+00 0.  1.
       -3    1    3    3    0  502 -0.75548534030E+03 -0.16375538046E+04  0.17717587847E+03  0.18121070235E+04  0.10100000352E+00 0. -1.
</event>
<event>
 5   0  0.6939921E-07  0.2915689E+04  0.7818609E-02  0.8268225E-01
        2   -1    0    0  501    0  0.00000000000E+00  0.00000000000E+00  0.14915042266E+04  0.14915042266E+04  0.25500000920E-02 0.  1.
       -2   -1    0    0    0  501  0.00000000000E+00  0.00000000000E+00 -0.14249448657E+04  0.14249448657E+04  0.25500000920E-02 0. -1.
    10030    2    1    2    0    0  0.00000000000E+00  0.00000000000E+00  0.66559360918E+02  0.29164490923E+04  0.29156894827E+04 0.  0.
        4    1    3    3  502    0 -0.11892742364E+04  0.18277441414E+03  0.85661621793E+03  0.14770147777E+04  0.12699999809E+01 0.  1.
       -4    1    3    3    0  502  0.11892742364E+04 -0.18277441414E+03 -0.79005685701E+03  0.14394343146E+04  0.12699999809E+01 0. -1.
</event>
<event>
 5   0  0.7300916E-07  0.3614004E+04  0.7818609E-02  0.8087291E-01
       -2   -1    0    0    0  501  0.00000000000E+00  0.00000000000E+00  0.11544009434E+04  0.11544009434E+04  0.25500000920E-02 0.  1.
        2   -1    0    0  501    0  0.00000000000E+00  0.00000000000E+00 -0.28285284004E+04  0.28285284004E+04  0.25500000920E-02 0. -1.
    10030    2    1    2    0    0  0.00000000000E+00  0.00000000000E+00 -0.16741274570E+04  0.39829293437E+04  0.36140037929E+04 0.  0.
        1    1    3    3  502    0 -0.51179230204E+02  0.14006433379E+04 -0.20940341790E+04  0.25198016224E+04  0.50400001928E-02 0. -1.
       -1    1    3    3    0  502  0.51179230204E+02 -0.14006433379E+04  0.41990672199E+03  0.14631277213E+04  0.50400001928E-02 0.  1.
</event>
<event>
 5   0  0.7074157E-07  0.3591351E+04  0.7818609E-02  0.8092476E-01
       -2   -1    0    0    0  501  0.00000000000E+00  0.00000000000E+00  0.28704708557E+04  0.28704708557E+04  0.25500000920E-02 0.  1.
        2   -1    0    0  501    0  0.00000000000E+00  0.00000000000E+00 -0.11233178738E+04  0.11233178738E+04  0.25500000920E-02 0. -1.
    10030    2    1    2    0    0  0.00000000000E+00  0.00000000000E+00  0.17471529818E+04  0.39937887295E+04  0.35913513994E+04 0.  0.
        3    1    3    3  502    0 -0.65107254549E+03  0.84267859044E+03 -0.73427867985E+03  0.12935098980E+04  0.10100000352E+00 0. -1.
       -3    1    3    3    0  502  0.65107254549E+03 -0.84267859044E+03  0.24814316617E+04  0.27002788316E+04  0.10100000352E+00 0.  1.
</event>
<event>
 5   0  0.2345471E-07  0.3637674E+04  0.7818609E-02  0.8081916E-01
        1   -1    0    0  501    0  0.00000000000E+00  0.00000000000E+00  0.23087560927E+04  0.23087560927E+04  0.50400001928E-02 0.  1.
       -1   -1    0    0    0  501  0.00000000000E+00  0.00000000000E+00 -0.14328789825E+04  0.14328789825E+04  0.50400001928E-02 0. -1.
    10030    2    1    2    0    0  0.00000000000E+00  0.00000000000E+00  0.87587711027E+03  0.37416350752E+04  0.36376740266E+04 0.  0.
        5    1    3    3  502    0  0.59922281603E+03 -0.11717312590E+04 -0.85337830473E+03  0.15685339485E+04  0.46999998093E+01 0. -1.
       -5    1    3    3    0  502 -0.59922281603E+03  0.11717312590E+04  0.17292554150E+04  0.21731011267E+04  0.46999998093E+01 0.  1.
</event>
<event>
 5   0  0.2287500E-07  0.3758002E+04  0.7818609E-02  0.8055228E-01
        1   -1    0    0  501    0  0.00000000000E+00  0.00000000000E+00  0.23503072979E+04  0.23503072979E+04  0.50400001928E-02 0.  1.
       -1   -1    0    0    0  501  0.00000000000E+00  0.00000000000E+00 -0.15022058691E+04  0.15022058691E+04  0.50400001928E-02 0. -1.
    10030    2    1    2    0    0  0.00000000000E+00  0.00000000000E+00  0.84810142884E+03  0.38525131670E+04  0.37580023507E+04 0.  0.
        4    1    3    3  502    0 -0.38019435261E+03 -0.99099730383E+03 -0.11654332791E+04  0.15763437895E+04  0.12699999809E+01 0. -1.
       -4    1    3    3    0  502  0.38019435261E+03  0.99099730383E+03  0.20135347079E+04  0.22761693774E+04  0.12699999809E+01 0.  1.
</event>
<event>
 5   0  0.2345471E-07  0.3635341E+04  0.7818609E-02  0.8082444E-01
       -1   -1    0    0    0  501  0.00000000000E+00  0.00000000000E+00  0.32113983874E+04  0.32113983874E+04  0.50400001928E-02 0. -1.
        1   -1    0    0  501    0  0.00000000000E+00  0.00000000000E+00 -0.10288124796E+04  0.10288124796E+04  0.50400001928E-02 0.  1.
    10030    2    1    2    0    0  0.00000000000E+00  0.00000000000E+00  0.21825859078E+04  0.42402108671E+04  0.36353413804E+04 0.  0.
        5    1    3    3  502    0  0.94268734578E+03  0.13242145524E+04  0.14249626182E+03  0.16317263518E+04  0.46999998093E+01 0.  1.
       -5    1    3    3    0  502 -0.94268734578E+03 -0.13242145524E+04  0.20400896460E+04  0.26084845152E+04  0.46999998093E+01 0. -1.
</event>
<event>
 5   0  0.2411746E-07  0.3590286E+04  0.7818609E-02  0.8092720E-01
       -1   -1    0    0    0  501  0.00000000000E+00  0.00000000000E+00  0.19678705444E+04  0.19678705445E+04  0.50400001928E-02 0.  1.
        1   -1    0    0  501    0  0.00000000000E+00  0.00000000000E+00 -0.16375762016E+04  0.16375762016E+04  0.50400001928E-02 0. -1.
    10030    2    1    2    0    0  0.00000000000E+00  0.00000000000E+00  0.33029434288E+03  0.36054467460E+04  0.35902857666E+04 0.  0.
        1    1    3    3  502    0 -0.56061469899E+03  0.14253400950E+04  0.11053993786E+04  0.18888597125E+04  0.50400001928E-02 0.  1.
       -1    1    3    3    0  502  0.56061469899E+03 -0.14253400950E+04 -0.77510503575E+03  0.17165870335E+04  0.50400001928E-02 0. -1.
</event>
<event>
 5   0  0.6939921E-07  0.3552433E+04  0.7818609E-02  0.8101475E-01
       -2   -1    0    0    0  501  0.00000000000E+00  0.00000000000E+00  0.13001008288E+04  0.13001008288E+04  0.25500000920E-02 0. -1.
        2   -1    0    0  501    0  0.00000000000E+00  0.00000000000E+00 -0.24266919578E+04  0.24266919578E+04  0.25500000920E-02 0.  1.
    10030    2    1    2    0    0  0.00000000000E+00  0.00000000000E+00 -0.11265911290E+04  0.37267927866E+04  0.35524325331E+04 0.  0.
        4    1    3    3  502    0  0.13606912219E+04 -0.19909152398E+03 -0.17426729767E+04  0.22199163842E+04  0.12699999809E+01 0. -1.
       -4    1    3    3    0  502 -0.13606912219E+04  0.19909152398E+03  0.61608184774E+03  0.15068764024E+04  0.12699999809E+01 0.  1.
</event>
<event>
 5   0  0.7300916E-07  0.3682632E+04  0.7818609E-02  0.8071822E-01
       -2   -1    0    0    0  501  0.00000000000E+00  0.00000000000E+00  0.15319915729E+04  0.15319915729E+04  0.25500000920E-02 0.  1.
        2   -1    0    0  501    0  0.00000000000E+00  0.00000000000E+00 -0.22130962591E+04  0.22130962591E+04  0.25500000920E-02 0. -1.
    10030    2    1    2    0    0  0.00000000000E+00  0.00000000000E+00 -0.68110468617E+03  0.37450878321E+04  0.36826321125E+04 0.  0.
        1    1    3    3  502    0 -0.17965534870E+03  0.87167022253E+03 -0.19798330051E+04  0.21706735704E+04  0.50400001928E-02 0. -1.
       -1    1    3    3    0  502  0.17965534870E+03 -0.87167022253E+03  0.12987283189E+04  0.15744142617E+04  0.50400001928E-02 0.  1.
</event>
<event>
 5   0  0.7124627E-07  0.3697972E+04  0.7818609E-02  0.8068411E-01
       -2   -1    0    0    0  501  0.00000000000E+00  0.00000000000E+00  0.17644644246E+04  0.17644644246E+04  0.25500000920E-02 0. -1.
        2   -1    0    0  501    0  0.00000000000E+00  0.00000000000E+00 -0.19375568444E+04  0.19375568444E+04  0.25500000920E-02 0.  1.
    10030    2    1    2    0    0  0.00000000000E+00  0.00000000000E+00 -0.17309241974E+03  0.37020212690E+04  0.36979724837E+04 0.  0.
        2    1    3    3  502    0 -0.17910699794E+04  0.21914010841E+03 -0.49046790950E+03  0.18698964753E+04  0.25500000920E-02 0.  1.
       -2    1    3    3    0  502  0.17910699794E+04 -0.21914010841E+03  0.31737548976E+03  0.18321247937E+04  0.25500000920E-02 0. -1.
</event>
<event>
 5   0  0.2287500E-07  0.3425593E+04  0.7818609E-02  0.8131653E-01
        1   -1    0    0  501    0  0.00000000000E+00  0.00000000000E+00  0.15152442339E+04  0.15152442339E+04  0.50400001928E-02 0.  1.
       -1   -1    0    0    0  501  0.00000000000E+00  0.00000000000E+00 -0.19361050724E+04  0.19361050724E+04  0.50400001928E-02 0. -1.
    10030    2    1    2    0    0  0.00000000000E+00  0.00000000000E+00 -0.42086083850E+03  0.34513493064E+04  0.34255931149E+04 0.  0.
        3    1    3    3  502    0  0.11329668356E+04 -0.21576356730E+03  0.10653860354E+04  0.15701003733E+04  0.10100000352E+00 0.  1.
       -3    1    3    3    0  502 -0.11329668356E+04  0.21576356730E+03 -0.14862468739E+04  0.18812489330E+04  0.10100000352E+00 0. -1.
</event>
<event>
 5   0  0.7074157E-07  0.2966667E+04  0.7818609E-02  0.8253314E-01
       -2   -1    0    0    0  501  0.00000000000E+00  0.00000000000E+00  0.12170183068E+04  0.12170183068E+04  0.25500000920E-02 0.  1.
        2   -1    0    0  501    0  0.00000000000E+00  0.00000000000E+00 -0.18079255341E+04  0.18079255341E+04  0.25500000920E-02 0. -1.
    10030    2    1    2    0    0  0.00000000000E+00  0.00000000000E+00 -0.59090722730E+03  0.30249438410E+04  0.29666671350E+04 0.  0.
        3    1    3    3  502    0  0.12123516549E+03  0.14356848534E+04  0.64163502880E+02  0.14422225656E+04  0.10100000352E+00 0. -1.
       -3    1    3    3    0  502 -0.12123516549E+03 -0.14356848534E+04 -0.65507073018E+03  0.15827212753E+04  0.10100000352E+00 0.  1.
</event>
<event>
 5   0  0.6949625E-07  0.3732039E+04  0.7818609E-02  0.8060898E-01
        2   -1    0    0  501    0  0.00000000000E+00  0.00000000000E+00  0.24426259231E+04  0.24426259231E+04  0.25500000920E-02 0.  1.
       -2   -1    0    0    0  501  0.00000000000E+00  0.00000000000E+00 -0.14255270165E+04  0.14255270165E+04  0.25500000920E-02 0. -1.
    10030    2    1    2    0    0  0.00000000000E+00  0.00000000000E+00  0.10170989066E+04  0.38681529396E+04  0.37320392520E+04 0.  0.
        5    1    3    3  502    0 -0.14645970039E+03 -0.37653600910E+03  0.23967429283E+04  0.24305613681E+04  0.46999998093E+01 0.  1.
       -5    1    3    3    0  502  0.14645970039E+03  0.37653600910E+03 -0.13796440216E+04  0.14375915715E+04  0.46999998093E+01 0. -1.
</event>
<event>
 5   0  0.7300916E-07  0.3666980E+04  0.7818609E-02  0.8075319E-01
       -2   -1    0    0    0  501  0.00000000000E+00  0.00000000000E+00  0.17210437477E+04  0.17210437477E+04  0.25500000920E-02 0. -1.
        2   -1    0    0  501    0  0.00000000000E+00  0.00000000000E+00 -0.19532833212E+04  0.19532833212E+04  0.25500000920E-02 0.  1.
    10030    2    1    2    0    0  0.00000000000E+00  0.00000000000E+00 -0.23223957351E+03  0.36743270690E+04  0.36669802549E+04 0.  0.
        1    1    3    3  502    0 -0.53043010371E+03 -0.14505136236E+04 -0.11061987254E+04  0.18997424792E+04  0.50400001928E-02 0.  1.
       -1    1    3    3    0  502  0.53043010371E+03  0.14505136236E+04  0.87395915185E+03  0.17745845898E+04  0.50400001928E-02 0. -1.
</event>
<event>
 5   0  0.2287500E-07  0.3364484E+04  0.7818609E-02  0.8146679E-01
        1   -1    0    0  501    0  0.00000000000E+00  0.00000000000E+00  0.14530420867E+04  0.14530420867E+04  0.50400001928E-02 0. -1.
       -1   -1    0    0    0  501  0.00000000000E+00  0.00000000000E+00 -0.19475951812E+04  0.19475951812E+04  0.50400001928E-02 0.  1.
    10030    2    1    2    0    0  0.00000000000E+00  0.00000000000E+00 -0.49455309450E+03  0.34006372680E+04  0.33644837739E+04 0.  0.
        3    1    3    3  502    0 -0.76971452156E+03 -0.11254546316E+04 -0.12431709312E+04  0.18451510905E+04  0.10100000352E+00 0.  1.
       -3    1    3    3    0  502  0.76971452156E+03  0.11254546316E+04  0.74861783670E+03  0.15554861774E+04  0.10100000352E+00 0. -1.
</event>
<event>
 5   0  0.2287500E-07  0.3155770E+04  0.7818609E-02  0.8200597E-01
       -1   -1    0    0    0  501  0.00000000000E+00  0.00000000000E+00  0.16720882155E+04  0.16720882155E+04  0.50400001928E-02 0. -1.
        1   -1    0    0  501    0  0.00000000000E+00  0.00000000000E+00 -0.14889892689E+04  0.14889892689E+04  0.50400001928E-02 0.  1.
    10030    2    1    2    0    0  0.00000000000E+00  0.00000000000E+00  0.18309894659E+03  0.31610774844E+04  0.31557702132E+04 0.  0.
        4    1    3    3  502    0  0.53099384940E+03 -0.92093838533E+03  0.12595455578E+04  0.16481925260E+04  0.12699999809E+01 0. -1.
       -4    1    3    3    0  502 -0.53099384940E+03  0.92093838533E+03 -0.10764466112E+04  0.15128849584E+04  0.12699999809E+01 0.  1.
</event>
<event>
 5   0  0.2287500E-07  0.3711962E+04  0.7818609E-02  0.8065316E-01
        1   -1    0    0  501    0  0.00000000000E+00  0.00000000000E+00  0.23437264983E+04  0.23437264983E+04  0.50400001928E-02 0.  1.
       -1   -1    0    0    0  501  0.00000000000E+00  0.00000000000E+00 -0.14697389631E+04  0.14697389631E+04  0.50400001928E-02 0. -1.
    10030    2    1    2    0    0  0.00000000000E+00  0.00000000000E+00  0.87398753513E+03  0.38134654614E+04  0.37119623670E+04 0.  0.
        3    1    3    3  502    0  0.11228802429E+04  0.14435398397E+04  0.76186684441E+03  0.19811886351E+04  0.10100000352E+00 0.  1.
       -3    1    3    3    0  502 -0.11228802429E+04 -0.14435398397E+04  0.11212069071E+03  0.18322768264E+04  0.10100000352E+00 0. -1.
</event>
<event>
 5   0  0.6939921E-07  0.3714018E+04  0.7818609E-02  0.8064862E-01
       -2   -1    0    0    0  501  0.00000000000E+00  0.00000000000E+00  0.20029603837E+04  0.20029603837E+04  0.25500000920E-02 0. -1.
        2   -1    0    0  501    0  0.00000000000E+00  0.00000000000E+00 -0.17216929480E+04  0.17216929480E+04  0.25500000920E-02 0.  1.
    10030    2    1    2    0    0  0.00000000000E+00  0.00000000000E+00  0.28126743565E+03  0.37246533317E+04  0.37140181840E+04 0.  0.
        4    1    3    3  502    0 -0.18391296767E+04  0.19834469558E+03  0.30463354590E+03  0.18747111234E+04  0.12699999809E+01 0. -1.
       -4    1    3    3    0  502  0.18391296767E+04 -0.19834469558E+03 -0.23366110257E+02  0.18499422083E+04  0.12699999809E+01 0.  1.
</event>
<event>
 5   0  0.6949625E-07  0.3629169E+04  0.7818609E-02  0.8083843E-01
       -2   -1    0    0    0  501  0.00000000000E+00  0.00000000000E+00  0.24201012672E+04  0.24201012672E+04  0.25500000920E-02 0.  1.
        2   -1    0    0  501    0  0.00000000000E+00  0.00000000000E+00 -0.13605698316E+04  0.13605698316E+04  0.25500000920E-02 0. -1.
    10030    2    1    2    0    0  0.00000000000E+00  0.00000000000E+00  0.10595314356E+04  0.37806710989E+04  0.36291689262E+04 0.  0.
        5    1    3    3  502    0 -0.16300132551E+03 -0.51906322887E+03  0.23331291015E+04  0.23957273555E+04  0.46999998093E+01 0.  1.
       -5    1    3    3    0  502  0.16300132551E+03  0.51906322887E+03 -0.12735976659E+04  0.13849437433E+04  0.46999998093E+01 0. -1.
</event>
<event>
 5   0  0.7124627E-07  0.3548273E+04  0.7818609E-02  0.8102444E-01
       -2   -1    0    0    0  501  0.00000000000E+00  0.00000000000E+00  0.14650235040E+04  0.14650235040E+04  0.25500000920E-02 0. -1.
        2   -1    0    0  501    0  0.00000000000E+00  0.00000000000E+00 -0.21484707429E+04  0.21484707429E+04  0.25500000920E-02 0.  1.
    10030    2    1    2    0    0  0.00000000000E+00  0.00000000000E+00 -0.68344723889E+03  0.36134942470E+04  0.35482728960E+04 0.  0.
        2    1    3    3  502    0  0.34371536944E+03 -0.17403937888E+04 -0.36331091879E+03  0.18108300911E+04  0.25500000920E-02 0. -1.
       -2    1    3    3    0  502 -0.34371536944E+03  0.17403937888E+04 -0.32013632011E+03  0.18026641558E+04  0.25500000920E-02 0.  1.
</event>
<event>
 5   0  0.7074157E-07  0.3715133E+04  0.7818609E-02  0.8064616E-01
        2   -1    0    0  501    0  0.00000000000E+00  0.00000000000E+00  0.22389393321E+04  0.22389393321E+04  0.25500000920E-02 0.  1.
       -2   -1    0    0    0  501  0.00000000000E+00  0.00000000000E+00 -0.15411555860E+04  0.15411555860E+04  0.25500000920E-02 0. -1.
    10030    2    1    2    0    0  0.00000000000E+00  0.00000000000E+00  0.69778374605E+03  0.37800949181E+04  0.37151332996E+04 0.  0.
        3    1    3    3  502    0  0.15047594742E+03 -0.83529482658E+03 -0.13323299148E+04  0.15797036020E+04  0.10100000352E+00 0. -1.
       -3    1    3    3    0  502 -0.15047594742E+03  0.83529482658E+03  0.20301136608E+04  0.22003913162E+04  0.10100000352E+00 0.  1.
</event>
<event>
 5   0  0.7124627E-07  0.3541442E+04  0.7818609E-02  0.8104038E-01
       -2   -1    0    0    0  501  0.00000000000E+00  0.00000000000E+00  0.19507554504E+04  0.19507554504E+04  0.25500000920E-02 0. -1.
        2   -1    0    0  501    0  0.00000000000E+00  0.00000000000E+00 -0.16073022543E+04  0.16073022543E+04  0.25500000920E-02 0.  1.
    10030    2    1    2    0    0  0.00000000000E+00  0.00000000000E+00  0.34345319612E+03  0.35580577047E+04  0.35414424366E+04 0.  0.
        2    1    3    3  502    0 -0.11375368902E+04  0.11417074566E+04  0.90863046598E+03  0.18501609164E+04  0.25500000920E-02 0. -1.
       -2    1    3    3    0  502  0.11375368902E+04 -0.11417074566E+04 -0.56517726987E+03  0.17078967883E+04  0.25500000920E-02 0.  1.
</event>
<event>
 5   0  0.7074157E-07  0.3888652E+04  0.7818609E-02  0.8027394E-01
       -2   -1    0    0    0  501  0.00000000000E+00  0.00000000000E+00  0.13695835264E+04  0.13695835264E+04  0.25500000920E-02 0. -1.
        2   -1    0    0  501    0  0.00000000000E+00  0.00000000000E+00 -0.27602574887E+04  0.27602574887E+04  0.25500000920E-02 0.  1.
    10030    2    1    2    0    0  0.00000000000E+00  0.00000000000E+00 -0.13906739623E+04  0.41298410152E+04  0.38886517897E+04 0.  0.
        3    1    3    3  502    0  0.72988362392E+03  0.16021806788E+04  0.18087463833E+03  0.17698668529E+04  0.10100000352E+00 0. -1.
       -3    1    3    3    0  502 -0.72988362392E+03 -0.16021806788E+04 -0.15715486006E+04  0.23599741623E+04  0.10100000352E+00 0.  1.
</event>
<event>
 5   0  0.7074157E-07  0.3758983E+04  0.7818609E-02  0.8055015E-01
       -2   -1    0    0    0  501  0.00000000000E+00  0.00000000000E+00  0.15592059643E+04  0.15592059643E+04  0.25500000920E-02 0. -1.
        2   -1    0    0  501    0  0.00000000000E+00  0.00000000000E+00 -0.22655690997E+04  0.22655690997E+04  0.25500000920E-02 0.  1.
    10030    2    1    2    0    0  0.00000000000E+00  0.00000000000E+00 -0.70636313534E+03  0.38247750640E+04  0.37589832949E+04 0.  0.
        3    1    3    3  502    0 -0.92285803466E+03 -0.77622586665E+03  0.11136800023E+04  0.16414861273E+04  0.10100000352E+00 0. -1.
       -3    1    3    3    0  502  0.92285803466E+03  0.77622586665E+03 -0.18200431377E+04  0.21832889368E+04  0.10100000352E+00 0.  1.
</event>
<event>
 5   0  0.6939921E-07  0.3682466E+04  0.7818609E-02  0.8071859E-01
       -2   -1    0    0    0  501  0.00000000000E+00  0.00000000000E+00  0.16980922865E+04  0.16980922865E+04  0.25500000920E-02 0.  1.
        2   -1    0    0  501    0  0.00000000000E+00  0.00000000000E+00 -0.19964396437E+04  0.19964396437E+04  0.25500000920E-02 0. -1.
    10030    2    1    2    0    0  0.00000000000E+00  0.00000000000E+00 -0.29834735713E+03  0.36945319302E+04  0.36824658909E+04 0.  0.
        4    1    3    3  502    0 -0.13647110295E+04  0.11648497358E+04  0.26549166034E+03  0.18137801784E+04  0.12699999809E+01 0.  1.
       -4    1    3    3    0  502  0.13647110295E+04 -0.11648497358E+04 -0.56383901747E+03  0.18807517517E+04  0.12699999809E+01 0. -1.
</event>
<event>
 5   0  0.2345471E-07  0.3696398E+04  0.7818609E-02  0.8068760E-01
       -1   -1    0    0    0  501  0.00000000000E+00  0.00000000000E+00  0.13695979787E+04  0.13695979787E+04  0.50400001928E-02 0. -1.
        1   -1    0    0  501    0  0.00000000000E+00  0.00000000000E+00 -0.24940456869E+04  0.24940456869E+04  0.50400001928E-02 0.  1.
    10030    2    1    2    0    0  0.00000000000E+00  0.00000000000E+00 -0.11244477082E+04  0.38636436657E+04  0.36963982100E+04 0.  0.
        5    1    3    3  502    0  0.17665959296E+04 -0.28487360209E+03 -0.78913703300E+02  0.17911626421E+04  0.46999998093E+01 0.  1.
       -5    1    3    3    0  502 -0.17665959296E+04  0.28487360209E+03 -0.10455340049E+04  0.20724810236E+04  0.46999998093E+01 0. -1.
</event>
<event>
 5   0  0.2287500E-07  0.2966108E+04  0.7818609E-02  0.8253476E-01
        1   -1    0    0  501    0  0.00000000000E+00  0.00000000000E+00  0.18022505876E+04  0.18022505876E+04  0.50400001928E-02 0.  1.
       -1   -1    0    0    0  501  0.00000000000E+00  0.00000000000E+00 -0.12203905604E+04  0.12203905604E+04  0.50400001928E-02 0. -1.
    10030    2    1    2    0    0  0.00000000000E+00  0.00000000000E+00  0.58186002715E+03  0.30226411480E+04  0.29661082951E+04 0.  0.
        2    1    3    3  502    0  0.82465465499E+02  0.13940457911E+04  0.79973105847E+03  0.16092650455E+04  0.25500000920E-02 0.  1.
       -2    1    3    3    0  502 -0.82465465499E+02 -0.13940457911E+04 -0.21787103132E+03  0.14133761025E+04  0.25500000920E-02 0. -1.
</event>
<event>
 5   0  0.2287500E-07  0.3621671E+04  0.7818609E-02  0.8085546E-01
        1   -1    0    0  501    0  0.00000000000E+00  0.00000000000E+00  0.23576933075E+04  0.23576933075E+04  0.50400001928E-02 0. -1.
       -1   -1    0    0    0  501  0.00000000000E+00  0.00000000000E+00 -0.13908191274E+04  0.13908191274E+04  0.50400001928E-02 0.  1.
    10030    2    1    2    0    0  0.00000000000E+00  0.00000000000E+00  0.96687418009E+03  0.37485124350E+04  0.36216708568E+04 0.  0.
        2    1    3    3  502    0 -0.10029993445E+04  0.11268622570E+04  0.15201657534E+04  0.21416652747E+04  0.25500000920E-02 0. -1.
       -2    1    3    3    0  502  0.10029993445E+04 -0.11268622570E+04 -0.55329157332E+03  0.16068471602E+04  0.25500000920E-02 0.  1.
</event>
<event>
 5   0  0.2287500E-07  0.3690743E+04  0.7818609E-02  0.8070016E-01
       -1   -1    0    0    0  501  0.00000000000E+00  0.00000000000E+00  0.23638405087E+04  0.23638405087E+04  0.50400001928E-02 0. -1.
        1   -1    0    0  501    0  0.00000000000E+00  0.00000000000E+00 -0.14406198623E+04  0.14406198623E+04  0.50400001928E-02 0.  1.
    10030    2    1    2    0    0  0.00000000000E+00  0.00000000000E+00  0.92322064638E+03  0.38044603710E+04  0.36907427915E+04 0.  0.
        3    1    3    3  502    0  0.24454385153E+03  0.18290489587E+04  0.44802121615E+03  0.18989325446E+04  0.10100000352E+00 0. -1.
       -3    1    3    3    0  502 -0.24454385153E+03 -0.18290489587E+04  0.47519943024E+03  0.19055278264E+04  0.10100000352E+00 0.  1.
</event>
<event>
 5   0  0.7300916E-07  0.3641789E+04  0.7818609E-02  0.8080986E-01
        2   -1    0    0  501    0  0.00000000000E+00  0.00000000000E+00  0.24848801428E+04  0.24848801428E+04  0.25500000920E-02 0.  1.
       -2   -1    0    0    0  501  0.00000000000E+00  0.00000000000E+00 -0.13343323408E+04  0.13343323408E+04  0.25500000920E-02 0. -1.
    10030    2    1    2    0    0  0.00000000000E+00  0.00000000000E+00  0.11505478020E+04  0.38192124836E+04  0.36417885373E+04 0.  0.
        1    1    3    3  502    0  0.15721908787E+04 -0.90178610074E+03  0.75888540575E+03  0.19649196904E+04  0.50400001928E-02 0. -1.
       -1    1    3    3    0  502 -0.15721908787E+04  0.90178610074E+03  0.39166239621E+03  0.18542927933E+04  0.50400001928E-02 0.  1.
</event>
<event>
 5   0  0.2287500E-07  0.3231021E+04  0.7818609E-02  0.8180672E-01
        1   -1    0    0  501    0  0.00000000000E+00  0.00000000000E+00  0.19319291698E+04  0.19319291698E+04  0.50400001928E-02 0. -1.
       -1   -1    0    0    0  501  0.00000000000E+00  0.00000000000E+00 -0.13509160788E+04  0.13509160789E+04  0.50400001928E-02 0.  1.
    10030    2    1    2    0    0  0.00000000000E+00  0.00000000000E+00  0.58101309095E+03  0.32828452487E+04  0.32310210019E+04 0.  0.
        3    1    3    3  502    0 -0.22147336064E+03  0.55670813621E+03 -0.12338575406E+04  0.13716336388E+04  0.10100000352E+00 0.  1.
       -3    1    3    3    0  502  0.22147336064E+03 -0.55670813621E+03  0.18148706315E+04  0.19112116099E+04  0.10100000352E+00 0. -1.
</event>
<event>
 5   0  0.7074157E-07  0.3731480E+04  0.7818609E-02  0.8061021E-01
        2   -1    0    0  501    0  0.00000000000E+00  0.00000000000E+00  0.20641346055E+04  0.20641346055E+04  0.25500000920E-02 0. -1.
       -2   -1    0    0    0  501  0.00000000000E+00  0.00000000000E+00 -0.16864140059E+04  0.16864140059E+04  0.25500000920E-02 0.  1.
    10030    2    1    2    0    0  0.00000000000E+00  0.00000000000E+00  0.37772059962E+03  0.37505486114E+04  0.37314798720E+04 0.  0.
        3    1    3    3  502    0 -0.16039321790E+04 -0.45097276287E+03  0.10328002159E+04  0.19602681357E+04  0.10100000352E+00 0. -1.
       -3    1    3    3    0  502  0.16039321790E+04  0.45097276287E+03 -0.65507961632E+03  0.17902804757E+04  0.10100000352E+00 0.  1.
</event>
<event>
 5   0  0.2411746E-07  0.3658446E+04  0.7818609E-02  0.8077234E-01
        1   -1    0    0  501    0  0.00000000000E+00  0.00000000000E+00  0.97504179279E+03  0.97504179281E+03  0.50400001928E-02 0. -1.
       -1   -1    0    0    0  501  0.00000000000E+00  0.00000000000E+00 -0.34317056038E+04  0.34317056038E+04  0.50400001928E-02 0.  1.
    10030    2    1    2    0    0  0.00000000000E+00  0.00000000000E+00 -0.24566638110E+04  0.44067473966E+04  0.36584457816E+04 0.  0.
        1    1    3    3  502    0  0.56492015131E+03 -0.11970238509E+04 -0.27491359313E+04  0.30511881695E+04  0.50400001928E-02 0.  1.
       -1    1    3    3    0  502 -0.56492015131E+03  0.11970238509E+04  0.29247212030E+03  0.13555592271E+04  0.50400001928E-02 0. -1.
</event>
<event>
 5   0  0.6939921E-07  0.3655028E+04  0.7818609E-02  0.8078002E-01
       -2   -1    0    0    0  501  0.00000000000E+00  0.00000000000E+00  0.15933209555E+04  0.15933209555E+04  0.25500000920E-02 0. -1.
        2   -1    0    0  501    0  0.00000000000E+00  0.00000000000E+00 -0.20961299610E+04  0.20961299610E+04  0.25500000920E-02 0.  1.
    10030    2    1    2    0    0  0.00000000000E+00  0.00000000000E+00 -0.50280900549E+03  0.36894509165E+04  0.36550282037E+04 0.  0.
        4    1    3    3  502    0  0.11327380443E+04  0.24113248543E+03 -0.16784250719E+04  0.20392039347E+04  0.12699999809E+01 0.  1.
       -4    1    3    3    0  502 -0.11327380443E+04 -0.24113248543E+03  0.11756160664E+04  0.16502469818E+04  0.12699999809E+01 0. -1.
</event>
<event>
 5   0  0.6939921E-07  0.3082453E+04  0.7818609E-02  0.8220570E-01
        2   -1    0    0  501    0  0.00000000000E+00  0.00000000000E+00  0.11848747155E+04  0.11848747155E+04  0.25500000920E-02 0. -1.
       -2   -1    0    0    0  501  0.00000000000E+00  0.00000000000E+00 -0.20047512096E+04  0.20047512096E+04  0.25500000920E-02 0.  1.
    10030    2    1    2    0    0  0.00000000000E+00  0.00000000000E+00 -0.81987649408E+03  0.31896259252E+04  0.30824529318E+04 0.  0.
        4    1    3    3  502    0  0.24949309624E+03 -0.71196147788E+03 -0.18006310324E+04  0.19522831964E+04  0.12699999809E+01 0.  1.
       -4    1    3    3    0  502 -0.24949309624E+03  0.71196147788E+03  0.98075453835E+03  0.12373427288E+04  0.12699999809E+01 0. -1.
</event>
<event>
 5   0  0.2345471E-07  0.3702244E+04  0.7818609E-02  0.8067465E-01
       -1   -1    0    0    0  501  0.00000000000E+00  0.00000000000E+00  0.16033844616E+04  0.16033844616E+04  0.50400001928E-02 0.  1.
        1   -1    0    0  501    0  0.00000000000E+00  0.00000000000E+00 -0.21371375866E+04  0.21371375867E+04  0.50400001928E-02 0. -1.
    10030    2    1    2    0    0  0.00000000000E+00  0.00000000000E+00 -0.53375312501E+03  0.37405220483E+04  0.37022442917E+04 0.  0.
        5    1    3    3  502    0 -0.17424488880E+04 -0.31255212561E+03  0.27984119103E+03  0.17922472320E+04  0.46999998093E+01 0. -1.
       -5    1    3    3    0  502  0.17424488880E+04  0.31255212561E+03 -0.81359431604E+03  0.19482748163E+04  0.46999998093E+01 0.  1.
</event>
<event>
 5   0  0.2287500E-07  0.2830642E+04  0.7818609E-02  0.8293818E-01
        1   -1    0    0  501    0  0.00000000000E+00  0.00000000000E+00  0.27989971559E+04  0.27989971559E+04  0.50400001928E-02 0. -1.
       -1   -1    0    0    0  501  0.00000000000E+00  0.00000000000E+00 -0.71566122753E+03  0.71566122755E+03  0.50400001928E-02 0.  1.
    10030    2    1    2    0    0  0.00000000000E+00  0.00000000000E+00  0.20833359284E+04  0.35146583834E+04  0.28306421466E+04 0.  0.
        3    1    3    3  502    0 -0.65949819481E+03  0.12288874669E+04  0.74255868898E+03  0.15800302820E+04  0.10100000352E+00 0.  1.
       -3    1    3    3    0  502  0.65949819481E+03 -0.12288874669E+04  0.13407772394E+04  0.19346281015E+04  0.10100000352E+00 0. -1.
</event>
<event>
 5   0  0.2287500E-07  0.2863643E+04  0.7818609E-02  0.8283778E-01
       -1   -1    0    0    0  501  0.00000000000E+00  0.00000000000E+00  0.13613848562E+04  0.13613848562E+04  0.50400001928E-02 0. -1.
        1   -1    0    0  501    0  0.00000000000E+00  0.00000000000E+00 -0.15059028774E+04  0.15059028774E+04  0.50400001928E-02 0.  1.
    10030    2    1    2    0    0  0.00000000000E+00  0.00000000000E+00 -0.14451802127E+03  0.28672877336E+04  0.28636433942E+04 0.  0.
        2    1    3    3  502    0 -0.38592709613E+03  0.12276127464E+04 -0.70086414654E+03  0.14653270388E+04  0.25500000920E-02 0.  1.
       -2    1    3    3    0  502  0.38592709613E+03 -0.12276127464E+04  0.55634612527E+03  0.14019606948E+04  0.25500000920E-02 0. -1.
</event>
<event>
 5   0  0.6939921E-07  0.3675883E+04  0.7818609E-02  0.8073327E-01
       -2   -1    0    0    0  501  0.00000000000E+00  0.00000000000E+00  0.18444349026E+04  0.18444349026E+04  0.25500000920E-02 0.  1.
        2   -1    0    0  501    0  0.00000000000E+00  0.00000000000E+00 -0.18314712319E+04  0.18314712319E+04  0.25500000920E-02 0. -1.
    10030    2    1    2    0    0  0.00000000000E+00  0.00000000000E+00  0.12963670753E+02  0.36759061345E+04  0.36758832752E+04 0.  0.
        4    1    3    3  502    0 -0.14412258698E+04 -0.49025238658E+03  0.10363175652E+04  0.18415849476E+04  0.12699999809E+01 0.  1.
       -4    1    3    3    0  502  0.14412258698E+04  0.49025238658E+03 -0.10233538945E+04  0.18343211869E+04  0.12699999809E+01 0. -1.
</event>
<event>
 5   0  0.2287500E-07  0.3702568E+04  0.7818609E-02  0.8067393E-01
        1   -1    0    0  501    0  0.00000000000E+00  0.00000000000E+00  0.21972088627E+04  0.21972088627E+04  0.50400001928E-02 0.  1.
       -1   -1    0    0    0  501  0.00000000000E+00  0.00000000000E+00 -0.15598211466E+04  0.15598211466E+04  0.50400001928E-02 0. -1.
    10030    2    1    2    0    0  0.00000000000E+00  0.00000000000E+00  0.63738771613E+03  0.37570300094E+04  0.37025682155E+04 0.  0.
        3    1    3    3  502    0 -0.99689231963E+03 -0.93834361386E+03  0.15832062826E+04  0.20930420871E+04  0.10100000352E+00 0.  1.
       -3    1    3    3    0  502  0.99689231963E+03  0.93834361386E+03 -0.94581856650E+03  0.16639879223E+04  0.10100000352E+00 0. -1.
</event>
<event>
 5   0  0.7124627E-07  0.3697198E+04  0.7818609E-02  0.8068583E-01
       -2   -1    0    0    0  501  0.00000000000E+00  0.00000000000E+00  0.13207704122E+04  0.13207704122E+04  0.25500000920E-02 0. -1.
        2   -1    0    0  501    0  0.00000000000E+00  0.00000000000E+00 -0.25873670437E+04  0.25873670437E+04  0.25500000920E-02 0.  1.
    10030    2    1    2    0    0  0.00000000000E+00  0.00000000000E+00 -0.12665966315E+04  0.39081374559E+04  0.36971977696E+04 0.  0.
        2    1    3    3  502    0  0.31290605965E+03 -0.17507451467E+04 -0.10024637299E+03  0.17813107831E+04  0.25500000920E-02 0. -1.
       -2    1    3    3    0  502 -0.31290605965E+03  0.17507451467E+04 -0.11663502585E+04  0.21268266728E+04  0.25500000920E-02 0.  1.
</event>
<event>
 5   0  0.6939921E-07  0.3684097E+04  0.7818609E-02  0.8071495E-01
        2   -1    0    0  501    0  0.00000000000E+00  0.00000000000E+00  0.21916505682E+04  0.21916505682E+04  0.25500000920E-02 0. -1.
       -2   -1    0    0    0  501  0.00000000000E+00  0.00000000000E+00 -0.15482137331E+04  0.15482137331E+04  0.25500000920E-02 0.  1.
    10030    2    1    2    0    0  0.00000000000E+00  0.00000000000E+00  0.64343683511E+03  0.37398643014E+04  0.36840974515E+04 0.  0.
        4    1    3    3  502    0 -0.19161406214E+02 -0.17825680295E+04 -0.14922860715E+03  0.17889065736E+04  0.12699999809E+01 0. -1.
       -4    1    3    3    0  502  0.19161406214E+02  0.17825680295E+04  0.79266544227E+03  0.19509577277E+04  0.12699999809E+01 0.  1.
</event>
<event>
 5   0  0.2345471E-07  0.3680191E+04  0.7818609E-02  0.8072366E-01
       -1   -1    0    0    0  501  0.00000000000E+00  0.00000000000E+00  0.19019599790E+04  0.19019599790E+04  0.50400001928E-02 0. -1.
        1   -1    0    0  501    0  0.00000000000E+00  0.00000000000E+00 -0.17802434000E+04  0.17802434000E+04  0.50400001928E-02 0.  1.
    10030    2    1    2    0    0  0.00000000000E+00  0.00000000000E+00  0.12171657905E+03  0.36822033790E+04  0.36801911361E+04 0.  0.
        5    1    3    3  502    0  0.45490171195E+03 -0.16531984025E+04  0.72900263363E+03  0.18631874451E+04  0.46999998093E+01 0. -1.
       -5    1    3    3    0  502 -0.45490171195E+03  0.16531984025E+04 -0.60728605458E+03  0.18190159339E+04  0.46999998093E+01 0.  1.
</event>
<event>
 5   0  0.2287500E-07  0.3781450E+04  0.7818609E-02  0.8050147E-01
        1   -1    0    0  501    0  0.00000000000E+00  0.00000000000E+00  0.14269927645E+04  0.14269927645E+04  0.50400001928E-02 0.  1.
       -1   -1    0    0    0  501  0.00000000000E+00  0.00000000000E+00 -0.25051572936E+04  0.25051572936E+04  0.50400001928E-02 0. -1.
    10030    2    1    2    0    0  0.00000000000E+00  0.00000000000E+00 -0.10781645291E+04  0.39321500581E+04  0.37814501620E+04 0.  0.
        2    1    3    3  502    0  0.21390906592E+03 -0.23298371925E+03  0.13992882070E+04  0.14345891356E+04  0.25500000920E-02 0.  1.
       -2    1    3    3    0  502 -0.21390906592E+03  0.23298371925E+03 -0.24774527361E+04  0.24975609225E+04  0.25500000920E-02 0. -1.
</event>
<event>
 5   0  0.7124627E-07  0.3281489E+04  0.7818609E-02  0.8167622E-01
        2   -1    0    0  501    0  0.00000000000E+00  0.00000000000E+00  0.12376003477E+04  0.12376003477E+04  0.25500000920E-02 0.  1.
       -2   -1    0    0    0  501  0.00000000000E+00  0.00000000000E+00 -0.21752110782E+04  0.21752110782E+04  0.25500000920E-02 0. -1.
    10030    2    1    2    0    0  0.00000000000E+00  0.00000000000E+00 -0.93761073045E+03  0.34128114259E+04  0.32814886784E+04 0.  0.
        2    1    3    3  502    0 -0.30308771129E+03  0.33530955268E+03 -0.21091855566E+04  0.21570717116E+04  0.25500000920E-02 0. -1.
       -2    1    3    3    0  502  0.30308771129E+03 -0.33530955268E+03  0.11715748261E+04  0.12557397143E+04  0.25500000920E-02 0.  1.
</event>
<event>
 5   0  0.7074157E-07  0.3746330E+04  0.7818609E-02  0.8057771E-01
        2   -1    0    0  501    0  0.00000000000E+00  0.00000000000E+00  0.20800644029E+04  0.20800644029E+04  0.25500000920E-02 0. -1.
       -2   -1    0    0    0  501  0.00000000000E+00  0.00000000000E+00 -0.16868451445E+04  0.16868451445E+04  0.25500000920E-02 0.  1.
    10030    2    1    2    0    0  0.00000000000E+00  0.00000000000E+00  0.39321925842E+03  0.37669095475E+04  0.37463296910E+04 0.  0.
        3    1    3    3  502    0 -0.77972286379E+03 -0.22398343279E+03  0.18942594637E+04  0.20606686411E+04  0.10100000352E+00 0.  1.
       -3    1    3    3    0  502  0.77972286379E+03  0.22398343279E+03 -0.15010402053E+04  0.17062409063E+04  0.10100000352E+00 0. -1.
</event>
<event>
 5   0  0.6949625E-07  0.3664112E+04  0.7818609E-02  0.8075962E-01
        2   -1    0    0  501    0  0.00000000000E+00  0.00000000000E+00  0.22668338502E+04  0.22668338502E+04  0.25500000920E-02 0.  1.
       -2   -1    0    0    0  501  0.00000000000E+00  0.00000000000E+00 -0.14806686574E+04  0.14806686574E+04  0.25500000920E-02 0. -1.
    10030    2    1    2    0    0  0.00000000000E+00  0.00000000000E+00  0.78616519278E+03  0.37475025076E+04  0.36641123528E+04 0.  0.
        5    1    3    3  502    0  0.16389051132E+04 -0.12663049771E+03 -0.43425421544E+03  0.17001894209E+04  0.46999998093E+01 0. -1.
       -5    1    3    3    0  502 -0.16389051132E+04  0.12663049771E+03  0.12204194082E+04  0.20473130867E+04  0.46999998093E+01 0.  1.
</event>
<event>
 5   0  0.2287500E-07  0.3534625E+04  0.7818609E-02  0.8105633E-01
       -1   -1    0    0    0  501  0.00000000000E+00  0.00000000000E+00  0.12260754679E+04  0.12260754679E+04  0.50400001928E-02 0. -1.
        1   -1    0    0  501    0  0.00000000000E+00  0.00000000000E+00 -0.25474730697E+04  0.25474730697E+04  0.50400001928E-02 0.  1.
    10030    2    1    2    0    0  0.00000000000E+00  0.00000000000E+00 -0.13213976017E+04  0.37735485376E+04  0.35346254319E+04 0.  0.
        2    1    3    3  502    0 -0.68500390512E+03  0.15119461337E+04 -0.12902780340E+02  0.16599331140E+04  0.25500000920E-02 0. -1.
       -2    1    3    3    0  502  0.68500390512E+03 -0.15119461337E+04 -0.13084948214E+04  0.21136154236E+04  0.25500000920E-02 0.  1.
</event>
<event>
 5   0  0.7124627E-07  0.3635238E+04  0.7818609E-02  0.8082467E-01
       -2   -1    0    0    0  501  0.00000000000E+00  0.00000000000E+00  0.17845712897E+04  0.17845712897E+04  0.25500000920E-02 0.  1.
        2   -1    0    0  501    0  0.00000000000E+00  0.00000000000E+00 -0.18512790867E+04  0.18512790867E+04  0.25500000920E-02 0. -1.
    10030    2    1    2    0    0  0.00000000000E+00  0.00000000000E+00 -0.66707796990E+02  0.36358503764E+04  0.36352383731E+04 0.  0.
        2    1    3    3  502    0  0.17663547369E+04 -0.36823311592E+03  0.18607953532E+03  0.18138991917E+04  0.25500000920E-02 0.  1.
       -2    1    3    3    0  502 -0.17663547369E+04  0.36823311592E+03 -0.25278733231E+03  0.18219511847E+04  0.25500000920E-02 0. -1.
</event>
<event>
 5   0  0.2287500E-07  0.3687567E+04  0.7818609E-02  0.8070723E-01
       -1   -1    0    0    0  501  0.00000000000E+00  0.00000000000E+00  0.20526052159E+04  0.20526052159E+04  0.50400001928E-02 0.  1.
        1   -1    0    0  501    0  0.00000000000E+00  0.00000000000E+00 -0.16562058363E+04  0.16562058363E+04  0.50400001928E-02 0. -1.
    10030    2    1    2    0    0  0.00000000000E+00  0.00000000000E+00  0.39639937955E+03  0.37088110522E+04  0.36875665354E+04 0.  0.
        2    1    3    3  502    0  0.95831282319E+03 -0.11715507963E+04 -0.86078701479E+03  0.17412205548E+04  0.25500000920E-02 0. -1.
       -2    1    3    3    0  502 -0.95831282319E+03  0.11715507963E+04  0.12571863943E+04  0.19675904974E+04  0.25500000920E-02 0.  1.
</event>
<event>
 5   0  0.6949625E-07  0.3380556E+04  0.7818609E-02  0.8142695E-01
        2   -1    0    0  501    0  0.00000000000E+00  0.00000000000E+00  0.98327314508E+03  0.98327314508E+03  0.25500000920E-02 0.  1.
       -2   -1    0    0    0  501  0.00000000000E+00  0.00000000000E+00 -0.29056420337E+04  0.29056420337E+04  0.25500000920E-02 0. -1.
    10030    2    1    2    0    0  0.00000000000E+00  0.00000000000E+00 -0.19223688886E+04  0.38889151788E+04  0.33805560377E+04 0.  0.
        5    1    3    3  502    0  0.74835897986E+03 -0.10207377122E+03  0.77834343057E+03  0.10845740193E+04  0.46999998093E+01 0.  1.
       -5    1    3    3    0  502 -0.74835897986E+03  0.10207377122E+03 -0.27007123192E+04  0.28043411594E+04  0.46999998093E+01 0. -1.
</event>
<event>
 5   0  0.2411746E-07  0.3702856E+04  0.7818609E-02  0.8067329E-01
        1   -1    0    0  501    0  0.00000000000E+00  0.00000000000E+00  0.19644787219E+04  0.19644787219E+04  0.50400001928E-02 0. -1.
       -1   -1    0    0    0  501  0.00000000000E+00  0.00000000000E+00 -0.17448832459E+04  0.17448832459E+04  0.50400001928E-02 0.  1.
    10030    2    1    2    0    0  0.00000000000E+00  0.00000000000E+00  0.21959547601E+03  0.37093619679E+04  0.37028561997E+04 0.  0.
        1    1    3    3  502    0  0.14188041006E+04 -0.98378451022E+03 -0.55991928629E+03  0.18150335109E+04  0.50400001928E-02 0.  1.
       -1    1    3    3    0  502 -0.14188041006E+04  0.98378451022E+03  0.77951476230E+03  0.18943284570E+04  0.50400001928E-02 0. -1.
</event>
<event>
 5   0  0.2287500E-07  0.3706507E+04  0.7818609E-02  0.8066521E-01
        1   -1    0    0  501    0  0.00000000000E+00  0.00000000000E+00  0.10684686722E+04  0.10684686722E+04  0.50400001928E-02 0. -1.
       -1   -1    0    0    0  501  0.00000000000E+00  0.00000000000E+00 -0.32144591858E+04  0.32144591858E+04  0.50400001928E-02 0.  1.
    10030    2    1    2    0    0  0.00000000000E+00  0.00000000000E+00 -0.21459905136E+04  0.42829278580E+04  0.37065072174E+04 0.  0.
        2    1    3    3  502    0 -0.78512409362E+03  0.68566538747E+00 -0.30127923971E+04  0.31134126518E+04  0.25500000920E-02 0.  1.
       -2    1    3    3    0  502  0.78512409362E+03 -0.68566538747E+00  0.86680188343E+03  0.11695152062E+04  0.25500000920E-02 0. -1.
</event>
<event>
 5   0  0.2411746E-07  0.3646928E+04  0.7818609E-02  0.8079826E-01
        1   -1    0    0  501    0  0.00000000000E+00  0.00000000000E+00  0.28164258959E+04  0.28164258959E+04  0.50400001928E-02 0. -1.
       -1   -1    0    0    0  501  0.00000000000E+00  0.00000000000E+00 -0.11805814411E+04  0.11805814411E+04  0.50400001928E-02 0.  1.
    10030    2    1    2    0    0  0.00000000000E+00  0.00000000000E+00  0.16358444548E+04  0.39970073370E+04  0.36469275523E+04 0.  0.
        1    1    3    3  502    0  0.10068116338E+04 -0.98616494962E+03  0.20860715452E+04  0.25175157329E+04  0.50400001928E-02 0. -1.
       -1    1    3    3    0  502 -0.10068116338E+04  0.98616494962E+03 -0.45022709039E+03  0.14794916041E+04  0.50400001928E-02 0.  1.
</event>
<event>
 5   0  0.6949625E-07  0.3705302E+04  0.7818609E-02  0.8066788E-01
        2   -1    0    0  501    0  0.00000000000E+00  0.00000000000E+00  0.26417451555E+04  0.26417451555E+04  0.25500000920E-02 0. -1.
       -2   -1    0    0    0  501  0.00000000000E+00  0.00000000000E+00 -0.12992608281E+04  0.12992608281E+04  0.25500000920E-02 0.  1.
    10030    2    1    2    0    0  0.00000000000E+00  0.00000000000E+00  0.13424843274E+04  0.39410059836E+04  0.37053021460E+04 0.  0.
        5    1    3    3  502    0 -0.17244244048E+04 -0.67057777540E+03  0.57045215855E+03  0.19361693717E+04  0.46999998093E+01 0.  1.
       -5    1    3    3    0  502  0.17244244048E+04  0.67057777540E+03  0.77203216883E+03  0.20048366119E+04  0.46999998093E+01 0. -1.
</event>
<event>
 5   0  0.2345471E-07  0.3688710E+04  0.7818609E-02  0.8070468E-01
       -1   -1    0    0    0  501  0.00000000000E+00  0.00000000000E+00  0.17939030929E+04  0.17939030929E+04  0.50400001928E-02 0.  1.
        1   -1    0    0  501    0  0.00000000000E+00  0.00000000000E+00 -0.18962262653E+04  0.18962262653E+04  0.50400001928E-02 0. -1.
    10030    2    1    2    0    0  0.00000000000E+00  0.00000000000E+00 -0.10232317239E+03  0.36901293582E+04  0.36887104316E+04 0.  0.
        5    1    3    3  502    0  0.10103596425E+01 -0.79029323297E+03 -0.17182538322E+04  0.18912912882E+04  0.46999998093E+01 0. -1.
       -5    1    3    3    0  502 -0.10103596425E+01  0.79029323297E+03  0.16159306598E+04  0.17988380700E+04  0.46999998093E+01 0.  1.
</event>
<event>
 5   0  0.2287500E-07  0.3708564E+04  0.7818609E-02  0.8066067E-01
        1   -1    0    0  501    0  0.00000000000E+00  0.00000000000E+00  0.17677588876E+04  0.17677588876E+04  0.50400001928E-02 0. -1.
       -1   -1    0    0    0  501  0.00000000000E+00  0.00000000000E+00 -0.19450403424E+04  0.19450403424E+04  0.50400001928E-02 0.  1.
    10030    2    1    2    0    0  0.00000000000E+00  0.00000000000E+00 -0.17728145483E+03  0.37127992300E+04  0.37085643325E+04 0.  0.
        3    1    3    3  502    0  0.67023716846E+03 -0.64255393876E+03  0.15182681313E+04  0.17796717548E+04  0.10100000352E+00 0. -1.
       -3    1    3    3    0  502 -0.67023716846E+03  0.64255393876E+03 -0.16955495861E+04  0.19331274752E+04  0.10100000352E+00 0.  1.
</event>
<event>
 5   0  0.7300916E-07  0.3706597E+04  0.7818609E-02  0.8066501E-01
       -2   -1    0    0    0  501  0.00000000000E+00  0.00000000000E+00  0.12302866689E+04  0.12302866689E+04  0.25500000920E-02 0. -1.
        2   -1    0    0  501    0  0.00000000000E+00  0.00000000000E+00 -0.27918013735E+04  0.27918013735E+04  0.25500000920E-02 0.  1.
    10030    2    1    2    0    0  0.00000000000E+00  0.00000000000E+00 -0.15615147046E+04  0.40220880424E+04  0.37065973680E+04 0.  0.
        1    1    3    3  502    0 -0.67782740157E+03 -0.13405205563E+04  0.39711625976E+03  0.15537524488E+04  0.50400001928E-02 0. -1.
       -1    1    3    3    0  502  0.67782740157E+03  0.13405205563E+04 -0.19586309644E+04  0.24683355937E+04  0.50400001928E-02 0.  1.
</event>
<event>
 5   0  0.2287500E-07  0.2946340E+04  0.7818609E-02  0.8259222E-01
       -1   -1    0    0    0  501  0.00000000000E+00  0.00000000000E+00  0.14538502740E+04  0.14538502740E+04  0.50400001928E-02 0. -1.
        1   -1    0    0  501    0  0.00000000000E+00  0.00000000000E+00 -0.14927468046E+04  0.14927468046E+04  0.50400001928E-02 0.  1.
    10030    2    1    2    0    0  0.00000000000E+00  0.00000000000E+00 -0.38896530642E+02  0.29465970786E+04  0.29463403407E+04 0.  0.
        3    1    3    3  502    0 -0.87677073764E+03 -0.99848763575E+02 -0.11991838966E+04  0.14888716298E+04  0.10100000352E+00 0.  1.
       -3    1    3    3    0  502  0.87677073764E+03  0.99848763575E+02  0.11602873660E+04  0.14577254487E+04  0.10100000352E+00 0. -1.
</event>
<event>
 5   0  0.7074157E-07  0.3604647E+04  0.7818609E-02  0.8089428E-01
       -2   -1    0    0    0  501  0.00000000000E+00  0.00000000000E+00  0.20007753056E+04  0.20007753056E+04  0.25500000920E-02 0.  1.
        2   -1    0    0  501    0  0.00000000000E+00  0.00000000000E+00 -0.16235556980E+04  0.16235556980E+04  0.25500000920E-02 0. -1.
    10030    2    1    2    0    0  0.00000000000E+00  0.00000000000E+00  0.37721960759E+03  0.36243310035E+04  0.36046470827E+04 0.  0.
        3    1    3    3  502    0  0.17117828572E+04  0.45170312168E+03 -0.15107208247E+03  0.17768114826E+04  0.10100000352E+00 0. -1.
       -3    1    3    3    0  502 -0.17117828572E+04 -0.45170312168E+03  0.52829169005E+03  0.18475195210E+04  0.10100000352E+00 0.  1.
</event>
<event>
 5   0  0.2411746E-07  0.3691555E+04  0.7818609E-02  0.8069836E-01
        1   -1    0    0  501    0  0.00000000000E+00  0.00000000000E+00  0.11982282502E+04  0.11982282502E+04  0.50400001928E-02 0. -1.
       -1   -1    0    0    0  501  0.00000000000E+00  0.00000000000E+00 -0.28432770323E+04  0.28432770323E+04  0.50400001928E-02 0.  1.
    10030    2    1    2    0    0  0.00000000000E+00  0.00000000000E+00 -0.16450487821E+04  0.40415052826E+04  0.36915551538E+04 0.  0.
        1    1    3    3  502    0  0.16679733845E+04 -0.77858167433E+03 -0.67333346465E+03  0.19600261707E+04  0.50400001928E-02 0.  1.
       -1    1    3    3    0  502 -0.16679733845E+04  0.77858167433E+03 -0.97171531748E+03  0.20814791119E+04  0.50400001928E-02 0. -1.
</event>
<event>
 5   0  0.2411746E-07  0.3717756E+04  0.7818609E-02  0.8064038E-01
        1   -1    0    0  501    0  0.00000000000E+00  0.00000000000E+00  0.25328095780E+04  0.25328095780E+04  0.50400001928E-02 0.  1.
       -1   -1    0    0    0  501  0.00000000000E+00  0.00000000000E+00 -0.13642667957E+04  0.13642667957E+04  0.50400001928E-02 0. -1.
    10030    2    1    2    0    0  0.00000000000E+00  0.00000000000E+00  0.11685427822E+04  0.38970763737E+04  0.37177563165E+04 0.  0.
        1    1    3    3  502    0  0.15840226556E+04 -0.57280646665E+03 -0.23990474103E+03  0.17014080364E+04  0.50400001928E-02 0. -1.
       -1    1    3    3    0  502 -0.15840226556E+04  0.57280646665E+03  0.14084475232E+04  0.21956683373E+04  0.50400001928E-02 0.  1.
</event>
<event>
 5   0  0.7300916E-07  0.3692139E+04  0.7818609E-02  0.8069706E-01
        2   -1    0    0  501    0  0.00000000000E+00  0.00000000000E+00  0.20516843204E+04  0.20516843204E+04  0.25500000920E-02 0. -1.
       -2   -1    0    0    0  501  0.00000000000E+00  0.00000000000E+00 -0.16610607626E+04  0.16610607627E+04  0.25500000920E-02 0.  1.
    10030    2    1    2    0    0  0.00000000000E+00  0.00000000000E+00  0.39062355771E+03  0.37127450830E+04  0.36921388500E+04 0.  0.
        1    1    3    3  502    0 -0.79856557288E+02  0.75601510211E+03 -0.14963483699E+04  0.16783904040E+04  0.50400001928E-02 0.  1.
       -1    1    3    3    0  502  0.79856557288E+02 -0.75601510211E+03  0.18869719276E+04  0.20343546790E+04  0.50400001928E-02 0. -1.
</event>
<event>
 5   0  0.2287500E-07  0.2893518E+04  0.7818609E-02  0.8274809E-01
       -1   -1    0    0    0  501  0.00000000000E+00  0.00000000000E+00  0.10787863521E+04  0.10787863521E+04  0.50400001928E-02 0.  1.
        1   -1    0    0  501    0  0.00000000000E+00  0.00000000000E+00 -0.19402462880E+04  0.19402462880E+04  0.50400001928E-02 0. -1.
    10030    2    1    2    0    0  0.00000000000E+00  0.00000000000E+00 -0.86145993591E+03  0.30190326400E+04  0.28935177311E+04 0.  0.
        3    1    3    3  502    0  0.82375921568E+03  0.58628138236E+02  0.80869357357E+03  0.11558554452E+04  0.10100000352E+00 0.  1.
       -3    1    3    3    0  502 -0.82375921568E+03 -0.58628138236E+02 -0.16701535095E+04  0.18631771949E+04  0.10100000352E+00 0. -1.
</event>
<event>
 5   0  0.2411746E-07  0.3807407E+04  0.7818609E-02  0.8044567E-01
        1   -1    0    0  501    0  0.00000000000E+00  0.00000000000E+00  0.25106974778E+04  0.25106974778E+04  0.50400001928E-02 0.  1.
       -1   -1    0    0    0  501  0.00000000000E+00  0.00000000000E+00 -0.14434584589E+04  0.14434584590E+04  0.50400001928E-02 0. -1.
    10030    2    1    2    0    0  0.00000000000E+00  0.00000000000E+00  0.10672390188E+04  0.39541559367E+04  0.38074072607E+04 0.  0.
        1    1    3    3  502    0 -0.41705521476E+03 -0.27378405229E+03  0.24415997689E+04  0.24920477906E+04  0.50400001928E-02 0.  1.
       -1    1    3    3    0  502  0.41705521476E+03  0.27378405229E+03 -0.13743607501E+04  0.14621081461E+04  0.50400001928E-02 0. -1.
</event>
<event>
 5   0  0.7074157E-07  0.3817452E+04  0.7818609E-02  0.8042420E-01
       -2   -1    0    0    0  501  0.00000000000E+00  0.00000000000E+00  0.16455193884E+04  0.16455193884E+04  0.25500000920E-02 0. -1.
        2   -1    0    0  501    0  0.00000000000E+00  0.00000000000E+00 -0.22140335303E+04  0.22140335303E+04  0.25500000920E-02 0.  1.
    10030    2    1    2    0    0  0.00000000000E+00  0.00000000000E+00 -0.56851414184E+03  0.38595529187E+04  0.38174520825E+04 0.  0.
        3    1    3    3  502    0  0.11458682292E+04  0.56657013559E+03 -0.17173590115E+04  0.21408731167E+04  0.10100000352E+00 0.  1.
       -3    1    3    3    0  502 -0.11458682292E+04 -0.56657013559E+03  0.11488448696E+04  0.17186798020E+04  0.10100000352E+00 0. -1.
</event>
<event>
 5   0  0.6949625E-07  0.3715011E+04  0.7818609E-02  0.8064643E-01
        2   -1    0    0  501    0  0.00000000000E+00  0.00000000000E+00  0.12515599906E+04  0.12515599906E+04  0.25500000920E-02 0. -1.
       -2   -1    0    0    0  501  0.00000000000E+00  0.00000000000E+00 -0.27568208394E+04  0.27568208394E+04  0.25500000920E-02 0.  1.
    10030    2    1    2    0    0  0.00000000000E+00  0.00000000000E+00 -0.15052608488E+04  0.40083808300E+04  0.37150109900E+04 0.  0.
        5    1    3    3  502    0 -0.14747918780E+04  0.55146809756E+03 -0.18159356299E+04  0.24034917200E+04  0.46999998093E+01 0.  1.
       -5    1    3    3    0  502  0.14747918780E+04 -0.55146809756E+03  0.31067478104E+03  0.16048891101E+04  0.46999998093E+01 0. -1.
</event>
<event>
 5   0  0.7124627E-07  0.3761229E+04  0.7818609E-02  0.8054527E-01
       -2   -1    0    0    0  501  0.00000000000E+00  0.00000000000E+00  0.14020295258E+04  0.14020295258E+04  0.25500000920E-02 0. -1.
        2   -1    0    0  501    0  0.00000000000E+00  0.00000000000E+00 -0.25225648574E+04  0.25225648574E+04  0.25500000920E-02 0.  1.
    10030    2    1    2    0    0  0.00000000000E+00  0.00000000000E+00 -0.11205353316E+04  0.39245943833E+04  0.37612287412E+04 0.  0.
        2    1    3    3  502    0 -0.59926200793E+03 -0.16865382470E+04 -0.11625598534E+04  0.21342613770E+04  0.25500000920E-02 0.  1.
       -2    1    3    3    0  502  0.59926200793E+03  0.16865382470E+04  0.42024521765E+02  0.17903330062E+04  0.25500000920E-02 0. -1.
</event>
<event>
 5   0  0.7124627E-07  0.3675706E+04  0.7818609E-02  0.8073367E-01
        2   -1    0    0  501    0  0.00000000000E+00  0.00000000000E+00  0.27161131990E+04  0.27161131990E+04  0.25500000920E-02 0. -1.
       -2   -1    0    0    0  501  0.00000000000E+00  0.00000000000E+00 -0.12435796277E+04  0.12435796277E+04  0.25500000920E-02 0.  1.
    10030    2    1    2    0    0  0.00000000000E+00  0.00000000000E+00  0.14725335713E+04  0.39596928267E+04  0.36757056687E+04 0.  0.
        2    1    3    3  502    0 -0.12215325713E+04 -0.14445207398E+03 -0.73477378487E+03  0.14327947304E+04  0.25500000920E-02 0.  1.
       -2    1    3    3    0  502  0.12215325713E+04  0.14445207398E+03  0.22073073562E+04  0.25268980963E+04  0.25500000920E-02 0. -1.
</event>
<event>
 5   0  0.7074157E-07  0.3697284E+04  0.7818609E-02  0.8068564E-01
        2   -1    0    0  501    0  0.00000000000E+00  0.00000000000E+00  0.16718456675E+04  0.16718456675E+04  0.25500000920E-02 0. -1.
       -2   -1    0    0    0  501  0.00000000000E+00  0.00000000000E+00 -0.20441345899E+04  0.20441345899E+04  0.25500000920E-02 0.  1.
    10030    2    1    2    0    0  0.00000000000E+00  0.00000000000E+00 -0.37228892247E+03  0.37159802574E+04  0.36972841697E+04 0.  0.
        3    1    3    3  502    0 -0.14154964224E+04 -0.85799776830E+03  0.64123593352E+03  0.17750982578E+04  0.10100000352E+00 0. -1.
       -3    1    3    3    0  502  0.14154964224E+04  0.85799776830E+03 -0.10135248560E+04  0.19408819996E+04  0.10100000352E+00 0.  1.
</event>
<event>
 5   0  0.2287500E-07  0.3482088E+04  0.7818609E-02  0.8118048E-01
       -1   -1    0    0    0  501  0.00000000000E+00  0.00000000000E+00  0.16706669987E+04  0.16706669987E+04  0.50400001928E-02 0.  1.
        1   -1    0    0  501    0  0.00000000000E+00  0.00000000000E+00 -0.18143855710E+04  0.18143855710E+04  0.50400001928E-02 0. -1.
    10030    2    1    2    0    0  0.00000000000E+00  0.00000000000E+00 -0.14371857229E+03  0.34850525697E+04  0.34820879348E+04 0.  0.
        2    1    3    3  502    0  0.16298274479E+04 -0.35987190457E+03 -0.56764837718E+03  0.17629719163E+04  0.25500000920E-02 0. -1.
       -2    1    3    3    0  502 -0.16298274479E+04  0.35987190457E+03  0.42392980489E+03  0.17220806535E+04  0.25500000920E-02 0.  1.
</event>
<event>
 5   0  0.7300916E-07  0.3732273E+04  0.7818609E-02  0.8060847E-01
       -2   -1    0    0    0  501  0.00000000000E+00  0.00000000000E+00  0.16760701991E+04  0.16760701991E+04  0.25500000920E-02 0.  1.
        2   -1    0    0  501    0  0.00000000000E+00  0.00000000000E+00 -0.20777567257E+04  0.20777567257E+04  0.25500000920E-02 0. -1.
    10030    2    1    2    0    0  0.00000000000E+00  0.00000000000E+00 -0.40168652653E+03  0.37538269248E+04  0.37322733710E+04 0.  0.
        1    1    3    3  502    0 -0.14133811175E+04  0.55614523305E+03 -0.12913196306E+04  0.19936022904E+04  0.50400001928E-02 0. -1.
       -1    1    3    3    0  502  0.14133811175E+04 -0.55614523305E+03  0.88963310411E+03  0.17602246344E+04  0.50400001928E-02 0.  1.
</event>
<event>
 5   0  0.2287500E-07  0.3739278E+04  0.7818609E-02  0.8059313E-01
        1   -1    0    0  501    0  0.00000000000E+00  0.00000000000E+00  0.18680372063E+04  0.18680372063E+04  0.50400001928E-02 0. -1.
       -1   -1    0    0    0  501  0.00000000000E+00  0.00000000000E+00 -0.18712418162E+04  0.18712418162E+04  0.50400001928E-02 0.  1.
    10030    2    1    2    0    0  0.00000000000E+00  0.00000000000E+00 -0.32046099007E+01  0.37392790225E+04  0.37392776493E+04 0.  0.
        3    1    3    3  502    0  0.12851906064E+04  0.98214588247E+03 -0.93927204472E+03  0.18704431062E+04  0.10100000352E+00 0.  1.
       -3    1    3    3    0  502 -0.12851906064E+04 -0.98214588247E+03  0.93606743482E+03  0.18688359163E+04  0.10100000352E+00 0. -1.
</event>
<event>
 5   0  0.2287500E-07  0.3693906E+04  0.7818609E-02  0.8069314E-01
        1   -1    0    0  501    0  0.00000000000E+00  0.00000000000E+00  0.26288030424E+04  0.26288030424E+04  0.50400001928E-02 0.  1.
       -1   -1    0    0    0  501  0.00000000000E+00  0.00000000000E+00 -0.12976385247E+04  0.12976385247E+04  0.50400001928E-02 0. -1.
    10030    2    1    2    0    0  0.00000000000E+00  0.00000000000E+00  0.13311645177E+04  0.39264415671E+04  0.36939063885E+04 0.  0.
        3    1    3    3  502    0 -0.74396504010E+03 -0.12646585448E+04  0.18579796955E+04  0.23674741339E+04  0.10100000352E+00 0.  1.
       -3    1    3    3    0  502  0.74396504010E+03  0.12646585448E+04 -0.52681517779E+03  0.15589674332E+04  0.10100000352E+00 0. -1.
</event>
<event>
 5   0  0.2287500E-07  0.2704741E+04  0.7818609E-02  0.8333468E-01
       -1   -1    0    0    0  501  0.00000000000E+00  0.00000000000E+00  0.14152626175E+04  0.14152626176E+04  0.50400001928E-02 0.  1.
        1   -1    0    0  501    0  0.00000000000E+00  0.00000000000E+00 -0.12922732919E+04  0.12922732919E+04  0.50400001928E-02 0. -1.
    10030    2    1    2    0    0  0.00000000000E+00  0.00000000000E+00  0.12298932567E+03  0.27075359094E+04  0.27047410831E+04 0.  0.
        4    1    3    3  502    0  0.78160780126E+03 -0.99346733821E+03 -0.41964360184E+03  0.13319123367E+04  0.12699999809E+01 0. -1.
       -4    1    3    3    0  502 -0.78160780126E+03  0.99346733821E+03  0.54263292750E+03  0.13756235728E+04  0.12699999809E+01 0.  1.
</event>
<event>
 5   0  0.6939921E-07  0.3675674E+04  0.7818609E-02  0.8073374E-01
       -2   -1    0    0    0  501  0.00000000000E+00  0.00000000000E+00  0.16553998810E+04  0.16553998810E+04  0.25500000920E-02 0. -1.
        2   -1    0    0  501    0  0.00000000000E+00  0.00000000000E+00 -0.20403804861E+04  0.20403804861E+04  0.25500000920E-02 0.  1.
    10030    2    1    2    0    0  0.00000000000E+00  0.00000000000E+00 -0.38498060512E+03  0.36957803671E+04  0.36756744219E+04 0.  0.
        4    1    3    3  502    0 -0.10377806009E+04  0.10176139315E+04  0.93843655310E+03  0.17300842368E+04  0.12699999809E+01 0. -1.
       -4    1    3    3    0  502  0.10377806009E+04 -0.10176139315E+04 -0.13234171582E+04  0.19656961303E+04  0.12699999809E+01 0.  1.
</event>
<event>
 5   0  0.2287500E-07  0.3691270E+04  0.7818609E-02  0.8069899E-01
       -1   -1    0    0    0  501  0.00000000000E+00  0.00000000000E+00  0.27091979674E+04  0.27091979674E+04  0.50400001928E-02 0. -1.
        1   -1    0    0  501    0  0.00000000000E+00  0.00000000000E+00 -0.12573347157E+04  0.12573347157E+04  0.50400001928E-02 0.  1.
    10030    2    1    2    0    0  0.00000000000E+00  0.00000000000E+00  0.14518632517E+04  0.39665326831E+04  0.36912700558E+04 0.  0.
        3    1    3    3  502    0  0.15287471381E+04 -0.12623920466E+03 -0.37693896453E+03  0.15795844840E+04  0.10100000352E+00 0.  1.
       -3    1    3    3    0  502 -0.15287471381E+04  0.12623920466E+03  0.18288022162E+04  0.23869481991E+04  0.10100000352E+00 0. -1.
</event>
<event>
 5   0  0.6949625E-07  0.3749317E+04  0.7818609E-02  0.8057120E-01
        2   -1    0    0  501    0  0.00000000000E+00  0.00000000000E+00  0.19500676857E+04  0.19500676857E+04  0.25500000920E-02 0.  1.
       -2   -1    0    0    0  501  0.00000000000E+00  0.00000000000E+00 -0.18021657708E+04  0.18021657708E+04  0.25500000920E-02 0. -1.
    10030    2    1    2    0    0  0.00000000000E+00  0.00000000000E+00  0.14790191489E+03  0.37522334564E+04  0.37493173959E+04 0.  0.
        5    1    3    3  502    0 -0.16890519234E+04 -0.26896060676E+03  0.84206789249E+03  0.19063936198E+04  0.46999998093E+01 0.  1.
       -5    1    3    3    0  502  0.16890519234E+04  0.26896060676E+03 -0.69416597760E+03  0.18458398366E+04  0.46999998093E+01 0. -1.
</event>
<event>
 5   0  0.2287500E-07  0.3703661E+04  0.7818609E-02  0.8067151E-01
        1   -1    0    0  501    0  0.00000000000E+00  0.00000000000E+00  0.17999451791E+04  0.17999451791E+04  0.50400001928E-02 0.  1.
       -1   -1    0    0    0  501  0.00000000000E+00  0.00000000000E+00 -0.19052111843E+04  0.19052111843E+04  0.50400001928E-02 0. -1.
    10030    2    1    2    0    0  0.00000000000E+00  0.00000000000E+00 -0.10526600520E+03  0.37051563635E+04  0.37036607223E+04 0.  0.
        3    1    3    3  502    0 -0.11628792600E+04  0.11950462411E+03 -0.14894254164E+04  0.18933984287E+04  0.10100000352E+00 0. -1.
       -3    1    3    3    0  502  0.11628792600E+04 -0.11950462411E+03  0.13841594112E+04  0.18117579348E+04  0.10100000352E+00 0.  1.
</event>
<event>
 5   0  0.7300916E-07  0.3677238E+04  0.7818609E-02  0.8073025E-01
        2   -1    0    0  501    0  0.00000000000E+00  0.00000000000E+00  0.11417906386E+04  0.11417906386E+04  0.25500000920E-02 0.  1.
       -2   -1    0    0    0  501  0.00000000000E+00  0.00000000000E+00 -0.29607177043E+04  0.29607177043E+04  0.25500000920E-02 0. -1.
    10030    2    1    2    0    0  0.00000000000E+00  0.00000000000E+00 -0.18189270658E+04  0.41025083429E+04  0.36772379625E+04 0.  0.
        1    1    3    3  502    0 -0.40011921344E+03 -0.51106215736E+03 -0.28286528648E+04  0.29021641827E+04  0.50400001928E-02 0. -1.
       -1    1    3    3    0  502  0.40011921344E+03  0.51106215736E+03  0.10097257991E+04  0.12003441602E+04  0.50400001928E-02 0.  1.
</event>
<event>
 5   0  0.2287500E-07  0.3686205E+04  0.7818609E-02  0.8071026E-01
       -1   -1    0    0    0  501  0.00000000000E+00  0.00000000000E+00  0.14080566342E+04  0.14080566342E+04  0.50400001928E-02 0. -1.
        1   -1    0    0  501    0  0.00000000000E+00  0.00000000000E+00 -0.24125641843E+04  0.24125641843E+04  0.50400001928E-02 0.  1.
    10030    2    1    2    0    0  0.00000000000E+00  0.00000000000E+00 -0.10045075502E+04  0.38206208185E+04  0.36862050974E+04 0.  0.
        3    1    3    3  502    0  0.12013587054E+03  0.55135001440E+03 -0.23208304062E+04  0.23884457813E+04  0.10100000352E+00 0.  1.
       -3    1    3    3    0  502 -0.12013587054E+03 -0.55135001440E+03  0.13163228560E+04  0.14321750372E+04  0.10100000352E+00 0. -1.
</event>
<event>
 5   0  0.6949625E-07  0.3660289E+04  0.7818609E-02  0.8076820E-01
        2   -1    0    0  501    0  0.00000000000E+00  0.00000000000E+00  0.17782059167E+04  0.17782059167E+04  0.25500000920E-02 0.  1.
       -2   -1    0    0    0  501  0.00000000000E+00  0.00000000000E+00 -0.18835998960E+04  0.18835998960E+04  0.25500000920E-02 0. -1.
    10030    2    1    2    0    0  0.00000000000E+00  0.00000000000E+00 -0.10539397928E+03  0.36618058127E+04  0.36602887754E+04 0.  0.
        5    1    3    3  502    0  0.16596169436E+04 -0.27272932014E+03  0.66919525442E+03  0.18101254266E+04  0.46999998093E+01 0.  1.
       -5    1    3    3    0  502 -0.16596169436E+04  0.27272932014E+03 -0.77458923370E+03  0.18516803861E+04  0.46999998093E+01 0. -1.
</event>
<event>
 5   0  0.7074157E-07  0.2973485E+04  0.7818609E-02  0.8251343E-01
       -2   -1    0    0    0  501  0.00000000000E+00  0.00000000000E+00  0.11692171641E+04  0.11692171641E+04  0.25500000920E-02 0.  1.
        2   -1    0    0  501    0  0.00000000000E+00  0.00000000000E+00 -0.18904990766E+04  0.18904990766E+04  0.25500000920E-02 0. -1.
    10030    2    1    2    0    0  0.00000000000E+00  0.00000000000E+00 -0.72128191243E+03  0.30597162407E+04  0.29734854760E+04 0.  0.
        3    1    3    3  502    0  0.13290689365E+04  0.36959493042E+02 -0.10452265639E+04  0.16912388424E+04  0.10100000352E+00 0. -1.
       -3    1    3    3    0  502 -0.13290689365E+04 -0.36959493042E+02  0.32394465144E+03  0.13684773982E+04  0.10100000352E+00 0.  1.
</event>
<event>
 5   0  0.7074157E-07  0.3655455E+04  0.7818609E-02  0.8077906E-01
        2   -1    0    0  501    0  0.00000000000E+00  0.00000000000E+00  0.21658621218E+04  0.21658621218E+04  0.25500000920E-02 0. -1.
       -2   -1    0    0    0  501  0.00000000000E+00  0.00000000000E+00 -0.15423822597E+04  0.15423822597E+04  0.25500000920E-02 0.  1.
    10030    2    1    2    0    0  0.00000000000E+00  0.00000000000E+00  0.62347986207E+03  0.37082443815E+04  0.36554547261E+04 0.  0.
        3    1    3    3  502    0  0.98120810708E+03 -0.78540882816E+03 -0.10344321049E+04  0.16277856636E+04  0.10100000352E+00 0.  1.
       -3    1    3    3    0  502 -0.98120810708E+03  0.78540882816E+03  0.16579119669E+04  0.20804587179E+04  0.10100000352E+00 0. -1.
</event>
<event>
 5   0  0.2411746E-07  0.3416234E+04  0.7818609E-02  0.8133933E-01
        1   -1    0    0  501    0  0.00000000000E+00  0.00000000000E+00  0.16455179900E+04  0.16455179900E+04  0.50400001928E-02 0. -1.
       -1   -1    0    0    0  501  0.00000000000E+00  0.00000000000E+00 -0.17730975699E+04  0.17730975699E+04  0.50400001928E-02 0.  1.
    10030    2    1    2    0    0  0.00000000000E+00  0.00000000000E+00 -0.12757957990E+03  0.34186155600E+04  0.34162341544E+04 0.  0.
        1    1    3    3  502    0  0.71917632490E+03  0.20840952247E+03  0.14725376682E+04  0.16519734561E+04  0.50400001928E-02 0. -1.
       -1    1    3    3    0  502 -0.71917632490E+03 -0.20840952247E+03 -0.16001172481E+04  0.17666421039E+04  0.50400001928E-02 0.  1.
</event>
<event>
 5   0  0.2287500E-07  0.2990518E+04  0.7818609E-02  0.8246444E-01
        1   -1    0    0  501    0  0.00000000000E+00  0.00000000000E+00  0.12298345506E+04  0.12298345506E+04  0.50400001928E-02 0. -1.
       -1   -1    0    0    0  501  0.00000000000E+00  0.00000000000E+00 -0.18179673240E+04  0.18179673240E+04  0.50400001928E-02 0.  1.
    10030    2    1    2    0    0  0.00000000000E+00  0.00000000000E+00 -0.58813277340E+03  0.30478018746E+04  0.29905176990E+04 0.  0.
        4    1    3    3  502    0  0.38227177854E+03 -0.14315091798E+04 -0.89099160839E+02  0.14843485163E+04  0.12699999809E+01 0.  1.
       -4    1    3    3    0  502 -0.38227177854E+03  0.14315091798E+04 -0.49903361256E+03  0.15634533584E+04  0.12699999809E+01 0. -1.
</event>
<event>
 5   0  0.2411746E-07  0.3750926E+04  0.7818609E-02  0.8056769E-01
       -1   -1    0    0    0  501  0.00000000000E+00  0.00000000000E+00  0.19128312543E+04  0.19128312543E+04  0.50400001928E-02 0.  1.
        1   -1    0    0  501    0  0.00000000000E+00  0.00000000000E+00 -0.18388243794E+04  0.18388243794E+04  0.50400001928E-02 0. -1.
    10030    2    1    2    0    0  0.00000000000E+00  0.00000000000E+00  0.74006874901E+02  0.37516556338E+04  0.37509256160E+04 0.  0.
        1    1    3    3  502    0 -0.15190327833E+04 -0.58438876425E+03 -0.89505233901E+03  0.18574416584E+04  0.50400001928E-02 0. -1.
       -1    1    3    3    0  502  0.15190327833E+04  0.58438876425E+03  0.96905921391E+03  0.18942139754E+04  0.50400001928E-02 0.  1.
</event>
<event>
 5   0  0.2287500E-07  0.3723836E+04  0.7818609E-02  0.8062700E-01
       -3   -1    0    0    0  501  0.00000000000E+00  0.00000000000E+00  0.18421295170E+04  0.18421295198E+04  0.10100000352E+00 0. -1.
        3   -1    0    0  501    0  0.00000000000E+00  0.00000000000E+00 -0.18819194036E+04  0.18819194063E+04  0.10100000352E+00 0.  1.
    10030    2    1    2    0    0  0.00000000000E+00  0.00000000000E+00 -0.39789886567E+02  0.37240489261E+04  0.37238363510E+04 0.  0.
        1    1    3    3  502    0 -0.72321076544E+03 -0.60112129491E+03 -0.16269585717E+04  0.18791952577E+04  0.50400001928E-02 0.  1.
       -1    1    3    3    0  502  0.72321076544E+03  0.60112129491E+03  0.15871686852E+04  0.18448536684E+04  0.50400001928E-02 0. -1.
</event>
<event>
 5   0  0.2287500E-07  0.3717236E+04  0.7818609E-02  0.8064153E-01
        1   -1    0    0  501    0  0.00000000000E+00  0.00000000000E+00  0.15639565582E+04  0.15639565582E+04  0.50400001928E-02 0.  1.
       -1   -1    0    0    0  501  0.00000000000E+00  0.00000000000E+00 -0.22087953680E+04  0.22087953680E+04  0.50400001928E-02 0. -1.
    10030    2    1    2    0    0  0.00000000000E+00  0.00000000000E+00 -0.64483880981E+03  0.37727519262E+04  0.37172355327E+04 0.  0.
        3    1    3    3  502    0 -0.52324449160E+03  0.16171062831E+04  0.44090504213E+03  0.17559085384E+04  0.10100000352E+00 0.  1.
       -3    1    3    3    0  502  0.52324449160E+03 -0.16171062831E+04 -0.10857438519E+04  0.20168433878E+04  0.10100000352E+00 0. -1.
</event>
<event>
 5   0  0.2287500E-07  0.3708109E+04  0.7818609E-02  0.8066167E-01
       -1   -1    0    0    0  501  0.00000000000E+00  0.00000000000E+00  0.18512798592E+04  0.18512798592E+04  0.50400001928E-02 0. -1.
        1   -1    0    0  501    0  0.00000000000E+00  0.00000000000E+00 -0.18568335945E+04  0.18568335945E+04  0.50400001928E-02 0.  1.
    10030    2    1    2    0    0  0.00000000000E+00  0.00000000000E+00 -0.55537352564E+01  0.37081134537E+04  0.37081092947E+04 0.  0.
        4    1    3    3  502    0  0.53155294256E+03  0.48686000487E+03 -0.17109754430E+04  0.18566151390E+04  0.12699999809E+01 0.  1.
       -4    1    3    3    0  502 -0.53155294256E+03 -0.48686000487E+03  0.17054217077E+04  0.18514983147E+04  0.12699999809E+01 0. -1.
</event>
<event>
 5   0  0.2287500E-07  0.3771906E+04  0.7818609E-02  0.8052211E-01
       -1   -1    0    0    0  501  0.00000000000E+00  0.00000000000E+00  0.13017691390E+04  0.13017691391E+04  0.50400001928E-02 0.  1.
        1   -1    0    0  501    0  0.00000000000E+00  0.00000000000E+00 -0.27322966071E+04  0.27322966071E+04  0.50400001928E-02 0. -1.
    10030    2    1    2    0    0  0.00000000000E+00  0.00000000000E+00 -0.14305274681E+04  0.40340657462E+04  0.37719063625E+04 0.  0.
        2    1    3    3  502    0 -0.48140490950E+03 -0.17314254281E+04 -0.10346053244E+03  0.18000802154E+04  0.25500000920E-02 0.  1.
       -2    1    3    3    0  502  0.48140490950E+03  0.17314254281E+04 -0.13270669356E+04  0.22339855308E+04  0.25500000920E-02 0. -1.
</event>
<event>
 5   0  0.7124627E-07  0.4136970E+04  0.7818609E-02  0.7977471E-01
        2   -1    0    0  501    0  0.00000000000E+00  0.00000000000E+00  0.18683288242E+04  0.18683288242E+04  0.25500000920E-02 0. -1.
       -2   -1    0    0    0  501  0.00000000000E+00  0.00000000000E+00 -0.22900840164E+04  0.22900840164E+04  0.25500000920E-02 0.  1.
    10030    2    1    2    0    0  0.00000000000E+00  0.00000000000E+00 -0.42175519222E+03  0.41584128407E+04  0.41369698949E+04 0.  0.
        2    1    3    3  502    0 -0.13327942792E+04  0.13004094513E+04 -0.11162261475E+04  0.21710288216E+04  0.25500000920E-02 0.  1.
       -2    1    3    3    0  502  0.13327942792E+04 -0.13004094513E+04  0.69447095532E+03  0.19873840191E+04  0.25500000920E-02 0. -1.
</event>
<event>
 5   0  0.2345471E-07  0.3682229E+04  0.7818609E-02  0.8071911E-01
        1   -1    0    0  501    0  0.00000000000E+00  0.00000000000E+00  0.19188975528E+04  0.19188975528E+04  0.50400001928E-02 0. -1.
       -1   -1    0    0    0  501  0.00000000000E+00  0.00000000000E+00 -0.17664846431E+04  0.17664846431E+04  0.50400001928E-02 0.  1.
    10030    2    1    2    0    0  0.00000000000E+00  0.00000000000E+00  0.15241290977E+03  0.36853821959E+04  0.36822292480E+04 0.  0.
        5    1    3    3  502    0  0.11660166978E+03  0.37176667155E+03 -0.17247438121E+04  0.17682108796E+04  0.46999998093E+01 0.  1.
       -5    1    3    3    0  502 -0.11660166978E+03 -0.37176667155E+03  0.18771567219E+04  0.19171713163E+04  0.46999998093E+01 0. -1.
</event>
<event>
 5   0  0.2287500E-07  0.3632744E+04  0.7818609E-02  0.8083032E-01
       -1   -1    0    0    0  501  0.00000000000E+00  0.00000000000E+00  0.21193949231E+04  0.21193949231E+04  0.50400001928E-02 0. -1.
        1   -1    0    0  501    0  0.00000000000E+00  0.00000000000E+00 -0.15566743843E+04  0.15566743843E+04  0.50400001928E-02 0.  1.
    10030    2    1    2    0    0  0.00000000000E+00  0.00000000000E+00  0.56272053878E+03  0.36760693074E+04  0.36327442998E+04 0.  0.
        3    1    3    3  502    0 -0.90145433742E+03 -0.87918584788E+03  0.16060254918E+04  0.20408100274E+04  0.10100000352E+00 0. -1.
       -3    1    3    3    0  502  0.90145433742E+03  0.87918584788E+03 -0.10433049530E+04  0.16352592800E+04  0.10100000352E+00 0.  1.
</event>
<event>
 5   0  0.7124627E-07  0.3727397E+04  0.7818609E-02  0.8061917E-01
        2   -1    0    0  501    0  0.00000000000E+00  0.00000000000E+00  0.19992193993E+04  0.19992193993E+04  0.25500000920E-02 0.  1.
       -2   -1    0    0    0  501  0.00000000000E+00  0.00000000000E+00 -0.17373643256E+04  0.17373643256E+04  0.25500000920E-02 0. -1.
    10030    2    1    2    0    0  0.00000000000E+00  0.00000000000E+00  0.26185507372E+03  0.37365837249E+04  0.37273971956E+04 0.  0.
        2    1    3    3  502    0  0.12594727935E+04  0.15362463802E+03  0.14993927674E+04  0.19641921795E+04  0.25500000920E-02 0.  1.
       -2    1    3    3    0  502 -0.12594727935E+04 -0.15362463802E+03 -0.12375376937E+04  0.17723915454E+04  0.25500000920E-02 0. -1.
</event>
<event>
 5   0  0.2287500E-07  0.3696793E+04  0.7818609E-02  0.8068673E-01
       -1   -1    0    0    0  501  0.00000000000E+00  0.00000000000E+00  0.17731573879E+04  0.17731573879E+04  0.50400001928E-02 0.  1.
        1   -1    0    0  501    0  0.00000000000E+00  0.00000000000E+00 -0.19268284532E+04  0.19268284532E+04  0.50400001928E-02 0. -1.
    10030    2    1    2    0    0  0.00000000000E+00  0.00000000000E+00 -0.15367106531E+03  0.36999858410E+04  0.36967932628E+04 0.  0.
        2    1    3    3  502    0  0.61288393351E+02 -0.23039855932E+03  0.17577041442E+04  0.17737992056E+04  0.25500000920E-02 0.  1.
       -2    1    3    3    0  502 -0.61288393351E+02  0.23039855932E+03 -0.19113752095E+04  0.19261866355E+04  0.25500000920E-02 0. -1.
</event>
<event>
 5   0  0.2345471E-07  0.3308135E+04  0.7818609E-02  0.8160829E-01
       -1   -1    0    0    0  501  0.00000000000E+00  0.00000000000E+00  0.13416217600E+04  0.13416217600E+04  0.50400001928E-02 0.  1.
        1   -1    0    0  501    0  0.00000000000E+00  0.00000000000E+00 -0.20392775019E+04  0.20392775019E+04  0.50400001928E-02 0. -1.
    10030    2    1    2    0    0  0.00000000000E+00  0.00000000000E+00 -0.69765574191E+03  0.33808992619E+04  0.33081348650E+04 0.  0.
        5    1    3    3  502    0  0.13173976860E+04  0.16744586793E+03 -0.13565912938E+04  0.18984037532E+04  0.46999998093E+01 0. -1.
       -5    1    3    3    0  502 -0.13173976860E+04 -0.16744586793E+03  0.65893555190E+03  0.14824955087E+04  0.46999998093E+01 0.  1.
</event>
<event>
 5   0  0.7300916E-07  0.3681668E+04  0.7818609E-02  0.8072037E-01
        2   -1    0    0  501    0  0.00000000000E+00  0.00000000000E+00  0.17243744130E+04  0.17243744130E+04  0.25500000920E-02 0. -1.
       -2   -1    0    0    0  501  0.00000000000E+00  0.00000000000E+00 -0.19651591003E+04  0.19651591003E+04  0.25500000920E-02 0.  1.
    10030    2    1    2    0    0  0.00000000000E+00  0.00000000000E+00 -0.24078468729E+03  0.36895335132E+04  0.36816681382E+04 0.  0.
        1    1    3    3  502    0 -0.41940076057E+03  0.17529537520E+04 -0.49525861299E+03  0.18692311116E+04  0.50400001928E-02 0.  1.
       -1    1    3    3    0  502  0.41940076057E+03 -0.17529537520E+04  0.25447392570E+03  0.18203024017E+04  0.50400001928E-02 0. -1.
</event>
<event>
 5   0  0.7124627E-07  0.3673162E+04  0.7818609E-02  0.8073936E-01
       -2   -1    0    0    0  501  0.00000000000E+00  0.00000000000E+00  0.11896451604E+04  0.11896451604E+04  0.25500000920E-02 0. -1.
        2   -1    0    0  501    0  0.00000000000E+00  0.00000000000E+00 -0.28353248721E+04  0.28353248721E+04  0.25500000920E-02 0.  1.
    10030    2    1    2    0    0  0.00000000000E+00  0.00000000000E+00 -0.16456797118E+04  0.40249700325E+04  0.36731624043E+04 0.  0.
        2    1    3    3  502    0 -0.53452460224E+03 -0.12079046817E+04 -0.22210971616E+04  0.25841870814E+04  0.25500000920E-02 0.  1.
       -2    1    3    3    0  502  0.53452460224E+03  0.12079046817E+04  0.57541744979E+03  0.14407829511E+04  0.25500000920E-02 0. -1.
</event>
<event>
 5   0  0.6939921E-07  0.3748411E+04  0.7818609E-02  0.8057317E-01
        2   -1    0    0  501    0  0.00000000000E+00  0.00000000000E+00  0.24053251192E+04  0.24053251192E+04  0.25500000920E-02 0. -1.
       -2   -1    0    0    0  501  0.00000000000E+00  0.00000000000E+00 -0.14603626572E+04  0.14603626572E+04  0.25500000920E-02 0.  1.
    10030    2    1    2    0    0  0.00000000000E+00  0.00000000000E+00  0.94496246191E+03  0.38656877764E+04  0.37484113875E+04 0.  0.
        4    1    3    3  502    0 -0.13905811029E+04  0.12474503821E+04  0.31677018480E+03  0.18947805209E+04  0.12699999809E+01 0.  1.
       -4    1    3    3    0  502  0.13905811029E+04 -0.12474503821E+04  0.62819227711E+03  0.19709072555E+04  0.12699999809E+01 0. -1.
</event>
<event>
 5   0  0.6949625E-07  0.3694271E+04  0.7818609E-02  0.8069233E-01
       -2   -1    0    0    0  501  0.00000000000E+00  0.00000000000E+00  0.11435118522E+04  0.11435118522E+04  0.25500000920E-02 0. -1.
        2   -1    0    0  501    0  0.00000000000E+00  0.00000000000E+00 -0.29837117454E+04  0.29837117454E+04  0.25500000920E-02 0.  1.
    10030    2    1    2    0    0  0.00000000000E+00  0.00000000000E+00 -0.18401998932E+04  0.41272235976E+04  0.36942711024E+04 0.  0.
        5    1    3    3  502    0  0.12857633249E+03 -0.11519701874E+04 -0.25268123640E+04  0.27799946041E+04  0.46999998093E+01 0.  1.
       -5    1    3    3    0  502 -0.12857633249E+03  0.11519701874E+04  0.68661247078E+03  0.13472289935E+04  0.46999998093E+01 0. -1.
</event>
<event>
 5   0  0.6939921E-07  0.3633363E+04  0.7818609E-02  0.8082892E-01
       -2   -1    0    0    0  501  0.00000000000E+00  0.00000000000E+00  0.13549750006E+04  0.13549750006E+04  0.25500000920E-02 0.  1.
        2   -1    0    0  501    0  0.00000000000E+00  0.00000000000E+00 -0.24357141966E+04  0.24357141966E+04  0.25500000920E-02 0. -1.
    10030    2    1    2    0    0  0.00000000000E+00  0.00000000000E+00 -0.10807391959E+04  0.37906891972E+04  0.36333630950E+04 0.  0.
        4    1    3    3  502    0 -0.10092648286E+04 -0.13808125177E+04  0.98579742814E+02  0.17131778313E+04  0.12699999809E+01 0. -1.
       -4    1    3    3    0  502  0.10092648286E+04  0.13808125177E+04 -0.11793189388E+04  0.20775113659E+04  0.12699999809E+01 0.  1.
</event>
<event>
 5   0  0.7300916E-07  0.3718463E+04  0.7818609E-02  0.8063883E-01
        2   -1    0    0  501    0  0.00000000000E+00  0.00000000000E+00  0.21352624573E+04  0.21352624573E+04  0.25500000920E-02 0.  1.
       -2   -1    0    0    0  501  0.00000000000E+00  0.00000000000E+00 -0.16188834506E+04  0.16188834506E+04  0.25500000920E-02 0. -1.
    10030    2    1    2    0    0  0.00000000000E+00  0.00000000000E+00  0.51637900669E+03  0.37541459078E+04  0.37184626150E+04 0.  0.
        1    1    3    3  502    0  0.10145607955E+04  0.67159595900E+03 -0.11611341809E+04  0.16818464038E+04  0.50400001928E-02 0. -1.
       -1    1    3    3    0  502 -0.10145607955E+04 -0.67159595900E+03  0.16775131876E+04  0.20722995041E+04  0.50400001928E-02 0.  1.
</event>
<event>
 5   0  0.2287500E-07  0.4153852E+04  0.7818609E-02  0.7974209E-01
       -1   -1    0    0    0  501  0.00000000000E+00  0.00000000000E+00  0.29580633471E+04  0.29580633471E+04  0.50400001928E-02 0. -1.
        1   -1    0    0  501    0  0.00000000000E+00  0.00000000000E+00 -0.14582585026E+04  0.14582585026E+04  0.50400001928E-02 0.  1.
    10030    2    1    2    0    0  0.00000000000E+00  0.00000000000E+00  0.14998048445E+04  0.44163218498E+04  0.41538517197E+04 0.  0.
        2    1    3    3  502    0 -0.60412696701E+03 -0.32512825627E+03  0.28341135598E+04  0.29159693835E+04  0.25500000920E-02 0. -1.
       -2    1    3    3    0  502  0.60412696701E+03  0.32512825627E+03 -0.13343087153E+04  0.15003524663E+04  0.25500000920E-02 0.  1.
</event>
<event>
 5   0  0.7124627E-07  0.3694459E+04  0.7818609E-02  0.8069191E-01
        2   -1    0    0  501    0  0.00000000000E+00  0.00000000000E+00  0.27155541014E+04  0.27155541014E+04  0.25500000920E-02 0.  1.
       -2   -1    0    0    0  501  0.00000000000E+00  0.00000000000E+00 -0.12565602073E+04  0.12565602073E+04  0.25500000920E-02 0. -1.
    10030    2    1    2    0    0  0.00000000000E+00  0.00000000000E+00  0.14589938941E+04  0.39721143086E+04  0.36944592159E+04 0.  0.
        2    1    3    3  502    0  0.16657174860E+04 -0.32607395140E+03  0.15131940334E+04  0.22739162578E+04  0.25500000920E-02 0.  1.
       -2    1    3    3    0  502 -0.16657174860E+04  0.32607395140E+03 -0.54200139269E+02  0.16981980508E+04  0.25500000920E-02 0. -1.
</event>
<event>
 5   0  0.7074157E-07  0.3689847E+04  0.7818609E-02  0.8070216E-01
        2   -1    0    0  501    0  0.00000000000E+00  0.00000000000E+00  0.20229001285E+04  0.20229001285E+04  0.25500000920E-02 0.  1.
       -2   -1    0    0    0  501  0.00000000000E+00  0.00000000000E+00 -0.16826057301E+04  0.16826057301E+04  0.25500000920E-02 0. -1.
    10030    2    1    2    0    0  0.00000000000E+00  0.00000000000E+00  0.34029439832E+03  0.37055058586E+04  0.36898473398E+04 0.  0.
        3    1    3    3  502    0  0.14741667506E+04  0.10291187447E+04 -0.24572408566E+03  0.18145614720E+04  0.10100000352E+00 0. -1.
       -3    1    3    3    0  502 -0.14741667506E+04 -0.10291187447E+04  0.58601848398E+03  0.18909443866E+04  0.10100000352E+00 0.  1.
</event>
<event>
 5   0  0.6949625E-07  0.3748149E+04  0.7818609E-02  0.8057374E-01
        2   -1    0    0  501    0  0.00000000000E+00  0.00000000000E+00  0.15436048658E+04  0.15436048658E+04  0.25500000920E-02 0. -1.
       -2   -1    0    0    0  501  0.00000000000E+00  0.00000000000E+00 -0.22752945340E+04  0.22752945340E+04  0.25500000920E-02 0.  1.
    10030    2    1    2    0    0  0.00000000000E+00  0.00000000000E+00 -0.73168966813E+03  0.38188993998E+04  0.37481492573E+04 0.  0.
        5    1    3    3  502    0 -0.14629936440E+04  0.71493151281E+03 -0.13110719682E+04  0.20905523831E+04  0.46999998093E+01 0.  1.
       -5    1    3    3    0  502  0.14629936440E+04 -0.71493151281E+03  0.57938230009E+03  0.17283470167E+04  0.46999998093E+01 0. -1.
</event>
<event>
 5   0  0.7300916E-07  0.3730971E+04  0.7818609E-02  0.8061133E-01
       -2   -1    0    0    0  501  0.00000000000E+00  0.00000000000E+00  0.20993575469E+04  0.20993575469E+04  0.25500000920E-02 0.  1.
        2   -1    0    0  501    0  0.00000000000E+00  0.00000000000E+00 -0.16576674438E+04  0.16576674438E+04  0.25500000920E-02 0. -1.
    10030    2    1    2    0    0  0.00000000000E+00  0.00000000000E+00  0.44169010311E+03  0.37570249907E+04  0.37309712722E+04 0.  0.
        1    1    3    3  502    0  0.11700825972E+04 -0.14246725997E+03  0.16768487458E+04  0.20496858103E+04  0.50400001928E-02 0. -1.
       -1    1    3    3    0  502 -0.11700825972E+04  0.14246725997E+03 -0.12351586427E+04  0.17073391804E+04  0.50400001928E-02 0.  1.
</event>
<event>
 5   0  0.2411746E-07  0.2781589E+04  0.7818609E-02  0.8309007E-01
       -1   -1    0    0    0  501  0.00000000000E+00  0.00000000000E+00  0.63116648154E+03  0.63116648156E+03  0.50400001928E-02 0.  1.
        1   -1    0    0  501    0  0.00000000000E+00  0.00000000000E+00 -0.30646578335E+04  0.30646578335E+04  0.50400001928E-02 0. -1.
    10030    2    1    2    0    0  0.00000000000E+00  0.00000000000E+00 -0.24334913519E+04  0.36958243150E+04  0.27815889717E+04 0.  0.
        1    1    3    3  502    0 -0.29008307897E+03  0.15471185673E+03  0.57879623243E+03  0.66564932962E+03  0.50400001928E-02 0.  1.
       -1    1    3    3    0  502  0.29008307897E+03 -0.15471185673E+03 -0.30122875843E+04  0.30301749854E+04  0.50400001928E-02 0. -1.
</event>
<event>
 5   0  0.7124627E-07  0.3626016E+04  0.7818609E-02  0.8084558E-01
       -2   -1    0    0    0  501  0.00000000000E+00  0.00000000000E+00  0.17572931555E+04  0.17572931555E+04  0.25500000920E-02 0.  1.
        2   -1    0    0  501    0  0.00000000000E+00  0.00000000000E+00 -0.18704890881E+04  0.18704890881E+04  0.25500000920E-02 0. -1.
    10030    2    1    2    0    0  0.00000000000E+00  0.00000000000E+00 -0.11319593264E+03  0.36277822436E+04  0.36260158146E+04 0.  0.
        2    1    3    3  502    0  0.49408454298E+03  0.91968625546E+03 -0.15395667653E+04  0.18601634791E+04  0.25500000920E-02 0. -1.
       -2    1    3    3    0  502 -0.49408454298E+03 -0.91968625546E+03  0.14263708327E+04  0.17676187645E+04  0.25500000920E-02 0.  1.
</event>
<event>
 5   0  0.2345471E-07  0.3643340E+04  0.7818609E-02  0.8080636E-01
       -1   -1    0    0    0  501  0.00000000000E+00  0.00000000000E+00  0.17985941763E+04  0.17985941763E+04  0.50400001928E-02 0. -1.
        1   -1    0    0  501    0  0.00000000000E+00  0.00000000000E+00 -0.18450415443E+04  0.18450415443E+04  0.50400001928E-02 0.  1.
    10030    2    1    2    0    0  0.00000000000E+00  0.00000000000E+00 -0.46447367963E+02  0.36436357206E+04  0.36433396639E+04 0.  0.
        5    1    3    3  502    0  0.51286361253E+03 -0.33295765413E+03 -0.17393377743E+04  0.18436940819E+04  0.46999998093E+01 0.  1.
       -5    1    3    3    0  502 -0.51286361253E+03  0.33295765413E+03  0.16928904064E+04  0.17999416386E+04  0.46999998093E+01 0. -1.
</event>
<event>
 5   0  0.6949625E-07  0.3673512E+04  0.7818609E-02  0.8073857E-01
        2   -1    0    0  501    0  0.00000000000E+00  0.00000000000E+00  0.23637684123E+04  0.23637684123E+04  0.25500000920E-02 0.  1.
       -2   -1    0    0    0  501  0.00000000000E+00  0.00000000000E+00 -0.14272430294E+04  0.14272430294E+04  0.25500000920E-02 0. -1.
    10030    2    1    2    0    0  0.00000000000E+00  0.00000000000E+00  0.93652538285E+03  0.37910114417E+04  0.36735116657E+04 0.  0.
        5    1    3    3  502    0 -0.62725270633E+03  0.53653228577E+03 -0.12250547650E+04  0.14771912938E+04  0.46999998093E+01 0. -1.
       -5    1    3    3    0  502  0.62725270633E+03 -0.53653228577E+03  0.21615801478E+04  0.23138201479E+04  0.46999998093E+01 0.  1.
</event>
<event>
 5   0  0.2287500E-07  0.3793836E+04  0.7818609E-02  0.8047479E-01
       -1   -1    0    0    0  501  0.00000000000E+00  0.00000000000E+00  0.16325297912E+04  0.16325297912E+04  0.50400001928E-02 0. -1.
        1   -1    0    0  501    0  0.00000000000E+00  0.00000000000E+00 -0.22041233365E+04  0.22041233365E+04  0.50400001928E-02 0.  1.
    10030    2    1    2    0    0  0.00000000000E+00  0.00000000000E+00 -0.57159354526E+03  0.38366531277E+04  0.37938355317E+04 0.  0.
        4    1    3    3  502    0  0.13186038071E+04 -0.41734718166E+03  0.10270850191E+04  0.17227303677E+04  0.12699999809E+01 0. -1.
       -4    1    3    3    0  502 -0.13186038071E+04  0.41734718166E+03 -0.15986785644E+04  0.21139227600E+04  0.12699999809E+01 0.  1.
</event>
<event>
 5   0  0.6939921E-07  0.3761961E+04  0.7818609E-02  0.8054368E-01
        2   -1    0    0  501    0  0.00000000000E+00  0.00000000000E+00  0.11625208475E+04  0.11625208475E+04  0.25500000920E-02 0.  1.
       -2   -1    0    0    0  501  0.00000000000E+00  0.00000000000E+00 -0.30434619233E+04  0.30434619233E+04  0.25500000920E-02 0. -1.
    10030    2    1    2    0    0  0.00000000000E+00  0.00000000000E+00 -0.18809410758E+04  0.42059827709E+04  0.37619611559E+04 0.  0.
        4    1    3    3  502    0 -0.60220058623E+03  0.53516755548E+03 -0.28408034675E+04  0.29528318293E+04  0.12699999809E+01 0. -1.
       -4    1    3    3    0  502  0.60220058623E+03 -0.53516755548E+03  0.95986239168E+03  0.12531509416E+04  0.12699999809E+01 0.  1.
</event>
<event>
 5   0  0.2411746E-07  0.3631468E+04  0.7818609E-02  0.8083321E-01
       -1   -1    0    0    0  501  0.00000000000E+00  0.00000000000E+00  0.26459508113E+04  0.26459508113E+04  0.50400001928E-02 0. -1.
        1   -1    0    0  501    0  0.00000000000E+00  0.00000000000E+00 -0.12460136242E+04  0.12460136242E+04  0.50400001928E-02 0.  1.
    10030    2    1    2    0    0  0.00000000000E+00  0.00000000000E+00  0.13999371872E+04  0.38919644355E+04  0.36314684412E+04 0.  0.
        1    1    3    3  502    0  0.29646901007E+03  0.79682005225E+03 -0.10195115339E+04  0.13274862852E+04  0.50400001928E-02 0.  1.
       -1    1    3    3    0  502 -0.29646901007E+03 -0.79682005225E+03  0.24194487211E+04  0.25644781503E+04  0.50400001928E-02 0. -1.
</event>
<event>
 5   0  0.7300916E-07  0.3639320E+04  0.7818609E-02  0.8081544E-01
       -2   -1    0    0    0  501  0.00000000000E+00  0.00000000000E+00  0.25584448192E+04  0.25584448192E+04  0.25500000920E-02 0. -1.
        2   -1    0    0  501    0  0.00000000000E+00  0.00000000000E+00 -0.12942092710E+04  0.12942092710E+04  0.25500000920E-02 0.  1.
    10030    2    1    2    0    0  0.00000000000E+00  0.00000000000E+00  0.12642355482E+04  0.38526540903E+04  0.36393202687E+04 0.  0.
        1    1    3    3  502    0  0.92631385625E+03  0.15552384771E+04  0.43594755343E+03  0.18619544436E+04  0.50400001928E-02 0.  1.
       -1    1    3    3    0  502 -0.92631385625E+03 -0.15552384771E+04  0.82828799477E+03  0.19906996466E+04  0.50400001928E-02 0. -1.
</event>
<event>
 5   0  0.2287500E-07  0.3284259E+04  0.7818609E-02  0.8166912E-01
       -1   -1    0    0    0  501  0.00000000000E+00  0.00000000000E+00  0.22702611538E+04  0.22702611538E+04  0.50400001928E-02 0. -1.
        1   -1    0    0  501    0  0.00000000000E+00  0.00000000000E+00 -0.11877881280E+04  0.11877881280E+04  0.50400001928E-02 0.  1.
    10030    2    1    2    0    0  0.00000000000E+00  0.00000000000E+00  0.10824730258E+04  0.34580492819E+04  0.32842589703E+04 0.  0.
        4    1    3    3  502    0  0.84852158199E+03  0.13021178730E+04  0.10994685844E+04  0.19037680035E+04  0.12699999809E+01 0. -1.
       -4    1    3    3    0  502 -0.84852158199E+03 -0.13021178730E+04 -0.16995558606E+02  0.15542812783E+04  0.12699999809E+01 0.  1.
</event>
<event>
 5   0  0.7074157E-07  0.3780715E+04  0.7818609E-02  0.8050306E-01
       -2   -1    0    0    0  501  0.00000000000E+00  0.00000000000E+00  0.13356805426E+04  0.13356805426E+04  0.25500000920E-02 0.  1.
        2   -1    0    0  501    0  0.00000000000E+00  0.00000000000E+00 -0.26753791174E+04  0.26753791174E+04  0.25500000920E-02 0. -1.
    10030    2    1    2    0    0  0.00000000000E+00  0.00000000000E+00 -0.13396985748E+04  0.40110596600E+04  0.37807151869E+04 0.  0.
        3    1    3    3  502    0 -0.79532190653E+03  0.17058944409E+04 -0.48353952903E+03  0.19433021548E+04  0.10100000352E+00 0.  1.
       -3    1    3    3    0  502  0.79532190653E+03 -0.17058944409E+04 -0.85615904579E+03  0.20677575052E+04  0.10100000352E+00 0. -1.
</event>
<event>
 5   0  0.2287500E-07  0.3674707E+04  0.7818609E-02  0.8073590E-01
       -1   -1    0    0    0  501  0.00000000000E+00  0.00000000000E+00  0.16408051555E+04  0.16408051555E+04  0.50400001928E-02 0.  1.
        1   -1    0    0  501    0  0.00000000000E+00  0.00000000000E+00 -0.20574460747E+04  0.20574460747E+04  0.50400001928E-02 0. -1.
    10030    2    1    2    0    0  0.00000000000E+00  0.00000000000E+00 -0.41664091918E+03  0.36982512302E+04  0.36747071320E+04 0.  0.
        3    1    3    3  502    0  0.18701719921E+03 -0.15028133952E+04 -0.12553923814E+04  0.19670875871E+04  0.10100000352E+00 0. -1.
       -3    1    3    3    0  502 -0.18701719921E+03  0.15028133952E+04  0.83875146220E+03  0.17311636431E+04  0.10100000352E+00 0.  1.
</event>
<event>
 5   0  0.7300916E-07  0.3702292E+04  0.7818609E-02  0.8067454E-01
        2   -1    0    0  501    0  0.00000000000E+00  0.00000000000E+00  0.18961774925E+04  0.18961774925E+04  0.25500000920E-02 0. -1.
       -2   -1    0    0    0  501  0.00000000000E+00  0.00000000000E+00 -0.18071838306E+04  0.18071838306E+04  0.25500000920E-02 0.  1.
    10030    2    1    2    0    0  0.00000000000E+00  0.00000000000E+00  0.88993661899E+02  0.37033613231E+04  0.37022918871E+04 0.  0.
        1    1    3    3  502    0 -0.15744627446E+04 -0.93166111065E+03  0.32709559725E+03  0.18584716541E+04  0.50400001928E-02 0.  1.
       -1    1    3    3    0  502  0.15744627446E+04  0.93166111065E+03 -0.23810193535E+03  0.18448896690E+04  0.50400001928E-02 0. -1.
</event>
<event>
 5   0  0.2287500E-07  0.3654506E+04  0.7818609E-02  0.8078119E-01
        1   -1    0    0  501    0  0.00000000000E+00  0.00000000000E+00  0.17974518869E+04  0.17974518869E+04  0.50400001928E-02 0.  1.
       -1   -1    0    0    0  501  0.00000000000E+00  0.00000000000E+00 -0.18575477041E+04  0.18575477041E+04  0.50400001928E-02 0. -1.
    10030    2    1    2    0    0  0.00000000000E+00  0.00000000000E+00 -0.60095817164E+02  0.36549995910E+04  0.36545055073E+04 0.  0.
        4    1    3    3  502    0 -0.11139353478E+04  0.42260136381E+03  0.13555660990E+04  0.18047174110E+04  0.12699999809E+01 0.  1.
       -4    1    3    3    0  502  0.11139353478E+04 -0.42260136381E+03 -0.14156619162E+04  0.18502821800E+04  0.12699999809E+01 0. -1.
</event>
<event>
 5   0  0.7074157E-07  0.3683892E+04  0.7818609E-02  0.8071541E-01
       -2   -1    0    0    0  501  0.00000000000E+00  0.00000000000E+00  0.18919665825E+04  0.18919665825E+04  0.25500000920E-02 0.  1.
        2   -1    0    0  501    0  0.00000000000E+00  0.00000000000E+00 -0.17932477600E+04  0.17932477600E+04  0.25500000920E-02 0. -1.
    10030    2    1    2    0    0  0.00000000000E+00  0.00000000000E+00  0.98718822488E+02  0.36852143426E+04  0.36838918747E+04 0.  0.
        3    1    3    3  502    0  0.76888190409E+03  0.15359006976E+04  0.71487599149E+03  0.18604349031E+04  0.10100000352E+00 0. -1.
       -3    1    3    3    0  502 -0.76888190409E+03 -0.15359006976E+04 -0.61615716900E+03  0.18247794394E+04  0.10100000352E+00 0.  1.
</event>
<event>
 5   0  0.2287500E-07  0.3575934E+04  0.7818609E-02  0.8096027E-01
       -1   -1    0    0    0  501  0.00000000000E+00  0.00000000000E+00  0.16726936971E+04  0.16726936971E+04  0.50400001928E-02 0.  1.
        1   -1    0    0  501    0  0.00000000000E+00  0.00000000000E+00 -0.19111841500E+04  0.19111841500E+04  0.50400001928E-02 0. -1.
    10030    2    1    2    0    0  0.00000000000E+00  0.00000000000E+00 -0.23849045288E+03  0.35838778471E+04  0.35759338259E+04 0.  0.
        4    1    3    3  502    0 -0.11525057544E+04 -0.50910120935E+03  0.11521826973E+04  0.17073312906E+04  0.12699999809E+01 0.  1.
       -4    1    3    3    0  502  0.11525057544E+04  0.50910120935E+03 -0.13906731501E+04  0.18765465565E+04  0.12699999809E+01 0. -1.
</event>
<event>
 5   0  0.2287500E-07  0.3610875E+04  0.7818609E-02  0.8088005E-01
        3   -1    0    0  501    0  0.00000000000E+00  0.00000000000E+00  0.16825978507E+04  0.16825978537E+04  0.10100000352E+00 0.  1.
       -3   -1    0    0    0  501  0.00000000000E+00  0.00000000000E+00 -0.19372451131E+04  0.19372451157E+04  0.10100000352E+00 0. -1.
    10030    2    1    2    0    0  0.00000000000E+00  0.00000000000E+00 -0.25464726238E+03  0.36198429695E+04  0.36108749487E+04 0.  0.
        1    1    3    3  502    0 -0.16859081737E+04  0.43924591825E+03  0.34754167949E+03  0.17765158502E+04  0.50400001928E-02 0.  1.
       -1    1    3    3    0  502  0.16859081737E+04 -0.43924591825E+03 -0.60218894186E+03  0.18433271193E+04  0.50400001928E-02 0. -1.
</event>
<event>
 5   0  0.2287500E-07  0.3592174E+04  0.7818609E-02  0.8092287E-01
        1   -1    0    0  501    0  0.00000000000E+00  0.00000000000E+00  0.13251417206E+04  0.13251417206E+04  0.50400001928E-02 0.  1.
       -1   -1    0    0    0  501  0.00000000000E+00  0.00000000000E+00 -0.24344026672E+04  0.24344026672E+04  0.50400001928E-02 0. -1.
    10030    2    1    2    0    0  0.00000000000E+00  0.00000000000E+00 -0.11092609466E+04  0.37595443878E+04  0.35921740153E+04 0.  0.
        4    1    3    3  502    0 -0.15107141758E+04  0.80666162531E+03 -0.11211135311E+04  0.20469141314E+04  0.12699999809E+01 0. -1.
       -4    1    3    3    0  502  0.15107141758E+04 -0.80666162531E+03  0.11852584477E+02  0.17126302564E+04  0.12699999809E+01 0.  1.
</event>
<event>
 5   0  0.2345471E-07  0.2689680E+04  0.7818609E-02  0.8338361E-01
       -1   -1    0    0    0  501  0.00000000000E+00  0.00000000000E+00  0.16305495848E+04  0.16305495848E+04  0.50400001928E-02 0. -1.
        1   -1    0    0  501    0  0.00000000000E+00  0.00000000000E+00 -0.11091929266E+04  0.11091929266E+04  0.50400001928E-02 0.  1.
    10030    2    1    2    0    0  0.00000000000E+00  0.00000000000E+00  0.52135665814E+03  0.27397425114E+04  0.26896795838E+04 0.  0.
        5    1    3    3  502    0 -0.52687956437E+03 -0.15921209401E+02 -0.99957128155E+03  0.11300532718E+04  0.46999998093E+01 0.  1.
       -5    1    3    3    0  502  0.52687956437E+03  0.15921209401E+02  0.15209279397E+04  0.16096892396E+04  0.46999998093E+01 0. -1.
</event>
<event>
 5   0  0.7124627E-07  0.3688468E+04  0.7818609E-02  0.8070522E-01
        2   -1    0    0  501    0  0.00000000000E+00  0.00000000000E+00  0.23322463770E+04  0.23322463770E+04  0.25500000920E-02 0.  1.
       -2   -1    0    0    0  501  0.00000000000E+00  0.00000000000E+00 -0.14583360109E+04  0.14583360109E+04  0.25500000920E-02 0. -1.
    10030    2    1    2    0    0  0.00000000000E+00  0.00000000000E+00  0.87391036617E+03  0.37905823879E+04  0.36884679084E+04 0.  0.
        2    1    3    3  502    0  0.53382928792E+02  0.11384171464E+03  0.23278363386E+04  0.23312296525E+04  0.25500000920E-02 0.  1.
       -2    1    3    3    0  502 -0.53382928792E+02 -0.11384171464E+03 -0.14539259725E+04  0.14593527355E+04  0.25500000920E-02 0. -1.
</event>
<event>
 5   0  0.6939921E-07  0.3630254E+04  0.7818609E-02  0.8083597E-01
        2   -1    0    0  501    0  0.00000000000E+00  0.00000000000E+00  0.21583589974E+04  0.21583589974E+04  0.25500000920E-02 0. -1.
       -2   -1    0    0    0  501  0.00000000000E+00  0.00000000000E+00 -0.15264771753E+04  0.15264771753E+04  0.25500000920E-02 0.  1.
    10030    2    1    2    0    0  0.00000000000E+00  0.00000000000E+00  0.63188182208E+03  0.36848361726E+04  0.36302538454E+04 0.  0.
        4    1    3    3  502    0 -0.36943605987E+03 -0.10117233124E+04  0.17989410058E+04  0.20967254037E+04  0.12699999809E+01 0. -1.
       -4    1    3    3    0  502  0.36943605987E+03  0.10117233124E+04 -0.11670591837E+04  0.15881107689E+04  0.12699999809E+01 0.  1.
</event>
<event>
 5   0  0.7074157E-07  0.3684637E+04  0.7818609E-02  0.8071375E-01
       -2   -1    0    0    0  501  0.00000000000E+00  0.00000000000E+00  0.11352314198E+04  0.11352314198E+04  0.25500000920E-02 0.  1.
        2   -1    0    0  501    0  0.00000000000E+00  0.00000000000E+00 -0.29898196684E+04  0.29898196684E+04  0.25500000920E-02 0. -1.
    10030    2    1    2    0    0  0.00000000000E+00  0.00000000000E+00 -0.18545882486E+04  0.41250510883E+04  0.36846368761E+04 0.  0.
        3    1    3    3  502    0 -0.37666519125E+03 -0.12264703628E+04 -0.24074559608E+04  0.27279938473E+04  0.10100000352E+00 0. -1.
       -3    1    3    3    0  502  0.37666519125E+03  0.12264703628E+04  0.55286771223E+03  0.13970572410E+04  0.10100000352E+00 0.  1.
</event>
<event>
 5   0  0.6949625E-07  0.3684636E+04  0.7818609E-02  0.8071375E-01
       -2   -1    0    0    0  501  0.00000000000E+00  0.00000000000E+00  0.17782173750E+04  0.17782173750E+04  0.25500000920E-02 0. -1.
        2   -1    0    0  501    0  0.00000000000E+00  0.00000000000E+00 -0.19087291666E+04  0.19087291666E+04  0.25500000920E-02 0.  1.
    10030    2    1    2    0    0  0.00000000000E+00  0.00000000000E+00 -0.13051179161E+03  0.36869465416E+04  0.36846358671E+04 0.  0.
        5    1    3    3  502    0 -0.15425802056E+04  0.45066775968E+03  0.83611873508E+03  0.18115661041E+04  0.46999998093E+01 0. -1.
       -5    1    3    3    0  502  0.15425802056E+04 -0.45066775968E+03 -0.96663052670E+03  0.18753804375E+04  0.46999998093E+01 0.  1.
</event>
<event>
 5   0  0.2287500E-07  0.3757996E+04  0.7818609E-02  0.8055229E-01
        1   -1    0    0  501    0  0.00000000000E+00  0.00000000000E+00  0.31286542421E+04  0.31286542421E+04  0.50400001928E-02 0. -1.
       -1   -1    0    0    0  501  0.00000000000E+00  0.00000000000E+00 -0.11284830144E+04  0.11284830144E+04  0.50400001928E-02 0.  1.
    10030    2    1    2    0    0  0.00000000000E+00  0.00000000000E+00  0.20001712276E+04  0.42571372565E+04  0.37579958330E+04 0.  0.
        4    1    3    3  502    0 -0.15513457994E+04 -0.84036690132E+03  0.26791038114E+03  0.17845637851E+04  0.12699999809E+01 0.  1.
       -4    1    3    3    0  502  0.15513457994E+04  0.84036690132E+03  0.17322608465E+04  0.24725734713E+04  0.12699999809E+01 0. -1.
</event>
<event>
 5   0  0.2411746E-07  0.3715638E+04  0.7818609E-02  0.8064505E-01
        1   -1    0    0  501    0  0.00000000000E+00  0.00000000000E+00  0.16614733923E+04  0.16614733923E+04  0.50400001928E-02 0.  1.
       -1   -1    0    0    0  501  0.00000000000E+00  0.00000000000E+00 -0.20773675854E+04  0.20773675854E+04  0.50400001928E-02 0. -1.
    10030    2    1    2    0    0  0.00000000000E+00  0.00000000000E+00 -0.41589419303E+03  0.37388409777E+04  0.37156377483E+04 0.  0.
        1    1    3    3  502    0  0.12858567999E+04 -0.10178720982E+04 -0.10863242146E+04  0.19671277583E+04  0.50400001928E-02 0. -1.
       -1    1    3    3    0  502 -0.12858567999E+04  0.10178720982E+04  0.67043002153E+03  0.17717132194E+04  0.50400001928E-02 0.  1.
</event>
<event>
 5   0  0.7074157E-07  0.3655579E+04  0.7818609E-02  0.8077878E-01
       -2   -1    0    0    0  501  0.00000000000E+00  0.00000000000E+00  0.18137924016E+04  0.18137924016E+04  0.25500000920E-02 0. -1.
        2   -1    0    0  501    0  0.00000000000E+00  0.00000000000E+00 -0.18418948490E+04  0.18418948490E+04  0.25500000920E-02 0.  1.
    10030    2    1    2    0    0  0.00000000000E+00  0.00000000000E+00 -0.28102447486E+02  0.36556872506E+04  0.36555792327E+04 0.  0.
        3    1    3    3  502    0 -0.13913499370E+04 -0.10687801757E+04 -0.52657896312E+03  0.18317835914E+04  0.10100000352E+00 0. -1.
       -3    1    3    3    0  502  0.13913499370E+04  0.10687801757E+04  0.49847651563E+03  0.18239036592E+04  0.10100000352E+00 0.  1.
</event>
<event>
 5   0  0.7300916E-07  0.3569602E+04  0.7818609E-02  0.8097490E-01
        2   -1    0    0  501    0  0.00000000000E+00  0.00000000000E+00  0.19240977826E+04  0.19240977826E+04  0.25500000920E-02 0. -1.
       -2   -1    0    0    0  501  0.00000000000E+00  0.00000000000E+00 -0.16555887025E+04  0.16555887025E+04  0.25500000920E-02 0.  1.
    10030    2    1    2    0    0  0.00000000000E+00  0.00000000000E+00  0.26850908005E+03  0.35796864851E+04  0.35696019674E+04 0.  0.
        1    1    3    3  502    0 -0.41570276293E+02  0.12712886753E+04  0.13898346565E+04  0.18840231836E+04  0.50400001928E-02 0. -1.
       -1    1    3    3    0  502  0.41570276293E+02 -0.12712886753E+04 -0.11213255765E+04  0.16956633016E+04  0.50400001928E-02 0.  1.
</event>
<event>
 5   0  0.7074157E-07  0.3679547E+04  0.7818609E-02  0.8072510E-01
        2   -1    0    0  501    0  0.00000000000E+00  0.00000000000E+00  0.23325577962E+04  0.23325577962E+04  0.25500000920E-02 0.  1.
       -2   -1    0    0    0  501  0.00000000000E+00  0.00000000000E+00 -0.14510962609E+04  0.14510962609E+04  0.25500000920E-02 0. -1.
    10030    2    1    2    0    0  0.00000000000E+00  0.00000000000E+00  0.88146153532E+03  0.37836540570E+04  0.36795466548E+04 0.  0.
        3    1    3    3  502    0 -0.16871700239E+04  0.29624406380E+02  0.11945096264E+04  0.20674316319E+04  0.10100000352E+00 0.  1.
       -3    1    3    3    0  502  0.16871700239E+04 -0.29624406380E+02 -0.31304809110E+03  0.17162224251E+04  0.10100000352E+00 0. -1.
</event>
<event>
 5   0  0.2287500E-07  0.3235355E+04  0.7818609E-02  0.8179542E-01
       -1   -1    0    0    0  501  0.00000000000E+00  0.00000000000E+00  0.28153498298E+04  0.28153498298E+04  0.50400001928E-02 0.  1.
        1   -1    0    0  501    0  0.00000000000E+00  0.00000000000E+00 -0.92950442427E+03  0.92950442428E+03  0.50400001928E-02 0. -1.
    10030    2    1    2    0    0  0.00000000000E+00  0.00000000000E+00  0.18858454055E+04  0.37448542541E+04  0.32353547705E+04 0.  0.
        3    1    3    3  502    0  0.79012138063E+03 -0.28944034047E+03 -0.65624738362E+03  0.10671120586E+04  0.10100000352E+00 0. -1.
       -3    1    3    3    0  502 -0.79012138063E+03  0.28944034047E+03  0.25420927892E+04  0.26777421955E+04  0.10100000352E+00 0.  1.
</event>
<event>
 5   0  0.7124627E-07  0.3607379E+04  0.7818609E-02  0.8088804E-01
        2   -1    0    0  501    0  0.00000000000E+00  0.00000000000E+00  0.15719929286E+04  0.15719929286E+04  0.25500000920E-02 0. -1.
       -2   -1    0    0    0  501  0.00000000000E+00  0.00000000000E+00 -0.20695359483E+04  0.20695359483E+04  0.25500000920E-02 0.  1.
    10030    2    1    2    0    0  0.00000000000E+00  0.00000000000E+00 -0.49754301974E+03  0.36415288769E+04  0.36073790354E+04 0.  0.
        2    1    3    3  502    0  0.11681572369E+04  0.18414793229E+03 -0.16235724876E+04  0.20086038469E+04  0.25500000920E-02 0.  1.
       -2    1    3    3    0  502 -0.11681572369E+04 -0.18414793229E+03  0.11260294679E+04  0.16329250300E+04  0.25500000920E-02 0. -1.
</event>
<event>
 5   0  0.2411746E-07  0.3711051E+04  0.7818609E-02  0.8065517E-01
       -1   -1    0    0    0  501  0.00000000000E+00  0.00000000000E+00  0.10439667901E+04  0.10439667902E+04  0.50400001928E-02 0.  1.
        1   -1    0    0  501    0  0.00000000000E+00  0.00000000000E+00 -0.32979742822E+04  0.32979742822E+04  0.50400001928E-02 0. -1.
    10030    2    1    2    0    0  0.00000000000E+00  0.00000000000E+00 -0.22540074921E+04  0.43419410724E+04  0.37110514011E+04 0.  0.
        1    1    3    3  502    0  0.15024054667E+04 -0.18529372341E+03 -0.23824663424E+04  0.28227117853E+04  0.50400001928E-02 0. -1.
       -1    1    3    3    0  502 -0.15024054667E+04  0.18529372341E+03  0.12845885032E+03  0.15192292870E+04  0.50400001928E-02 0.  1.
</event>
<event>
 5   0  0.7074157E-07  0.3736947E+04  0.7818609E-02  0.8059823E-01
       -2   -1    0    0    0  501  0.00000000000E+00  0.00000000000E+00  0.18661907747E+04  0.18661907747E+04  0.25500000920E-02 0.  1.
        2   -1    0    0  501    0  0.00000000000E+00  0.00000000000E+00 -0.18707586447E+04  0.18707586447E+04  0.25500000920E-02 0. -1.
    10030    2    1    2    0    0  0.00000000000E+00  0.00000000000E+00 -0.45678699998E+01  0.37369494194E+04  0.37369466277E+04 0.  0.
        3    1    3    3  502    0 -0.15987675733E+03 -0.46770143882E+03  0.17996295347E+04  0.18662721360E+04  0.10100000352E+00 0.  1.
       -3    1    3    3    0  502  0.15987675733E+03  0.46770143882E+03 -0.18041974047E+04  0.18706772834E+04  0.10100000352E+00 0. -1.
</event>
<event>
 5   0  0.7124627E-07  0.3736751E+04  0.7818609E-02  0.8059866E-01
        2   -1    0    0  501    0  0.00000000000E+00  0.00000000000E+00  0.29459977139E+04  0.29459977139E+04  0.25500000920E-02 0. -1.
       -2   -1    0    0    0  501  0.00000000000E+00  0.00000000000E+00 -0.11849387509E+04  0.11849387509E+04  0.25500000920E-02 0.  1.
    10030    2    1    2    0    0  0.00000000000E+00  0.00000000000E+00  0.17610589630E+04  0.41309364649E+04  0.37367509156E+04 0.  0.
        2    1    3    3  502    0  0.54855758457E+03  0.58082544257E+02  0.28539239488E+04  0.29067457596E+04  0.25500000920E-02 0. -1.
       -2    1    3    3    0  502 -0.54855758457E+03 -0.58082544257E+02 -0.10928649858E+04  0.12241907052E+04  0.25500000920E-02 0.  1.
</event>
<event>
 5   0  0.2411746E-07  0.3844534E+04  0.7818609E-02  0.8036665E-01
       -1   -1    0    0    0  501  0.00000000000E+00  0.00000000000E+00  0.17977268962E+04  0.17977268962E+04  0.50400001928E-02 0. -1.
        1   -1    0    0  501    0  0.00000000000E+00  0.00000000000E+00 -0.20554352867E+04  0.20554352867E+04  0.50400001928E-02 0.  1.
    10030    2    1    2    0    0  0.00000000000E+00  0.00000000000E+00 -0.25770839047E+03  0.38531621828E+04  0.38445344572E+04 0.  0.
        1    1    3    3  502    0 -0.16395263420E+04  0.93651246283E+03 -0.49023108227E+03  0.19507508127E+04  0.50400001928E-02 0.  1.
       -1    1    3    3    0  502  0.16395263420E+04 -0.93651246283E+03  0.23252269180E+03  0.19024113702E+04  0.50400001928E-02 0. -1.
</event>
<event>
 5   0  0.6949625E-07  0.3735385E+04  0.7818609E-02  0.8060165E-01
       -2   -1    0    0    0  501  0.00000000000E+00  0.00000000000E+00  0.15067154608E+04  0.15067154608E+04  0.25500000920E-02 0.  1.
        2   -1    0    0  501    0  0.00000000000E+00  0.00000000000E+00 -0.23151522991E+04  0.23151522991E+04  0.25500000920E-02 0. -1.
    10030    2    1    2    0    0  0.00000000000E+00  0.00000000000E+00 -0.80843683826E+03  0.38218677599E+04  0.37353852616E+04 0.  0.
        5    1    3    3  502    0  0.99019156158E+03  0.12190290846E+04 -0.14384337483E+04  0.21297006776E+04  0.46999998093E+01 0. -1.
       -5    1    3    3    0  502 -0.99019156158E+03 -0.12190290846E+04  0.62999691007E+03  0.16921670823E+04  0.46999998093E+01 0.  1.
</event>
<event>
 5   0  0.7124627E-07  0.3672038E+04  0.7818609E-02  0.8074187E-01
        2   -1    0    0  501    0  0.00000000000E+00  0.00000000000E+00  0.23950992164E+04  0.23950992164E+04  0.25500000920E-02 0.  1.
       -2   -1    0    0    0  501  0.00000000000E+00  0.00000000000E+00 -0.14074429955E+04  0.14074429955E+04  0.25500000920E-02 0. -1.
    10030    2    1    2    0    0  0.00000000000E+00  0.00000000000E+00  0.98765622089E+03  0.38025422119E+04  0.36720379168E+04 0.  0.
        2    1    3    3  502    0 -0.12353227006E+04 -0.83565741274E+03  0.16026879836E+04  0.21892816764E+04  0.25500000920E-02 0.  1.
       -2    1    3    3    0  502  0.12353227006E+04  0.83565741274E+03 -0.61503176270E+03  0.16132605354E+04  0.25500000920E-02 0. -1.
</event>
<event>
 5   0  0.6949625E-07  0.3694711E+04  0.7818609E-02  0.8069135E-01
        2   -1    0    0  501    0  0.00000000000E+00  0.00000000000E+00  0.20053148210E+04  0.20053148210E+04  0.25500000920E-02 0. -1.
       -2   -1    0    0    0  501  0.00000000000E+00  0.00000000000E+00 -0.17018390828E+04  0.17018390829E+04  0.25500000920E-02 0.  1.
    10030    2    1    2    0    0  0.00000000000E+00  0.00000000000E+00  0.30347573817E+03  0.37071539039E+04  0.36947114290E+04 0.  0.
        5    1    3    3  502    0  0.28415220171E+03  0.13200162601E+04 -0.11132678698E+04  0.17500208115E+04  0.46999998093E+01 0.  1.
       -5    1    3    3    0  502 -0.28415220171E+03 -0.13200162601E+04  0.14167436079E+04  0.19571330924E+04  0.46999998093E+01 0. -1.
</event>
<event>
 5   0  0.2411746E-07  0.3827556E+04  0.7818609E-02  0.8040267E-01
        1   -1    0    0  501    0  0.00000000000E+00  0.00000000000E+00  0.33385664398E+04  0.33385664399E+04  0.50400001928E-02 0. -1.
       -1   -1    0    0    0  501  0.00000000000E+00  0.00000000000E+00 -0.10970416767E+04  0.10970416768E+04  0.50400001928E-02 0.  1.
    10030    2    1    2    0    0  0.00000000000E+00  0.00000000000E+00  0.22415247631E+04  0.44356081166E+04  0.38275561525E+04 0.  0.
        1    1    3    3  502    0 -0.13742625906E+04 -0.13317517087E+04  0.10979871850E+04  0.22062946630E+04  0.50400001928E-02 0.  1.
       -1    1    3    3    0  502  0.13742625906E+04  0.13317517087E+04  0.11435375781E+04  0.22293134536E+04  0.50400001928E-02 0. -1.
</event>
<event>
 5   0  0.6939921E-07  0.3173475E+04  0.7818609E-02  0.8195858E-01
        2   -1    0    0  501    0  0.00000000000E+00  0.00000000000E+00  0.21995059462E+04  0.21995059462E+04  0.25500000920E-02 0.  1.
       -2   -1    0    0    0  501  0.00000000000E+00  0.00000000000E+00 -0.11446826685E+04  0.11446826685E+04  0.25500000920E-02 0. -1.
    10030    2    1    2    0    0  0.00000000000E+00  0.00000000000E+00  0.10548232778E+04  0.33441886147E+04  0.31734752785E+04 0.  0.
        4    1    3    3  502    0 -0.88928872641E+03 -0.11538856530E+04 -0.13526313285E+03  0.14630735686E+04  0.12699999809E+01 0. -1.
       -4    1    3    3    0  502  0.88928872641E+03  0.11538856530E+04  0.11900864106E+04  0.18811150461E+04  0.12699999809E+01 0.  1.
</event>
<event>
 5   0  0.7074157E-07  0.3689042E+04  0.7818609E-02  0.8070395E-01
       -2   -1    0    0    0  501  0.00000000000E+00  0.00000000000E+00  0.22141505731E+04  0.22141505731E+04  0.25500000920E-02 0.  1.
        2   -1    0    0  501    0  0.00000000000E+00  0.00000000000E+00 -0.15365968782E+04  0.15365968782E+04  0.25500000920E-02 0. -1.
    10030    2    1    2    0    0  0.00000000000E+00  0.00000000000E+00  0.67755369491E+03  0.37507474513E+04  0.36890415332E+04 0.  0.
        3    1    3    3  502    0 -0.14041345231E+04  0.27402653466E+03 -0.84498860344E+03  0.16615324405E+04  0.10100000352E+00 0. -1.
       -3    1    3    3    0  502  0.14041345231E+04 -0.27402653466E+03  0.15225422983E+04  0.20892150108E+04  0.10100000352E+00 0.  1.
</event>
<event>
 5   0  0.6949625E-07  0.3719820E+04  0.7818609E-02  0.8063584E-01
        2   -1    0    0  501    0  0.00000000000E+00  0.00000000000E+00  0.18753071116E+04  0.18753071116E+04  0.25500000920E-02 0.  1.
       -2   -1    0    0    0  501  0.00000000000E+00  0.00000000000E+00 -0.18446396105E+04  0.18446396105E+04  0.25500000920E-02 0. -1.
    10030    2    1    2    0    0  0.00000000000E+00  0.00000000000E+00  0.30667501090E+02  0.37199467221E+04  0.37198203074E+04 0.  0.
        5    1    3    3  502    0 -0.21955630904E+01 -0.57325672761E+03 -0.17540809491E+04  0.18453861824E+04  0.46999998093E+01 0. -1.
       -5    1    3    3    0  502  0.21955630904E+01  0.57325672761E+03  0.17847484502E+04  0.18745605396E+04  0.46999998093E+01 0.  1.
</event>
<event>
 5   0  0.7074157E-07  0.3683328E+04  0.7818609E-02  0.8071667E-01
        2   -1    0    0  501    0  0.00000000000E+00  0.00000000000E+00  0.22604762614E+04  0.22604762614E+04  0.25500000920E-02 0. -1.
       -2   -1    0    0    0  501  0.00000000000E+00  0.00000000000E+00 -0.15004474192E+04  0.15004474192E+04  0.25500000920E-02 0.  1.
    10030    2    1    2    0    0  0.00000000000E+00  0.00000000000E+00  0.76002884226E+03  0.37609236806E+04  0.36833277196E+04 0.  0.
        3    1    3    3  502    0  0.15649000580E+04  0.96405763093E+03  0.26178892758E+03  0.18565701603E+04  0.10100000352E+00 0. -1.
       -3    1    3    3    0  502 -0.15649000580E+04 -0.96405763093E+03  0.49823991468E+03  0.19043535203E+04  0.10100000352E+00 0.  1.
</event>
<event>
 5   0  0.2287500E-07  0.3699463E+04  0.7818609E-02  0.8068081E-01
       -1   -1    0    0    0  501  0.00000000000E+00  0.00000000000E+00  0.12631071110E+04  0.12631071110E+04  0.50400001928E-02 0.  1.
        1   -1    0    0  501    0  0.00000000000E+00  0.00000000000E+00 -0.27088022543E+04  0.27088022543E+04  0.50400001928E-02 0. -1.
    10030    2    1    2    0    0  0.00000000000E+00  0.00000000000E+00 -0.14456951433E+04  0.39719093653E+04  0.36994634150E+04 0.  0.
        3    1    3    3  502    0  0.14502181478E+04 -0.83619133733E+03 -0.15676625411E+04  0.22934503443E+04  0.10100000352E+00 0. -1.
       -3    1    3    3    0  502 -0.14502181478E+04  0.83619133733E+03  0.12196739784E+03  0.16784590210E+04  0.10100000352E+00 0.  1.
</event>
<event>
 5   0  0.2287500E-07  0.3754647E+04  0.7818609E-02  0.8055958E-01
        1   -1    0    0  501    0  0.00000000000E+00  0.00000000000E+00  0.22664245328E+04  0.22664245328E+04  0.50400001928E-02 0. -1.
       -1   -1    0    0    0  501  0.00000000000E+00  0.00000000000E+00 -0.15550238702E+04  0.15550238702E+04  0.50400001928E-02 0.  1.
    10030    2    1    2    0    0  0.00000000000E+00  0.00000000000E+00  0.71140066254E+03  0.38214484030E+04  0.37546473861E+04 0.  0.
        3    1    3    3  502    0  0.61334289459E+03  0.11059747490E+04  0.17678194838E+04  0.21736042393E+04  0.10100000352E+00 0. -1.
       -3    1    3    3    0  502 -0.61334289459E+03 -0.11059747490E+04 -0.10564188212E+04  0.16478441637E+04  0.10100000352E+00 0.  1.
</event>
<event>
 5   0  0.6939921E-07  0.3413449E+04  0.7818609E-02  0.8134613E-01
       -2   -1    0    0    0  501  0.00000000000E+00  0.00000000000E+00  0.11822215418E+04  0.11822215418E+04  0.25500000920E-02 0. -1.
        2   -1    0    0  501    0  0.00000000000E+00  0.00000000000E+00 -0.24639280349E+04  0.24639280349E+04  0.25500000920E-02 0.  1.
    10030    2    1    2    0    0  0.00000000000E+00  0.00000000000E+00 -0.12817064930E+04  0.36461495767E+04  0.34134491649E+04 0.  0.
        4    1    3    3  502    0  0.22666600198E+03 -0.66311535012E+03 -0.23031588663E+04  0.24074139279E+04  0.12699999809E+01 0.  1.
       -4    1    3    3    0  502 -0.22666600198E+03  0.66311535012E+03  0.10214523732E+04  0.12387356488E+04  0.12699999809E+01 0. -1.
</event>
<event>
 5   0  0.2345471E-07  0.3750574E+04  0.7818609E-02  0.8056846E-01
       -1   -1    0    0    0  501  0.00000000000E+00  0.00000000000E+00  0.18382074713E+04  0.18382074713E+04  0.50400001928E-02 0.  1.
        1   -1    0    0  501    0  0.00000000000E+00  0.00000000000E+00 -0.19131143976E+04  0.19131143976E+04  0.50400001928E-02 0. -1.
    10030    2    1    2    0    0  0.00000000000E+00  0.00000000000E+00 -0.74906926291E+02  0.37513218689E+04  0.37505739183E+04 0.  0.
        5    1    3    3  502    0  0.55510361778E+03 -0.40267455823E+03  0.17082863300E+04  0.18408017551E+04  0.46999998093E+01 0.  1.
       -5    1    3    3    0  502 -0.55510361778E+03  0.40267455823E+03 -0.17831932563E+04  0.19105201139E+04  0.46999998093E+01 0. -1.
</event>
<event>
 5   0  0.2287500E-07  0.3704000E+04  0.7818609E-02  0.8067076E-01
        1   -1    0    0  501    0  0.00000000000E+00  0.00000000000E+00  0.25327190578E+04  0.25327190578E+04  0.50400001928E-02 0.  1.
       -1   -1    0    0    0  501  0.00000000000E+00  0.00000000000E+00 -0.13542378545E+04  0.13542378545E+04  0.50400001928E-02 0. -1.
    10030    2    1    2    0    0  0.00000000000E+00  0.00000000000E+00  0.11784812033E+04  0.38869569123E+04  0.37040000124E+04 0.  0.
        3    1    3    3  502    0  0.15265290983E+03  0.16350066689E+04 -0.30941992680E+03  0.16710147873E+04  0.10100000352E+00 0. -1.
       -3    1    3    3    0  502 -0.15265290983E+03 -0.16350066689E+04  0.14879011301E+04  0.22159421250E+04  0.10100000352E+00 0.  1.
</event>
<event>
 5   0  0.2287500E-07  0.3394394E+04  0.7818609E-02  0.8139284E-01
       -3   -1    0    0    0  501  0.00000000000E+00  0.00000000000E+00  0.13376948157E+04  0.13376948195E+04  0.10100000352E+00 0. -1.
        3   -1    0    0  501    0  0.00000000000E+00  0.00000000000E+00 -0.21533149154E+04  0.21533149177E+04  0.10100000352E+00 0.  1.
    10030    2    1    2    0    0  0.00000000000E+00  0.00000000000E+00 -0.81562009965E+03  0.34910097373E+04  0.33943943258E+04 0.  0.
        5    1    3    3  502    0 -0.11994404683E+04  0.19736576455E+03  0.81032006333E+03  0.14609077237E+04  0.46999998093E+01 0. -1.
       -5    1    3    3    0  502  0.11994404683E+04 -0.19736576455E+03 -0.16259401630E+04  0.20301020136E+04  0.46999998093E+01 0.  1.
</event>
<event>
 5   0  0.2287500E-07  0.3744944E+04  0.7818609E-02  0.8058074E-01
       -1   -1    0    0    0  501  0.00000000000E+00  0.00000000000E+00  0.19170372712E+04  0.19170372712E+04  0.50400001928E-02 0.  1.
        1   -1    0    0  501    0  0.00000000000E+00  0.00000000000E+00 -0.18289424973E+04  0.18289424974E+04  0.50400001928E-02 0. -1.
    10030    2    1    2    0    0  0.00000000000E+00  0.00000000000E+00  0.88094773823E+02  0.37459797685E+04  0.37449437562E+04 0.  0.
        3    1    3    3  502    0 -0.33413922116E+03 -0.88977329409E+03  0.16578149305E+04  0.19109411001E+04  0.10100000352E+00 0.  1.
       -3    1    3    3    0  502  0.33413922116E+03  0.88977329409E+03 -0.15697201567E+04  0.18350386684E+04  0.10100000352E+00 0. -1.
</event>
<event>
 5   0  0.7300916E-07  0.3699240E+04  0.7818609E-02  0.8068130E-01
       -2   -1    0    0    0  501  0.00000000000E+00  0.00000000000E+00  0.14491125976E+04  0.14491125976E+04  0.25500000920E-02 0. -1.
        2   -1    0    0  501    0  0.00000000000E+00  0.00000000000E+00 -0.23608198466E+04  0.23608198466E+04  0.25500000920E-02 0.  1.
    10030    2    1    2    0    0  0.00000000000E+00  0.00000000000E+00 -0.91170724894E+03  0.38099324442E+04  0.36992398032E+04 0.  0.
        1    1    3    3  502    0  0.91394436593E+03  0.35815382109E+02  0.11998952327E+04  0.15087496861E+04  0.50400001928E-02 0. -1.
       -1    1    3    3    0  502 -0.91394436593E+03 -0.35815382109E+02 -0.21116024817E+04  0.23011827581E+04  0.50400001928E-02 0.  1.
</event>
<event>
 5   0  0.2287500E-07  0.2730556E+04  0.7818609E-02  0.8325158E-01
       -1   -1    0    0    0  501  0.00000000000E+00  0.00000000000E+00  0.88691747827E+03  0.88691747829E+03  0.50400001928E-02 0. -1.
        1   -1    0    0  501    0  0.00000000000E+00  0.00000000000E+00 -0.21016437585E+04  0.21016437585E+04  0.50400001928E-02 0.  1.
    10030    2    1    2    0    0  0.00000000000E+00  0.00000000000E+00 -0.12147262802E+04  0.29885612368E+04  0.27305564140E+04 0.  0.
        2    1    3    3  502    0  0.13558000116E+04 -0.44469740335E+02 -0.77625988573E+03  0.15629301455E+04  0.25500000920E-02 0. -1.
       -2    1    3    3    0  502 -0.13558000116E+04  0.44469740335E+02 -0.43846639446E+03  0.14256310913E+04  0.25500000920E-02 0.  1.
</event>
<event>
 5   0  0.2287500E-07  0.3761777E+04  0.7818609E-02  0.8054407E-01
        1   -1    0    0  501    0  0.00000000000E+00  0.00000000000E+00  0.13147111999E+04  0.13147111999E+04  0.50400001928E-02 0.  1.
       -1   -1    0    0    0  501  0.00000000000E+00  0.00000000000E+00 -0.26908892231E+04  0.26908892231E+04  0.50400001928E-02 0. -1.
    10030    2    1    2    0    0  0.00000000000E+00  0.00000000000E+00 -0.13761780232E+04  0.40056004230E+04  0.37617773455E+04 0.  0.
        3    1    3    3  502    0 -0.13049923402E+04 -0.84797195572E+03  0.43663121699E+03  0.16163874150E+04  0.10100000352E+00 0.  1.
       -3    1    3    3    0  502  0.13049923402E+04  0.84797195572E+03 -0.18128092402E+04  0.23892130079E+04  0.10100000352E+00 0. -1.
</event>
<event>
 5   0  0.2287500E-07  0.3157661E+04  0.7818609E-02  0.8200089E-01
       -1   -1    0    0    0  501  0.00000000000E+00  0.00000000000E+00  0.70816507969E+03  0.70816507971E+03  0.50400001928E-02 0.  1.
        1   -1    0    0  501    0  0.00000000000E+00  0.00000000000E+00 -0.35199502620E+04  0.35199502620E+04  0.50400001928E-02 0. -1.
    10030    2    1    2    0    0  0.00000000000E+00  0.00000000000E+00 -0.28117851824E+04  0.42281153418E+04  0.31576610698E+04 0.  0.
        2    1    3    3  502    0 -0.23023082120E+03  0.53278837526E+03  0.56013310985E+03  0.80660943746E+03  0.25500000920E-02 0.  1.
       -2    1    3    3    0  502  0.23023082120E+03 -0.53278837526E+03 -0.33719182922E+04  0.34215059043E+04  0.25500000920E-02 0. -1.
</event>
<event>
 5   0  0.2287500E-07  0.3300372E+04  0.7818609E-02  0.8162801E-01
        1   -1    0    0  501    0  0.00000000000E+00  0.00000000000E+00  0.14367480442E+04  0.14367480442E+04  0.50400001928E-02 0.  1.
       -1   -1    0    0    0  501  0.00000000000E+00  0.00000000000E+00 -0.18953311156E+04  0.18953311156E+04  0.50400001928E-02 0. -1.
    10030    2    1    2    0    0  0.00000000000E+00  0.00000000000E+00 -0.45858307146E+03  0.33320791598E+04  0.33003716599E+04 0.  0.
        3    1    3    3  502    0 -0.13432429623E+04 -0.55086708513E+03 -0.10212748934E+04  0.17750376389E+04  0.10100000352E+00 0.  1.
       -3    1    3    3    0  502  0.13432429623E+04  0.55086708513E+03  0.56269182198E+03  0.15570415209E+04  0.10100000352E+00 0. -1.
</event>
<event>
 5   0  0.6949625E-07  0.3036488E+04  0.7818609E-02  0.8233388E-01
        2   -1    0    0  501    0  0.00000000000E+00  0.00000000000E+00  0.29138558850E+04  0.29138558850E+04  0.25500000920E-02 0.  1.
       -2   -1    0    0    0  501  0.00000000000E+00  0.00000000000E+00 -0.79107023142E+03  0.79107023142E+03  0.25500000920E-02 0. -1.
    10030    2    1    2    0    0  0.00000000000E+00  0.00000000000E+00  0.21227856535E+04  0.37049261164E+04  0.30364878720E+04 0.  0.
        5    1    3    3  502    0  0.10134754161E+04 -0.42326663834E+01 -0.31789567153E+03  0.10621817559E+04  0.46999998093E+01 0. -1.
       -5    1    3    3    0  502 -0.10134754161E+04  0.42326663834E+01  0.24406813251E+04  0.26427443605E+04  0.46999998093E+01 0.  1.
</event>
<event>
 5   0  0.7300916E-07  0.3486017E+04  0.7818609E-02  0.8117112E-01
       -2   -1    0    0    0  501  0.00000000000E+00  0.00000000000E+00  0.16294476883E+04  0.16294476883E+04  0.25500000920E-02 0.  1.
        2   -1    0    0  501    0  0.00000000000E+00  0.00000000000E+00 -0.18644842199E+04  0.18644842199E+04  0.25500000920E-02 0. -1.
    10030    2    1    2    0    0  0.00000000000E+00  0.00000000000E+00 -0.23503653155E+03  0.34939319082E+04  0.34860174997E+04 0.  0.
        1    1    3    3  502    0 -0.68463178842E+03 -0.70837508190E+03 -0.15586852644E+04  0.18439131476E+04  0.50400001928E-02 0. -1.
       -1    1    3    3    0  502  0.68463178842E+03  0.70837508190E+03  0.13236487329E+04  0.16500187606E+04  0.50400001928E-02 0.  1.
</event>
<event>
 5   0  0.2411746E-07  0.3701476E+04  0.7818609E-02  0.8067635E-01
       -1   -1    0    0    0  501  0.00000000000E+00  0.00000000000E+00  0.14936362423E+04  0.14936362423E+04  0.50400001928E-02 0.  1.
        1   -1    0    0  501    0  0.00000000000E+00  0.00000000000E+00 -0.22932167074E+04  0.22932167074E+04  0.50400001928E-02 0. -1.
    10030    2    1    2    0    0  0.00000000000E+00  0.00000000000E+00 -0.79958046509E+03  0.37868529497E+04  0.37014762383E+04 0.  0.
        1    1    3    3  502    0  0.17266681501E+03  0.16955543349E+04 -0.11378973133E+04  0.20492751468E+04  0.50400001928E-02 0. -1.
       -1    1    3    3    0  502 -0.17266681501E+03 -0.16955543349E+04  0.33831684819E+03  0.17375778030E+04  0.50400001928E-02 0.  1.
</event>
<event>
 5   0  0.7124627E-07  0.3780453E+04  0.7818609E-02  0.8050363E-01
       -2   -1    0    0    0  501  0.00000000000E+00  0.00000000000E+00  0.15617306836E+04  0.15617306836E+04  0.25500000920E-02 0. -1.
        2   -1    0    0  501    0  0.00000000000E+00  0.00000000000E+00 -0.22878188701E+04  0.22878188701E+04  0.25500000920E-02 0.  1.
    10030    2    1    2    0    0  0.00000000000E+00  0.00000000000E+00 -0.72608818650E+03  0.38495495536E+04  0.37804533738E+04 0.  0.
        2    1    3    3  502    0  0.13024774991E+04 -0.68889305118E+03  0.84263038877E+03  0.16973647939E+04  0.25500000920E-02 0. -1.
       -2    1    3    3    0  502 -0.13024774991E+04  0.68889305118E+03 -0.15687185753E+04  0.21521847597E+04  0.25500000920E-02 0.  1.
</event>
<event>
 5   0  0.6949625E-07  0.3395054E+04  0.7818609E-02  0.8139121E-01
        2   -1    0    0  501    0  0.00000000000E+00  0.00000000000E+00  0.26517480496E+04  0.26517480496E+04  0.25500000920E-02 0. -1.
       -2   -1    0    0    0  501  0.00000000000E+00  0.00000000000E+00 -0.10866788456E+04  0.10866788456E+04  0.25500000920E-02 0.  1.
    10030    2    1    2    0    0  0.00000000000E+00  0.00000000000E+00  0.15650692041E+04  0.37384268952E+04  0.33950543496E+04 0.  0.
        5    1    3    3  502    0  0.29071678458E+03 -0.80097377887E+03  0.23991856698E+04  0.25460143777E+04  0.46999998093E+01 0. -1.
       -5    1    3    3    0  502 -0.29071678458E+03  0.80097377887E+03 -0.83411646577E+03  0.11924125174E+04  0.46999998093E+01 0.  1.
</event>
<event>
 5   0  0.2287500E-07  0.2880531E+04  0.7818609E-02  0.8278694E-01
        1   -1    0    0  501    0  0.00000000000E+00  0.00000000000E+00  0.13557824810E+04  0.13557824810E+04  0.50400001928E-02 0.  1.
       -1   -1    0    0    0  501  0.00000000000E+00  0.00000000000E+00 -0.15300124744E+04  0.15300124745E+04  0.50400001928E-02 0. -1.
    10030    2    1    2    0    0  0.00000000000E+00  0.00000000000E+00 -0.17422999345E+03  0.28857949555E+04  0.28805305821E+04 0.  0.
        2    1    3    3  502    0  0.24861017607E+03 -0.11732026807E+04  0.71193438298E+03  0.13946548374E+04  0.25500000920E-02 0.  1.
       -2    1    3    3    0  502 -0.24861017607E+03  0.11732026807E+04 -0.88616437643E+03  0.14911401181E+04  0.25500000920E-02 0. -1.
</event>
<event>
 5   0  0.7124627E-07  0.2810605E+04  0.7818609E-02  0.8299984E-01
       -2   -1    0    0    0  501  0.00000000000E+00  0.00000000000E+00  0.89465425831E+03  0.89465425832E+03  0.25500000920E-02 0.  1.
        2   -1    0    0  501    0  0.00000000000E+00  0.00000000000E+00 -0.22074163483E+04  0.22074163483E+04  0.25500000920E-02 0. -1.
    10030    2    1    2    0    0  0.00000000000E+00  0.00000000000E+00 -0.13127620900E+04  0.31020706066E+04  0.28106045157E+04 0.  0.
        2    1    3    3  502    0 -0.12983110301E+03  0.10138057163E+04 -0.17208767397E+04  0.20015181485E+04  0.25500000920E-02 0. -1.
       -2    1    3    3    0  502  0.12983110301E+03 -0.10138057163E+04  0.40811464972E+03  0.11005524581E+04  0.25500000920E-02 0.  1.
</event>
<event>
 5   0  0.7074157E-07  0.3716569E+04  0.7818609E-02  0.8064300E-01
       -2   -1    0    0    0  501  0.00000000000E+00  0.00000000000E+00  0.21819070956E+04  0.21819070956E+04  0.25500000920E-02 0. -1.
        2   -1    0    0  501    0  0.00000000000E+00  0.00000000000E+00 -0.15826622303E+04  0.15826622303E+04  0.25500000920E-02 0.  1.
    10030    2    1    2    0    0  0.00000000000E+00  0.00000000000E+00  0.59924486536E+03  0.37645693259E+04  0.37165693591E+04 0.  0.
        3    1    3    3  502    0  0.16565910848E+04 -0.60423566670E+03 -0.29431836480E+03  0.17877410532E+04  0.10100000352E+00 0.  1.
       -3    1    3    3    0  502 -0.16565910848E+04  0.60423566670E+03  0.89356323016E+03  0.19768282727E+04  0.10100000352E+00 0. -1.
</event>
<event>
 5   0  0.2287500E-07  0.3652509E+04  0.7818609E-02  0.8078569E-01
       -3   -1    0    0    0  501  0.00000000000E+00  0.00000000000E+00  0.12710059841E+04  0.12710059881E+04  0.10100000352E+00 0.  1.
        3   -1    0    0  501    0  0.00000000000E+00  0.00000000000E+00 -0.26240671389E+04  0.26240671409E+04  0.10100000352E+00 0. -1.
    10030    2    1    2    0    0  0.00000000000E+00  0.00000000000E+00 -0.13530611548E+04  0.38950731290E+04  0.36525087531E+04 0.  0.
        1    1    3    3  502    0  0.38430310990E+03  0.45095859235E+03 -0.25187224342E+04  0.25874727502E+04  0.50400001928E-02 0. -1.
       -1    1    3    3    0  502 -0.38430310990E+03 -0.45095859235E+03  0.11656612794E+04  0.13076003788E+04  0.50400001928E-02 0.  1.
</event>
<event>
 5   0  0.2345471E-07  0.3728991E+04  0.7818609E-02  0.8061567E-01
       -1   -1    0    0    0  501  0.00000000000E+00  0.00000000000E+00  0.16911838136E+04  0.16911838136E+04  0.50400001928E-02 0.  1.
        1   -1    0    0  501    0  0.00000000000E+00  0.00000000000E+00 -0.20555680481E+04  0.20555680481E+04  0.50400001928E-02 0. -1.
    10030    2    1    2    0    0  0.00000000000E+00  0.00000000000E+00 -0.36438423451E+03  0.37467518617E+04  0.37289909684E+04 0.  0.
        5    1    3    3  502    0  0.11079706166E+04  0.14415129701E+04  0.23301063296E+03  0.18329960653E+04  0.46999998093E+01 0.  1.
       -5    1    3    3    0  502 -0.11079706166E+04 -0.14415129701E+04 -0.59739486747E+03  0.19137557963E+04  0.46999998093E+01 0. -1.
</event>
<event>
 5   0  0.7300916E-07  0.3732004E+04  0.7818609E-02  0.8060906E-01
        2   -1    0    0  501    0  0.00000000000E+00  0.00000000000E+00  0.24689298832E+04  0.24689298832E+04  0.25500000920E-02 0. -1.
       -2   -1    0    0    0  501  0.00000000000E+00  0.00000000000E+00 -0.14103125287E+04  0.14103125287E+04  0.25500000920E-02 0.  1.
    10030    2    1    2    0    0  0.00000000000E+00  0.00000000000E+00  0.10586173545E+04  0.38792424120E+04  0.37320036157E+04 0.  0.
        1    1    3    3  502    0 -0.92766267776E+03  0.10150745488E+04 -0.78181549563E+03  0.15818248489E+04  0.50400001928E-02 0.  1.
       -1    1    3    3    0  502  0.92766267776E+03 -0.10150745488E+04  0.18404328501E+04  0.22974175631E+04  0.50400001928E-02 0. -1.
</event>
<event>
 5   0  0.2287500E-07  0.3693156E+04  0.7818609E-02  0.8069480E-01
       -1   -1    0    0    0  501  0.00000000000E+00  0.00000000000E+00  0.13148489991E+04  0.13148489991E+04  0.50400001928E-02 0.  1.
        1   -1    0    0  501    0  0.00000000000E+00  0.00000000000E+00 -0.25933392303E+04  0.25933392303E+04  0.50400001928E-02 0. -1.
    10030    2    1    2    0    0  0.00000000000E+00  0.00000000000E+00 -0.12784902312E+04  0.39081882295E+04  0.36931555566E+04 0.  0.
        4    1    3    3  502    0  0.25386541629E+03  0.12632813863E+04  0.76046265365E+03  0.14962060591E+04  0.12699999809E+01 0.  1.
       -4    1    3    3    0  502 -0.25386541629E+03 -0.12632813863E+04 -0.20389528849E+04  0.24119821704E+04  0.12699999809E+01 0. -1.
</event>
<event>
 5   0  0.2287500E-07  0.3417107E+04  0.7818609E-02  0.8133720E-01
       -1   -1    0    0    0  501  0.00000000000E+00  0.00000000000E+00  0.16051048585E+04  0.16051048585E+04  0.50400001928E-02 0.  1.
        1   -1    0    0  501    0  0.00000000000E+00  0.00000000000E+00 -0.18186691855E+04  0.18186691855E+04  0.50400001928E-02 0. -1.
    10030    2    1    2    0    0  0.00000000000E+00  0.00000000000E+00 -0.21356432700E+03  0.34237740440E+04  0.34171068146E+04 0.  0.
        2    1    3    3  502    0  0.82831019887E+03 -0.41224500144E+03  0.13323737281E+04  0.16221169742E+04  0.25500000920E-02 0.  1.
       -2    1    3    3    0  502 -0.82831019887E+03  0.41224500144E+03 -0.15459380551E+04  0.18016570697E+04  0.25500000920E-02 0. -1.
</event>
<event>
 5   0  0.6939921E-07  0.2642008E+04  0.7818609E-02  0.8354071E-01
       -2   -1    0    0    0  501  0.00000000000E+00  0.00000000000E+00  0.88302098956E+03  0.88302098956E+03  0.25500000920E-02 0. -1.
        2   -1    0    0  501    0  0.00000000000E+00  0.00000000000E+00 -0.19762283473E+04  0.19762283473E+04  0.25500000920E-02 0.  1.
    10030    2    1    2    0    0  0.00000000000E+00  0.00000000000E+00 -0.10932073577E+04  0.28592493368E+04  0.26420076539E+04 0.  0.
        4    1    3    3  502    0 -0.36356049913E+03 -0.30509859721E+03 -0.18807684796E+04  0.19397301558E+04  0.12699999809E+01 0.  1.
       -4    1    3    3    0  502  0.36356049913E+03  0.30509859721E+03  0.78756112193E+03  0.91951918099E+03  0.12699999809E+01 0. -1.
</event>
<event>
 5   0  0.7124627E-07  0.3639494E+04  0.7818609E-02  0.8081505E-01
        2   -1    0    0  501    0  0.00000000000E+00  0.00000000000E+00  0.22560595830E+04  0.22560595830E+04  0.25500000920E-02 0.  1.
       -2   -1    0    0    0  501  0.00000000000E+00  0.00000000000E+00 -0.14678153529E+04  0.14678153529E+04  0.25500000920E-02 0. -1.
    10030    2    1    2    0    0  0.00000000000E+00  0.00000000000E+00  0.78824423004E+03  0.37238749359E+04  0.36394938620E+04 0.  0.
        2    1    3    3  502    0 -0.85984530258E+03  0.11405617521E+04  0.15477664624E+04  0.21061329675E+04  0.25500000920E-02 0.  1.
       -2    1    3    3    0  502  0.85984530258E+03 -0.11405617521E+04 -0.75952223231E+03  0.16177419684E+04  0.25500000920E-02 0. -1.
</event>
<event>
 5   0  0.7074157E-07  0.3526058E+04  0.7818609E-02  0.8107642E-01
       -2   -1    0    0    0  501  0.00000000000E+00  0.00000000000E+00  0.19185212590E+04  0.19185212590E+04  0.25500000920E-02 0.  1.
        2   -1    0    0  501    0  0.00000000000E+00  0.00000000000E+00 -0.16201390958E+04  0.16201390958E+04  0.25500000920E-02 0. -1.
    10030    2    1    2    0    0  0.00000000000E+00  0.00000000000E+00  0.29838216320E+03  0.35386603548E+04  0.35260580243E+04 0.  0.
        3    1    3    3  502    0  0.11275443693E+04 -0.11480860043E+04 -0.57367036724E+03  0.17083780257E+04  0.10100000352E+00 0. -1.
       -3    1    3    3    0  502 -0.11275443693E+04  0.11480860043E+04  0.87205253044E+03  0.18302823291E+04  0.10100000352E+00 0.  1.
</event>
<event>
 5   0  0.6949625E-07  0.3654040E+04  0.7818609E-02  0.8078224E-01
       -2   -1    0    0    0  501  0.00000000000E+00  0.00000000000E+00  0.26866007152E+04  0.26866007152E+04  0.25500000920E-02 0. -1.
        2   -1    0    0  501    0  0.00000000000E+00  0.00000000000E+00 -0.12424628629E+04  0.12424628629E+04  0.25500000920E-02 0.  1.
    10030    2    1    2    0    0  0.00000000000E+00  0.00000000000E+00  0.14441378523E+04  0.39290635781E+04  0.36540397459E+04 0.  0.
        5    1    3    3  502    0 -0.37258187082E+03 -0.76902730081E+03 -0.10143301245E+04  0.13263136625E+04  0.46999998093E+01 0.  1.
       -5    1    3    3    0  502  0.37258187082E+03  0.76902730081E+03  0.24584679768E+04  0.26027499156E+04  0.46999998093E+01 0. -1.
</event>
<event>
 5   0  0.6939921E-07  0.3687255E+04  0.7818609E-02  0.8070792E-01
       -2   -1    0    0    0  501  0.00000000000E+00  0.00000000000E+00  0.16917690745E+04  0.16917690745E+04  0.25500000920E-02 0.  1.
        2   -1    0    0  501    0  0.00000000000E+00  0.00000000000E+00 -0.20091169066E+04  0.20091169066E+04  0.25500000920E-02 0. -1.
    10030    2    1    2    0    0  0.00000000000E+00  0.00000000000E+00 -0.31734783214E+03  0.37008859811E+04  0.36872547238E+04 0.  0.
        4    1    3    3  502    0  0.34869884196E+03 -0.17174292793E+04 -0.73333399801E+03  0.18997196049E+04  0.12699999809E+01 0.  1.
       -4    1    3    3    0  502 -0.34869884196E+03  0.17174292793E+04  0.41598616587E+03  0.18011663762E+04  0.12699999809E+01 0. -1.
</event>
<event>
 5   0  0.7074157E-07  0.3690509E+04  0.7818609E-02  0.8070068E-01
        2   -1    0    0  501    0  0.00000000000E+00  0.00000000000E+00  0.24245764207E+04  0.24245764207E+04  0.25500000920E-02 0.  1.
       -2   -1    0    0    0  501  0.00000000000E+00  0.00000000000E+00 -0.14043543682E+04  0.14043543682E+04  0.25500000920E-02 0. -1.
    10030    2    1    2    0    0  0.00000000000E+00  0.00000000000E+00  0.10202220524E+04  0.38289307889E+04  0.36905091722E+04 0.  0.
        3    1    3    3  502    0  0.12244488780E+04 -0.27733597082E+03  0.19131549525E+04  0.22883077105E+04  0.10100000352E+00 0.  1.
       -3    1    3    3    0  502 -0.12244488780E+04  0.27733597082E+03 -0.89293290003E+03  0.15406230784E+04  0.10100000352E+00 0. -1.
</event>
<event>
 5   0  0.2287500E-07  0.3701441E+04  0.7818609E-02  0.8067643E-01
        1   -1    0    0  501    0  0.00000000000E+00  0.00000000000E+00  0.12998513075E+04  0.12998513075E+04  0.50400001928E-02 0. -1.
       -1   -1    0    0    0  501  0.00000000000E+00  0.00000000000E+00 -0.26350442095E+04  0.26350442095E+04  0.50400001928E-02 0.  1.
    10030    2    1    2    0    0  0.00000000000E+00  0.00000000000E+00 -0.13351929020E+04  0.39348955170E+04  0.37014406174E+04 0.  0.
        3    1    3    3  502    0 -0.11894385683E+04  0.39241697461E+03 -0.21160328239E+04  0.24589327181E+04  0.10100000352E+00 0.  1.
       -3    1    3    3    0  502  0.11894385683E+04 -0.39241697461E+03  0.78083992199E+03  0.14759627989E+04  0.10100000352E+00 0. -1.
</event>
<event>
 5   0  0.7300916E-07  0.3543534E+04  0.7818609E-02  0.8103550E-01
        2   -1    0    0  501    0  0.00000000000E+00  0.00000000000E+00  0.16829598141E+04  0.16829598141E+04  0.25500000920E-02 0. -1.
       -2   -1    0    0    0  501  0.00000000000E+00  0.00000000000E+00 -0.18652600622E+04  0.18652600622E+04  0.25500000920E-02 0.  1.
    10030    2    1    2    0    0  0.00000000000E+00  0.00000000000E+00 -0.18230024809E+03  0.35482198763E+04  0.35435336756E+04 0.  0.
        1    1    3    3  502    0  0.16662538527E+04  0.10776532174E+03  0.50220628052E+03  0.17436245050E+04  0.50400001928E-02 0. -1.
       -1    1    3    3    0  502 -0.16662538527E+04 -0.10776532174E+03 -0.68450652861E+03  0.18045953713E+04  0.50400001928E-02 0.  1.
</event>
<event>
 5   0  0.2287500E-07  0.3661870E+04  0.7818609E-02  0.8076465E-01
       -1   -1    0    0    0  501  0.00000000000E+00  0.00000000000E+00  0.12020423324E+04  0.12020423324E+04  0.50400001928E-02 0. -1.
        1   -1    0    0  501    0  0.00000000000E+00  0.00000000000E+00 -0.27888555478E+04  0.27888555478E+04  0.50400001928E-02 0.  1.
    10030    2    1    2    0    0  0.00000000000E+00  0.00000000000E+00 -0.15868132154E+04  0.39908978802E+04  0.36618697013E+04 0.  0.
        2    1    3    3  502    0 -0.49639806932E+03  0.57009351156E+02  0.11263002389E+04  0.12321580002E+04  0.25500000920E-02 0. -1.
       -2    1    3    3    0  502  0.49639806932E+03 -0.57009351156E+02 -0.27131134543E+04  0.27587398800E+04  0.25500000920E-02 0.  1.
</event>
<event>
 5   0  0.2411746E-07  0.3192542E+04  0.7818609E-02  0.8190790E-01
       -1   -1    0    0    0  501  0.00000000000E+00  0.00000000000E+00  0.15806066754E+04  0.15806066754E+04  0.50400001928E-02 0.  1.
        1   -1    0    0  501    0  0.00000000000E+00  0.00000000000E+00 -0.16120907866E+04  0.16120907866E+04  0.50400001928E-02 0. -1.
    10030    2    1    2    0    0  0.00000000000E+00  0.00000000000E+00 -0.31484111150E+02  0.31926974620E+04  0.31925422213E+04 0.  0.
        1    1    3    3  502    0  0.12108122438E+04  0.39421229834E+03  0.94691154245E+03  0.15868557260E+04  0.50400001928E-02 0.  1.
       -1    1    3    3    0  502 -0.12108122438E+04 -0.39421229834E+03 -0.97839565360E+03  0.16058417360E+04  0.50400001928E-02 0. -1.
</event>
<event>
 5   0  0.6939921E-07  0.3691944E+04  0.7818609E-02  0.8069750E-01
       -2   -1    0    0    0  501  0.00000000000E+00  0.00000000000E+00  0.13244912048E+04  0.13244912048E+04  0.25500000920E-02 0. -1.
        2   -1    0    0  501    0  0.00000000000E+00  0.00000000000E+00 -0.25727705943E+04  0.25727705943E+04  0.25500000920E-02 0.  1.
    10030    2    1    2    0    0  0.00000000000E+00  0.00000000000E+00 -0.12482793894E+04  0.38972617991E+04  0.36919436746E+04 0.  0.
        4    1    3    3  502    0  0.58768582334E+03 -0.12811617003E+04 -0.18824282069E+04  0.23516563304E+04  0.12699999809E+01 0.  1.
       -4    1    3    3    0  502 -0.58768582334E+03  0.12811617003E+04  0.63414881747E+03  0.15456054687E+04  0.12699999809E+01 0. -1.
</event>
<event>
 5   0  0.6939921E-07  0.3718381E+04  0.7818609E-02  0.8063900E-01
       -2   -1    0    0    0  501  0.00000000000E+00  0.00000000000E+00  0.23123986137E+04  0.23123986137E+04  0.25500000920E-02 0. -1.
        2   -1    0    0  501    0  0.00000000000E+00  0.00000000000E+00 -0.14948070493E+04  0.14948070493E+04  0.25500000920E-02 0.  1.
    10030    2    1    2    0    0  0.00000000000E+00  0.00000000000E+00  0.81759156447E+03  0.38072056630E+04  0.37183812330E+04 0.  0.
        4    1    3    3  502    0 -0.13944738209E+04 -0.97923242973E+03 -0.35270068667E+03  0.17400726352E+04  0.12699999809E+01 0.  1.
       -4    1    3    3    0  502  0.13944738209E+04  0.97923242973E+03  0.11702922511E+04  0.20671330278E+04  0.12699999809E+01 0. -1.
</event>
<event>
 5   0  0.6939921E-07  0.3623573E+04  0.7818609E-02  0.8085113E-01
        2   -1    0    0  501    0  0.00000000000E+00  0.00000000000E+00  0.20909434454E+04  0.20909434454E+04  0.25500000920E-02 0. -1.
       -2   -1    0    0    0  501  0.00000000000E+00  0.00000000000E+00 -0.15698990274E+04  0.15698990274E+04  0.25500000920E-02 0.  1.
    10030    2    1    2    0    0  0.00000000000E+00  0.00000000000E+00  0.52104441796E+03  0.36608424728E+04  0.36235728674E+04 0.  0.
        4    1    3    3  502    0  0.46585259597E+03  0.27403453345E+02 -0.15081405539E+04  0.15786890554E+04  0.12699999809E+01 0.  1.
       -4    1    3    3    0  502 -0.46585259597E+03 -0.27403453345E+02  0.20291849719E+04  0.20821534174E+04  0.12699999809E+01 0. -1.
</event>
<event>
 5   0  0.2411746E-07  0.3673850E+04  0.7818609E-02  0.8073782E-01
        1   -1    0    0  501    0  0.00000000000E+00  0.00000000000E+00  0.11797878306E+04  0.11797878306E+04  0.50400001928E-02 0.  1.
       -1   -1    0    0    0  501  0.00000000000E+00  0.00000000000E+00 -0.28600853889E+04  0.28600853889E+04  0.50400001928E-02 0. -1.
    10030    2    1    2    0    0  0.00000000000E+00  0.00000000000E+00 -0.16802975583E+04  0.40398732196E+04  0.36738502617E+04 0.  0.
        1    1    3    3  502    0 -0.24096225961E+03  0.12037740538E+04  0.66242897149E+03  0.13949720160E+04  0.50400001928E-02 0.  1.
       -1    1    3    3    0  502  0.24096225961E+03 -0.12037740538E+04 -0.23427265298E+04  0.26449012036E+04  0.50400001928E-02 0. -1.
</event>
<event>
 5   0  0.7074157E-07  0.3779079E+04  0.7818609E-02  0.8050659E-01
       -2   -1    0    0    0  501  0.00000000000E+00  0.00000000000E+00  0.13003302907E+04  0.13003302907E+04  0.25500000920E-02 0. -1.
        2   -1    0    0  501    0  0.00000000000E+00  0.00000000000E+00 -0.27457326380E+04  0.27457326380E+04  0.25500000920E-02 0.  1.
    10030    2    1    2    0    0  0.00000000000E+00  0.00000000000E+00 -0.14454023473E+04  0.40460629286E+04  0.37790788926E+04 0.  0.
        3    1    3    3  502    0  0.18556834926E+04 -0.35603733222E+03 -0.71632185322E+03  0.20207525367E+04  0.10100000352E+00 0.  1.
       -3    1    3    3    0  502 -0.18556834926E+04  0.35603733222E+03 -0.72908049408E+03  0.20253103920E+04  0.10100000352E+00 0. -1.
</event>
<event>
 5   0  0.7300916E-07  0.3511796E+04  0.7818609E-02  0.8111000E-01
       -2   -1    0    0    0  501  0.00000000000E+00  0.00000000000E+00  0.29608501092E+04  0.29608501092E+04  0.25500000920E-02 0.  1.
        2   -1    0    0  501    0  0.00000000000E+00  0.00000000000E+00 -0.10413152578E+04  0.10413152578E+04  0.25500000920E-02 0. -1.
    10030    2    1    2    0    0  0.00000000000E+00  0.00000000000E+00  0.19195348513E+04  0.40021653670E+04  0.35117963465E+04 0.  0.
        1    1    3    3  502    0  0.77352444525E+03  0.40499443955E+03 -0.77637853033E+03  0.11683852900E+04  0.50400001928E-02 0. -1.
       -1    1    3    3    0  502 -0.77352444525E+03 -0.40499443955E+03  0.26959133817E+04  0.28337800770E+04  0.50400001928E-02 0.  1.
</event>
<event>
 5   0  0.2287500E-07  0.3655908E+04  0.7818609E-02  0.8077804E-01
        4   -1    0    0  501    0  0.00000000000E+00  0.00000000000E+00  0.23805705398E+04  0.23805708785E+04  0.12699999809E+01 0.  1.
       -4   -1    0    0    0  501  0.00000000000E+00  0.00000000000E+00 -0.14036189062E+04  0.14036194808E+04  0.12699999809E+01 0. -1.
    10030    2    1    2    0    0  0.00000000000E+00  0.00000000000E+00  0.97695163354E+03  0.37841903593E+04  0.36559078464E+04 0.  0.
        5    1    3    3  502    0 -0.14860079750E+04  0.75282151000E+03 -0.29055064642E+03  0.16909765510E+04  0.46999998093E+01 0. -1.
       -5    1    3    3    0  502  0.14860079750E+04 -0.75282151000E+03  0.12675022800E+04  0.20932138084E+04  0.46999998093E+01 0.  1.
</event>
<event>
 5   0  0.2411746E-07  0.3721764E+04  0.7818609E-02  0.8063156E-01
       -1   -1    0    0    0  501  0.00000000000E+00  0.00000000000E+00  0.26068888422E+04  0.26068888422E+04  0.50400001928E-02 0.  1.
        1   -1    0    0  501    0  0.00000000000E+00  0.00000000000E+00 -0.13283577748E+04  0.13283577748E+04  0.50400001928E-02 0. -1.
    10030    2    1    2    0    0  0.00000000000E+00  0.00000000000E+00  0.12785310675E+04  0.39352466170E+04  0.37217635935E+04 0.  0.
        1    1    3    3  502    0  0.74304925351E+03 -0.18995003113E+03  0.24320074075E+04  0.25500712221E+04  0.50400001928E-02 0.  1.
       -1    1    3    3    0  502 -0.74304925351E+03  0.18995003113E+03 -0.11534763401E+04  0.13851753949E+04  0.50400001928E-02 0. -1.
</event>
<event>
 5   0  0.2287500E-07  0.3485308E+04  0.7818609E-02  0.8117280E-01
       -1   -1    0    0    0  501  0.00000000000E+00  0.00000000000E+00  0.13939267142E+04  0.13939267142E+04  0.50400001928E-02 0.  1.
        1   -1    0    0  501    0  0.00000000000E+00  0.00000000000E+00 -0.21786251090E+04  0.21786251090E+04  0.50400001928E-02 0. -1.
    10030    2    1    2    0    0  0.00000000000E+00  0.00000000000E+00 -0.78469839473E+03  0.35725518232E+04  0.34853084453E+04 0.  0.
        2    1    3    3  502    0  0.83239383386E+03 -0.15307534150E+04 -0.42057440146E+03  0.17924754780E+04  0.25500000920E-02 0.  1.
       -2    1    3    3    0  502 -0.83239383386E+03  0.15307534150E+04 -0.36412399327E+03  0.17800763452E+04  0.25500000920E-02 0. -1.
</event>
<event>
 5   0  0.7074157E-07  0.3663207E+04  0.7818609E-02  0.8076165E-01
       -2   -1    0    0    0  501  0.00000000000E+00  0.00000000000E+00  0.18762526089E+04  0.18762526089E+04  0.25500000920E-02 0.  1.
        2   -1    0    0  501    0  0.00000000000E+00  0.00000000000E+00 -0.17880171098E+04  0.17880171098E+04  0.25500000920E-02 0. -1.
    10030    2    1    2    0    0  0.00000000000E+00  0.00000000000E+00  0.88235499068E+02  0.36642697187E+04  0.36632072107E+04 0.  0.
        3    1    3    3  502    0  0.63106762320E+03 -0.54564824889E+03 -0.15869358923E+04  0.17928591392E+04  0.10100000352E+00 0. -1.
       -3    1    3    3    0  502 -0.63106762320E+03  0.54564824889E+03  0.16751713914E+04  0.18714105795E+04  0.10100000352E+00 0.  1.
</event>
<event>
 5   0  0.2287500E-07  0.3477720E+04  0.7818609E-02  0.8119090E-01
        1   -1    0    0  501    0  0.00000000000E+00  0.00000000000E+00  0.20177829081E+04  0.20177829081E+04  0.50400001928E-02 0. -1.
       -1   -1    0    0    0  501  0.00000000000E+00  0.00000000000E+00 -0.14984931808E+04  0.14984931808E+04  0.50400001928E-02 0.  1.
    10030    2    1    2    0    0  0.00000000000E+00  0.00000000000E+00  0.51928972728E+03  0.35162760889E+04  0.34777199014E+04 0.  0.
        2    1    3    3  502    0  0.12924040025E+04  0.70935543778E+03  0.11918978155E+04  0.18958147709E+04  0.25500000920E-02 0. -1.
       -2    1    3    3    0  502 -0.12924040025E+04 -0.70935543778E+03 -0.67260808819E+03  0.16204613180E+04  0.25500000920E-02 0.  1.
</event>
<event>
 5   0  0.7124627E-07  0.3353108E+04  0.7818609E-02  0.8149512E-01
        2   -1    0    0  501    0  0.00000000000E+00  0.00000000000E+00  0.12566371460E+04  0.12566371460E+04  0.25500000920E-02 0.  1.
       -2   -1    0    0    0  501  0.00000000000E+00  0.00000000000E+00 -0.22367899641E+04  0.22367899641E+04  0.25500000920E-02 0. -1.
    10030    2    1    2    0    0  0.00000000000E+00  0.00000000000E+00 -0.98015281809E+03  0.34934271101E+04  0.33531080249E+04 0.  0.
        2    1    3    3  502    0 -0.59837199592E+03  0.19540065417E+03  0.11288495976E+04  0.12924905706E+04  0.25500000920E-02 0.  1.
       -2    1    3    3    0  502  0.59837199592E+03 -0.19540065417E+03 -0.21090024157E+04  0.22009365394E+04  0.25500000920E-02 0. -1.
</event>
<event>
 5   0  0.2287500E-07  0.3898536E+04  0.7818609E-02  0.8025334E-01
        1   -1    0    0  501    0  0.00000000000E+00  0.00000000000E+00  0.25922143179E+04  0.25922143179E+04  0.50400001928E-02 0.  1.
       -1   -1    0    0    0  501  0.00000000000E+00  0.00000000000E+00 -0.14657915785E+04  0.14657915785E+04  0.50400001928E-02 0. -1.
    10030    2    1    2    0    0  0.00000000000E+00  0.00000000000E+00  0.11264227394E+04  0.40580058964E+04  0.38985360929E+04 0.  0.
        3    1    3    3  502    0 -0.13471043492E+04  0.12389686392E+03  0.20240448766E+04  0.24345016396E+04  0.10100000352E+00 0.  1.
       -3    1    3    3    0  502  0.13471043492E+04 -0.12389686392E+03 -0.89762213718E+03  0.16235042568E+04  0.10100000352E+00 0. -1.
</event>
<event>
 5   0  0.2411746E-07  0.3698311E+04  0.7818609E-02  0.8068336E-01
       -1   -1    0    0    0  501  0.00000000000E+00  0.00000000000E+00  0.20812339307E+04  0.20812339307E+04  0.50400001928E-02 0.  1.
        1   -1    0    0  501    0  0.00000000000E+00  0.00000000000E+00 -0.16429565092E+04  0.16429565092E+04  0.50400001928E-02 0. -1.
    10030    2    1    2    0    0  0.00000000000E+00  0.00000000000E+00  0.43827742149E+03  0.37241904399E+04  0.36983114166E+04 0.  0.
        1    1    3    3  502    0  0.10885539220E+04  0.30109812451E+03  0.16935451019E+04  0.20356091800E+04  0.50400001928E-02 0.  1.
       -1    1    3    3    0  502 -0.10885539220E+04 -0.30109812451E+03 -0.12552676804E+04  0.16885812598E+04  0.50400001928E-02 0. -1.
</event>
<event>
 5   0  0.6939921E-07  0.3757038E+04  0.7818609E-02  0.8055438E-01
       -2   -1    0    0    0  501  0.00000000000E+00  0.00000000000E+00  0.14821654256E+04  0.14821654256E+04  0.25500000920E-02 0.  1.
        2   -1    0    0  501    0  0.00000000000E+00  0.00000000000E+00 -0.23808639637E+04  0.23808639637E+04  0.25500000920E-02 0. -1.
    10030    2    1    2    0    0  0.00000000000E+00  0.00000000000E+00 -0.89869853815E+03  0.38630293893E+04  0.37570383283E+04 0.  0.
        4    1    3    3  502    0  0.12236849430E+04  0.70765009147E+03  0.82275184191E+03  0.16355719788E+04  0.12699999809E+01 0.  1.
       -4    1    3    3    0  502 -0.12236849430E+04 -0.70765009147E+03 -0.17214503801E+04  0.22274574105E+04  0.12699999809E+01 0. -1.
</event>
<event>
 5   0  0.6949625E-07  0.3688748E+04  0.7818609E-02  0.8070460E-01
        2   -1    0    0  501    0  0.00000000000E+00  0.00000000000E+00  0.12393154731E+04  0.12393154731E+04  0.25500000920E-02 0.  1.
       -2   -1    0    0    0  501  0.00000000000E+00  0.00000000000E+00 -0.27448340444E+04  0.27448340444E+04  0.25500000920E-02 0. -1.
    10030    2    1    2    0    0  0.00000000000E+00  0.00000000000E+00 -0.15055185713E+04  0.39841495176E+04  0.36887479190E+04 0.  0.
        5    1    3    3  502    0  0.13204240500E+04  0.10196941211E+04  0.96598148396E+02  0.16711220975E+04  0.46999998093E+01 0.  1.
       -5    1    3    3    0  502 -0.13204240500E+04 -0.10196941211E+04 -0.16021167197E+04  0.23130274201E+04  0.46999998093E+01 0. -1.
</event>
<event>
 5   0  0.2287500E-07  0.3365147E+04  0.7818609E-02  0.8146514E-01
       -1   -1    0    0    0  501  0.00000000000E+00  0.00000000000E+00  0.15083286673E+04  0.15083286673E+04  0.50400001928E-02 0. -1.
        1   -1    0    0  501    0  0.00000000000E+00  0.00000000000E+00 -0.18769478650E+04  0.18769478650E+04  0.50400001928E-02 0.  1.
    10030    2    1    2    0    0  0.00000000000E+00  0.00000000000E+00 -0.36861919774E+03  0.33852765323E+04  0.33651474094E+04 0.  0.
        2    1    3    3  502    0  0.10402956056E+04  0.12514548318E+04  0.24568151851E+03  0.16458169861E+04  0.25500000920E-02 0. -1.
       -2    1    3    3    0  502 -0.10402956056E+04 -0.12514548318E+04 -0.61430071625E+03  0.17394595462E+04  0.25500000920E-02 0.  1.
</event>
<event>
 5   0  0.2287500E-07  0.3696527E+04  0.7818609E-02  0.8068732E-01
       -1   -1    0    0    0  501  0.00000000000E+00  0.00000000000E+00  0.31490546386E+04  0.31490546386E+04  0.50400001928E-02 0. -1.
        1   -1    0    0  501    0  0.00000000000E+00  0.00000000000E+00 -0.10847947047E+04  0.10847947047E+04  0.50400001928E-02 0.  1.
    10030    2    1    2    0    0  0.00000000000E+00  0.00000000000E+00  0.20642599339E+04  0.42338493433E+04  0.36965269087E+04 0.  0.
        2    1    3    3  502    0 -0.85402510941E+02  0.16354229123E+03  0.31384811342E+04  0.31438994099E+04  0.25500000920E-02 0. -1.
       -2    1    3    3    0  502  0.85402510941E+02 -0.16354229123E+03 -0.10742212003E+04  0.10899499333E+04  0.25500000920E-02 0.  1.
</event>
<event>
 5   0  0.2411746E-07  0.3724917E+04  0.7818609E-02  0.8062462E-01
        1   -1    0    0  501    0  0.00000000000E+00  0.00000000000E+00  0.14221924168E+04  0.14221924168E+04  0.50400001928E-02 0. -1.
       -1   -1    0    0    0  501  0.00000000000E+00  0.00000000000E+00 -0.24390165197E+04  0.24390165197E+04  0.50400001928E-02 0.  1.
    10030    2    1    2    0    0  0.00000000000E+00  0.00000000000E+00 -0.10168241028E+04  0.38612089365E+04  0.37249165353E+04 0.  0.
        1    1    3    3  502    0 -0.34265956957E+03 -0.36170920922E+03  0.13518259879E+04  0.14407229554E+04  0.50400001928E-02 0. -1.
       -1    1    3    3    0  502  0.34265956957E+03  0.36170920922E+03 -0.23686500907E+04  0.24204859811E+04  0.50400001928E-02 0.  1.
</event>
<event>
 5   0  0.2345471E-07  0.3274472E+04  0.7818609E-02  0.8169422E-01
       -1   -1    0    0    0  501  0.00000000000E+00  0.00000000000E+00  0.15496269654E+04  0.15496269654E+04  0.50400001928E-02 0.  1.
        1   -1    0    0  501    0  0.00000000000E+00  0.00000000000E+00 -0.17297979550E+04  0.17297979550E+04  0.50400001928E-02 0. -1.
    10030    2    1    2    0    0  0.00000000000E+00  0.00000000000E+00 -0.18017098966E+03  0.32794249204E+04  0.32744718999E+04 0.  0.
        5    1    3    3  502    0  0.14729548718E+04  0.25550954724E+03  0.57848571464E+03  0.16029812834E+04  0.46999998093E+01 0.  1.
       -5    1    3    3    0  502 -0.14729548718E+04 -0.25550954724E+03 -0.75865670430E+03  0.16764436370E+04  0.46999998093E+01 0. -1.
</event>
<event>
 5   0  0.2287500E-07  0.3547897E+04  0.7818609E-02  0.8102532E-01
       -1   -1    0    0    0  501  0.00000000000E+00  0.00000000000E+00  0.18625268796E+04  0.18625268796E+04  0.50400001928E-02 0. -1.
        1   -1    0    0  501    0  0.00000000000E+00  0.00000000000E+00 -0.16895828337E+04  0.16895828337E+04  0.50400001928E-02 0.  1.
    10030    2    1    2    0    0  0.00000000000E+00  0.00000000000E+00  0.17294404585E+03  0.35521097133E+04  0.35478970916E+04 0.  0.
        3    1    3    3  502    0  0.12578775133E+04 -0.11521584480E+04 -0.40110571140E+03  0.17523158191E+04  0.10100000352E+00 0.  1.
       -3    1    3    3    0  502 -0.12578775133E+04  0.11521584480E+04  0.57404975724E+03  0.17997938943E+04  0.10100000352E+00 0. -1.
</event>
<event>
 5   0  0.7300916E-07  0.3680795E+04  0.7818609E-02  0.8072231E-01
       -2   -1    0    0    0  501  0.00000000000E+00  0.00000000000E+00  0.30395943571E+04  0.30395943571E+04  0.25500000920E-02 0. -1.
        2   -1    0    0  501    0  0.00000000000E+00  0.00000000000E+00 -0.11143141463E+04  0.11143141463E+04  0.25500000920E-02 0.  1.
    10030    2    1    2    0    0  0.00000000000E+00  0.00000000000E+00  0.19252802108E+04  0.41539085034E+04  0.36807950180E+04 0.  0.
        1    1    3    3  502    0 -0.38516800563E+03  0.21936298714E+03 -0.10531749762E+04  0.11426513218E+04  0.50400001928E-02 0.  1.
       -1    1    3    3    0  502  0.38516800563E+03 -0.21936298714E+03  0.29784551870E+04  0.30112571816E+04  0.50400001928E-02 0. -1.
</event>
<event>
 5   0  0.2345471E-07  0.3708740E+04  0.7818609E-02  0.8066028E-01
       -1   -1    0    0    0  501  0.00000000000E+00  0.00000000000E+00  0.16956042502E+04  0.16956042502E+04  0.50400001928E-02 0. -1.
        1   -1    0    0  501    0  0.00000000000E+00  0.00000000000E+00 -0.20280010908E+04  0.20280010908E+04  0.50400001928E-02 0.  1.
    10030    2    1    2    0    0  0.00000000000E+00  0.00000000000E+00 -0.33239684057E+03  0.37236053410E+04  0.37087395535E+04 0.  0.
        5    1    3    3  502    0 -0.98358061726E+03 -0.23242021135E+03  0.13947730523E+04  0.17224586912E+04  0.46999998093E+01 0. -1.
       -5    1    3    3    0  502  0.98358061726E+03  0.23242021135E+03 -0.17271698929E+04  0.20011466498E+04  0.46999998093E+01 0.  1.
</event>
<event>
 5   0  0.2411746E-07  0.3722643E+04  0.7818609E-02  0.8062962E-01
        1   -1    0    0  501    0  0.00000000000E+00  0.00000000000E+00  0.22444865407E+04  0.22444865407E+04  0.50400001928E-02 0.  1.
       -1   -1    0    0    0  501  0.00000000000E+00  0.00000000000E+00 -0.15435679728E+04  0.15435679728E+04  0.50400001928E-02 0. -1.
    10030    2    1    2    0    0  0.00000000000E+00  0.00000000000E+00  0.70091856789E+03  0.37880545134E+04  0.37226428996E+04 0.  0.
        1    1    3    3  502    0 -0.15490229524E+04 -0.60441814042E+03 -0.50073416444E+03  0.17365275981E+04  0.50400001928E-02 0. -1.
       -1    1    3    3    0  502  0.15490229524E+04  0.60441814042E+03  0.12016527323E+04  0.20515269154E+04  0.50400001928E-02 0.  1.
</event>
<event>
 5   0  0.2411746E-07  0.3643967E+04  0.7818609E-02  0.8080494E-01
        1   -1    0    0  501    0  0.00000000000E+00  0.00000000000E+00  0.22400178414E+04  0.22400178414E+04  0.50400001928E-02 0.  1.
       -1   -1    0    0    0  501  0.00000000000E+00  0.00000000000E+00 -0.14819634271E+04  0.14819634271E+04  0.50400001928E-02 0. -1.
    10030    2    1    2    0    0  0.00000000000E+00  0.00000000000E+00  0.75805441433E+03  0.37219812684E+04  0.36439673527E+04 0.  0.
        1    1    3    3  502    0  0.16429872239E+04 -0.42198493298E+03 -0.30014931034E+03  0.17226630286E+04  0.50400001928E-02 0. -1.
       -1    1    3    3    0  502 -0.16429872239E+04  0.42198493298E+03  0.10582037247E+04  0.19993182399E+04  0.50400001928E-02 0.  1.
</event>
<event>
 5   0  0.2287500E-07  0.3332882E+04  0.7818609E-02  0.8154579E-01
       -1   -1    0    0    0  501  0.00000000000E+00  0.00000000000E+00  0.14008058843E+04  0.14008058843E+04  0.50400001928E-02 0.  1.
        1   -1    0    0  501    0  0.00000000000E+00  0.00000000000E+00 -0.19824488345E+04  0.19824488345E+04  0.50400001928E-02 0. -1.
    10030    2    1    2    0    0  0.00000000000E+00  0.00000000000E+00 -0.58164295026E+03  0.33832547188E+04  0.33328822318E+04 0.  0.
        4    1    3    3  502    0  0.13977679736E+04 -0.53669502712E+03  0.45182811527E+03  0.15639524030E+04  0.12699999809E+01 0. -1.
       -4    1    3    3    0  502 -0.13977679736E+04  0.53669502712E+03 -0.10334710655E+04  0.18193023158E+04  0.12699999809E+01 0.  1.
</event>
<event>
 5   0  0.2287500E-07  0.3760444E+04  0.7818609E-02  0.8054697E-01
        1   -1    0    0  501    0  0.00000000000E+00  0.00000000000E+00  0.26840192115E+04  0.26840192115E+04  0.50400001928E-02 0. -1.
       -1   -1    0    0    0  501  0.00000000000E+00  0.00000000000E+00 -0.13171422402E+04  0.13171422402E+04  0.50400001928E-02 0.  1.
    10030    2    1    2    0    0  0.00000000000E+00  0.00000000000E+00  0.13668769713E+04  0.40011614518E+04  0.37604441637E+04 0.  0.
        3    1    3    3  502    0  0.11052800932E+04  0.84819392652E+03 -0.65998401901E+03  0.15416406640E+04  0.10100000352E+00 0.  1.
       -3    1    3    3    0  502 -0.11052800932E+04 -0.84819392652E+03  0.20268609903E+04  0.24595207878E+04  0.10100000352E+00 0. -1.
</event>
<event>
 5   0  0.7300916E-07  0.3706774E+04  0.7818609E-02  0.8066462E-01
       -2   -1    0    0    0  501  0.00000000000E+00  0.00000000000E+00  0.21281469139E+04  0.21281469139E+04  0.25500000920E-02 0. -1.
        2   -1    0    0  501    0  0.00000000000E+00  0.00000000000E+00 -0.16141004647E+04  0.16141004647E+04  0.25500000920E-02 0.  1.
    10030    2    1    2    0    0  0.00000000000E+00  0.00000000000E+00  0.51404644920E+03  0.37422473785E+04  0.37067737576E+04 0.  0.
        1    1    3    3  502    0 -0.90382225595E+03 -0.16180602805E+04  0.26247686105E+03  0.18718728173E+04  0.50400001928E-02 0. -1.
       -1    1    3    3    0  502  0.90382225595E+03  0.16180602805E+04  0.25156958815E+03  0.18703745612E+04  0.50400001928E-02 0.  1.
</event>
<event>
 5   0  0.7074157E-07  0.3720143E+04  0.7818609E-02  0.8063512E-01
        2   -1    0    0  501    0  0.00000000000E+00  0.00000000000E+00  0.19717731361E+04  0.19717731361E+04  0.25500000920E-02 0.  1.
       -2   -1    0    0    0  501  0.00000000000E+00  0.00000000000E+00 -0.17546979254E+04  0.17546979254E+04  0.25500000920E-02 0. -1.
    10030    2    1    2    0    0  0.00000000000E+00  0.00000000000E+00  0.21707521079E+03  0.37264710615E+04  0.37201431323E+04 0.  0.
        3    1    3    3  502    0  0.10049966420E+04 -0.35584262725E+03  0.16353428590E+04  0.19521753257E+04  0.10100000352E+00 0.  1.
       -3    1    3    3    0  502 -0.10049966420E+04  0.35584262725E+03 -0.14182676482E+04  0.17742957358E+04  0.10100000352E+00 0. -1.
</event>
<event>
 5   0  0.2287500E-07  0.3583654E+04  0.7818609E-02  0.8094246E-01
        1   -1    0    0  501    0  0.00000000000E+00  0.00000000000E+00  0.18497543001E+04  0.18497543002E+04  0.50400001928E-02 0.  1.
       -1   -1    0    0    0  501  0.00000000000E+00  0.00000000000E+00 -0.17357137754E+04  0.17357137754E+04  0.50400001928E-02 0. -1.
    10030    2    1    2    0    0  0.00000000000E+00  0.00000000000E+00  0.11404052479E+03  0.35854680755E+04  0.35836540122E+04 0.  0.
        3    1    3    3  502    0  0.10141099398E+04  0.66496414266E+03  0.13767966889E+04  0.18347112617E+04  0.10100000352E+00 0.  1.
       -3    1    3    3    0  502 -0.10141099398E+04 -0.66496414266E+03 -0.12627561641E+04  0.17507568138E+04  0.10100000352E+00 0. -1.
</event>
<event>
 5   0  0.6949625E-07  0.3664098E+04  0.7818609E-02  0.8075965E-01
       -2   -1    0    0    0  501  0.00000000000E+00  0.00000000000E+00  0.18773469690E+04  0.18773469690E+04  0.25500000920E-02 0.  1.
        2   -1    0    0  501    0  0.00000000000E+00  0.00000000000E+00 -0.17878435499E+04  0.17878435499E+04  0.25500000920E-02 0. -1.
    10030    2    1    2    0    0  0.00000000000E+00  0.00000000000E+00  0.89503419109E+02  0.36651905188E+04  0.36640975256E+04 0.  0.
        5    1    3    3  502    0  0.17708523867E+03  0.48255548664E+03  0.18037305743E+04  0.18755492673E+04  0.46999998093E+01 0.  1.
       -5    1    3    3    0  502 -0.17708523867E+03 -0.48255548664E+03 -0.17142271552E+04  0.17896412515E+04  0.46999998093E+01 0. -1.
</event>
<event>
 5   0  0.2287500E-07  0.3654596E+04  0.7818609E-02  0.8078099E-01
       -1   -1    0    0    0  501  0.00000000000E+00  0.00000000000E+00  0.16423169842E+04  0.16423169842E+04  0.50400001928E-02 0. -1.
        1   -1    0    0  501    0  0.00000000000E+00  0.00000000000E+00 -0.20331147436E+04  0.20331147436E+04  0.50400001928E-02 0.  1.
    10030    2    1    2    0    0  0.00000000000E+00  0.00000000000E+00 -0.39079775935E+03  0.36754317278E+04  0.36545964890E+04 0.  0.
        4    1    3    3  502    0 -0.10907408974E+04 -0.70679997222E+03  0.10963439761E+04  0.17003686756E+04  0.12699999809E+01 0. -1.
       -4    1    3    3    0  502  0.10907408974E+04  0.70679997222E+03 -0.14871417355E+04  0.19750630522E+04  0.12699999809E+01 0.  1.
</event>
<event>
 5   0  0.2287500E-07  0.3541421E+04  0.7818609E-02  0.8104043E-01
       -1   -1    0    0    0  501  0.00000000000E+00  0.00000000000E+00  0.14384330321E+04  0.14384330321E+04  0.50400001928E-02 0. -1.
        1   -1    0    0  501    0  0.00000000000E+00  0.00000000000E+00 -0.21797442265E+04  0.21797442265E+04  0.50400001928E-02 0.  1.
    10030    2    1    2    0    0  0.00000000000E+00  0.00000000000E+00 -0.74131119444E+03  0.36181772586E+04  0.35414212384E+04 0.  0.
        2    1    3    3  502    0 -0.39728554377E+03  0.12595838913E+04 -0.15756368763E+04  0.20559715340E+04  0.25500000920E-02 0.  1.
       -2    1    3    3    0  502  0.39728554377E+03 -0.12595838913E+04  0.83432568187E+03  0.15622057246E+04  0.25500000920E-02 0. -1.
</event>
<event>
 5   0  0.2411746E-07  0.3677053E+04  0.7818609E-02  0.8073066E-01
       -1   -1    0    0    0  501  0.00000000000E+00  0.00000000000E+00  0.14490639991E+04  0.14490639991E+04  0.50400001928E-02 0. -1.
        1   -1    0    0  501    0  0.00000000000E+00  0.00000000000E+00 -0.23326640065E+04  0.23326640065E+04  0.50400001928E-02 0.  1.
    10030    2    1    2    0    0  0.00000000000E+00  0.00000000000E+00 -0.88360000741E+03  0.37817280057E+04  0.36770528601E+04 0.  0.
        1    1    3    3  502    0  0.17421189813E+03  0.11561508651E+04  0.10174440293E+04  0.15499119205E+04  0.50400001928E-02 0. -1.
       -1    1    3    3    0  502 -0.17421189813E+03 -0.11561508651E+04 -0.19010440368E+04  0.22318160852E+04  0.50400001928E-02 0.  1.
</event>
<event>
 5   0  0.2345471E-07  0.3673168E+04  0.7818609E-02  0.8073934E-01
       -1   -1    0    0    0  501  0.00000000000E+00  0.00000000000E+00  0.14667521171E+04  0.14667521171E+04  0.50400001928E-02 0. -1.
        1   -1    0    0  501    0  0.00000000000E+00  0.00000000000E+00 -0.22996662984E+04  0.22996662984E+04  0.50400001928E-02 0.  1.
    10030    2    1    2    0    0  0.00000000000E+00  0.00000000000E+00 -0.83291418130E+03  0.37664184155E+04  0.36731677946E+04 0.  0.
        5    1    3    3  502    0  0.30458158720E+03 -0.62870036409E+03 -0.21581016143E+04  0.22683603680E+04  0.46999998093E+01 0.  1.
       -5    1    3    3    0  502 -0.30458158720E+03  0.62870036409E+03  0.13251874330E+04  0.14980580475E+04  0.46999998093E+01 0. -1.
</event>
<event>
 5   0  0.6949625E-07  0.3666253E+04  0.7818609E-02  0.8075482E-01
       -2   -1    0    0    0  501  0.00000000000E+00  0.00000000000E+00  0.11596027377E+04  0.11596027377E+04  0.25500000920E-02 0.  1.
        2   -1    0    0  501    0  0.00000000000E+00  0.00000000000E+00 -0.28978489384E+04  0.28978489384E+04  0.25500000920E-02 0. -1.
    10030    2    1    2    0    0  0.00000000000E+00  0.00000000000E+00 -0.17382462006E+04  0.40574516761E+04  0.36662534350E+04 0.  0.
        5    1    3    3  502    0  0.84157486428E+03  0.55832131411E+03  0.82393653557E+03  0.13034049435E+04  0.46999998093E+01 0.  1.
       -5    1    3    3    0  502 -0.84157486428E+03 -0.55832131411E+03 -0.25621827362E+04  0.27540467326E+04  0.46999998093E+01 0. -1.
</event>
<event>
 5   0  0.6939921E-07  0.3658408E+04  0.7818609E-02  0.8077242E-01
       -2   -1    0    0    0  501  0.00000000000E+00  0.00000000000E+00  0.11741486923E+04  0.11741486923E+04  0.25500000920E-02 0.  1.
        2   -1    0    0  501    0  0.00000000000E+00  0.00000000000E+00 -0.28497133283E+04  0.28497133283E+04  0.25500000920E-02 0. -1.
    10030    2    1    2    0    0  0.00000000000E+00  0.00000000000E+00 -0.16755646360E+04  0.40238620205E+04  0.36584079476E+04 0.  0.
        4    1    3    3  502    0  0.87913158427E+03 -0.11703130568E+04 -0.20444022363E+04  0.25143760876E+04  0.12699999809E+01 0. -1.
       -4    1    3    3    0  502 -0.87913158427E+03  0.11703130568E+04  0.36883760029E+03  0.15094859329E+04  0.12699999809E+01 0.  1.
</event>
<event>
 5   0  0.2345471E-07  0.3661729E+04  0.7818609E-02  0.8076496E-01
        1   -1    0    0  501    0  0.00000000000E+00  0.00000000000E+00  0.29733702041E+04  0.29733702041E+04  0.50400001928E-02 0. -1.
       -1   -1    0    0    0  501  0.00000000000E+00  0.00000000000E+00 -0.11273622740E+04  0.11273622740E+04  0.50400001928E-02 0.  1.
    10030    2    1    2    0    0  0.00000000000E+00  0.00000000000E+00  0.18460079301E+04  0.41007324781E+04  0.36617293153E+04 0.  0.
        5    1    3    3  502    0 -0.16453253039E+04  0.21474738647E+02  0.18220505779E+04  0.24550859289E+04  0.46999998093E+01 0. -1.
       -5    1    3    3    0  502  0.16453253039E+04 -0.21474738647E+02  0.23957352223E+02  0.16456465492E+04  0.46999998093E+01 0.  1.
</event>
<event>
 5   0  0.2287500E-07  0.3730433E+04  0.7818609E-02  0.8061251E-01
       -3   -1    0    0    0  501  0.00000000000E+00  0.00000000000E+00  0.28094720616E+04  0.28094720634E+04  0.10100000352E+00 0. -1.
        3   -1    0    0  501    0  0.00000000000E+00  0.00000000000E+00 -0.12383226599E+04  0.12383226640E+04  0.10100000352E+00 0.  1.
    10030    2    1    2    0    0  0.00000000000E+00  0.00000000000E+00  0.15711494017E+04  0.40477947274E+04  0.37304331803E+04 0.  0.
        3    1    3    3  502    0 -0.79195971137E+03 -0.73458579141E+02 -0.10450949017E+04  0.13133239171E+04  0.10100000352E+00 0.  1.
       -3    1    3    3    0  502  0.79195971137E+03  0.73458579141E+02  0.26162443034E+04  0.27344708104E+04  0.10100000352E+00 0. -1.
</event>
<event>
 5   0  0.7300916E-07  0.3706528E+04  0.7818609E-02  0.8066517E-01
       -2   -1    0    0    0  501  0.00000000000E+00  0.00000000000E+00  0.14621317761E+04  0.14621317761E+04  0.25500000920E-02 0.  1.
        2   -1    0    0  501    0  0.00000000000E+00  0.00000000000E+00 -0.23490277515E+04  0.23490277515E+04  0.25500000920E-02 0. -1.
    10030    2    1    2    0    0  0.00000000000E+00  0.00000000000E+00 -0.88689597540E+03  0.38111595277E+04  0.37065283587E+04 0.  0.
        1    1    3    3  502    0 -0.90081911211E+03 -0.14885531909E+04  0.21278637971E+03  0.17528672848E+04  0.50400001928E-02 0.  1.
       -1    1    3    3    0  502  0.90081911211E+03  0.14885531909E+04 -0.10996823551E+04  0.20582922428E+04  0.50400001928E-02 0. -1.
</event>
<event>
 5   0  0.6939921E-07  0.3315770E+04  0.7818609E-02  0.8158894E-01
        2   -1    0    0  501    0  0.00000000000E+00  0.00000000000E+00  0.14834382102E+04  0.14834382102E+04  0.25500000920E-02 0. -1.
       -2   -1    0    0    0  501  0.00000000000E+00  0.00000000000E+00 -0.18528457182E+04  0.18528457182E+04  0.25500000920E-02 0.  1.
    10030    2    1    2    0    0  0.00000000000E+00  0.00000000000E+00 -0.36940750807E+03  0.33362839284E+04  0.33157696760E+04 0.  0.
        4    1    3    3  502    0 -0.32846382538E+03 -0.23320055676E+02  0.14502023000E+04  0.14871182311E+04  0.12699999809E+01 0. -1.
       -4    1    3    3    0  502  0.32846382538E+03  0.23320055676E+02 -0.18196098081E+04  0.18491656973E+04  0.12699999809E+01 0.  1.
</event>
<event>
 5   0  0.6939921E-07  0.3829395E+04  0.7818609E-02  0.8039876E-01
        2   -1    0    0  501    0  0.00000000000E+00  0.00000000000E+00  0.22327840595E+04  0.22327840595E+04  0.25500000920E-02 0.  1.
       -2   -1    0    0    0  501  0.00000000000E+00  0.00000000000E+00 -0.16419260691E+04  0.16419260691E+04  0.25500000920E-02 0. -1.
    10030    2    1    2    0    0  0.00000000000E+00  0.00000000000E+00  0.59085799039E+03  0.38747101287E+04  0.38293949152E+04 0.  0.
        4    1    3    3  502    0 -0.10693160503E+03 -0.18528551669E+04  0.77169861652E+03  0.20099818421E+04  0.12699999809E+01 0.  1.
       -4    1    3    3    0  502  0.10693160503E+03  0.18528551669E+04 -0.18084062613E+03  0.18647282866E+04  0.12699999809E+01 0. -1.
</event>
<event>
 5   0  0.2287500E-07  0.3610201E+04  0.7818609E-02  0.8088159E-01
        1   -1    0    0  501    0  0.00000000000E+00  0.00000000000E+00  0.12842040303E+04  0.12842040303E+04  0.50400001928E-02 0. -1.
       -1   -1    0    0    0  501  0.00000000000E+00  0.00000000000E+00 -0.25372818088E+04  0.25372818088E+04  0.50400001928E-02 0.  1.
    10030    2    1    2    0    0  0.00000000000E+00  0.00000000000E+00 -0.12530777785E+04  0.38214858390E+04  0.36102008391E+04 0.  0.
        4    1    3    3  502    0 -0.98712269553E+03  0.10247214145E+04 -0.18023688444E+04  0.22963014301E+04  0.12699999809E+01 0.  1.
       -4    1    3    3    0  502  0.98712269553E+03 -0.10247214145E+04  0.54929106594E+03  0.15251844090E+04  0.12699999809E+01 0. -1.
</event>
<event>
 5   0  0.2287500E-07  0.3689818E+04  0.7818609E-02  0.8070222E-01
        1   -1    0    0  501    0  0.00000000000E+00  0.00000000000E+00  0.31800489198E+04  0.31800489198E+04  0.50400001928E-02 0.  1.
       -1   -1    0    0    0  501  0.00000000000E+00  0.00000000000E+00 -0.10703259390E+04  0.10703259390E+04  0.50400001928E-02 0. -1.
    10030    2    1    2    0    0  0.00000000000E+00  0.00000000000E+00  0.21097229808E+04  0.42503748588E+04  0.36898177983E+04 0.  0.
        3    1    3    3  502    0  0.35769411293E+03  0.17749960492E+04  0.64738002006E+03  0.19229292638E+04  0.10100000352E+00 0. -1.
       -3    1    3    3    0  502 -0.35769411293E+03 -0.17749960492E+04  0.14623429607E+04  0.23274455951E+04  0.10100000352E+00 0.  1.
</event>
<event>
 5   0  0.2287500E-07  0.3754877E+04  0.7818609E-02  0.8055908E-01
        1   -1    0    0  501    0  0.00000000000E+00  0.00000000000E+00  0.21892949993E+04  0.21892949994E+04  0.50400001928E-02 0.  1.
       -1   -1    0    0    0  501  0.00000000000E+00  0.00000000000E+00 -0.16100044569E+04  0.16100044569E+04  0.50400001928E-02 0. -1.
    10030    2    1    2    0    0  0.00000000000E+00  0.00000000000E+00  0.57929054246E+03  0.37992994563E+04  0.37548766725E+04 0.  0.
        3    1    3    3  502    0 -0.46122814896E+03  0.15281364843E+04  0.12896914376E+04  0.20521297558E+04  0.10100000352E+00 0.  1.
       -3    1    3    3    0  502  0.46122814896E+03 -0.15281364843E+04 -0.71040089517E+03  0.17471697005E+04  0.10100000352E+00 0. -1.
</event>
<event>
 5   0  0.6939921E-07  0.3686026E+04  0.7818609E-02  0.8071066E-01
       -2   -1    0    0    0  501  0.00000000000E+00  0.00000000000E+00  0.20244306750E+04  0.20244306750E+04  0.25500000920E-02 0.  1.
        2   -1    0    0  501    0  0.00000000000E+00  0.00000000000E+00 -0.16778524897E+04  0.16778524897E+04  0.25500000920E-02 0. -1.
    10030    2    1    2    0    0  0.00000000000E+00  0.00000000000E+00  0.34657818529E+03  0.37022831646E+04  0.36860255279E+04 0.  0.
        4    1    3    3  502    0  0.40610402902E+03  0.16915179926E+04 -0.43811639238E+03  0.17939066832E+04  0.12699999809E+01 0. -1.
       -4    1    3    3    0  502 -0.40610402902E+03 -0.16915179926E+04  0.78469457766E+03  0.19083764814E+04  0.12699999809E+01 0.  1.
</event>
<event>
 5   0  0.2287500E-07  0.3458960E+04  0.7818609E-02  0.8123585E-01
       -1   -1    0    0    0  501  0.00000000000E+00  0.00000000000E+00  0.14700910184E+04  0.14700910184E+04  0.50400001928E-02 0. -1.
        1   -1    0    0  501    0  0.00000000000E+00  0.00000000000E+00 -0.20346368446E+04  0.20346368446E+04  0.50400001928E-02 0.  1.
    10030    2    1    2    0    0  0.00000000000E+00  0.00000000000E+00 -0.56454582623E+03  0.35047278630E+04  0.34589601622E+04 0.  0.
        4    1    3    3  502    0  0.81537417742E+03  0.40739520403E+03  0.12069686706E+04  0.15124750861E+04  0.12699999809E+01 0. -1.
       -4    1    3    3    0  502 -0.81537417742E+03 -0.40739520403E+03 -0.17715144969E+04  0.19922527769E+04  0.12699999809E+01 0.  1.
</event>
<event>
 5   0  0.7300916E-07  0.3727570E+04  0.7818609E-02  0.8061879E-01
       -2   -1    0    0    0  501  0.00000000000E+00  0.00000000000E+00  0.18001075960E+04  0.18001075960E+04  0.25500000920E-02 0. -1.
        2   -1    0    0  501    0  0.00000000000E+00  0.00000000000E+00 -0.19297145116E+04  0.19297145116E+04  0.25500000920E-02 0.  1.
    10030    2    1    2    0    0  0.00000000000E+00  0.00000000000E+00 -0.12960691562E+03  0.37298221076E+04  0.37275695838E+04 0.  0.
        1    1    3    3  502    0 -0.12930353729E+03 -0.86151006962E+03 -0.17134564674E+04  0.19221997999E+04  0.50400001928E-02 0.  1.
       -1    1    3    3    0  502  0.12930353729E+03  0.86151006962E+03  0.15838495518E+04  0.18076223078E+04  0.50400001928E-02 0. -1.
</event>
<event>
 5   0  0.2345471E-07  0.3789824E+04  0.7818609E-02  0.8048342E-01
        1   -1    0    0  501    0  0.00000000000E+00  0.00000000000E+00  0.14987469836E+04  0.14987469836E+04  0.50400001928E-02 0.  1.
       -1   -1    0    0    0  501  0.00000000000E+00  0.00000000000E+00 -0.23957956456E+04  0.23957956456E+04  0.50400001928E-02 0. -1.
    10030    2    1    2    0    0  0.00000000000E+00  0.00000000000E+00 -0.89704866192E+03  0.38945426292E+04  0.37898240050E+04 0.  0.
        5    1    3    3  502    0  0.71922699016E+03 -0.14902368439E+04 -0.13973883858E+04  0.21658277182E+04  0.46999998093E+01 0. -1.
       -5    1    3    3    0  502 -0.71922699016E+03  0.14902368439E+04  0.50033972386E+03  0.17287149110E+04  0.46999998093E+01 0.  1.
</event>
<event>
 5   0  0.7074157E-07  0.3664241E+04  0.7818609E-02  0.8075933E-01
       -2   -1    0    0    0  501  0.00000000000E+00  0.00000000000E+00  0.27254449258E+04  0.27254449258E+04  0.25500000920E-02 0.  1.
        2   -1    0    0  501    0  0.00000000000E+00  0.00000000000E+00 -0.12316026969E+04  0.12316026969E+04  0.25500000920E-02 0. -1.
    10030    2    1    2    0    0  0.00000000000E+00  0.00000000000E+00  0.14938422289E+04  0.39570476227E+04  0.36642408877E+04 0.  0.
        3    1    3    3  502    0  0.62143732283E+03  0.61433540716E+03  0.24859012846E+04  0.26350137658E+04  0.10100000352E+00 0.  1.
       -3    1    3    3    0  502 -0.62143732283E+03 -0.61433540716E+03 -0.99205905568E+03  0.13220338569E+04  0.10100000352E+00 0. -1.
</event>
<event>
 5   0  0.7300916E-07  0.3645967E+04  0.7818609E-02  0.8080043E-01
       -2   -1    0    0    0  501  0.00000000000E+00  0.00000000000E+00  0.11300664841E+04  0.11300664841E+04  0.25500000920E-02 0.  1.
        2   -1    0    0  501    0  0.00000000000E+00  0.00000000000E+00 -0.29407729249E+04  0.29407729249E+04  0.25500000920E-02 0. -1.
    10030    2    1    2    0    0  0.00000000000E+00  0.00000000000E+00 -0.18107064408E+04  0.40708394090E+04  0.36459670431E+04 0.  0.
        1    1    3    3  502    0 -0.15092910729E+04 -0.19574321872E+03 -0.20257830596E+04  0.25337860910E+04  0.50400001928E-02 0. -1.
       -1    1    3    3    0  502  0.15092910729E+04  0.19574321872E+03  0.21507661878E+03  0.15370533180E+04  0.50400001928E-02 0.  1.
</event>
<event>
 5   0  0.2345471E-07  0.3794652E+04  0.7818609E-02  0.8047304E-01
        1   -1    0    0  501    0  0.00000000000E+00  0.00000000000E+00  0.24282706049E+04  0.24282706049E+04  0.50400001928E-02 0. -1.
       -1   -1    0    0    0  501  0.00000000000E+00  0.00000000000E+00 -0.14824727518E+04  0.14824727518E+04  0.50400001928E-02 0.  1.
    10030    2    1    2    0    0  0.00000000000E+00  0.00000000000E+00  0.94579785309E+03  0.39107433566E+04  0.37946515021E+04 0.  0.
        5    1    3    3  502    0 -0.18454440538E+03 -0.59558168469E+03  0.23196606640E+04  0.24020037191E+04  0.46999998093E+01 0. -1.
       -5    1    3    3    0  502  0.18454440538E+03  0.59558168469E+03 -0.13738628109E+04  0.15087396375E+04  0.46999998093E+01 0.  1.
</event>
<event>
 5   0  0.2287500E-07  0.3702958E+04  0.7818609E-02  0.8067307E-01
        1   -1    0    0  501    0  0.00000000000E+00  0.00000000000E+00  0.10455581153E+04  0.10455581154E+04  0.50400001928E-02 0.  1.
       -1   -1    0    0    0  501  0.00000000000E+00  0.00000000000E+00 -0.32786070183E+04  0.32786070183E+04  0.50400001928E-02 0. -1.
    10030    2    1    2    0    0  0.00000000000E+00  0.00000000000E+00 -0.22330489029E+04  0.43241651336E+04  0.37029578313E+04 0.  0.
        2    1    3    3  502    0  0.16031008113E+04  0.26848631725E+03 -0.81256155536E+02  0.16274580414E+04  0.25500000920E-02 0.  1.
       -2    1    3    3    0  502 -0.16031008113E+04 -0.26848631725E+03 -0.21517927474E+04  0.26967070923E+04  0.25500000920E-02 0. -1.
</event>
<event>
 5   0  0.7124627E-07  0.3332037E+04  0.7818609E-02  0.8154791E-01
        2   -1    0    0  501    0  0.00000000000E+00  0.00000000000E+00  0.19550612631E+04  0.19550612631E+04  0.25500000920E-02 0.  1.
       -2   -1    0    0    0  501  0.00000000000E+00  0.00000000000E+00 -0.14197091375E+04  0.14197091375E+04  0.25500000920E-02 0. -1.
    10030    2    1    2    0    0  0.00000000000E+00  0.00000000000E+00  0.53535212562E+03  0.33747704006E+04  0.33320374185E+04 0.  0.
        2    1    3    3  502    0  0.32174588060E+03  0.14793136512E+04  0.97210217415E+03  0.17991308811E+04  0.25500000920E-02 0.  1.
       -2    1    3    3    0  502 -0.32174588060E+03 -0.14793136512E+04 -0.43675004853E+03  0.15756395195E+04  0.25500000920E-02 0. -1.
</event>
<event>
 5   0  0.7124627E-07  0.3712320E+04  0.7818609E-02  0.8065237E-01
       -2   -1    0    0    0  501  0.00000000000E+00  0.00000000000E+00  0.12786861875E+04  0.12786861875E+04  0.25500000920E-02 0.  1.
        2   -1    0    0  501    0  0.00000000000E+00  0.00000000000E+00 -0.26944295710E+04  0.26944295710E+04  0.25500000920E-02 0. -1.
    10030    2    1    2    0    0  0.00000000000E+00  0.00000000000E+00 -0.14157433834E+04  0.39731157585E+04  0.37123199623E+04 0.  0.
        2    1    3    3  502    0 -0.12114033647E+04  0.42831379308E+03 -0.21415209486E+04  0.24974112178E+04  0.25500000920E-02 0. -1.
       -2    1    3    3    0  502  0.12114033647E+04 -0.42831379308E+03  0.72577756520E+03  0.14757045407E+04  0.25500000920E-02 0.  1.
</event>
<event>
 5   0  0.2287500E-07  0.3646032E+04  0.7818609E-02  0.8080028E-01
       -1   -1    0    0    0  501  0.00000000000E+00  0.00000000000E+00  0.17709083301E+04  0.17709083301E+04  0.50400001928E-02 0. -1.
        1   -1    0    0  501    0  0.00000000000E+00  0.00000000000E+00 -0.18766567843E+04  0.18766567843E+04  0.50400001928E-02 0.  1.
    10030    2    1    2    0    0  0.00000000000E+00  0.00000000000E+00 -0.10574845426E+03  0.36475651144E+04  0.36460318880E+04 0.  0.
        3    1    3    3  502    0  0.17100602725E+03  0.16052583188E+04  0.79441154852E+03  0.17992184553E+04  0.10100000352E+00 0.  1.
       -3    1    3    3    0  502 -0.17100602725E+03 -0.16052583188E+04 -0.90016000279E+03  0.18483466591E+04  0.10100000352E+00 0. -1.
</event>
<event>
 5   0  0.2287500E-07  0.3709289E+04  0.7818609E-02  0.8065906E-01
       -1   -1    0    0    0  501  0.00000000000E+00  0.00000000000E+00  0.17788640543E+04  0.17788640543E+04  0.50400001928E-02 0. -1.
        1   -1    0    0  501    0  0.00000000000E+00  0.00000000000E+00 -0.19336535654E+04  0.19336535654E+04  0.50400001928E-02 0.  1.
    10030    2    1    2    0    0  0.00000000000E+00  0.00000000000E+00 -0.15478951107E+03  0.37125176197E+04  0.37092893233E+04 0.  0.
        2    1    3    3  502    0 -0.94181673006E+03  0.13699125997E+04 -0.90031928422E+03  0.18905697811E+04  0.25500000920E-02 0.  1.
       -2    1    3    3    0  502  0.94181673006E+03 -0.13699125997E+04  0.74552977316E+03  0.18219478386E+04  0.25500000920E-02 0. -1.
</event>
<event>
 5   0  0.7300916E-07  0.3734400E+04  0.7818609E-02  0.8060381E-01
        2   -1    0    0  501    0  0.00000000000E+00  0.00000000000E+00  0.20001023449E+04  0.20001023449E+04  0.25500000920E-02 0.  1.
       -2   -1    0    0    0  501  0.00000000000E+00  0.00000000000E+00 -0.17431287673E+04  0.17431287673E+04  0.25500000920E-02 0. -1.
    10030    2    1    2    0    0  0.00000000000E+00  0.00000000000E+00  0.25697357760E+03  0.37432311122E+04  0.37344000509E+04 0.  0.
        1    1    3    3  502    0 -0.51958910857E+02 -0.52644021826E+03  0.19234187300E+04  0.19948379991E+04  0.50400001928E-02 0.  1.
       -1    1    3    3    0  502  0.51958910857E+02  0.52644021826E+03 -0.16664451524E+04  0.17483931131E+04  0.50400001928E-02 0. -1.
</event>
<event>
 5   0  0.2287500E-07  0.2801960E+04  0.7818609E-02  0.8302660E-01
       -1   -1    0    0    0  501  0.00000000000E+00  0.00000000000E+00  0.16654884064E+04  0.16654884064E+04  0.50400001928E-02 0. -1.
        1   -1    0    0  501    0  0.00000000000E+00  0.00000000000E+00 -0.11784804463E+04  0.11784804463E+04  0.50400001928E-02 0.  1.
    10030    2    1    2    0    0  0.00000000000E+00  0.00000000000E+00  0.48700796007E+03  0.28439688527E+04  0.28019603998E+04 0.  0.
        4    1    3    3  502    0  0.28406331116E+02 -0.41917457389E+03 -0.11130325439E+04  0.11896879001E+04  0.12699999809E+01 0.  1.
       -4    1    3    3    0  502 -0.28406331116E+02  0.41917457389E+03  0.16000405039E+04  0.16542809526E+04  0.12699999809E+01 0. -1.
</event>
<event>
 5   0  0.7300916E-07  0.3638093E+04  0.7818609E-02  0.8081821E-01
        2   -1    0    0  501    0  0.00000000000E+00  0.00000000000E+00  0.19255800581E+04  0.19255800581E+04  0.25500000920E-02 0. -1.
       -2   -1    0    0    0  501  0.00000000000E+00  0.00000000000E+00 -0.17184065965E+04  0.17184065965E+04  0.25500000920E-02 0.  1.
    10030    2    1    2    0    0  0.00000000000E+00  0.00000000000E+00  0.20717346156E+03  0.36439866546E+04  0.36380926178E+04 0.  0.
        1    1    3    3  502    0 -0.27791378897E+03  0.93204325191E+03 -0.14361052795E+04  0.17344564196E+04  0.50400001928E-02 0.  1.
       -1    1    3    3    0  502  0.27791378897E+03 -0.93204325191E+03  0.16432787411E+04  0.19095302350E+04  0.50400001928E-02 0. -1.
</event>
<event>
 5   0  0.2411746E-07  0.3791852E+04  0.7818609E-02  0.8047906E-01
       -1   -1    0    0    0  501  0.00000000000E+00  0.00000000000E+00  0.19191477770E+04  0.19191477770E+04  0.50400001928E-02 0.  1.
        1   -1    0    0  501    0  0.00000000000E+00  0.00000000000E+00 -0.18729851307E+04  0.18729851307E+04  0.50400001928E-02 0. -1.
    10030    2    1    2    0    0  0.00000000000E+00  0.00000000000E+00  0.46162646250E+02  0.37921329077E+04  0.37918519222E+04 0.  0.
        1    1    3    3  502    0 -0.18892579264E+04 -0.13828043949E+03  0.10130640969E+03  0.18970187087E+04  0.50400001928E-02 0.  1.
       -1    1    3    3    0  502  0.18892579264E+04  0.13828043949E+03 -0.55143763437E+02  0.18951141990E+04  0.50400001928E-02 0. -1.
</event>
<event>
 5   0  0.6939921E-07  0.3584574E+04  0.7818609E-02  0.8094034E-01
        2   -1    0    0  501    0  0.00000000000E+00  0.00000000000E+00  0.10872654508E+04  0.10872654508E+04  0.25500000920E-02 0. -1.
       -2   -1    0    0    0  501  0.00000000000E+00  0.00000000000E+00 -0.29544702579E+04  0.29544702579E+04  0.25500000920E-02 0.  1.
    10030    2    1    2    0    0  0.00000000000E+00  0.00000000000E+00 -0.18672048071E+04  0.40417357087E+04  0.35845744165E+04 0.  0.
        4    1    3    3  502    0  0.14167228452E+04 -0.81401026429E+03 -0.17641421051E+04  0.24045613551E+04  0.12699999809E+01 0.  1.
       -4    1    3    3    0  502 -0.14167228452E+04  0.81401026429E+03 -0.10306270199E+03  0.16371743536E+04  0.12699999809E+01 0. -1.
</event>
<event>
 5   0  0.2287500E-07  0.3602200E+04  0.7818609E-02  0.8089988E-01
       -3   -1    0    0    0  501  0.00000000000E+00  0.00000000000E+00  0.14998155905E+04  0.14998155939E+04  0.10100000352E+00 0. -1.
        3   -1    0    0  501    0  0.00000000000E+00  0.00000000000E+00 -0.21629068661E+04  0.21629068685E+04  0.10100000352E+00 0.  1.
    10030    2    1    2    0    0  0.00000000000E+00  0.00000000000E+00 -0.66309127562E+03  0.36627224624E+04  0.36022001328E+04 0.  0.
        3    1    3    3  502    0 -0.11528789353E+04 -0.11710476048E+04  0.41805094915E+03  0.16956559021E+04  0.10100000352E+00 0. -1.
       -3    1    3    3    0  502  0.11528789353E+04  0.11710476048E+04 -0.10811422248E+04  0.19670665603E+04  0.10100000352E+00 0.  1.
</event>
<event>
 5   0  0.7074157E-07  0.3763525E+04  0.7818609E-02  0.8054028E-01
        2   -1    0    0  501    0  0.00000000000E+00  0.00000000000E+00  0.31124942959E+04  0.31124942959E+04  0.25500000920E-02 0.  1.
       -2   -1    0    0    0  501  0.00000000000E+00  0.00000000000E+00 -0.11376823432E+04  0.11376823432E+04  0.25500000920E-02 0. -1.
    10030    2    1    2    0    0  0.00000000000E+00  0.00000000000E+00  0.19748119526E+04  0.42501766391E+04  0.37635248392E+04 0.  0.
        3    1    3    3  502    0 -0.10997448894E+04  0.15054699713E+04  0.69915340250E+03  0.19911539736E+04  0.10100000352E+00 0.  1.
       -3    1    3    3    0  502  0.10997448894E+04 -0.15054699713E+04  0.12756585501E+04  0.22590226654E+04  0.10100000352E+00 0. -1.
</event>
<event>
 5   0  0.7124627E-07  0.3599061E+04  0.7818609E-02  0.8090707E-01
       -2   -1    0    0    0  501  0.00000000000E+00  0.00000000000E+00  0.15280998695E+04  0.15280998695E+04  0.25500000920E-02 0.  1.
        2   -1    0    0  501    0  0.00000000000E+00  0.00000000000E+00 -0.21191746670E+04  0.21191746670E+04  0.25500000920E-02 0. -1.
    10030    2    1    2    0    0  0.00000000000E+00  0.00000000000E+00 -0.59107479750E+03  0.36472745366E+04  0.35990612844E+04 0.  0.
        2    1    3    3  502    0 -0.11859501891E+04 -0.13413141579E+04 -0.11225830906E+03  0.17939351853E+04  0.25500000920E-02 0.  1.
       -2    1    3    3    0  502  0.11859501891E+04  0.13413141579E+04 -0.47881648843E+03  0.18533393512E+04  0.25500000920E-02 0. -1.
</event>
<event>
 5   0  0.7300916E-07  0.3783708E+04  0.7818609E-02  0.8049660E-01
        2   -1    0    0  501    0  0.00000000000E+00  0.00000000000E+00  0.12671585446E+04  0.12671585446E+04  0.25500000920E-02 0.  1.
       -2   -1    0    0    0  501  0.00000000000E+00  0.00000000000E+00 -0.28245171994E+04  0.28245171994E+04  0.25500000920E-02 0. -1.
    10030    2    1    2    0    0  0.00000000000E+00  0.00000000000E+00 -0.15573586548E+04  0.40916757441E+04  0.37837077602E+04 0.  0.
        1    1    3    3  502    0 -0.98086825758E+03 -0.15417402209E+04 -0.13085020128E+04  0.22474970445E+04  0.50400001928E-02 0. -1.
       -1    1    3    3    0  502  0.98086825758E+03  0.15417402209E+04 -0.24885664200E+03  0.18441786995E+04  0.50400001928E-02 0.  1.
</event>
<event>
 5   0  0.2287500E-07  0.3208347E+04  0.7818609E-02  0.8186616E-01
       -1   -1    0    0    0  501  0.00000000000E+00  0.00000000000E+00  0.14987148453E+04  0.14987148453E+04  0.50400001928E-02 0. -1.
        1   -1    0    0  501    0  0.00000000000E+00  0.00000000000E+00 -0.17170529667E+04  0.17170529667E+04  0.50400001928E-02 0.  1.
    10030    2    1    2    0    0  0.00000000000E+00  0.00000000000E+00 -0.21833812136E+03  0.32157678120E+04  0.32083470955E+04 0.  0.
        2    1    3    3  502    0 -0.96765057258E+03 -0.96223302044E+03 -0.95440640911E+03  0.16652722330E+04  0.25500000920E-02 0.  1.
       -2    1    3    3    0  502  0.96765057258E+03  0.96223302044E+03  0.73606828776E+03  0.15504955790E+04  0.25500000920E-02 0. -1.
</event>
<event>
 5   0  0.7124627E-07  0.3793361E+04  0.7818609E-02  0.8047581E-01
       -2   -1    0    0    0  501  0.00000000000E+00  0.00000000000E+00  0.33393275629E+04  0.33393275629E+04  0.25500000920E-02 0. -1.
        2   -1    0    0  501    0  0.00000000000E+00  0.00000000000E+00 -0.10772820315E+04  0.10772820315E+04  0.25500000920E-02 0.  1.
    10030    2    1    2    0    0  0.00000000000E+00  0.00000000000E+00  0.22620455314E+04  0.44166095944E+04  0.37933613488E+04 0.  0.
        2    1    3    3  502    0  0.86691064172E+03 -0.60850475956E+03 -0.70088565904E+03  0.12700601601E+04  0.25500000920E-02 0.  1.
       -2    1    3    3    0  502 -0.86691064172E+03  0.60850475956E+03  0.29629311905E+04  0.31465494343E+04  0.25500000920E-02 0. -1.
</event>
<event>
 5   0  0.2287500E-07  0.3716422E+04  0.7818609E-02  0.8064332E-01
        1   -1    0    0  501    0  0.00000000000E+00  0.00000000000E+00  0.17956566099E+04  0.17956566100E+04  0.50400001928E-02 0.  1.
       -1   -1    0    0    0  501  0.00000000000E+00  0.00000000000E+00 -0.19229448617E+04  0.19229448617E+04  0.50400001928E-02 0. -1.
    10030    2    1    2    0    0  0.00000000000E+00  0.00000000000E+00 -0.12728825174E+03  0.37186014717E+04  0.37164222857E+04 0.  0.
        3    1    3    3  502    0 -0.14807685392E+04 -0.76276382820E+03 -0.88781668548E+03  0.18875122785E+04  0.10100000352E+00 0. -1.
       -3    1    3    3    0  502  0.14807685392E+04  0.76276382820E+03  0.76052843373E+03  0.18310891931E+04  0.10100000352E+00 0.  1.
</event>
<event>
 5   0  0.2287500E-07  0.3677965E+04  0.7818609E-02  0.8072863E-01
        1   -1    0    0  501    0  0.00000000000E+00  0.00000000000E+00  0.17932027063E+04  0.17932027064E+04  0.50400001928E-02 0. -1.
       -1   -1    0    0    0  501  0.00000000000E+00  0.00000000000E+00 -0.18859313427E+04  0.18859313428E+04  0.50400001928E-02 0.  1.
    10030    2    1    2    0    0  0.00000000000E+00  0.00000000000E+00 -0.92728636400E+02  0.36791340491E+04  0.36779653004E+04 0.  0.
        4    1    3    3  502    0 -0.18257063129E+04  0.65485957366E+02  0.16432935208E+03  0.18342567161E+04  0.12699999809E+01 0. -1.
       -4    1    3    3    0  502  0.18257063129E+04 -0.65485957366E+02 -0.25705798848E+03  0.18448773330E+04  0.12699999809E+01 0.  1.
</event>
<event>
 5   0  0.2287500E-07  0.3722780E+04  0.7818609E-02  0.8062932E-01
       -1   -1    0    0    0  501  0.00000000000E+00  0.00000000000E+00  0.17246079375E+04  0.17246079375E+04  0.50400001928E-02 0. -1.
        1   -1    0    0  501    0  0.00000000000E+00  0.00000000000E+00 -0.20090203663E+04  0.20090203663E+04  0.50400001928E-02 0.  1.
    10030    2    1    2    0    0  0.00000000000E+00  0.00000000000E+00 -0.28441242885E+03  0.37336283038E+04  0.37227798594E+04 0.  0.
        2    1    3    3  502    0  0.11442890936E+04 -0.10000627046E+04  0.93575125021E+03  0.17846997914E+04  0.25500000920E-02 0. -1.
       -2    1    3    3    0  502 -0.11442890936E+04  0.10000627046E+04 -0.12201636791E+04  0.19489285125E+04  0.25500000920E-02 0.  1.
</event>
<event>
 5   0  0.2345471E-07  0.3672776E+04  0.7818609E-02  0.8074022E-01
       -1   -1    0    0    0  501  0.00000000000E+00  0.00000000000E+00  0.23294985905E+04  0.23294985905E+04  0.50400001928E-02 0. -1.
        1   -1    0    0  501    0  0.00000000000E+00  0.00000000000E+00 -0.14476598436E+04  0.14476598436E+04  0.50400001928E-02 0.  1.
    10030    2    1    2    0    0  0.00000000000E+00  0.00000000000E+00  0.88183874686E+03  0.37771584341E+04  0.36727763696E+04 0.  0.
        5    1    3    3  502    0  0.17071970769E+04 -0.34091985113E+03 -0.16011411296E+03  0.17482582256E+04  0.46999998093E+01 0.  1.
       -5    1    3    3    0  502 -0.17071970769E+04  0.34091985113E+03  0.10419528598E+04  0.20289002085E+04  0.46999998093E+01 0. -1.
</event>
<event>
 5   0  0.7300916E-07  0.3682482E+04  0.7818609E-02  0.8071855E-01
        2   -1    0    0  501    0  0.00000000000E+00  0.00000000000E+00  0.16399559317E+04  0.16399559317E+04  0.25500000920E-02 0. -1.
       -2   -1    0    0    0  501  0.00000000000E+00  0.00000000000E+00 -0.20672317691E+04  0.20672317691E+04  0.25500000920E-02 0.  1.
    10030    2    1    2    0    0  0.00000000000E+00  0.00000000000E+00 -0.42727583741E+03  0.37071877007E+04  0.36824823159E+04 0.  0.
        1    1    3    3  502    0  0.33247316435E+03  0.11321414190E+04  0.12093109719E+04  0.16895903717E+04  0.50400001928E-02 0. -1.
       -1    1    3    3    0  502 -0.33247316435E+03 -0.11321414190E+04 -0.16365868093E+04  0.20175973290E+04  0.50400001928E-02 0.  1.
</event>
<event>
 5   0  0.6939921E-07  0.2774378E+04  0.7818609E-02  0.8311268E-01
        2   -1    0    0  501    0  0.00000000000E+00  0.00000000000E+00  0.12608603843E+04  0.12608603843E+04  0.25500000920E-02 0. -1.
       -2   -1    0    0    0  501  0.00000000000E+00  0.00000000000E+00 -0.15261742707E+04  0.15261742707E+04  0.25500000920E-02 0.  1.
    10030    2    1    2    0    0  0.00000000000E+00  0.00000000000E+00 -0.26531388643E+03  0.27870346550E+04  0.27743775355E+04 0.  0.
        4    1    3    3  502    0 -0.74737186101E+03 -0.42664551113E+03  0.96028634807E+03  0.12894737585E+04  0.12699999809E+01 0. -1.
       -4    1    3    3    0  502  0.74737186101E+03  0.42664551113E+03 -0.12256002345E+04  0.14975608964E+04  0.12699999809E+01 0.  1.
</event>
<event>
 5   0  0.7074157E-07  0.3793884E+04  0.7818609E-02  0.8047469E-01
        2   -1    0    0  501    0  0.00000000000E+00  0.00000000000E+00  0.21800551659E+04  0.21800551659E+04  0.25500000920E-02 0.  1.
       -2   -1    0    0    0  501  0.00000000000E+00  0.00000000000E+00 -0.16505953395E+04  0.16505953395E+04  0.25500000920E-02 0. -1.
    10030    2    1    2    0    0  0.00000000000E+00  0.00000000000E+00  0.52945982637E+03  0.38306505054E+04  0.37938839712E+04 0.  0.
        3    1    3    3  502    0  0.31052867451E+03  0.10636120164E+04  0.18193558095E+04  0.21302004954E+04  0.10100000352E+00 0.  1.
       -3    1    3    3    0  502 -0.31052867451E+03 -0.10636120164E+04 -0.12898959831E+04  0.17004500100E+04  0.10100000352E+00 0. -1.
</event>
<event>
 5   0  0.2287500E-07  0.3652501E+04  0.7818609E-02  0.8078571E-01
        1   -1    0    0  501    0  0.00000000000E+00  0.00000000000E+00  0.16697315773E+04  0.16697315773E+04  0.50400001928E-02 0.  1.
       -1   -1    0    0    0  501  0.00000000000E+00  0.00000000000E+00 -0.19974408156E+04  0.19974408156E+04  0.50400001928E-02 0. -1.
    10030    2    1    2    0    0  0.00000000000E+00  0.00000000000E+00 -0.32770923824E+03  0.36671723929E+04  0.36525005153E+04 0.  0.
        2    1    3    3  502    0 -0.16731541534E+04  0.73032211843E+03 -0.21278214775E+03  0.18379585033E+04  0.25500000920E-02 0. -1.
       -2    1    3    3    0  502  0.16731541534E+04 -0.73032211843E+03 -0.11492709049E+03  0.18292138896E+04  0.25500000920E-02 0.  1.
</event>
<event>
 5   0  0.2287500E-07  0.2970434E+04  0.7818609E-02  0.8252224E-01
       -4   -1    0    0    0  501  0.00000000000E+00  0.00000000000E+00  0.18594360079E+04  0.18594364416E+04  0.12699999809E+01 0. -1.
        4   -1    0    0  501    0  0.00000000000E+00  0.00000000000E+00 -0.11863099353E+04  0.11863106151E+04  0.12699999809E+01 0.  1.
    10030    2    1    2    0    0  0.00000000000E+00  0.00000000000E+00  0.67312607266E+03  0.30457470567E+04  0.29704337097E+04 0.  0.
        4    1    3    3  502    0  0.87002078525E+03 -0.10610174406E+03 -0.89286790644E+03  0.12511628424E+04  0.12699999809E+01 0.  1.
       -4    1    3    3    0  502 -0.87002078525E+03  0.10610174406E+03  0.15659939791E+04  0.17945842143E+04  0.12699999809E+01 0. -1.
</event>
<event>
 5   0  0.2287500E-07  0.2960573E+04  0.7818609E-02  0.8255080E-01
       -3   -1    0    0    0  501  0.00000000000E+00  0.00000000000E+00  0.12365438313E+04  0.12365438355E+04  0.10100000352E+00 0. -1.
        3   -1    0    0  501    0  0.00000000000E+00  0.00000000000E+00 -0.17720747139E+04  0.17720747168E+04  0.10100000352E+00 0.  1.
    10030    2    1    2    0    0  0.00000000000E+00  0.00000000000E+00 -0.53553088261E+03  0.30086185523E+04  0.29605729626E+04 0.  0.
        3    1    3    3  502    0  0.92352990677E+03 -0.43414737916E+03 -0.13574811355E+04  0.16982775035E+04  0.10100000352E+00 0.  1.
       -3    1    3    3    0  502 -0.92352990677E+03  0.43414737916E+03  0.82195025291E+03  0.13103410487E+04  0.10100000352E+00 0. -1.
</event>
<event>
 5   0  0.2287500E-07  0.3725736E+04  0.7818609E-02  0.8062282E-01
        1   -1    0    0  501    0  0.00000000000E+00  0.00000000000E+00  0.23172743884E+04  0.23172743884E+04  0.50400001928E-02 0.  1.
       -1   -1    0    0    0  501  0.00000000000E+00  0.00000000000E+00 -0.14975683363E+04  0.14975683363E+04  0.50400001928E-02 0. -1.
    10030    2    1    2    0    0  0.00000000000E+00  0.00000000000E+00  0.81970605217E+03  0.38148427247E+04  0.37257357666E+04 0.  0.
        4    1    3    3  502    0  0.23089013460E+03  0.14039518446E+04  0.16410607408E+04  0.21719744483E+04  0.12699999809E+01 0.  1.
       -4    1    3    3    0  502 -0.23089013460E+03 -0.14039518446E+04 -0.82135468860E+03  0.16428682764E+04  0.12699999809E+01 0. -1.
</event>
<event>
 5   0  0.2411746E-07  0.3702055E+04  0.7818609E-02  0.8067506E-01
       -1   -1    0    0    0  501  0.00000000000E+00  0.00000000000E+00  0.19207394278E+04  0.19207394278E+04  0.50400001928E-02 0.  1.
        1   -1    0    0  501    0  0.00000000000E+00  0.00000000000E+00 -0.17838461236E+04  0.17838461237E+04  0.50400001928E-02 0. -1.
    10030    2    1    2    0    0  0.00000000000E+00  0.00000000000E+00  0.13689330411E+03  0.37045855514E+04  0.37020554198E+04 0.  0.
        1    1    3    3  502    0  0.28819727170E+03 -0.69364613506E+03 -0.16244840726E+04  0.17897349329E+04  0.50400001928E-02 0. -1.
       -1    1    3    3    0  502 -0.28819727170E+03  0.69364613506E+03  0.17613773767E+04  0.19148506185E+04  0.50400001928E-02 0.  1.
</event>
<event>
 5   0  0.6939921E-07  0.3751306E+04  0.7818609E-02  0.8056686E-01
        2   -1    0    0  501    0  0.00000000000E+00  0.00000000000E+00  0.22299941824E+04  0.22299941824E+04  0.25500000920E-02 0. -1.
       -2   -1    0    0    0  501  0.00000000000E+00  0.00000000000E+00 -0.15776159485E+04  0.15776159485E+04  0.25500000920E-02 0.  1.
    10030    2    1    2    0    0  0.00000000000E+00  0.00000000000E+00  0.65237823394E+03  0.38076101309E+04  0.37513061124E+04 0.  0.
        4    1    3    3  502    0  0.93490608858E+03 -0.37274739809E+03 -0.12803119110E+04  0.16285546413E+04  0.12699999809E+01 0.  1.
       -4    1    3    3    0  502 -0.93490608858E+03  0.37274739809E+03  0.19326901450E+04  0.21790554896E+04  0.12699999809E+01 0. -1.
</event>
<event>
 5   0  0.6949625E-07  0.3705285E+04  0.7818609E-02  0.8066792E-01
        2   -1    0    0  501    0  0.00000000000E+00  0.00000000000E+00  0.20987542105E+04  0.20987542105E+04  0.25500000920E-02 0. -1.
       -2   -1    0    0    0  501  0.00000000000E+00  0.00000000000E+00 -0.16353914331E+04  0.16353914331E+04  0.25500000920E-02 0.  1.
    10030    2    1    2    0    0  0.00000000000E+00  0.00000000000E+00  0.46336277734E+03  0.37341456436E+04  0.37052852284E+04 0.  0.
        5    1    3    3  502    0  0.69756310595E+03 -0.13332995166E+04 -0.85746796211E+03  0.17319224243E+04  0.46999998093E+01 0.  1.
       -5    1    3    3    0  502 -0.69756310595E+03  0.13332995166E+04  0.13208307395E+04  0.20022232193E+04  0.46999998093E+01 0. -1.
</event>
<event>
 5   0  0.2345471E-07  0.3646612E+04  0.7818609E-02  0.8079897E-01
       -1   -1    0    0    0  501  0.00000000000E+00  0.00000000000E+00  0.22703726130E+04  0.22703726130E+04  0.50400001928E-02 0.  1.
        1   -1    0    0  501    0  0.00000000000E+00  0.00000000000E+00 -0.14642725148E+04  0.14642725148E+04  0.50400001928E-02 0. -1.
    10030    2    1    2    0    0  0.00000000000E+00  0.00000000000E+00  0.80610009821E+03  0.37346451278E+04  0.36466116961E+04 0.  0.
        5    1    3    3  502    0 -0.13439557167E+03 -0.18022419493E+04  0.65029883499E+03  0.19206896882E+04  0.46999998093E+01 0. -1.
       -5    1    3    3    0  502  0.13439557167E+03  0.18022419493E+04  0.15580126321E+03  0.18139554396E+04  0.46999998093E+01 0.  1.
</event>
<event>
 5   0  0.7300916E-07  0.3732460E+04  0.7818609E-02  0.8060806E-01
       -2   -1    0    0    0  501  0.00000000000E+00  0.00000000000E+00  0.14499445726E+04  0.14499445726E+04  0.25500000920E-02 0. -1.
        2   -1    0    0  501    0  0.00000000000E+00  0.00000000000E+00 -0.24020321793E+04  0.24020321793E+04  0.25500000920E-02 0.  1.
    10030    2    1    2    0    0  0.00000000000E+00  0.00000000000E+00 -0.95208760675E+03  0.38519767519E+04  0.37324595224E+04 0.  0.
        1    1    3    3  502    0 -0.28199340784E+03  0.17893317777E+04 -0.12684712517E+02  0.18114605695E+04  0.50400001928E-02 0. -1.
       -1    1    3    3    0  502  0.28199340784E+03 -0.17893317777E+04 -0.93940289423E+03  0.20405161824E+04  0.50400001928E-02 0.  1.
</event>
<event>
 5   0  0.7124627E-07  0.3695250E+04  0.7818609E-02  0.8069015E-01
       -2   -1    0    0    0  501  0.00000000000E+00  0.00000000000E+00  0.13935228553E+04  0.13935228553E+04  0.25500000920E-02 0. -1.
        2   -1    0    0  501    0  0.00000000000E+00  0.00000000000E+00 -0.24497038090E+04  0.24497038090E+04  0.25500000920E-02 0.  1.
    10030    2    1    2    0    0  0.00000000000E+00  0.00000000000E+00 -0.10561809537E+04  0.38432266643E+04  0.36952500573E+04 0.  0.
        2    1    3    3  502    0  0.16102477908E+04 -0.49226053408E+03 -0.13191402268E+04  0.21390066197E+04  0.25500000920E-02 0.  1.
       -2    1    3    3    0  502 -0.16102477908E+04  0.49226053408E+03  0.26295927308E+03  0.17042200446E+04  0.25500000920E-02 0. -1.
</event>
<event>
 5   0  0.7124627E-07  0.3718002E+04  0.7818609E-02  0.8063984E-01
        2   -1    0    0  501    0  0.00000000000E+00  0.00000000000E+00  0.21668895790E+04  0.21668895790E+04  0.25500000920E-02 0. -1.
       -2   -1    0    0    0  501  0.00000000000E+00  0.00000000000E+00 -0.15948593791E+04  0.15948593791E+04  0.25500000920E-02 0.  1.
    10030    2    1    2    0    0  0.00000000000E+00  0.00000000000E+00  0.57203019989E+03  0.37617489581E+04  0.37180017044E+04 0.  0.
        2    1    3    3  502    0 -0.17738997922E+04  0.22481467488E+03 -0.22851763032E+03  0.18026320807E+04  0.25500000920E-02 0.  1.
       -2    1    3    3    0  502  0.17738997922E+04 -0.22481467488E+03  0.80054783021E+03  0.19591168774E+04  0.25500000920E-02 0. -1.
</event>
<event>
 5   0  0.2287500E-07  0.3728539E+04  0.7818609E-02  0.8061666E-01
       -1   -1    0    0    0  501  0.00000000000E+00  0.00000000000E+00  0.28795608831E+04  0.28795608831E+04  0.50400001928E-02 0.  1.
        1   -1    0    0  501    0  0.00000000000E+00  0.00000000000E+00 -0.12069554187E+04  0.12069554188E+04  0.50400001928E-02 0. -1.
    10030    2    1    2    0    0  0.00000000000E+00  0.00000000000E+00  0.16726054643E+04  0.40865163018E+04  0.37285394521E+04 0.  0.
        4    1    3    3  502    0 -0.14426797837E+04  0.80301944005E+03 -0.11244871116E+03  0.16549354988E+04  0.12699999809E+01 0. -1.
       -4    1    3    3    0  502  0.14426797837E+04 -0.80301944005E+03  0.17850541755E+04  0.24315808031E+04  0.12699999809E+01 0.  1.
</event>
<event>
 5   0  0.2411746E-07  0.3481693E+04  0.7818609E-02  0.8118142E-01
       -1   -1    0    0    0  501  0.00000000000E+00  0.00000000000E+00  0.11100147038E+04  0.11100147038E+04  0.50400001928E-02 0.  1.
        1   -1    0    0  501    0  0.00000000000E+00  0.00000000000E+00 -0.27301862558E+04  0.27301862558E+04  0.50400001928E-02 0. -1.
    10030    2    1    2    0    0  0.00000000000E+00  0.00000000000E+00 -0.16201715520E+04  0.38402009596E+04  0.34816932019E+04 0.  0.
        1    1    3    3  502    0 -0.14002239445E+04 -0.96939046751E+03 -0.41209579624E+03  0.17521894642E+04  0.50400001928E-02 0. -1.
       -1    1    3    3    0  502  0.14002239445E+04  0.96939046751E+03 -0.12080757558E+04  0.20880114954E+04  0.50400001928E-02 0.  1.
</event>
<event>
 5   0  0.6949625E-07  0.3677991E+04  0.7818609E-02  0.8072857E-01
       -2   -1    0    0    0  501  0.00000000000E+00  0.00000000000E+00  0.11806341631E+04  0.11806341631E+04  0.25500000920E-02 0. -1.
        2   -1    0    0  501    0  0.00000000000E+00  0.00000000000E+00 -0.28644805787E+04  0.28644805787E+04  0.25500000920E-02 0.  1.
    10030    2    1    2    0    0  0.00000000000E+00  0.00000000000E+00 -0.16838464155E+04  0.40451147418E+04  0.36779905550E+04 0.  0.
        5    1    3    3  502    0 -0.45196953103E+03 -0.10694980612E+04 -0.24103783874E+04  0.26754529748E+04  0.46999998093E+01 0.  1.
       -5    1    3    3    0  502  0.45196953103E+03  0.10694980612E+04  0.72653197185E+03  0.13696617670E+04  0.46999998093E+01 0. -1.
</event>
<event>
 5   0  0.2345471E-07  0.3584945E+04  0.7818609E-02  0.8093949E-01
       -1   -1    0    0    0  501  0.00000000000E+00  0.00000000000E+00  0.24501652153E+04  0.24501652153E+04  0.50400001928E-02 0.  1.
        1   -1    0    0  501    0  0.00000000000E+00  0.00000000000E+00 -0.13113227999E+04  0.13113227999E+04  0.50400001928E-02 0. -1.
    10030    2    1    2    0    0  0.00000000000E+00  0.00000000000E+00  0.11388424155E+04  0.37614880152E+04  0.35849449146E+04 0.  0.
        5    1    3    3  502    0  0.48557503446E+03  0.14456248654E+04  0.15577867340E+04  0.21799853128E+04  0.46999998093E+01 0.  1.
       -5    1    3    3    0  502 -0.48557503446E+03 -0.14456248654E+04 -0.41894431859E+03  0.15815027023E+04  0.46999998093E+01 0. -1.
</event>
<event>
 5   0  0.7124627E-07  0.3931587E+04  0.7818609E-02  0.8018492E-01
        2   -1    0    0  501    0  0.00000000000E+00  0.00000000000E+00  0.27202989329E+04  0.27202989329E+04  0.25500000920E-02 0. -1.
       -2   -1    0    0    0  501  0.00000000000E+00  0.00000000000E+00 -0.14205586667E+04  0.14205586667E+04  0.25500000920E-02 0.  1.
    10030    2    1    2    0    0  0.00000000000E+00  0.00000000000E+00  0.12997402662E+04  0.41408575997E+04  0.39315870715E+04 0.  0.
        2    1    3    3  502    0  0.39041153395E+03 -0.15433933903E+04 -0.56470767908E+03  0.16891948040E+04  0.25500000920E-02 0.  1.
       -2    1    3    3    0  502 -0.39041153395E+03  0.15433933903E+04  0.18644479453E+04  0.24516627957E+04  0.25500000920E-02 0. -1.
</event>
<event>
 5   0  0.6939921E-07  0.3725307E+04  0.7818609E-02  0.8062376E-01
        2   -1    0    0  501    0  0.00000000000E+00  0.00000000000E+00  0.23815576821E+04  0.23815576821E+04  0.25500000920E-02 0.  1.
       -2   -1    0    0    0  501  0.00000000000E+00  0.00000000000E+00 -0.14568108139E+04  0.14568108139E+04  0.25500000920E-02 0. -1.
    10030    2    1    2    0    0  0.00000000000E+00  0.00000000000E+00  0.92474686814E+03  0.38383684960E+04  0.37253074962E+04 0.  0.
        4    1    3    3  502    0  0.97437960035E+03  0.18931569062E+02 -0.11731593260E+04  0.15251486573E+04  0.12699999809E+01 0. -1.
       -4    1    3    3    0  502 -0.97437960035E+03 -0.18931569062E+02  0.20979061941E+04  0.23132198387E+04  0.12699999809E+01 0.  1.
</event>
<event>
 5   0  0.2287500E-07  0.3532790E+04  0.7818609E-02  0.8106063E-01
       -1   -1    0    0    0  501  0.00000000000E+00  0.00000000000E+00  0.15175788235E+04  0.15175788235E+04  0.50400001928E-02 0.  1.
        1   -1    0    0  501    0  0.00000000000E+00  0.00000000000E+00 -0.20560063930E+04  0.20560063930E+04  0.50400001928E-02 0. -1.
    10030    2    1    2    0    0  0.00000000000E+00  0.00000000000E+00 -0.53842756955E+03  0.35735852165E+04  0.35327902644E+04 0.  0.
        4    1    3    3  502    0 -0.95690656711E+02  0.90497871389E+03 -0.18006335764E+04  0.20175296934E+04  0.12699999809E+01 0. -1.
       -4    1    3    3    0  502  0.95690656711E+02 -0.90497871389E+03  0.12622060069E+04  0.15560555231E+04  0.12699999809E+01 0.  1.
</event>
<event>
 5   0  0.6949625E-07  0.3714262E+04  0.7818609E-02  0.8064809E-01
        2   -1    0    0  501    0  0.00000000000E+00  0.00000000000E+00  0.22683806313E+04  0.22683806313E+04  0.25500000920E-02 0.  1.
       -2   -1    0    0    0  501  0.00000000000E+00  0.00000000000E+00 -0.15204394388E+04  0.15204394388E+04  0.25500000920E-02 0. -1.
    10030    2    1    2    0    0  0.00000000000E+00  0.00000000000E+00  0.74794119249E+03  0.37888200700E+04  0.37142619046E+04 0.  0.
        5    1    3    3  502    0  0.66243332811E+03 -0.16444464298E+04 -0.19020594824E+03  0.17830373993E+04  0.46999998093E+01 0.  1.
       -5    1    3    3    0  502 -0.66243332811E+03  0.16444464298E+04  0.93814714073E+03  0.20057826707E+04  0.46999998093E+01 0. -1.
</event>
<event>
 5   0  0.7074157E-07  0.3681135E+04  0.7818609E-02  0.8072155E-01
        2   -1    0    0  501    0  0.00000000000E+00  0.00000000000E+00  0.15695939804E+04  0.15695939804E+04  0.25500000920E-02 0. -1.
       -2   -1    0    0    0  501  0.00000000000E+00  0.00000000000E+00 -0.21583215414E+04  0.21583215414E+04  0.25500000920E-02 0.  1.
    10030    2    1    2    0    0  0.00000000000E+00  0.00000000000E+00 -0.58872756096E+03  0.37279155218E+04  0.36811348789E+04 0.  0.
        3    1    3    3  502    0  0.10497602316E+04 -0.10633302725E+04 -0.13827404187E+04  0.20358386203E+04  0.10100000352E+00 0.  1.
       -3    1    3    3    0  502 -0.10497602316E+04  0.10633302725E+04  0.79401285769E+03  0.16920769015E+04  0.10100000352E+00 0. -1.
</event>
<event>
 5   0  0.6939921E-07  0.3856829E+04  0.7818609E-02  0.8034068E-01
        2   -1    0    0  501    0  0.00000000000E+00  0.00000000000E+00  0.19246035081E+04  0.19246035081E+04  0.25500000920E-02 0. -1.
       -2   -1    0    0    0  501  0.00000000000E+00  0.00000000000E+00 -0.19322332082E+04  0.19322332082E+04  0.25500000920E-02 0.  1.
    10030    2    1    2    0    0  0.00000000000E+00  0.00000000000E+00 -0.76297001116E+01  0.38568367164E+04  0.38568291697E+04 0.  0.
        4    1    3    3  502    0 -0.13107788671E+04  0.14129540800E+04 -0.68627997616E+02  0.19285465733E+04  0.12699999809E+01 0.  1.
       -4    1    3    3    0  502  0.13107788671E+04 -0.14129540800E+04  0.60998297505E+02  0.19282901430E+04  0.12699999809E+01 0. -1.
</event>
<event>
 5   0  0.2287500E-07  0.3763353E+04  0.7818609E-02  0.8054065E-01
        1   -1    0    0  501    0  0.00000000000E+00  0.00000000000E+00  0.29536475337E+04  0.29536475337E+04  0.50400001928E-02 0. -1.
       -1   -1    0    0    0  501  0.00000000000E+00  0.00000000000E+00 -0.11987570150E+04  0.11987570150E+04  0.50400001928E-02 0.  1.
    10030    2    1    2    0    0  0.00000000000E+00  0.00000000000E+00  0.17548905187E+04  0.41524045487E+04  0.37633526015E+04 0.  0.
        2    1    3    3  502    0  0.79916177770E+03  0.85753223722E+03  0.25015820235E+04  0.27625954653E+04  0.25500000920E-02 0. -1.
       -2    1    3    3    0  502 -0.79916177770E+03 -0.85753223722E+03 -0.74669150477E+03  0.13898090833E+04  0.25500000920E-02 0.  1.
</event>
<event>
 5   0  0.7074157E-07  0.3692914E+04  0.7818609E-02  0.8069534E-01
       -2   -1    0    0    0  501  0.00000000000E+00  0.00000000000E+00  0.27253439714E+04  0.27253439714E+04  0.25500000920E-02 0. -1.
        2   -1    0    0  501    0  0.00000000000E+00  0.00000000000E+00 -0.12509994365E+04  0.12509994365E+04  0.25500000920E-02 0.  1.
    10030    2    1    2    0    0  0.00000000000E+00  0.00000000000E+00  0.14743445350E+04  0.39763434079E+04  0.36929141731E+04 0.  0.
        3    1    3    3  502    0 -0.13437613505E+03  0.47647325523E+03  0.26525519294E+04  0.26983542127E+04  0.10100000352E+00 0. -1.
       -3    1    3    3    0  502  0.13437613505E+03 -0.47647325523E+03 -0.11782073944E+04  0.12779891952E+04  0.10100000352E+00 0.  1.
</event>
<event>
 5   0  0.2345471E-07  0.3595125E+04  0.7818609E-02  0.8091609E-01
        1   -1    0    0  501    0  0.00000000000E+00  0.00000000000E+00  0.16354110086E+04  0.16354110086E+04  0.50400001928E-02 0. -1.
       -1   -1    0    0    0  501  0.00000000000E+00  0.00000000000E+00 -0.19757917527E+04  0.19757917527E+04  0.50400001928E-02 0.  1.
    10030    2    1    2    0    0  0.00000000000E+00  0.00000000000E+00 -0.34038074411E+03  0.36112027614E+04  0.35951253570E+04 0.  0.
        5    1    3    3  502    0 -0.10186393153E+04  0.90173242397E+03 -0.13503753310E+04  0.19168419454E+04  0.46999998093E+01 0.  1.
       -5    1    3    3    0  502  0.10186393153E+04 -0.90173242397E+03  0.10099945869E+04  0.16943608160E+04  0.46999998093E+01 0. -1.
</event>
<event>
 5   0  0.6939921E-07  0.3678868E+04  0.7818609E-02  0.8072661E-01
       -2   -1    0    0    0  501  0.00000000000E+00  0.00000000000E+00  0.12248219037E+04  0.12248219037E+04  0.25500000920E-02 0. -1.
        2   -1    0    0  501    0  0.00000000000E+00  0.00000000000E+00 -0.27624566692E+04  0.27624566692E+04  0.25500000920E-02 0.  1.
    10030    2    1    2    0    0  0.00000000000E+00  0.00000000000E+00 -0.15376347655E+04  0.39872785729E+04  0.36788679978E+04 0.  0.
        4    1    3    3  502    0  0.14333441485E+04  0.71144553403E+03 -0.17519952928E+04  0.23727872460E+04  0.12699999809E+01 0.  1.
       -4    1    3    3    0  502 -0.14333441485E+04 -0.71144553403E+03  0.21436052729E+03  0.16144913269E+04  0.12699999809E+01 0. -1.
</event>
<event>
 5   0  0.2411746E-07  0.3680094E+04  0.7818609E-02  0.8072388E-01
        1   -1    0    0  501    0  0.00000000000E+00  0.00000000000E+00  0.24930683016E+04  0.24930683016E+04  0.50400001928E-02 0. -1.
       -1   -1    0    0    0  501  0.00000000000E+00  0.00000000000E+00 -0.13580743514E+04  0.13580743514E+04  0.50400001928E-02 0.  1.
    10030    2    1    2    0    0  0.00000000000E+00  0.00000000000E+00  0.11349939503E+04  0.38511426530E+04  0.36800935405E+04 0.  0.
        1    1    3    3  502    0 -0.13897514110E+04 -0.60975168977E+03 -0.52132766807E+03  0.16046771155E+04  0.50400001928E-02 0.  1.
       -1    1    3    3    0  502  0.13897514110E+04  0.60975168977E+03  0.16563216183E+04  0.22464655375E+04  0.50400001928E-02 0. -1.
</event>
<event>
 5   0  0.6949625E-07  0.3664303E+04  0.7818609E-02  0.8075919E-01
        2   -1    0    0  501    0  0.00000000000E+00  0.00000000000E+00  0.17690035368E+04  0.17690035368E+04  0.25500000920E-02 0. -1.
       -2   -1    0    0    0  501  0.00000000000E+00  0.00000000000E+00 -0.18975532476E+04  0.18975532476E+04  0.25500000920E-02 0.  1.
    10030    2    1    2    0    0  0.00000000000E+00  0.00000000000E+00 -0.12854971087E+03  0.36665567844E+04  0.36643026110E+04 0.  0.
        5    1    3    3  502    0 -0.95712503568E+03  0.27759754568E+03 -0.16026234915E+04  0.18872129919E+04  0.46999998093E+01 0.  1.
       -5    1    3    3    0  502  0.95712503568E+03 -0.27759754568E+03  0.14740737806E+04  0.17793437925E+04  0.46999998093E+01 0. -1.
</event>
<event>
 5   0  0.2345471E-07  0.3672024E+04  0.7818609E-02  0.8074190E-01
        1   -1    0    0  501    0  0.00000000000E+00  0.00000000000E+00  0.23898685985E+04  0.23898685985E+04  0.50400001928E-02 0.  1.
       -1   -1    0    0    0  501  0.00000000000E+00  0.00000000000E+00 -0.14105130084E+04  0.14105130084E+04  0.50400001928E-02 0. -1.
    10030    2    1    2    0    0  0.00000000000E+00  0.00000000000E+00  0.97935559009E+03  0.38003816069E+04  0.36720243717E+04 0.  0.
        5    1    3    3  502    0  0.62309647990E+03  0.10325698827E+04  0.19224347893E+04  0.22694112441E+04  0.46999998093E+01 0.  1.
       -5    1    3    3    0  502 -0.62309647990E+03 -0.10325698827E+04 -0.94307919921E+03  0.15309703628E+04  0.46999998093E+01 0. -1.
</event>
<event>
 5   0  0.2345471E-07  0.3774382E+04  0.7818609E-02  0.8051675E-01
       -1   -1    0    0    0  501  0.00000000000E+00  0.00000000000E+00  0.13772607227E+04  0.13772607228E+04  0.50400001928E-02 0.  1.
        1   -1    0    0  501    0  0.00000000000E+00  0.00000000000E+00 -0.25859223460E+04  0.25859223460E+04  0.50400001928E-02 0. -1.
    10030    2    1    2    0    0  0.00000000000E+00  0.00000000000E+00 -0.12086616233E+04  0.39631830688E+04  0.37743816867E+04 0.  0.
        5    1    3    3  502    0  0.13258763940E+03 -0.95771164122E+03 -0.23061036213E+04  0.25005853459E+04  0.46999998093E+01 0. -1.
       -5    1    3    3    0  502 -0.13258763940E+03  0.95771164122E+03  0.10974419981E+04  0.14625977229E+04  0.46999998093E+01 0.  1.
</event>
<event>
 5   0  0.6949625E-07  0.3630325E+04  0.7818609E-02  0.8083580E-01
       -2   -1    0    0    0  501  0.00000000000E+00  0.00000000000E+00  0.12762125121E+04  0.12762125121E+04  0.25500000920E-02 0. -1.
        2   -1    0    0  501    0  0.00000000000E+00  0.00000000000E+00 -0.25817140291E+04  0.25817140291E+04  0.25500000920E-02 0.  1.
    10030    2    1    2    0    0  0.00000000000E+00  0.00000000000E+00 -0.13055015170E+04  0.38579265412E+04  0.36303254656E+04 0.  0.
        5    1    3    3  502    0  0.12372826074E+04  0.77454816476E+03  0.49377808259E+03  0.15409840995E+04  0.46999998093E+01 0. -1.
       -5    1    3    3    0  502 -0.12372826074E+04 -0.77454816476E+03 -0.17992795996E+04  0.23169424416E+04  0.46999998093E+01 0.  1.
</event>
<event>
 5   0  0.2287500E-07  0.3721475E+04  0.7818609E-02  0.8063219E-01
       -1   -1    0    0    0  501  0.00000000000E+00  0.00000000000E+00  0.13039740132E+04  0.13039740133E+04  0.50400001928E-02 0. -1.
        1   -1    0    0  501    0  0.00000000000E+00  0.00000000000E+00 -0.26552251273E+04  0.26552251274E+04  0.50400001928E-02 0.  1.
    10030    2    1    2    0    0  0.00000000000E+00  0.00000000000E+00 -0.13512511141E+04  0.39591991406E+04  0.37214752803E+04 0.  0.
        4    1    3    3  502    0  0.15828954786E+04  0.35345945510E+03 -0.16459457066E+04  0.23107640651E+04  0.12699999809E+01 0.  1.
       -4    1    3    3    0  502 -0.15828954786E+04 -0.35345945510E+03  0.29469459249E+03  0.16484350755E+04  0.12699999809E+01 0. -1.
</event>
<event>
 5   0  0.2287500E-07  0.3726199E+04  0.7818609E-02  0.8062181E-01
       -1   -1    0    0    0  501  0.00000000000E+00  0.00000000000E+00  0.11976193856E+04  0.11976193856E+04  0.50400001928E-02 0.  1.
        1   -1    0    0  501    0  0.00000000000E+00  0.00000000000E+00 -0.28983660785E+04  0.28983660785E+04  0.50400001928E-02 0. -1.
    10030    2    1    2    0    0  0.00000000000E+00  0.00000000000E+00 -0.17007466929E+04  0.40959854641E+04  0.37261988150E+04 0.  0.
        4    1    3    3  502    0 -0.92209769631E+03  0.94616277603E+02  0.92615619713E+03  0.13103371001E+04  0.12699999809E+01 0.  1.
       -4    1    3    3    0  502  0.92209769631E+03 -0.94616277603E+02 -0.26269028900E+04  0.27856483640E+04  0.12699999809E+01 0. -1.
</event>
<event>
 5   0  0.2345471E-07  0.3695057E+04  0.7818609E-02  0.8069058E-01
        1   -1    0    0  501    0  0.00000000000E+00  0.00000000000E+00  0.26367757641E+04  0.26367757641E+04  0.50400001928E-02 0. -1.
       -1   -1    0    0    0  501  0.00000000000E+00  0.00000000000E+00 -0.12945212701E+04  0.12945212701E+04  0.50400001928E-02 0.  1.
    10030    2    1    2    0    0  0.00000000000E+00  0.00000000000E+00  0.13422544940E+04  0.39312970342E+04  0.36950574075E+04 0.  0.
        5    1    3    3  502    0 -0.52893443742E+03  0.16564445186E+03  0.25462276083E+04  0.26058600973E+04  0.46999998093E+01 0. -1.
       -5    1    3    3    0  502  0.52893443742E+03 -0.16564445186E+03 -0.12039731143E+04  0.13254369368E+04  0.46999998093E+01 0.  1.
</event>
<event>
 5   0  0.2287500E-07  0.3659855E+04  0.7818609E-02  0.8076917E-01
       -1   -1    0    0    0  501  0.00000000000E+00  0.00000000000E+00  0.17017114936E+04  0.17017114936E+04  0.50400001928E-02 0. -1.
        1   -1    0    0  501    0  0.00000000000E+00  0.00000000000E+00 -0.19678040031E+04  0.19678040031E+04  0.50400001928E-02 0.  1.
    10030    2    1    2    0    0  0.00000000000E+00  0.00000000000E+00 -0.26609250946E+03  0.36695154967E+04  0.36598550186E+04 0.  0.
        4    1    3    3  502    0  0.17856789863E+04  0.24564518655E+03 -0.44954080026E+03  0.18577081427E+04  0.12699999809E+01 0. -1.
       -4    1    3    3    0  502 -0.17856789863E+04 -0.24564518655E+03  0.18344829080E+03  0.18118073540E+04  0.12699999809E+01 0.  1.
</event>
<event>
 5   0  0.2287500E-07  0.3687950E+04  0.7818609E-02  0.8070638E-01
       -1   -1    0    0    0  501  0.00000000000E+00  0.00000000000E+00  0.21283450151E+04  0.21283450151E+04  0.50400001928E-02 0. -1.
        1   -1    0    0  501    0  0.00000000000E+00  0.00000000000E+00 -0.15975994770E+04  0.15975994770E+04  0.50400001928E-02 0.  1.
    10030    2    1    2    0    0  0.00000000000E+00  0.00000000000E+00  0.53074553818E+03  0.37259444921E+04  0.36879495023E+04 0.  0.
        4    1    3    3  502    0 -0.45692131228E+03  0.58744450126E+03  0.19698740474E+04  0.21057714746E+04  0.12699999809E+01 0. -1.
       -4    1    3    3    0  502  0.45692131228E+03 -0.58744450126E+03 -0.14391285092E+04  0.16201730175E+04  0.12699999809E+01 0.  1.
</event>
<event>
 5   0  0.2287500E-07  0.3558524E+04  0.7818609E-02  0.8100059E-01
        1   -1    0    0  501    0  0.00000000000E+00  0.00000000000E+00  0.22948565796E+04  0.22948565797E+04  0.50400001928E-02 0.  1.
       -1   -1    0    0    0  501  0.00000000000E+00  0.00000000000E+00 -0.13795083409E+04  0.13795083409E+04  0.50400001928E-02 0. -1.
    10030    2    1    2    0    0  0.00000000000E+00  0.00000000000E+00  0.91534823874E+03  0.36743649206E+04  0.35585242969E+04 0.  0.
        4    1    3    3  502    0 -0.16669904778E+04  0.17577671522E+03  0.10737695779E+04  0.19906625596E+04  0.12699999809E+01 0.  1.
       -4    1    3    3    0  502  0.16669904778E+04 -0.17577671522E+03 -0.15842133916E+03  0.16837023610E+04  0.12699999809E+01 0. -1.
</event>
<event>
 5   0  0.2411746E-07  0.3711956E+04  0.7818609E-02  0.8065317E-01
       -1   -1    0    0    0  501  0.00000000000E+00  0.00000000000E+00  0.17523521021E+04  0.17523521021E+04  0.50400001928E-02 0. -1.
        1   -1    0    0  501    0  0.00000000000E+00  0.00000000000E+00 -0.19657316249E+04  0.19657316249E+04  0.50400001928E-02 0.  1.
    10030    2    1    2    0    0  0.00000000000E+00  0.00000000000E+00 -0.21337952278E+03  0.37180837270E+04  0.37119557891E+04 0.  0.
        1    1    3    3  502    0 -0.57457233633E+03  0.11909599919E+04 -0.14111972067E+04  0.19339070888E+04  0.50400001928E-02 0.  1.
       -1    1    3    3    0  502  0.57457233633E+03 -0.11909599919E+04  0.11978176839E+04  0.17841766381E+04  0.50400001928E-02 0. -1.
</event>
<event>
 5   0  0.7124627E-07  0.3552209E+04  0.7818609E-02  0.8101527E-01
       -2   -1    0    0    0  501  0.00000000000E+00  0.00000000000E+00  0.21381247014E+04  0.21381247014E+04  0.25500000920E-02 0.  1.
        2   -1    0    0  501    0  0.00000000000E+00  0.00000000000E+00 -0.14753801903E+04  0.14753801903E+04  0.25500000920E-02 0. -1.
    10030    2    1    2    0    0  0.00000000000E+00  0.00000000000E+00  0.66274451105E+03  0.36135048917E+04  0.35522087939E+04 0.  0.
        2    1    3    3  502    0  0.67855862154E+03 -0.12687606170E+04  0.13906630757E+04  0.20010345065E+04  0.25500000920E-02 0.  1.
       -2    1    3    3    0  502 -0.67855862154E+03  0.12687606170E+04 -0.72791856467E+03  0.16124703852E+04  0.25500000920E-02 0. -1.
</event>
<event>
 5   0  0.2411746E-07  0.3683084E+04  0.7818609E-02  0.8071721E-01
        1   -1    0    0  501    0  0.00000000000E+00  0.00000000000E+00  0.22734142351E+04  0.22734142351E+04  0.50400001928E-02 0. -1.
       -1   -1    0    0    0  501  0.00000000000E+00  0.00000000000E+00 -0.14917108479E+04  0.14917108479E+04  0.50400001928E-02 0.  1.
    10030    2    1    2    0    0  0.00000000000E+00  0.00000000000E+00  0.78170338722E+03  0.37651250830E+04  0.36830838580E+04 0.  0.
        1    1    3    3  502    0 -0.69111015974E+03  0.15447759236E+04  0.11331887184E+04  0.20366842118E+04  0.50400001928E-02 0.  1.
       -1    1    3    3    0  502  0.69111015974E+03 -0.15447759236E+04 -0.35148533115E+03  0.17284408712E+04  0.50400001928E-02 0. -1.
</event>
<event>
 5   0  0.2287500E-07  0.3702203E+04  0.7818609E-02  0.8067474E-01
       -1   -1    0    0    0  501  0.00000000000E+00  0.00000000000E+00  0.16082854666E+04  0.16082854666E+04  0.50400001928E-02 0.  1.
        1   -1    0    0  501    0  0.00000000000E+00  0.00000000000E+00 -0.21305775275E+04  0.21305775276E+04  0.50400001928E-02 0. -1.
    10030    2    1    2    0    0  0.00000000000E+00  0.00000000000E+00 -0.52229206097E+03  0.37388629941E+04  0.37022030593E+04 0.  0.
        4    1    3    3  502    0  0.81342073456E+03  0.10803858775E+04  0.10153672771E+04  0.16911118402E+04  0.12699999809E+01 0.  1.
       -4    1    3    3    0  502 -0.81342073456E+03 -0.10803858775E+04 -0.15376593380E+04  0.20477511540E+04  0.12699999809E+01 0. -1.
</event>
<event>
 5   0  0.6949625E-07  0.3676751E+04  0.7818609E-02  0.8073134E-01
        2   -1    0    0  501    0  0.00000000000E+00  0.00000000000E+00  0.21304298602E+04  0.21304298602E+04  0.25500000920E-02 0. -1.
       -2   -1    0    0    0  501  0.00000000000E+00  0.00000000000E+00 -0.15863583064E+04  0.15863583064E+04  0.25500000920E-02 0.  1.
    10030    2    1    2    0    0  0.00000000000E+00  0.00000000000E+00  0.54407155379E+03  0.37167881667E+04  0.36767513405E+04 0.  0.
        5    1    3    3  502    0 -0.14810160690E+04 -0.14495837445E+03  0.13632256790E+04  0.20181248398E+04  0.46999998093E+01 0. -1.
       -5    1    3    3    0  502  0.14810160690E+04  0.14495837445E+03 -0.81915412526E+03  0.16986633268E+04  0.46999998093E+01 0.  1.
</event>
<event>
 5   0  0.6949625E-07  0.3255142E+04  0.7818609E-02  0.8174404E-01
        2   -1    0    0  501    0  0.00000000000E+00  0.00000000000E+00  0.17173427932E+04  0.17173427932E+04  0.25500000920E-02 0.  1.
       -2   -1    0    0    0  501  0.00000000000E+00  0.00000000000E+00 -0.15424917734E+04  0.15424917734E+04  0.25500000920E-02 0. -1.
    10030    2    1    2    0    0  0.00000000000E+00  0.00000000000E+00  0.17485101982E+03  0.32598345667E+04  0.32551418591E+04 0.  0.
        5    1    3    3  502    0 -0.13177320531E+04  0.72648461986E+03  0.70861594575E+03  0.16632366985E+04  0.46999998093E+01 0.  1.
       -5    1    3    3    0  502  0.13177320531E+04 -0.72648461986E+03 -0.53376492592E+03  0.15965978682E+04  0.46999998093E+01 0. -1.
</event>
<event>
 5   0  0.2287500E-07  0.3707782E+04  0.7818609E-02  0.8066239E-01
        1   -1    0    0  501    0  0.00000000000E+00  0.00000000000E+00  0.19341234945E+04  0.19341234946E+04  0.50400001928E-02 0.  1.
       -1   -1    0    0    0  501  0.00000000000E+00  0.00000000000E+00 -0.17769869699E+04  0.17769869699E+04  0.50400001928E-02 0. -1.
    10030    2    1    2    0    0  0.00000000000E+00  0.00000000000E+00  0.15713652467E+03  0.37111104644E+04  0.37077822201E+04 0.  0.
        3    1    3    3  502    0  0.13886313999E+03  0.17882715224E+04 -0.39058933680E+03  0.18356900745E+04  0.10100000352E+00 0. -1.
       -3    1    3    3    0  502 -0.13886313999E+03 -0.17882715224E+04  0.54772586146E+03  0.18754203899E+04  0.10100000352E+00 0.  1.
</event>
<event>
 5   0  0.2287500E-07  0.3744679E+04  0.7818609E-02  0.8058132E-01
        1   -1    0    0  501    0  0.00000000000E+00  0.00000000000E+00  0.17195777536E+04  0.17195777536E+04  0.50400001928E-02 0.  1.
       -1   -1    0    0    0  501  0.00000000000E+00  0.00000000000E+00 -0.20386716512E+04  0.20386716512E+04  0.50400001928E-02 0. -1.
    10030    2    1    2    0    0  0.00000000000E+00  0.00000000000E+00 -0.31909389755E+03  0.37582494048E+04  0.37446785808E+04 0.  0.
        4    1    3    3  502    0 -0.53705222212E+03  0.16570714965E+04 -0.84857835204E+03  0.19376268645E+04  0.12699999809E+01 0. -1.
       -4    1    3    3    0  502  0.53705222212E+03 -0.16570714965E+04  0.52948445449E+03  0.18206225403E+04  0.12699999809E+01 0.  1.
</event>
<event>
 5   0  0.2287500E-07  0.3689851E+04  0.7818609E-02  0.8070215E-01
       -1   -1    0    0    0  501  0.00000000000E+00  0.00000000000E+00  0.19147798340E+04  0.19147798340E+04  0.50400001928E-02 0. -1.
        1   -1    0    0  501    0  0.00000000000E+00  0.00000000000E+00 -0.17776193491E+04  0.17776193491E+04  0.50400001928E-02 0.  1.
    10030    2    1    2    0    0  0.00000000000E+00  0.00000000000E+00  0.13716048489E+03  0.36923991831E+04  0.36898507733E+04 0.  0.
        4    1    3    3  502    0  0.18007770107E+03 -0.13136765688E+04 -0.12151049965E+04  0.17985149071E+04  0.12699999809E+01 0.  1.
       -4    1    3    3    0  502 -0.18007770107E+03  0.13136765688E+04  0.13522654814E+04  0.18938842760E+04  0.12699999809E+01 0. -1.
</event>
<event>
 5   0  0.6939921E-07  0.3705881E+04  0.7818609E-02  0.8066660E-01
       -2   -1    0    0    0  501  0.00000000000E+00  0.00000000000E+00  0.19834894513E+04  0.19834894513E+04  0.25500000920E-02 0. -1.
        2   -1    0    0  501    0  0.00000000000E+00  0.00000000000E+00 -0.17309842591E+04  0.17309842591E+04  0.25500000920E-02 0.  1.
    10030    2    1    2    0    0  0.00000000000E+00  0.00000000000E+00  0.25250519221E+03  0.37144737104E+04  0.37058812816E+04 0.  0.
        4    1    3    3  502    0  0.12412121688E+04  0.66407467037E+03  0.13339465094E+04  0.19393343494E+04  0.12699999809E+01 0.  1.
       -4    1    3    3    0  502 -0.12412121688E+04 -0.66407467037E+03 -0.10814413172E+04  0.17751393611E+04  0.12699999809E+01 0. -1.
</event>
<event>
 5   0  0.2287500E-07  0.3647800E+04  0.7818609E-02  0.8079629E-01
        3   -1    0    0  501    0  0.00000000000E+00  0.00000000000E+00  0.22383250377E+04  0.22383250399E+04  0.10100000352E+00 0. -1.
       -3   -1    0    0    0  501  0.00000000000E+00  0.00000000000E+00 -0.14862054971E+04  0.14862055005E+04  0.10100000352E+00 0.  1.
    10030    2    1    2    0    0  0.00000000000E+00  0.00000000000E+00  0.75211954056E+03  0.37245305405E+04  0.36477998771E+04 0.  0.
        5    1    3    3  502    0 -0.16734255390E+03  0.11574543713E+04  0.18051017186E+04  0.21508413369E+04  0.46999998093E+01 0. -1.
       -5    1    3    3    0  502  0.16734255390E+03 -0.11574543713E+04 -0.10529821781E+04  0.15736892036E+04  0.46999998093E+01 0.  1.
</event>
<event>
 5   0  0.2287500E-07  0.3640978E+04  0.7818609E-02  0.8081169E-01
        1   -1    0    0  501    0  0.00000000000E+00  0.00000000000E+00  0.18565332316E+04  0.18565332316E+04  0.50400001928E-02 0. -1.
       -1   -1    0    0    0  501  0.00000000000E+00  0.00000000000E+00 -0.17851448367E+04  0.17851448367E+04  0.50400001928E-02 0.  1.
    10030    2    1    2    0    0  0.00000000000E+00  0.00000000000E+00  0.71388394964E+02  0.36416780683E+04  0.36409782820E+04 0.  0.
        3    1    3    3  502    0  0.72438198671E+03 -0.39005218603E+03 -0.15885978321E+04  0.17889977789E+04  0.10100000352E+00 0.  1.
       -3    1    3    3    0  502 -0.72438198671E+03  0.39005218603E+03  0.16599862271E+04  0.18526802894E+04  0.10100000352E+00 0. -1.
</event>
<event>
 5   0  0.7124627E-07  0.3694364E+04  0.7818609E-02  0.8069212E-01
       -2   -1    0    0    0  501  0.00000000000E+00  0.00000000000E+00  0.27270455214E+04  0.27270455214E+04  0.25500000920E-02 0. -1.
        2   -1    0    0  501    0  0.00000000000E+00  0.00000000000E+00 -0.12512006539E+04  0.12512006539E+04  0.25500000920E-02 0.  1.
    10030    2    1    2    0    0  0.00000000000E+00  0.00000000000E+00  0.14758448675E+04  0.39782461754E+04  0.36943638910E+04 0.  0.
        2    1    3    3  502    0  0.10759443635E+04 -0.76930534120E+03  0.21264199534E+04  0.25042261878E+04  0.25500000920E-02 0. -1.
       -2    1    3    3    0  502 -0.10759443635E+04  0.76930534120E+03 -0.65057508586E+03  0.14740199876E+04  0.25500000920E-02 0.  1.
</event>
<event>
 5   0  0.6949625E-07  0.3675215E+04  0.7818609E-02  0.8073477E-01
       -2   -1    0    0    0  501  0.00000000000E+00  0.00000000000E+00  0.23288235705E+04  0.23288235705E+04  0.25500000920E-02 0.  1.
        2   -1    0    0  501    0  0.00000000000E+00  0.00000000000E+00 -0.14500034442E+04  0.14500034442E+04  0.25500000920E-02 0. -1.
    10030    2    1    2    0    0  0.00000000000E+00  0.00000000000E+00  0.87882012627E+03  0.37788270148E+04  0.36752154757E+04 0.  0.
        5    1    3    3  502    0  0.10472526254E+04  0.14766662124E+04  0.76373731382E+03  0.19648404360E+04  0.46999998093E+01 0. -1.
       -5    1    3    3    0  502 -0.10472526254E+04 -0.14766662124E+04  0.11508281245E+03  0.18139865788E+04  0.46999998093E+01 0.  1.
</event>
<event>
 5   0  0.7074157E-07  0.3729439E+04  0.7818609E-02  0.8061469E-01
       -2   -1    0    0    0  501  0.00000000000E+00  0.00000000000E+00  0.18958927670E+04  0.18958927670E+04  0.25500000920E-02 0. -1.
        2   -1    0    0  501    0  0.00000000000E+00  0.00000000000E+00 -0.18340587144E+04  0.18340587145E+04  0.25500000920E-02 0.  1.
    10030    2    1    2    0    0  0.00000000000E+00  0.00000000000E+00  0.61834052544E+02  0.37299514814E+04  0.37294389127E+04 0.  0.
        3    1    3    3  502    0 -0.10732671796E+03  0.18405249188E+04 -0.24863460905E+03  0.18603414149E+04  0.10100000352E+00 0.  1.
       -3    1    3    3    0  502  0.10732671796E+03 -0.18405249188E+04  0.31046866159E+03  0.18696100666E+04  0.10100000352E+00 0. -1.
</event>
<event>
 5   0  0.2287500E-07  0.3790102E+04  0.7818609E-02  0.8048282E-01
       -1   -1    0    0    0  501  0.00000000000E+00  0.00000000000E+00  0.16093561326E+04  0.16093561326E+04  0.50400001928E-02 0. -1.
        1   -1    0    0  501    0  0.00000000000E+00  0.00000000000E+00 -0.22314632813E+04  0.22314632813E+04  0.50400001928E-02 0.  1.
    10030    2    1    2    0    0  0.00000000000E+00  0.00000000000E+00 -0.62210714873E+03  0.38408194139E+04  0.37901024347E+04 0.  0.
        2    1    3    3  502    0 -0.38700386129E+03 -0.25621337171E+03 -0.21729752719E+04  0.22219898318E+04  0.25500000920E-02 0.  1.
       -2    1    3    3    0  502  0.38700386129E+03  0.25621337171E+03  0.15508681231E+04  0.16188295821E+04  0.25500000920E-02 0. -1.
</event>
<event>
 5   0  0.7074157E-07  0.3649841E+04  0.7818609E-02  0.8079169E-01
       -2   -1    0    0    0  501  0.00000000000E+00  0.00000000000E+00  0.93168853337E+03  0.93168853338E+03  0.25500000920E-02 0.  1.
        2   -1    0    0  501    0  0.00000000000E+00  0.00000000000E+00 -0.35745156874E+04  0.35745156874E+04  0.25500000920E-02 0. -1.
    10030    2    1    2    0    0  0.00000000000E+00  0.00000000000E+00 -0.26428271540E+04  0.45062042208E+04  0.36498412449E+04 0.  0.
        3    1    3    3  502    0 -0.85802729153E+03  0.12441049130E+04 -0.25843186119E+04  0.29937786433E+04  0.10100000352E+00 0. -1.
       -3    1    3    3    0  502  0.85802729153E+03 -0.12441049130E+04 -0.58508542166E+02  0.15124255774E+04  0.10100000352E+00 0.  1.
</event>
<event>
 5   0  0.2345471E-07  0.3295178E+04  0.7818609E-02  0.8164123E-01
        1   -1    0    0  501    0  0.00000000000E+00  0.00000000000E+00  0.16583676981E+04  0.16583676981E+04  0.50400001928E-02 0.  1.
       -1   -1    0    0    0  501  0.00000000000E+00  0.00000000000E+00 -0.16368802307E+04  0.16368802307E+04  0.50400001928E-02 0. -1.
    10030    2    1    2    0    0  0.00000000000E+00  0.00000000000E+00  0.21487467393E+02  0.32952479288E+04  0.32951778709E+04 0.  0.
        5    1    3    3  502    0  0.55082264150E+03 -0.81612985759E+02 -0.15399216688E+04  0.16375124726E+04  0.46999998093E+01 0. -1.
       -5    1    3    3    0  502 -0.55082264150E+03  0.81612985759E+02  0.15614091362E+04  0.16577354561E+04  0.46999998093E+01 0.  1.
</event>
<event>
 5   0  0.2287500E-07  0.3972031E+04  0.7818609E-02  0.8010213E-01
       -1   -1    0    0    0  501  0.00000000000E+00  0.00000000000E+00  0.29222124381E+04  0.29222124381E+04  0.50400001928E-02 0. -1.
        1   -1    0    0  501    0  0.00000000000E+00  0.00000000000E+00 -0.13497503194E+04  0.13497503194E+04  0.50400001928E-02 0.  1.
    10030    2    1    2    0    0  0.00000000000E+00  0.00000000000E+00  0.15724621187E+04  0.42719627575E+04  0.39720308014E+04 0.  0.
        3    1    3    3  502    0  0.18373087793E+04  0.64839342656E+03  0.37227866575E+03  0.19836100931E+04  0.10100000352E+00 0.  1.
       -3    1    3    3    0  502 -0.18373087793E+04 -0.64839342656E+03  0.12001834530E+04  0.22883526645E+04  0.10100000352E+00 0. -1.
</event>
<event>
 5   0  0.2287500E-07  0.3778415E+04  0.7818609E-02  0.8050803E-01
        1   -1    0    0  501    0  0.00000000000E+00  0.00000000000E+00  0.21631492369E+04  0.21631492369E+04  0.50400001928E-02 0. -1.
       -1   -1    0    0    0  501  0.00000000000E+00  0.00000000000E+00 -0.16499574891E+04  0.16499574891E+04  0.50400001928E-02 0.  1.
    10030    2    1    2    0    0  0.00000000000E+00  0.00000000000E+00  0.51319174789E+03  0.38131067260E+04  0.37784146323E+04 0.  0.
        4    1    3    3  502    0  0.11173752995E+04 -0.49608833749E+03 -0.11969310477E+04  0.17109286205E+04  0.12699999809E+01 0.  1.
       -4    1    3    3    0  502 -0.11173752995E+04  0.49608833749E+03  0.17101227956E+04  0.21021781055E+04  0.12699999809E+01 0. -1.
</event>
<event>
 5   0  0.6939921E-07  0.3663299E+04  0.7818609E-02  0.8076144E-01
        2   -1    0    0  501    0  0.00000000000E+00  0.00000000000E+00  0.16958621894E+04  0.16958621894E+04  0.25500000920E-02 0. -1.
       -2   -1    0    0    0  501  0.00000000000E+00  0.00000000000E+00 -0.19783087570E+04  0.19783087570E+04  0.25500000920E-02 0.  1.
    10030    2    1    2    0    0  0.00000000000E+00  0.00000000000E+00 -0.28244656753E+03  0.36741709464E+04  0.36632985245E+04 0.  0.
        4    1    3    3  502    0 -0.12474742680E+04 -0.11661157915E+04 -0.80569943128E+03  0.18881661142E+04  0.12699999809E+01 0.  1.
       -4    1    3    3    0  502  0.12474742680E+04  0.11661157915E+04  0.52325286374E+03  0.17860048322E+04  0.12699999809E+01 0. -1.
</event>
<event>
 5   0  0.2287500E-07  0.3701913E+04  0.7818609E-02  0.8067538E-01
        1   -1    0    0  501    0  0.00000000000E+00  0.00000000000E+00  0.20007160561E+04  0.20007160561E+04  0.50400001928E-02 0.  1.
       -1   -1    0    0    0  501  0.00000000000E+00  0.00000000000E+00 -0.17124064562E+04  0.17124064563E+04  0.50400001928E-02 0. -1.
    10030    2    1    2    0    0  0.00000000000E+00  0.00000000000E+00  0.28830959987E+03  0.37131225124E+04  0.37019125282E+04 0.  0.
        4    1    3    3  502    0  0.87715568238E+03  0.94651189955E+03 -0.11867961485E+04  0.17532180635E+04  0.12699999809E+01 0. -1.
       -4    1    3    3    0  502 -0.87715568238E+03 -0.94651189955E+03  0.14751057484E+04  0.19599044489E+04  0.12699999809E+01 0.  1.
</event>
<event>
 5   0  0.6949625E-07  0.3630080E+04  0.7818609E-02  0.8083636E-01
        2   -1    0    0  501    0  0.00000000000E+00  0.00000000000E+00  0.19081116400E+04  0.19081116400E+04  0.25500000920E-02 0.  1.
       -2   -1    0    0    0  501  0.00000000000E+00  0.00000000000E+00 -0.17265080880E+04  0.17265080880E+04  0.25500000920E-02 0. -1.
    10030    2    1    2    0    0  0.00000000000E+00  0.00000000000E+00  0.18160355197E+03  0.36346197280E+04  0.36300799877E+04 0.  0.
        5    1    3    3  502    0  0.17816492187E+04  0.34553898472E+03  0.11685278651E+03  0.18186115011E+04  0.46999998093E+01 0.  1.
       -5    1    3    3    0  502 -0.17816492187E+04 -0.34553898472E+03  0.64750765462E+02  0.18160082269E+04  0.46999998093E+01 0. -1.
</event>
<event>
 5   0  0.2287500E-07  0.3646971E+04  0.7818609E-02  0.8079816E-01
        1   -1    0    0  501    0  0.00000000000E+00  0.00000000000E+00  0.21760333049E+04  0.21760333049E+04  0.50400001928E-02 0. -1.
       -1   -1    0    0    0  501  0.00000000000E+00  0.00000000000E+00 -0.15280556328E+04  0.15280556328E+04  0.50400001928E-02 0.  1.
    10030    2    1    2    0    0  0.00000000000E+00  0.00000000000E+00  0.64797767209E+03  0.37040889377E+04  0.36469713181E+04 0.  0.
        3    1    3    3  502    0 -0.13703720836E+04 -0.11770069800E+04  0.57654952216E+03  0.18962263684E+04  0.10100000352E+00 0. -1.
       -3    1    3    3    0  502  0.13703720836E+04  0.11770069800E+04  0.71428149933E+02  0.18078625693E+04  0.10100000352E+00 0.  1.
</event>
<event>
 5   0  0.7124627E-07  0.2994438E+04  0.7818609E-02  0.8245321E-01
        2   -1    0    0  501    0  0.00000000000E+00  0.00000000000E+00  0.12111231786E+04  0.12111231786E+04  0.25500000920E-02 0.  1.
       -2   -1    0    0    0  501  0.00000000000E+00  0.00000000000E+00 -0.18508969531E+04  0.18508969531E+04  0.25500000920E-02 0. -1.
    10030    2    1    2    0    0  0.00000000000E+00  0.00000000000E+00 -0.63977377449E+03  0.30620201317E+04  0.29944376441E+04 0.  0.
        2    1    3    3  502    0  0.28351239597E+03  0.87936615918E+03 -0.15246107522E+04  0.17827232164E+04  0.25500000920E-02 0. -1.
       -2    1    3    3    0  502 -0.28351239597E+03 -0.87936615918E+03  0.88483697766E+03  0.12792969153E+04  0.25500000920E-02 0.  1.
</event>
<event>
 5   0  0.6939921E-07  0.3715754E+04  0.7818609E-02  0.8064479E-01
       -2   -1    0    0    0  501  0.00000000000E+00  0.00000000000E+00  0.16645332412E+04  0.16645332412E+04  0.25500000920E-02 0. -1.
        2   -1    0    0  501    0  0.00000000000E+00  0.00000000000E+00 -0.20736789969E+04  0.20736789969E+04  0.25500000920E-02 0.  1.
    10030    2    1    2    0    0  0.00000000000E+00  0.00000000000E+00 -0.40914575565E+03  0.37382122381E+04  0.37157543632E+04 0.  0.
        4    1    3    3  502    0  0.75664151950E+02 -0.15043432353E+04 -0.12987733997E+04  0.19888659055E+04  0.12699999809E+01 0.  1.
       -4    1    3    3    0  502 -0.75664151950E+02  0.15043432353E+04  0.88962764404E+03  0.17493463326E+04  0.12699999809E+01 0. -1.
</event>
<event>
 5   0  0.7124627E-07  0.3738361E+04  0.7818609E-02  0.8059513E-01
        2   -1    0    0  501    0  0.00000000000E+00  0.00000000000E+00  0.20881861007E+04  0.20881861007E+04  0.25500000920E-02 0. -1.
       -2   -1    0    0    0  501  0.00000000000E+00  0.00000000000E+00 -0.16731441473E+04  0.16731441473E+04  0.25500000920E-02 0.  1.
    10030    2    1    2    0    0  0.00000000000E+00  0.00000000000E+00  0.41504195342E+03  0.37613302480E+04  0.37383613270E+04 0.  0.
        2    1    3    3  502    0 -0.10968380030E+03 -0.17103042390E+03  0.20770424466E+04  0.20869564602E+04  0.25500000920E-02 0. -1.
       -2    1    3    3    0  502  0.10968380030E+03  0.17103042390E+03 -0.16620004931E+04  0.16743737878E+04  0.25500000920E-02 0.  1.
</event>
<event>
 5   0  0.2287500E-07  0.3718228E+04  0.7818609E-02  0.8063934E-01
       -1   -1    0    0    0  501  0.00000000000E+00  0.00000000000E+00  0.22294104184E+04  0.22294104184E+04  0.50400001928E-02 0. -1.
        1   -1    0    0  501    0  0.00000000000E+00  0.00000000000E+00 -0.15503225182E+04  0.15503225182E+04  0.50400001928E-02 0.  1.
    10030    2    1    2    0    0  0.00000000000E+00  0.00000000000E+00  0.67908790024E+03  0.37797329366E+04  0.37182281662E+04 0.  0.
        4    1    3    3  502    0  0.53793481879E+03 -0.60281974264E+03  0.20416174343E+04  0.21956704835E+04  0.12699999809E+01 0. -1.
       -4    1    3    3    0  502 -0.53793481879E+03  0.60281974264E+03 -0.13625295340E+04  0.15840624531E+04  0.12699999809E+01 0.  1.
</event>
<event>
 5   0  0.6949625E-07  0.3734541E+04  0.7818609E-02  0.8060350E-01
        2   -1    0    0  501    0  0.00000000000E+00  0.00000000000E+00  0.17162488221E+04  0.17162488221E+04  0.25500000920E-02 0. -1.
       -2   -1    0    0    0  501  0.00000000000E+00  0.00000000000E+00 -0.20315814596E+04  0.20315814596E+04  0.25500000920E-02 0.  1.
    10030    2    1    2    0    0  0.00000000000E+00  0.00000000000E+00 -0.31533263756E+03  0.37478302817E+04  0.37345410893E+04 0.  0.
        5    1    3    3  502    0 -0.77211710270E+03 -0.66682535139E+03  0.14118222069E+04  0.17418624812E+04  0.46999998093E+01 0. -1.
       -5    1    3    3    0  502  0.77211710270E+03  0.66682535139E+03 -0.17271548445E+04  0.20059678004E+04  0.46999998093E+01 0.  1.
</event>
<event>
 5   0  0.2287500E-07  0.3625780E+04  0.7818609E-02  0.8084612E-01
        1   -1    0    0  501    0  0.00000000000E+00  0.00000000000E+00  0.18123635528E+04  0.18123635528E+04  0.50400001928E-02 0.  1.
       -1   -1    0    0    0  501  0.00000000000E+00  0.00000000000E+00 -0.18134167793E+04  0.18134167793E+04  0.50400001928E-02 0. -1.
    10030    2    1    2    0    0  0.00000000000E+00  0.00000000000E+00 -0.10532264772E+01  0.36257803321E+04  0.36257801791E+04 0.  0.
        2    1    3    3  502    0  0.14972027584E+04  0.52041549083E+02  0.10203779573E+04  0.18125936109E+04  0.25500000920E-02 0. -1.
       -2    1    3    3    0  502 -0.14972027584E+04 -0.52041549083E+02 -0.10214311838E+04  0.18131867212E+04  0.25500000920E-02 0.  1.
</event>
<event>
 5   0  0.2411746E-07  0.3748494E+04  0.7818609E-02  0.8057299E-01
       -1   -1    0    0    0  501  0.00000000000E+00  0.00000000000E+00  0.18679043881E+04  0.18679043881E+04  0.50400001928E-02 0.  1.
        1   -1    0    0  501    0  0.00000000000E+00  0.00000000000E+00 -0.18806113425E+04  0.18806113425E+04  0.50400001928E-02 0. -1.
    10030    2    1    2    0    0  0.00000000000E+00  0.00000000000E+00 -0.12706954368E+02  0.37485157306E+04  0.37484941931E+04 0.  0.
        1    1    3    3  502    0  0.17182851202E+03  0.30191863633E+03 -0.18481355648E+04  0.18805012541E+04  0.50400001928E-02 0. -1.
       -1    1    3    3    0  502 -0.17182851202E+03 -0.30191863633E+03  0.18354286105E+04  0.18680144766E+04  0.50400001928E-02 0.  1.
</event>
<event>
 5   0  0.2345471E-07  0.3729370E+04  0.7818609E-02  0.8061484E-01
       -1   -1    0    0    0  501  0.00000000000E+00  0.00000000000E+00  0.13123099959E+04  0.13123099959E+04  0.50400001928E-02 0. -1.
        1   -1    0    0  501    0  0.00000000000E+00  0.00000000000E+00 -0.26495652364E+04  0.26495652364E+04  0.50400001928E-02 0.  1.
    10030    2    1    2    0    0  0.00000000000E+00  0.00000000000E+00 -0.13372552406E+04  0.39618752323E+04  0.37293704265E+04 0.  0.
        5    1    3    3  502    0 -0.47107724106E+03 -0.24234961311E+03 -0.25679321034E+04  0.26220115331E+04  0.46999998093E+01 0.  1.
       -5    1    3    3    0  502  0.47107724106E+03  0.24234961311E+03  0.12306768628E+04  0.13398636993E+04  0.46999998093E+01 0. -1.
</event>
<event>
 5   0  0.2287500E-07  0.3810501E+04  0.7818609E-02  0.8043905E-01
       -1   -1    0    0    0  501  0.00000000000E+00  0.00000000000E+00  0.17071391422E+04  0.17071391422E+04  0.50400001928E-02 0.  1.
        1   -1    0    0  501    0  0.00000000000E+00  0.00000000000E+00 -0.21263528757E+04  0.21263528757E+04  0.50400001928E-02 0. -1.
    10030    2    1    2    0    0  0.00000000000E+00  0.00000000000E+00 -0.41921373351E+03  0.38334920178E+04  0.38105013970E+04 0.  0.
        4    1    3    3  502    0  0.10202497627E+04 -0.35057293082E+03 -0.17894855403E+04  0.20895145537E+04  0.12699999809E+01 0. -1.
       -4    1    3    3    0  502 -0.10202497627E+04  0.35057293082E+03  0.13702718068E+04  0.17439774642E+04  0.12699999809E+01 0.  1.
</event>
<event>
 5   0  0.7300916E-07  0.3788987E+04  0.7818609E-02  0.8048522E-01
        2   -1    0    0  501    0  0.00000000000E+00  0.00000000000E+00  0.22021435488E+04  0.22021435488E+04  0.25500000920E-02 0.  1.
       -2   -1    0    0    0  501  0.00000000000E+00  0.00000000000E+00 -0.16298236655E+04  0.16298236655E+04  0.25500000920E-02 0. -1.
    10030    2    1    2    0    0  0.00000000000E+00  0.00000000000E+00  0.57231988326E+03  0.38319672143E+04  0.37889870259E+04 0.  0.
        1    1    3    3  502    0 -0.77674706116E+03  0.25012036154E+03  0.20152938825E+04  0.21742367914E+04  0.50400001928E-02 0.  1.
       -1    1    3    3    0  502  0.77674706116E+03 -0.25012036154E+03 -0.14429739993E+04  0.16577304228E+04  0.50400001928E-02 0. -1.
</event>
<event>
 5   0  0.2411746E-07  0.3586777E+04  0.7818609E-02  0.8093527E-01
        1   -1    0    0  501    0  0.00000000000E+00  0.00000000000E+00  0.16163104223E+04  0.16163104223E+04  0.50400001928E-02 0. -1.
       -1   -1    0    0    0  501  0.00000000000E+00  0.00000000000E+00 -0.19898672264E+04  0.19898672265E+04  0.50400001928E-02 0.  1.
    10030    2    1    2    0    0  0.00000000000E+00  0.00000000000E+00 -0.37355680411E+03  0.36061776488E+04  0.35867774602E+04 0.  0.
        1    1    3    3  502    0 -0.80477675780E+03 -0.70113645274E+03 -0.16357483708E+04  0.19531847552E+04  0.50400001928E-02 0.  1.
       -1    1    3    3    0  502  0.80477675780E+03  0.70113645274E+03  0.12621915667E+04  0.16529928936E+04  0.50400001928E-02 0. -1.
</event>
<event>
 5   0  0.7074157E-07  0.3673131E+04  0.7818609E-02  0.8073943E-01
       -2   -1    0    0    0  501  0.00000000000E+00  0.00000000000E+00  0.16138321175E+04  0.16138321175E+04  0.25500000920E-02 0.  1.
        2   -1    0    0  501    0  0.00000000000E+00  0.00000000000E+00 -0.20900395717E+04  0.20900395717E+04  0.25500000920E-02 0. -1.
    10030    2    1    2    0    0  0.00000000000E+00  0.00000000000E+00 -0.47620745418E+03  0.37038716892E+04  0.36731310827E+04 0.  0.
        3    1    3    3  502    0 -0.13017917082E+03  0.17741808571E+04  0.22212439785E+03  0.17927642312E+04  0.10100000352E+00 0.  1.
       -3    1    3    3    0  502  0.13017917082E+03 -0.17741808571E+04 -0.69833185203E+03  0.19111074580E+04  0.10100000352E+00 0. -1.
</event>
<event>
 5   0  0.7300916E-07  0.3692817E+04  0.7818609E-02  0.8069555E-01
        2   -1    0    0  501    0  0.00000000000E+00  0.00000000000E+00  0.27407836925E+04  0.27407836925E+04  0.25500000920E-02 0.  1.
       -2   -1    0    0    0  501  0.00000000000E+00  0.00000000000E+00 -0.12438869904E+04  0.12438869904E+04  0.25500000920E-02 0. -1.
    10030    2    1    2    0    0  0.00000000000E+00  0.00000000000E+00  0.14968967022E+04  0.39846706829E+04  0.36928174493E+04 0.  0.
        1    1    3    3  502    0 -0.27493752664E+03 -0.13771266763E+04  0.20420085665E+04  0.24782791432E+04  0.50400001928E-02 0.  1.
       -1    1    3    3    0  502  0.27493752664E+03  0.13771266763E+04 -0.54511186432E+03  0.15063915397E+04  0.50400001928E-02 0. -1.
</event>
<event>
 5   0  0.7300916E-07  0.3682305E+04  0.7818609E-02  0.8071895E-01
        2   -1    0    0  501    0  0.00000000000E+00  0.00000000000E+00  0.32103244187E+04  0.32103244187E+04  0.25500000920E-02 0.  1.
       -2   -1    0    0    0  501  0.00000000000E+00  0.00000000000E+00 -0.10559191304E+04  0.10559191304E+04  0.25500000920E-02 0. -1.
    10030    2    1    2    0    0  0.00000000000E+00  0.00000000000E+00  0.21544052883E+04  0.42662435491E+04  0.36823052392E+04 0.  0.
        1    1    3    3  502    0  0.16433266455E+03 -0.17995225189E+04  0.66831031237E+03  0.19266357191E+04  0.50400001928E-02 0. -1.
       -1    1    3    3    0  502 -0.16433266455E+03  0.17995225189E+04  0.14860949760E+04  0.23396078300E+04  0.50400001928E-02 0.  1.
</event>
<event>
 5   0  0.6949625E-07  0.3453185E+04  0.7818609E-02  0.8124975E-01
       -2   -1    0    0    0  501  0.00000000000E+00  0.00000000000E+00  0.13713463784E+04  0.13713463784E+04  0.25500000920E-02 0. -1.
        2   -1    0    0  501    0  0.00000000000E+00  0.00000000000E+00 -0.21738643094E+04  0.21738643094E+04  0.25500000920E-02 0.  1.
    10030    2    1    2    0    0  0.00000000000E+00  0.00000000000E+00 -0.80251793102E+03  0.35452106878E+04  0.34531845869E+04 0.  0.
        5    1    3    3  502    0  0.62234924550E+03  0.15990001374E+04 -0.59868247527E+03  0.18172954683E+04  0.46999998093E+01 0.  1.
       -5    1    3    3    0  502 -0.62234924550E+03 -0.15990001374E+04 -0.20383545575E+03  0.17279152195E+04  0.46999998093E+01 0. -1.
</event>
<event>
 5   0  0.2345471E-07  0.3349975E+04  0.7818609E-02  0.8150294E-01
       -1   -1    0    0    0  501  0.00000000000E+00  0.00000000000E+00  0.13703610537E+04  0.13703610537E+04  0.50400001928E-02 0.  1.
        1   -1    0    0  501    0  0.00000000000E+00  0.00000000000E+00 -0.20473309613E+04  0.20473309613E+04  0.50400001928E-02 0. -1.
    10030    2    1    2    0    0  0.00000000000E+00  0.00000000000E+00 -0.67696990756E+03  0.34176920150E+04  0.33499746945E+04 0.  0.
        5    1    3    3  502    0 -0.60037436492E+03 -0.11017622183E+04  0.79355354394E+03  0.14846139837E+04  0.46999998093E+01 0.  1.
       -5    1    3    3    0  502  0.60037436492E+03  0.11017622183E+04 -0.14705234515E+04  0.19330780313E+04  0.46999998093E+01 0. -1.
</event>
<event>
 5   0  0.7074157E-07  0.3685766E+04  0.7818609E-02  0.8071124E-01
       -2   -1    0    0    0  501  0.00000000000E+00  0.00000000000E+00  0.29481539053E+04  0.29481539053E+04  0.25500000920E-02 0. -1.
        2   -1    0    0  501    0  0.00000000000E+00  0.00000000000E+00 -0.11519811752E+04  0.11519811752E+04  0.25500000920E-02 0.  1.
    10030    2    1    2    0    0  0.00000000000E+00  0.00000000000E+00  0.17961727301E+04  0.41001350805E+04  0.36857660265E+04 0.  0.
        3    1    3    3  502    0 -0.91218710929E+03  0.68495469644E+03 -0.71203739179E+03  0.13447101978E+04  0.10100000352E+00 0.  1.
       -3    1    3    3    0  502  0.91218710929E+03 -0.68495469644E+03  0.25082101219E+04  0.27554248827E+04  0.10100000352E+00 0. -1.
</event>
<event>
 5   0  0.2287500E-07  0.3733605E+04  0.7818609E-02  0.8060555E-01
        1   -1    0    0  501    0  0.00000000000E+00  0.00000000000E+00  0.20348810846E+04  0.20348810846E+04  0.50400001928E-02 0. -1.
       -1   -1    0    0    0  501  0.00000000000E+00  0.00000000000E+00 -0.17126073908E+04  0.17126073908E+04  0.50400001928E-02 0.  1.
    10030    2    1    2    0    0  0.00000000000E+00  0.00000000000E+00  0.32227369374E+03  0.37474884754E+04  0.37336054343E+04 0.  0.
        2    1    3    3  502    0  0.46983943584E+01  0.11380786200E+04 -0.13241314991E+04  0.17460152482E+04  0.25500000920E-02 0.  1.
       -2    1    3    3    0  502 -0.46983943584E+01 -0.11380786200E+04  0.16464051928E+04  0.20014732272E+04  0.25500000920E-02 0. -1.
</event>
<event>
 5   0  0.2411746E-07  0.3644840E+04  0.7818609E-02  0.8080297E-01
        1   -1    0    0  501    0  0.00000000000E+00  0.00000000000E+00  0.26802768845E+04  0.26802768845E+04  0.50400001928E-02 0. -1.
       -1   -1    0    0    0  501  0.00000000000E+00  0.00000000000E+00 -0.12391311667E+04  0.12391311667E+04  0.50400001928E-02 0.  1.
    10030    2    1    2    0    0  0.00000000000E+00  0.00000000000E+00  0.14411457178E+04  0.39194080512E+04  0.36448399817E+04 0.  0.
        1    1    3    3  502    0  0.71488015573E+02 -0.47178253418E+03  0.26119095686E+04  0.26551385822E+04  0.50400001928E-02 0. -1.
       -1    1    3    3    0  502 -0.71488015573E+02  0.47178253418E+03 -0.11707638508E+04  0.12642694690E+04  0.50400001928E-02 0.  1.
</event>
<event>
 5   0  0.2287500E-07  0.3681155E+04  0.7818609E-02  0.8072151E-01
        1   -1    0    0  501    0  0.00000000000E+00  0.00000000000E+00  0.11784617704E+04  0.11784617704E+04  0.50400001928E-02 0. -1.
       -1   -1    0    0    0  501  0.00000000000E+00  0.00000000000E+00 -0.28747006960E+04  0.28747006960E+04  0.50400001928E-02 0.  1.
    10030    2    1    2    0    0  0.00000000000E+00  0.00000000000E+00 -0.16962389257E+04  0.40531624664E+04  0.36811546404E+04 0.  0.
        3    1    3    3  502    0  0.15537768780E+04 -0.91142897092E+03 -0.43204285259E+03  0.18524541539E+04  0.10100000352E+00 0.  1.
       -3    1    3    3    0  502 -0.15537768780E+04  0.91142897092E+03 -0.12641960731E+04  0.22007083125E+04  0.10100000352E+00 0. -1.
</event>
<event>
 5   0  0.2287500E-07  0.3769435E+04  0.7818609E-02  0.8052746E-01
       -1   -1    0    0    0  501  0.00000000000E+00  0.00000000000E+00  0.21142943889E+04  0.21142943889E+04  0.50400001928E-02 0.  1.
        1   -1    0    0  501    0  0.00000000000E+00  0.00000000000E+00 -0.16800687237E+04  0.16800687237E+04  0.50400001928E-02 0. -1.
    10030    2    1    2    0    0  0.00000000000E+00  0.00000000000E+00  0.43422566524E+03  0.37943631126E+04  0.37694349048E+04 0.  0.
        3    1    3    3  502    0 -0.13015311136E+04 -0.10742091412E+04  0.10618594955E+04  0.19938540862E+04  0.10100000352E+00 0.  1.
       -3    1    3    3    0  502  0.13015311136E+04  0.10742091412E+04 -0.62763383025E+03  0.18005090263E+04  0.10100000352E+00 0. -1.
</event>
<event>
 5   0  0.7124627E-07  0.3722608E+04  0.7818609E-02  0.8062970E-01
        2   -1    0    0  501    0  0.00000000000E+00  0.00000000000E+00  0.21343520250E+04  0.21343520250E+04  0.25500000920E-02 0.  1.
       -2   -1    0    0    0  501  0.00000000000E+00  0.00000000000E+00 -0.16231871557E+04  0.16231871557E+04  0.25500000920E-02 0. -1.
    10030    2    1    2    0    0  0.00000000000E+00  0.00000000000E+00  0.51116486939E+03  0.37575391807E+04  0.37226081140E+04 0.  0.
        2    1    3    3  502    0 -0.11596565478E+04  0.18701415638E+03  0.17129711317E+04  0.20770285751E+04  0.25500000920E-02 0.  1.
       -2    1    3    3    0  502  0.11596565478E+04 -0.18701415638E+03 -0.12018062623E+04  0.16805106056E+04  0.25500000920E-02 0. -1.
</event>
<event>
 5   0  0.2345471E-07  0.3780290E+04  0.7818609E-02  0.8050398E-01
        1   -1    0    0  501    0  0.00000000000E+00  0.00000000000E+00  0.15191105166E+04  0.15191105166E+04  0.50400001928E-02 0. -1.
       -1   -1    0    0    0  501  0.00000000000E+00  0.00000000000E+00 -0.23518027741E+04  0.23518027741E+04  0.50400001928E-02 0.  1.
    10030    2    1    2    0    0  0.00000000000E+00  0.00000000000E+00 -0.83269225751E+03  0.38709132907E+04  0.37802901091E+04 0.  0.
        5    1    3    3  502    0 -0.62904255468E+03  0.78177834970E+03  0.12238502436E+04  0.15826254871E+04  0.46999998093E+01 0. -1.
       -5    1    3    3    0  502  0.62904255468E+03 -0.78177834970E+03 -0.20565425011E+04  0.22882878037E+04  0.46999998093E+01 0.  1.
</event>
<event>
 5   0  0.6949625E-07  0.3559299E+04  0.7818609E-02  0.8099879E-01
       -2   -1    0    0    0  501  0.00000000000E+00  0.00000000000E+00  0.24070521520E+04  0.24070521520E+04  0.25500000920E-02 0.  1.
        2   -1    0    0  501    0  0.00000000000E+00  0.00000000000E+00 -0.13157805280E+04  0.13157805280E+04  0.25500000920E-02 0. -1.
    10030    2    1    2    0    0  0.00000000000E+00  0.00000000000E+00  0.10912716239E+04  0.37228326800E+04  0.35592990049E+04 0.  0.
        5    1    3    3  502    0  0.16032542088E+04 -0.77203406615E+03  0.57270143981E+03  0.18693500706E+04  0.46999998093E+01 0.  1.
       -5    1    3    3    0  502 -0.16032542088E+04  0.77203406615E+03  0.51857018411E+03  0.18534826094E+04  0.46999998093E+01 0. -1.
</event>
<event>
 5   0  0.2287500E-07  0.3669108E+04  0.7818609E-02  0.8074843E-01
        1   -1    0    0  501    0  0.00000000000E+00  0.00000000000E+00  0.17440608479E+04  0.17440608479E+04  0.50400001928E-02 0. -1.
       -1   -1    0    0    0  501  0.00000000000E+00  0.00000000000E+00 -0.19297421336E+04  0.19297421336E+04  0.50400001928E-02 0.  1.
    10030    2    1    2    0    0  0.00000000000E+00  0.00000000000E+00 -0.18568128564E+03  0.36738029815E+04  0.36691076309E+04 0.  0.
        2    1    3    3  502    0  0.12622095959E+04 -0.83318371116E+03  0.94686166959E+03  0.17843528748E+04  0.25500000920E-02 0. -1.
       -2    1    3    3    0  502 -0.12622095959E+04  0.83318371116E+03 -0.11325429552E+04  0.18894501067E+04  0.25500000920E-02 0.  1.
</event>
<event>
 5   0  0.6949625E-07  0.3691442E+04  0.7818609E-02  0.8069861E-01
        2   -1    0    0  501    0  0.00000000000E+00  0.00000000000E+00  0.21915190409E+04  0.21915190409E+04  0.25500000920E-02 0.  1.
       -2   -1    0    0    0  501  0.00000000000E+00  0.00000000000E+00 -0.15544858366E+04  0.15544858366E+04  0.25500000920E-02 0. -1.
    10030    2    1    2    0    0  0.00000000000E+00  0.00000000000E+00  0.63703320430E+03  0.37460048775E+04  0.36914416207E+04 0.  0.
        5    1    3    3  502    0  0.19883071528E+03  0.15445138614E+04  0.13239216153E+04  0.20439782912E+04  0.46999998093E+01 0.  1.
       -5    1    3    3    0  502 -0.19883071528E+03 -0.15445138614E+04 -0.68688841103E+03  0.17020265863E+04  0.46999998093E+01 0. -1.
</event>
<event>
 5   0  0.2411746E-07  0.3564503E+04  0.7818609E-02  0.8098671E-01
        1   -1    0    0  501    0  0.00000000000E+00  0.00000000000E+00  0.18187503866E+04  0.18187503866E+04  0.50400001928E-02 0.  1.
       -1   -1    0    0    0  501  0.00000000000E+00  0.00000000000E+00 -0.17464850134E+04  0.17464850134E+04  0.50400001928E-02 0. -1.
    10030    2    1    2    0    0  0.00000000000E+00  0.00000000000E+00  0.72265373219E+02  0.35652354000E+04  0.35645029349E+04 0.  0.
        1    1    3    3  502    0  0.19591439721E+03  0.72836971406E+03  0.16512448009E+04  0.18153551399E+04  0.50400001928E-02 0.  1.
       -1    1    3    3    0  502 -0.19591439721E+03 -0.72836971406E+03 -0.15789794277E+04  0.17498802601E+04  0.50400001928E-02 0. -1.
</event>
<event>
 5   0  0.2287500E-07  0.3570226E+04  0.7818609E-02  0.8097346E-01
        1   -1    0    0  501    0  0.00000000000E+00  0.00000000000E+00  0.16761708898E+04  0.16761708898E+04  0.50400001928E-02 0.  1.
       -1   -1    0    0    0  501  0.00000000000E+00  0.00000000000E+00 -0.19011352831E+04  0.19011352831E+04  0.50400001928E-02 0. -1.
    10030    2    1    2    0    0  0.00000000000E+00  0.00000000000E+00 -0.22496439329E+03  0.35773061729E+04  0.35702255498E+04 0.  0.
        2    1    3    3  502    0 -0.80445069150E+03 -0.65189844698E+03  0.13445389523E+04  0.16970260736E+04  0.25500000920E-02 0.  1.
       -2    1    3    3    0  502  0.80445069150E+03  0.65189844698E+03 -0.15695033456E+04  0.18802800993E+04  0.25500000920E-02 0. -1.
</event>
<event>
 5   0  0.7300916E-07  0.3758093E+04  0.7818609E-02  0.8055208E-01
       -2   -1    0    0    0  501  0.00000000000E+00  0.00000000000E+00  0.26006609954E+04  0.26006609954E+04  0.25500000920E-02 0.  1.
        2   -1    0    0  501    0  0.00000000000E+00  0.00000000000E+00 -0.13576607808E+04  0.13576607808E+04  0.25500000920E-02 0. -1.
    10030    2    1    2    0    0  0.00000000000E+00  0.00000000000E+00  0.12430002146E+04  0.39583217762E+04  0.37580928343E+04 0.  0.
        1    1    3    3  502    0 -0.13873738339E+04  0.91045311559E+03 -0.30699087209E+03  0.16875942718E+04  0.50400001928E-02 0. -1.
       -1    1    3    3    0  502  0.13873738339E+04 -0.91045311559E+03  0.15499910867E+04  0.22707275044E+04  0.50400001928E-02 0.  1.
</event>
<event>
 5   0  0.7300916E-07  0.3702021E+04  0.7818609E-02  0.8067514E-01
       -2   -1    0    0    0  501  0.00000000000E+00  0.00000000000E+00  0.15521128521E+04  0.15521128521E+04  0.25500000920E-02 0.  1.
        2   -1    0    0  501    0  0.00000000000E+00  0.00000000000E+00 -0.22074685136E+04  0.22074685136E+04  0.25500000920E-02 0. -1.
    10030    2    1    2    0    0  0.00000000000E+00  0.00000000000E+00 -0.65535566146E+03  0.37595813657E+04  0.37020212050E+04 0.  0.
        1    1    3    3  502    0 -0.15573570081E+04  0.83269705909E+03 -0.89082203773E+03  0.19779557998E+04  0.50400001928E-02 0.  1.
       -1    1    3    3    0  502  0.15573570081E+04 -0.83269705909E+03  0.23546637628E+03  0.17816255660E+04  0.50400001928E-02 0. -1.
</event>
<event>
 5   0  0.2287500E-07  0.3668528E+04  0.7818609E-02  0.8074972E-01
       -1   -1    0    0    0  501  0.00000000000E+00  0.00000000000E+00  0.18595669742E+04  0.18595669742E+04  0.50400001928E-02 0. -1.
        1   -1    0    0  501    0  0.00000000000E+00  0.00000000000E+00 -0.18093049374E+04  0.18093049374E+04  0.50400001928E-02 0.  1.
    10030    2    1    2    0    0  0.00000000000E+00  0.00000000000E+00  0.50262036868E+02  0.36688719116E+04  0.36685276108E+04 0.  0.
        4    1    3    3  502    0  0.16794495027E+03  0.40009063892E+03  0.18075003109E+04  0.18588536824E+04  0.12699999809E+01 0. -1.
       -4    1    3    3    0  502 -0.16794495027E+03 -0.40009063892E+03 -0.17572382740E+04  0.18100182293E+04  0.12699999809E+01 0.  1.
</event>
<event>
 5   0  0.6949625E-07  0.3510074E+04  0.7818609E-02  0.8111407E-01
       -2   -1    0    0    0  501  0.00000000000E+00  0.00000000000E+00  0.20604121930E+04  0.20604121930E+04  0.25500000920E-02 0. -1.
        2   -1    0    0  501    0  0.00000000000E+00  0.00000000000E+00 -0.14949214278E+04  0.14949214278E+04  0.25500000920E-02 0.  1.
    10030    2    1    2    0    0  0.00000000000E+00  0.00000000000E+00  0.56549076515E+03  0.35553336208E+04  0.35100736957E+04 0.  0.
        5    1    3    3  502    0 -0.16961206194E+04  0.25312681496E+02 -0.17324423942E+03  0.17051397432E+04  0.46999998093E+01 0.  1.
       -5    1    3    3    0  502  0.16961206194E+04 -0.25312681496E+02  0.73873500457E+03  0.18501938775E+04  0.46999998093E+01 0. -1.
</event>
<event>
 5   0  0.2345471E-07  0.3706437E+04  0.7818609E-02  0.8066537E-01
        1   -1    0    0  501    0  0.00000000000E+00  0.00000000000E+00  0.27000557087E+04  0.27000557087E+04  0.50400001928E-02 0.  1.
       -1   -1    0    0    0  501  0.00000000000E+00  0.00000000000E+00 -0.12719804522E+04  0.12719804522E+04  0.50400001928E-02 0. -1.
    10030    2    1    2    0    0  0.00000000000E+00  0.00000000000E+00  0.14280752565E+04  0.39720361609E+04  0.37064366074E+04 0.  0.
        5    1    3    3  502    0  0.78049379593E+03 -0.12992995401E+04  0.18567729705E+04  0.23968683348E+04  0.46999998093E+01 0. -1.
       -5    1    3    3    0  502 -0.78049379593E+03  0.12992995401E+04 -0.42869771403E+03  0.15751678261E+04  0.46999998093E+01 0.  1.
</event>
<event>
 5   0  0.2287500E-07  0.3827983E+04  0.7818609E-02  0.8040176E-01
       -1   -1    0    0    0  501  0.00000000000E+00  0.00000000000E+00  0.15121637895E+04  0.15121637895E+04  0.50400001928E-02 0.  1.
        1   -1    0    0  501    0  0.00000000000E+00  0.00000000000E+00 -0.24225975524E+04  0.24225975524E+04  0.50400001928E-02 0. -1.
    10030    2    1    2    0    0  0.00000000000E+00  0.00000000000E+00 -0.91043376290E+03  0.39347613419E+04  0.38279834353E+04 0.  0.
        2    1    3    3  502    0  0.11015202681E+04  0.12411095574E+04 -0.14355845042E+04  0.21942202951E+04  0.25500000920E-02 0. -1.
       -2    1    3    3    0  502 -0.11015202681E+04 -0.12411095574E+04  0.52515074126E+03  0.17405410468E+04  0.25500000920E-02 0.  1.
</event>
<event>
 5   0  0.6949625E-07  0.3701917E+04  0.7818609E-02  0.8067537E-01
       -2   -1    0    0    0  501  0.00000000000E+00  0.00000000000E+00  0.14092031344E+04  0.14092031344E+04  0.25500000920E-02 0.  1.
        2   -1    0    0  501    0  0.00000000000E+00  0.00000000000E+00 -0.24311942069E+04  0.24311942069E+04  0.25500000920E-02 0. -1.
    10030    2    1    2    0    0  0.00000000000E+00  0.00000000000E+00 -0.10219910725E+04  0.38403973413E+04  0.37019165289E+04 0.  0.
        5    1    3    3  502    0 -0.13801373228E+04  0.11902058296E+04 -0.17538894332E+03  0.18308883959E+04  0.46999998093E+01 0.  1.
       -5    1    3    3    0  502  0.13801373228E+04 -0.11902058296E+04 -0.84660212915E+03  0.20095089455E+04  0.46999998093E+01 0. -1.
</event>
<event>
 5   0  0.7300916E-07  0.3603021E+04  0.7818609E-02  0.8089800E-01
        2   -1    0    0  501    0  0.00000000000E+00  0.00000000000E+00  0.16658647460E+04  0.16658647460E+04  0.25500000920E-02 0.  1.
       -2   -1    0    0    0  501  0.00000000000E+00  0.00000000000E+00 -0.19482017809E+04  0.19482017809E+04  0.25500000920E-02 0. -1.
    10030    2    1    2    0    0  0.00000000000E+00  0.00000000000E+00 -0.28233703492E+03  0.36140665269E+04  0.36030213238E+04 0.  0.
        1    1    3    3  502    0  0.51188008668E+03 -0.39182392229E+03 -0.18285541724E+04  0.19388547059E+04  0.50400001928E-02 0. -1.
       -1    1    3    3    0  502 -0.51188008668E+03  0.39182392229E+03  0.15462171374E+04  0.16752118210E+04  0.50400001928E-02 0.  1.
</event>
<event>
 5   0  0.2287500E-07  0.3710871E+04  0.7818609E-02  0.8065557E-01
        1   -1    0    0  501    0  0.00000000000E+00  0.00000000000E+00  0.12362698185E+04  0.12362698185E+04  0.50400001928E-02 0.  1.
       -1   -1    0    0    0  501  0.00000000000E+00  0.00000000000E+00 -0.27847006495E+04  0.27847006495E+04  0.50400001928E-02 0. -1.
    10030    2    1    2    0    0  0.00000000000E+00  0.00000000000E+00 -0.15484308310E+04  0.40209704680E+04  0.37108712543E+04 0.  0.
        2    1    3    3  502    0  0.40862792866E+03  0.17408299752E+04 -0.13107449106E+04  0.22170967519E+04  0.25500000920E-02 0.  1.
       -2    1    3    3    0  502 -0.40862792866E+03 -0.17408299752E+04 -0.23768592041E+03  0.18038737160E+04  0.25500000920E-02 0. -1.
</event>
<event>
 5   0  0.2345471E-07  0.3633969E+04  0.7818609E-02  0.8082755E-01
       -1   -1    0    0    0  501  0.00000000000E+00  0.00000000000E+00  0.28358633311E+04  0.28358633311E+04  0.50400001928E-02 0. -1.
        1   -1    0    0  501    0  0.00000000000E+00  0.00000000000E+00 -0.11641718368E+04  0.11641718369E+04  0.50400001928E-02 0.  1.
    10030    2    1    2    0    0  0.00000000000E+00  0.00000000000E+00  0.16716914943E+04  0.40000351680E+04  0.36339687523E+04 0.  0.
        5    1    3    3  502    0 -0.12474138141E+04  0.99560902883E+03 -0.12004043216E+03  0.16005343974E+04  0.46999998093E+01 0.  1.
       -5    1    3    3    0  502  0.12474138141E+04 -0.99560902883E+03  0.17917319264E+04  0.23995007706E+04  0.46999998093E+01 0. -1.
</event>
<event>
 5   0  0.2287500E-07  0.3310743E+04  0.7818609E-02  0.8160167E-01
        1   -1    0    0  501    0  0.00000000000E+00  0.00000000000E+00  0.17734206248E+04  0.17734206248E+04  0.50400001928E-02 0. -1.
       -1   -1    0    0    0  501  0.00000000000E+00  0.00000000000E+00 -0.15451806267E+04  0.15451806267E+04  0.50400001928E-02 0.  1.
    10030    2    1    2    0    0  0.00000000000E+00  0.00000000000E+00  0.22823999806E+03  0.33186012515E+04  0.33107432352E+04 0.  0.
        3    1    3    3  502    0 -0.15823099476E+04 -0.27937147774E+02 -0.37259393236E+03  0.16258264062E+04  0.10100000352E+00 0.  1.
       -3    1    3    3    0  502  0.15823099476E+04  0.27937147774E+02  0.60083393043E+03  0.16927748453E+04  0.10100000352E+00 0. -1.
</event>
<event>
 5   0  0.2287500E-07  0.3700733E+04  0.7818609E-02  0.8067799E-01
        1   -1    0    0  501    0  0.00000000000E+00  0.00000000000E+00  0.14547435407E+04  0.14547435407E+04  0.50400001928E-02 0. -1.
       -1   -1    0    0    0  501  0.00000000000E+00  0.00000000000E+00 -0.23535812256E+04  0.23535812256E+04  0.50400001928E-02 0.  1.
    10030    2    1    2    0    0  0.00000000000E+00  0.00000000000E+00 -0.89883768487E+03  0.38083247663E+04  0.37007334871E+04 0.  0.
        3    1    3    3  502    0  0.55647199317E+03  0.75691224651E+03 -0.20899044076E+04  0.22913484395E+04  0.10100000352E+00 0.  1.
       -3    1    3    3    0  502 -0.55647199317E+03 -0.75691224651E+03  0.11910667227E+04  0.15169763269E+04  0.10100000352E+00 0. -1.
</event>
<event>
 5   0  0.2345471E-07  0.2853359E+04  0.7818609E-02  0.8286891E-01
        1   -1    0    0  501    0  0.00000000000E+00  0.00000000000E+00  0.58212485297E+03  0.58212485300E+03  0.50400001928E-02 0. -1.
       -1   -1    0    0    0  501  0.00000000000E+00  0.00000000000E+00 -0.34965251206E+04  0.34965251206E+04  0.50400001928E-02 0.  1.
    10030    2    1    2    0    0  0.00000000000E+00  0.00000000000E+00 -0.29144002676E+04  0.40786499736E+04  0.28533588431E+04 0.  0.
        5    1    3    3  502    0 -0.58213298509E+03  0.10020343404E+04 -0.26773625389E+03  0.11893933005E+04  0.46999998093E+01 0. -1.
       -5    1    3    3    0  502  0.58213298509E+03 -0.10020343404E+04 -0.26466640138E+04  0.28892566731E+04  0.46999998093E+01 0.  1.
</event>
<event>
 5   0  0.2287500E-07  0.3691608E+04  0.7818609E-02  0.8069824E-01
       -1   -1    0    0    0  501  0.00000000000E+00  0.00000000000E+00  0.10796083992E+04  0.10796083992E+04  0.50400001928E-02 0.  1.
        1   -1    0    0  501    0  0.00000000000E+00  0.00000000000E+00 -0.31557673263E+04  0.31557673264E+04  0.50400001928E-02 0. -1.
    10030    2    1    2    0    0  0.00000000000E+00  0.00000000000E+00 -0.20761589271E+04  0.42353757256E+04  0.36916082736E+04 0.  0.
        4    1    3    3  502    0  0.22422327585E+03  0.59618283105E+03 -0.30256826316E+04  0.30920004925E+04  0.12699999809E+01 0. -1.
       -4    1    3    3    0  502 -0.22422327585E+03 -0.59618283105E+03  0.94952370444E+03  0.11433752331E+04  0.12699999809E+01 0.  1.
</event>
<event>
 5   0  0.2345471E-07  0.3723675E+04  0.7818609E-02  0.8062735E-01
        1   -1    0    0  501    0  0.00000000000E+00  0.00000000000E+00  0.23695081426E+04  0.23695081426E+04  0.50400001928E-02 0. -1.
       -1   -1    0    0    0  501  0.00000000000E+00  0.00000000000E+00 -0.14629360286E+04  0.14629360286E+04  0.50400001928E-02 0.  1.
    10030    2    1    2    0    0  0.00000000000E+00  0.00000000000E+00  0.90657211392E+03  0.38324441712E+04  0.37236749761E+04 0.  0.
        5    1    3    3  502    0  0.18303515914E+04  0.26150333619E+03  0.67841222369E+03  0.19694761177E+04  0.46999998093E+01 0.  1.
       -5    1    3    3    0  502 -0.18303515914E+04 -0.26150333619E+03  0.22815989023E+03  0.18629680535E+04  0.46999998093E+01 0. -1.
</event>
<event>
 5   0  0.6939921E-07  0.3726837E+04  0.7818609E-02  0.8062040E-01
       -2   -1    0    0    0  501  0.00000000000E+00  0.00000000000E+00  0.19807632397E+04  0.19807632397E+04  0.25500000920E-02 0. -1.
        2   -1    0    0  501    0  0.00000000000E+00  0.00000000000E+00 -0.17530250930E+04  0.17530250930E+04  0.25500000920E-02 0.  1.
    10030    2    1    2    0    0  0.00000000000E+00  0.00000000000E+00  0.22773814676E+03  0.37337883327E+04  0.37268365472E+04 0.  0.
        4    1    3    3  502    0 -0.25277184029E+03  0.85989168377E+03  0.17506296651E+04  0.19667265057E+04  0.12699999809E+01 0. -1.
       -4    1    3    3    0  502  0.25277184029E+03 -0.85989168377E+03 -0.15228915183E+04  0.17670618270E+04  0.12699999809E+01 0.  1.
</event>
<event>
 5   0  0.2345471E-07  0.3682573E+04  0.7818609E-02  0.8071835E-01
       -1   -1    0    0    0  501  0.00000000000E+00  0.00000000000E+00  0.28871838972E+04  0.28871838972E+04  0.50400001928E-02 0. -1.
        1   -1    0    0  501    0  0.00000000000E+00  0.00000000000E+00 -0.11742710737E+04  0.11742710738E+04  0.50400001928E-02 0.  1.
    10030    2    1    2    0    0  0.00000000000E+00  0.00000000000E+00  0.17129128234E+04  0.40614549709E+04  0.36825733041E+04 0.  0.
        5    1    3    3  502    0 -0.52838543494E+03  0.12405693830E+04  0.22392960797E+04  0.26139381371E+04  0.46999998093E+01 0. -1.
       -5    1    3    3    0  502  0.52838543494E+03 -0.12405693830E+04 -0.52638325628E+03  0.14475168339E+04  0.46999998093E+01 0.  1.
</event>
<event>
 5   0  0.7074157E-07  0.3691967E+04  0.7818609E-02  0.8069744E-01
       -2   -1    0    0    0  501  0.00000000000E+00  0.00000000000E+00  0.18925240567E+04  0.18925240567E+04  0.25500000920E-02 0. -1.
        2   -1    0    0  501    0  0.00000000000E+00  0.00000000000E+00 -0.18005876584E+04  0.18005876584E+04  0.25500000920E-02 0.  1.
    10030    2    1    2    0    0  0.00000000000E+00  0.00000000000E+00  0.91936398277E+02  0.36931117150E+04  0.36919672044E+04 0.  0.
        3    1    3    3  502    0 -0.34476018694E+03  0.30535469653E+03 -0.17421973202E+04  0.18020412287E+04  0.10100000352E+00 0.  1.
       -3    1    3    3    0  502  0.34476018694E+03 -0.30535469653E+03  0.18341337184E+04  0.18910704864E+04  0.10100000352E+00 0. -1.
</event>
<event>
 5   0  0.7074157E-07  0.3655844E+04  0.7818609E-02  0.8077818E-01
        2   -1    0    0  501    0  0.00000000000E+00  0.00000000000E+00  0.23967150784E+04  0.23967150784E+04  0.25500000920E-02 0.  1.
       -2   -1    0    0    0  501  0.00000000000E+00  0.00000000000E+00 -0.13941159984E+04  0.13941159984E+04  0.25500000920E-02 0. -1.
    10030    2    1    2    0    0  0.00000000000E+00  0.00000000000E+00  0.10025990801E+04  0.37908310768E+04  0.36558439979E+04 0.  0.
        3    1    3    3  502    0  0.26068685299E+03  0.30185391856E+02  0.23770798024E+04  0.23915219402E+04  0.10100000352E+00 0.  1.
       -3    1    3    3    0  502 -0.26068685299E+03 -0.30185391856E+02 -0.13744807224E+04  0.13993091365E+04  0.10100000352E+00 0. -1.
</event>
<event>
 5   0  0.6949625E-07  0.3677089E+04  0.7818609E-02  0.8073058E-01
       -2   -1    0    0    0  501  0.00000000000E+00  0.00000000000E+00  0.18765185141E+04  0.18765185141E+04  0.25500000920E-02 0.  1.
        2   -1    0    0  501    0  0.00000000000E+00  0.00000000000E+00 -0.18013391108E+04  0.18013391108E+04  0.25500000920E-02 0. -1.
    10030    2    1    2    0    0  0.00000000000E+00  0.00000000000E+00  0.75179403323E+02  0.36778576248E+04  0.36770891702E+04 0.  0.
        5    1    3    3  502    0  0.15273925866E+04  0.56955969976E+03 -0.81282191432E+03  0.18215454756E+04  0.46999998093E+01 0. -1.
       -5    1    3    3    0  502 -0.15273925866E+04 -0.56955969976E+03  0.88800131764E+03  0.18563121492E+04  0.46999998093E+01 0.  1.
</event>
<event>
 5   0  0.6949625E-07  0.3697004E+04  0.7818609E-02  0.8068626E-01
       -2   -1    0    0    0  501  0.00000000000E+00  0.00000000000E+00  0.14259761657E+04  0.14259761657E+04  0.25500000920E-02 0. -1.
        2   -1    0    0  501    0  0.00000000000E+00  0.00000000000E+00 -0.23962250409E+04  0.23962250409E+04  0.25500000920E-02 0.  1.
    10030    2    1    2    0    0  0.00000000000E+00  0.00000000000E+00 -0.97024887514E+03  0.38222012066E+04  0.36970040823E+04 0.  0.
        5    1    3    3  502    0 -0.22199210096E+03  0.15102446081E+04  0.59268532675E+03  0.16375033605E+04  0.46999998093E+01 0. -1.
       -5    1    3    3    0  502  0.22199210096E+03 -0.15102446081E+04 -0.15629342019E+04  0.21846978461E+04  0.46999998093E+01 0.  1.
</event>
<event>
 5   0  0.2345471E-07  0.3027251E+04  0.7818609E-02  0.8235992E-01
        1   -1    0    0  501    0  0.00000000000E+00  0.00000000000E+00  0.15650605280E+04  0.15650605280E+04  0.50400001928E-02 0.  1.
       -1   -1    0    0    0  501  0.00000000000E+00  0.00000000000E+00 -0.14638805109E+04  0.14638805109E+04  0.50400001928E-02 0. -1.
    10030    2    1    2    0    0  0.00000000000E+00  0.00000000000E+00  0.10118001712E+03  0.30289410389E+04  0.30272506373E+04 0.  0.
        5    1    3    3  502    0 -0.13070561623E+04 -0.89110782340E+02 -0.70792497089E+03  0.14891327669E+04  0.46999998093E+01 0. -1.
       -5    1    3    3    0  502  0.13070561623E+04  0.89110782340E+02  0.80910498801E+03  0.15398082720E+04  0.46999998093E+01 0.  1.
</event>
<event>
 5   0  0.2287500E-07  0.3726562E+04  0.7818609E-02  0.8062101E-01
       -1   -1    0    0    0  501  0.00000000000E+00  0.00000000000E+00  0.12842452180E+04  0.12842452180E+04  0.50400001928E-02 0. -1.
        1   -1    0    0  501    0  0.00000000000E+00  0.00000000000E+00 -0.27033901032E+04  0.27033901032E+04  0.50400001928E-02 0.  1.
    10030    2    1    2    0    0  0.00000000000E+00  0.00000000000E+00 -0.14191448852E+04  0.39876353212E+04  0.37265618538E+04 0.  0.
        2    1    3    3  502    0 -0.84731318121E+03  0.37321225317E+03  0.10206773199E+04  0.13780454290E+04  0.25500000920E-02 0. -1.
       -2    1    3    3    0  502  0.84731318121E+03 -0.37321225317E+03 -0.24398222051E+04  0.26095898922E+04  0.25500000920E-02 0.  1.
</event>
<event>
 5   0  0.6949625E-07  0.3732775E+04  0.7818609E-02  0.8060737E-01
       -2   -1    0    0    0  501  0.00000000000E+00  0.00000000000E+00  0.27222566412E+04  0.27222566412E+04  0.25500000920E-02 0. -1.
        2   -1    0    0  501    0  0.00000000000E+00  0.00000000000E+00 -0.12796009762E+04  0.12796009762E+04  0.25500000920E-02 0.  1.
    10030    2    1    2    0    0  0.00000000000E+00  0.00000000000E+00  0.14426556651E+04  0.40018576174E+04  0.37327749761E+04 0.  0.
        5    1    3    3  502    0 -0.16813572164E+04  0.28355822544E+03  0.15349933164E+04  0.22942523679E+04  0.46999998093E+01 0. -1.
       -5    1    3    3    0  502  0.16813572164E+04 -0.28355822544E+03 -0.92337651351E+02  0.17076052495E+04  0.46999998093E+01 0.  1.
</event>
<event>
 5   0  0.7300916E-07  0.3564292E+04  0.7818609E-02  0.8098720E-01
       -2   -1    0    0    0  501  0.00000000000E+00  0.00000000000E+00  0.16207735712E+04  0.16207735712E+04  0.25500000920E-02 0. -1.
        2   -1    0    0  501    0  0.00000000000E+00  0.00000000000E+00 -0.19595849590E+04  0.19595849590E+04  0.25500000920E-02 0.  1.
    10030    2    1    2    0    0  0.00000000000E+00  0.00000000000E+00 -0.33881138775E+03  0.35803585302E+04  0.35642915212E+04 0.  0.
        1    1    3    3  502    0 -0.16598962839E+04 -0.20187253762E+03  0.44984325755E+03  0.17315793805E+04  0.50400001928E-02 0. -1.
       -1    1    3    3    0  502  0.16598962839E+04  0.20187253762E+03 -0.78865464530E+03  0.18487791497E+04  0.50400001928E-02 0.  1.
</event>
<event>
 5   0  0.2287500E-07  0.2857278E+04  0.7818609E-02  0.8285703E-01
       -1   -1    0    0    0  501  0.00000000000E+00  0.00000000000E+00  0.10566391497E+04  0.10566391498E+04  0.50400001928E-02 0. -1.
        1   -1    0    0  501    0  0.00000000000E+00  0.00000000000E+00 -0.19316044537E+04  0.19316044537E+04  0.50400001928E-02 0.  1.
    10030    2    1    2    0    0  0.00000000000E+00  0.00000000000E+00 -0.87496530394E+03  0.29882436034E+04  0.28572776467E+04 0.  0.
        2    1    3    3  502    0 -0.70279351704E+02 -0.14114433901E+04 -0.21836253770E+03  0.14299628767E+04  0.25500000920E-02 0.  1.
       -2    1    3    3    0  502  0.70279351704E+02  0.14114433901E+04 -0.65660276624E+03  0.15582807268E+04  0.25500000920E-02 0. -1.
</event>
<event>
 5   0  0.7300916E-07  0.3705625E+04  0.7818609E-02  0.8066716E-01
       -2   -1    0    0    0  501  0.00000000000E+00  0.00000000000E+00  0.22700541965E+04  0.22700541965E+04  0.25500000920E-02 0. -1.
        2   -1    0    0  501    0  0.00000000000E+00  0.00000000000E+00 -0.15122607182E+04  0.15122607182E+04  0.25500000920E-02 0.  1.
    10030    2    1    2    0    0  0.00000000000E+00  0.00000000000E+00  0.75779347835E+03  0.37823149147E+04  0.37056248000E+04 0.  0.
        1    1    3    3  502    0 -0.29075536622E+03  0.16241828932E+04  0.12391954196E+04  0.20635198185E+04  0.50400001928E-02 0. -1.
       -1    1    3    3    0  502  0.29075536622E+03 -0.16241828932E+04 -0.48140194120E+03  0.17187950962E+04  0.50400001928E-02 0.  1.
</event>
<event>
 5   0  0.2287500E-07  0.3714565E+04  0.7818609E-02  0.8064742E-01
       -1   -1    0    0    0  501  0.00000000000E+00  0.00000000000E+00  0.15404558590E+04  0.15404558590E+04  0.50400001928E-02 0. -1.
        1   -1    0    0  501    0  0.00000000000E+00  0.00000000000E+00 -0.22392713322E+04  0.22392713322E+04  0.50400001928E-02 0.  1.
    10030    2    1    2    0    0  0.00000000000E+00  0.00000000000E+00 -0.69881547318E+03  0.37797271912E+04  0.37145651932E+04 0.  0.
        4    1    3    3  502    0 -0.68519490958E+03  0.80705853049E+03 -0.19021724426E+04  0.21769467495E+04  0.12699999809E+01 0.  1.
       -4    1    3    3    0  502  0.68519490958E+03 -0.80705853049E+03  0.12033569694E+04  0.16027804418E+04  0.12699999809E+01 0. -1.
</event>
<event>
 5   0  0.7074157E-07  0.3657297E+04  0.7818609E-02  0.8077492E-01
       -2   -1    0    0    0  501  0.00000000000E+00  0.00000000000E+00  0.18875235765E+04  0.18875235765E+04  0.25500000920E-02 0.  1.
        2   -1    0    0  501    0  0.00000000000E+00  0.00000000000E+00 -0.17716097921E+04  0.17716097921E+04  0.25500000920E-02 0. -1.
    10030    2    1    2    0    0  0.00000000000E+00  0.00000000000E+00  0.11591378440E+03  0.36591333686E+04  0.36572969532E+04 0.  0.
        3    1    3    3  502    0 -0.10677086930E+04 -0.62812986049E+03 -0.12878602625E+04  0.17869339777E+04  0.10100000352E+00 0. -1.
       -3    1    3    3    0  502  0.10677086930E+04  0.62812986049E+03  0.14037740469E+04  0.18721993910E+04  0.10100000352E+00 0.  1.
</event>
<event>
 5   0  0.2287500E-07  0.3694036E+04  0.7818609E-02  0.8069285E-01
       -1   -1    0    0    0  501  0.00000000000E+00  0.00000000000E+00  0.22079548046E+04  0.22079548046E+04  0.50400001928E-02 0.  1.
        1   -1    0    0  501    0  0.00000000000E+00  0.00000000000E+00 -0.15450837840E+04  0.15450837840E+04  0.50400001928E-02 0. -1.
    10030    2    1    2    0    0  0.00000000000E+00  0.00000000000E+00  0.66287102065E+03  0.37530385886E+04  0.36940358224E+04 0.  0.
        4    1    3    3  502    0  0.17568544637E+04  0.36850706777E+02  0.90936040218E+03  0.19785938277E+04  0.12699999809E+01 0. -1.
       -4    1    3    3    0  502 -0.17568544637E+04 -0.36850706777E+02 -0.24648938153E+03  0.17744447609E+04  0.12699999809E+01 0.  1.
</event>
<event>
 5   0  0.7074157E-07  0.3700031E+04  0.7818609E-02  0.8067955E-01
        2   -1    0    0  501    0  0.00000000000E+00  0.00000000000E+00  0.23830993014E+04  0.23830993014E+04  0.25500000920E-02 0.  1.
       -2   -1    0    0    0  501  0.00000000000E+00  0.00000000000E+00 -0.14361787438E+04  0.14361787438E+04  0.25500000920E-02 0. -1.
    10030    2    1    2    0    0  0.00000000000E+00  0.00000000000E+00  0.94692055760E+03  0.38192780453E+04  0.37000305735E+04 0.  0.
        3    1    3    3  502    0 -0.16278520777E+04 -0.31651759982E+03  0.13199324226E+04  0.21195064020E+04  0.10100000352E+00 0.  1.
       -3    1    3    3    0  502  0.16278520777E+04  0.31651759982E+03 -0.37301186496E+03  0.16997716433E+04  0.10100000352E+00 0. -1.
</event>
<event>
 5   0  0.6939921E-07  0.3752363E+04  0.7818609E-02  0.8056456E-01
        2   -1    0    0  501    0  0.00000000000E+00  0.00000000000E+00  0.19077433287E+04  0.19077433287E+04  0.25500000920E-02 0.  1.
       -2   -1    0    0    0  501  0.00000000000E+00  0.00000000000E+00 -0.18451422155E+04  0.18451422155E+04  0.25500000920E-02 0. -1.
    10030    2    1    2    0    0  0.00000000000E+00  0.00000000000E+00  0.62601113218E+02  0.37528855442E+04  0.37523633897E+04 0.  0.
        4    1    3    3  502    0 -0.10561029284E+04 -0.61511423660E+03  0.14549933615E+04  0.19001910994E+04  0.12699999809E+01 0.  1.
       -4    1    3    3    0  502  0.10561029284E+04  0.61511423660E+03 -0.13923922483E+04  0.18526944447E+04  0.12699999809E+01 0. -1.
</event>
<event>
 5   0  0.7124627E-07  0.3668627E+04  0.7818609E-02  0.8074950E-01
       -2   -1    0    0    0  501  0.00000000000E+00  0.00000000000E+00  0.12792272674E+04  0.12792272674E+04  0.25500000920E-02 0. -1.
        2   -1    0    0  501    0  0.00000000000E+00  0.00000000000E+00 -0.26302644806E+04  0.26302644806E+04  0.25500000920E-02 0.  1.
    10030    2    1    2    0    0  0.00000000000E+00  0.00000000000E+00 -0.13510372133E+04  0.39094917480E+04  0.36686270151E+04 0.  0.
        2    1    3    3  502    0  0.12064290319E+04  0.86724402254E+03  0.47080298864E+03  0.15586015070E+04  0.25500000920E-02 0. -1.
       -2    1    3    3    0  502 -0.12064290319E+04 -0.86724402254E+03 -0.18218402019E+04  0.23508902409E+04  0.25500000920E-02 0.  1.
</event>
<event>
 5   0  0.7124627E-07  0.2839963E+04  0.7818609E-02  0.8290968E-01
        2   -1    0    0  501    0  0.00000000000E+00  0.00000000000E+00  0.16575246507E+04  0.16575246507E+04  0.25500000920E-02 0. -1.
       -2   -1    0    0    0  501  0.00000000000E+00  0.00000000000E+00 -0.12164813464E+04  0.12164813464E+04  0.25500000920E-02 0.  1.
    10030    2    1    2    0    0  0.00000000000E+00  0.00000000000E+00  0.44104330428E+03  0.28740059971E+04  0.28399632524E+04 0.  0.
        2    1    3    3  502    0 -0.89767309560E+03  0.14570085513E+03 -0.88310210582E+03  0.12676415326E+04  0.25500000920E-02 0. -1.
       -2    1    3    3    0  502  0.89767309560E+03 -0.14570085513E+03  0.13241454101E+04  0.16063644645E+04  0.25500000920E-02 0.  1.
</event>
<event>
 5   0  0.2287500E-07  0.3615714E+04  0.7818609E-02  0.8086902E-01
       -1   -1    0    0    0  501  0.00000000000E+00  0.00000000000E+00  0.15981683426E+04  0.15981683426E+04  0.50400001928E-02 0. -1.
        1   -1    0    0  501    0  0.00000000000E+00  0.00000000000E+00 -0.20450579704E+04  0.20450579704E+04  0.50400001928E-02 0.  1.
    10030    2    1    2    0    0  0.00000000000E+00  0.00000000000E+00 -0.44688962776E+03  0.36432263131E+04  0.36157139860E+04 0.  0.
        4    1    3    3  502    0 -0.17208566133E+03 -0.48557785994E+03  0.15226420269E+04  0.16074326387E+04  0.12699999809E+01 0. -1.
       -4    1    3    3    0  502  0.17208566133E+03  0.48557785994E+03 -0.19695316547E+04  0.20357936744E+04  0.12699999809E+01 0.  1.
</event>
<event>
 5   0  0.7124627E-07  0.3739880E+04  0.7818609E-02  0.8059181E-01
        2   -1    0    0  501    0  0.00000000000E+00  0.00000000000E+00  0.26598828859E+04  0.26598828859E+04  0.25500000920E-02 0.  1.
       -2   -1    0    0    0  501  0.00000000000E+00  0.00000000000E+00 -0.13145976591E+04  0.13145976591E+04  0.25500000920E-02 0. -1.
    10030    2    1    2    0    0  0.00000000000E+00  0.00000000000E+00  0.13452852269E+04  0.39744805450E+04  0.37398801132E+04 0.  0.
        2    1    3    3  502    0  0.21497080582E+03 -0.92495152571E+03 -0.10392848323E+04  0.14077857561E+04  0.25500000920E-02 0. -1.
       -2    1    3    3    0  502 -0.21497080582E+03  0.92495152571E+03  0.23845700592E+04  0.25666947889E+04  0.25500000920E-02 0.  1.
</event>
<event>
 5   0  0.6949625E-07  0.3696747E+04  0.7818609E-02  0.8068683E-01
       -2   -1    0    0    0  501  0.00000000000E+00  0.00000000000E+00  0.13557643071E+04  0.13557643071E+04  0.25500000920E-02 0. -1.
        2   -1    0    0  501    0  0.00000000000E+00  0.00000000000E+00 -0.25199689782E+04  0.25199689782E+04  0.25500000920E-02 0.  1.
    10030    2    1    2    0    0  0.00000000000E+00  0.00000000000E+00 -0.11642046711E+04  0.38757332853E+04  0.36967466755E+04 0.  0.
        5    1    3    3  502    0  0.77095574019E+03  0.15607096825E+03 -0.23357291181E+04  0.24646264430E+04  0.46999998093E+01 0.  1.
       -5    1    3    3    0  502 -0.77095574019E+03 -0.15607096825E+03  0.11715244470E+04  0.14111068423E+04  0.46999998093E+01 0. -1.
</event>
<event>
 5   0  0.6949625E-07  0.3623914E+04  0.7818609E-02  0.8085036E-01
       -2   -1    0    0    0  501  0.00000000000E+00  0.00000000000E+00  0.13651536874E+04  0.13651536874E+04  0.25500000920E-02 0.  1.
        2   -1    0    0  501    0  0.00000000000E+00  0.00000000000E+00 -0.24049948969E+04  0.24049948969E+04  0.25500000920E-02 0. -1.
    10030    2    1    2    0    0  0.00000000000E+00  0.00000000000E+00 -0.10398412095E+04  0.37701485842E+04  0.36239137140E+04 0.  0.
        5    1    3    3  502    0  0.17410927578E+04  0.37514610671E+02 -0.10404653655E+04  0.20286452633E+04  0.46999998093E+01 0.  1.
       -5    1    3    3    0  502 -0.17410927578E+04 -0.37514610671E+02  0.62415601188E+00  0.17415033210E+04  0.46999998093E+01 0. -1.
</event>
<event>
 5   0  0.7074157E-07  0.3677820E+04  0.7818609E-02  0.8072895E-01
        2   -1    0    0  501    0  0.00000000000E+00  0.00000000000E+00  0.30743582476E+04  0.30743582476E+04  0.25500000920E-02 0. -1.
       -2   -1    0    0    0  501  0.00000000000E+00  0.00000000000E+00 -0.10999335217E+04  0.10999335217E+04  0.25500000920E-02 0.  1.
    10030    2    1    2    0    0  0.00000000000E+00  0.00000000000E+00  0.19744247259E+04  0.41742917693E+04  0.36778198402E+04 0.  0.
        3    1    3    3  502    0 -0.14055765826E+04 -0.11642484142E+04  0.73223121331E+03  0.19665407343E+04  0.10100000352E+00 0.  1.
       -3    1    3    3    0  502  0.14055765826E+04  0.11642484142E+04  0.12421935125E+04  0.22077510350E+04  0.10100000352E+00 0. -1.
</event>
<event>
 5   0  0.2345471E-07  0.3703574E+04  0.7818609E-02  0.8067170E-01
       -1   -1    0    0    0  501  0.00000000000E+00  0.00000000000E+00  0.17169216652E+04  0.17169216652E+04  0.50400001928E-02 0.  1.
        1   -1    0    0  501    0  0.00000000000E+00  0.00000000000E+00 -0.19972463847E+04  0.19972463847E+04  0.50400001928E-02 0. -1.
    10030    2    1    2    0    0  0.00000000000E+00  0.00000000000E+00 -0.28032471952E+03  0.37141680499E+04  0.37035742675E+04 0.  0.
        5    1    3    3  502    0  0.91013657869E+03  0.24687750879E+03  0.14580700884E+04  0.17364583406E+04  0.46999998093E+01 0.  1.
       -5    1    3    3    0  502 -0.91013657869E+03 -0.24687750879E+03 -0.17383948079E+04  0.19777097093E+04  0.46999998093E+01 0. -1.
</event>
<event>
 5   0  0.2411746E-07  0.3716949E+04  0.7818609E-02  0.8064216E-01
        1   -1    0    0  501    0  0.00000000000E+00  0.00000000000E+00  0.14061908727E+04  0.14061908727E+04  0.50400001928E-02 0.  1.
       -1   -1    0    0    0  501  0.00000000000E+00  0.00000000000E+00 -0.24562290175E+04  0.24562290175E+04  0.50400001928E-02 0. -1.
    10030    2    1    2    0    0  0.00000000000E+00  0.00000000000E+00 -0.10500381448E+04  0.38624198902E+04  0.37169486548E+04 0.  0.
        1    1    3    3  502    0  0.18568803916E+04 -0.29102064692E+02 -0.59904698632E+03  0.19513351867E+04  0.50400001928E-02 0. -1.
       -1    1    3    3    0  502 -0.18568803916E+04  0.29102064692E+02 -0.45099115847E+03  0.19110847035E+04  0.50400001928E-02 0.  1.
</event>
<event>
 5   0  0.7074157E-07  0.3625496E+04  0.7818609E-02  0.8084676E-01
        2   -1    0    0  501    0  0.00000000000E+00  0.00000000000E+00  0.29460780133E+04  0.29460780133E+04  0.25500000920E-02 0.  1.
       -2   -1    0    0    0  501  0.00000000000E+00  0.00000000000E+00 -0.11153996780E+04  0.11153996780E+04  0.25500000920E-02 0. -1.
    10030    2    1    2    0    0  0.00000000000E+00  0.00000000000E+00  0.18306783353E+04  0.40614776913E+04  0.36254955344E+04 0.  0.
        3    1    3    3  502    0 -0.15543931504E+04  0.93155500798E+03  0.86373860756E+03  0.20074803091E+04  0.10100000352E+00 0. -1.
       -3    1    3    3    0  502  0.15543931504E+04 -0.93155500798E+03  0.96693972777E+03  0.20539973822E+04  0.10100000352E+00 0.  1.
</event>
<event>
 5   0  0.2287500E-07  0.2921203E+04  0.7818609E-02  0.8266597E-01
        1   -1    0    0  501    0  0.00000000000E+00  0.00000000000E+00  0.23802521872E+04  0.23802521872E+04  0.50400001928E-02 0. -1.
       -1   -1    0    0    0  501  0.00000000000E+00  0.00000000000E+00 -0.89627319414E+03  0.89627319415E+03  0.50400001928E-02 0.  1.
    10030    2    1    2    0    0  0.00000000000E+00  0.00000000000E+00  0.14839789930E+04  0.32765253813E+04  0.29212026501E+04 0.  0.
        2    1    3    3  502    0 -0.58634014220E+03  0.59664715546E+02 -0.75697991707E+03  0.95936084738E+03  0.25500000920E-02 0.  1.
       -2    1    3    3    0  502  0.58634014220E+03 -0.59664715546E+02  0.22409589101E+04  0.23171645339E+04  0.25500000920E-02 0. -1.
</event>
<event>
 5   0  0.6939921E-07  0.3728060E+04  0.7818609E-02  0.8061772E-01
        2   -1    0    0  501    0  0.00000000000E+00  0.00000000000E+00  0.19175417212E+04  0.19175417212E+04  0.25500000920E-02 0.  1.
       -2   -1    0    0    0  501  0.00000000000E+00  0.00000000000E+00 -0.18120114279E+04  0.18120114279E+04  0.25500000920E-02 0. -1.
    10030    2    1    2    0    0  0.00000000000E+00  0.00000000000E+00  0.10553029333E+03  0.37295531491E+04  0.37280598237E+04 0.  0.
        4    1    3    3  502    0  0.16353824205E+04 -0.74193437485E+02  0.94453994764E+03  0.18900099611E+04  0.12699999809E+01 0.  1.
       -4    1    3    3    0  502 -0.16353824205E+04  0.74193437485E+02 -0.83900965431E+03  0.18395431880E+04  0.12699999809E+01 0. -1.
</event>
<event>
 5   0  0.2287500E-07  0.3039937E+04  0.7818609E-02  0.8232418E-01
        1   -1    0    0  501    0  0.00000000000E+00  0.00000000000E+00  0.15045834818E+04  0.15045834818E+04  0.50400001928E-02 0. -1.
       -1   -1    0    0    0  501  0.00000000000E+00  0.00000000000E+00 -0.15355108636E+04  0.15355108636E+04  0.50400001928E-02 0.  1.
    10030    2    1    2    0    0  0.00000000000E+00  0.00000000000E+00 -0.30927381794E+02  0.30400943453E+04  0.30399370266E+04 0.  0.
        4    1    3    3  502    0 -0.13041097582E+04 -0.75523191240E+03  0.18259999932E+03  0.15180322380E+04  0.12699999809E+01 0. -1.
       -4    1    3    3    0  502  0.13041097582E+04  0.75523191240E+03 -0.21352738111E+03  0.15220621073E+04  0.12699999809E+01 0.  1.
</event>
<event>
 5   0  0.6939921E-07  0.3692471E+04  0.7818609E-02  0.8069632E-01
       -2   -1    0    0    0  501  0.00000000000E+00  0.00000000000E+00  0.15280764441E+04  0.15280764441E+04  0.25500000920E-02 0. -1.
        2   -1    0    0  501    0  0.00000000000E+00  0.00000000000E+00 -0.22306375353E+04  0.22306375353E+04  0.25500000920E-02 0.  1.
    10030    2    1    2    0    0  0.00000000000E+00  0.00000000000E+00 -0.70256109124E+03  0.37587139794E+04  0.36924705404E+04 0.  0.
        4    1    3    3  502    0 -0.40234672063E+03 -0.97790905093E+03  0.11892749405E+04  0.15914036234E+04  0.12699999809E+01 0. -1.
       -4    1    3    3    0  502  0.40234672063E+03  0.97790905093E+03 -0.18918360317E+04  0.21673103560E+04  0.12699999809E+01 0.  1.
</event>
<event>
 5   0  0.7300916E-07  0.3063384E+04  0.7818609E-02  0.8225859E-01
       -2   -1    0    0    0  501  0.00000000000E+00  0.00000000000E+00  0.80713017123E+03  0.80713017124E+03  0.25500000920E-02 0. -1.
        2   -1    0    0  501    0  0.00000000000E+00  0.00000000000E+00 -0.29066936523E+04  0.29066936523E+04  0.25500000920E-02 0.  1.
    10030    2    1    2    0    0  0.00000000000E+00  0.00000000000E+00 -0.20995634811E+04  0.37138238235E+04  0.30633838449E+04 0.  0.
        1    1    3    3  502    0  0.63815590811E+03  0.96398190349E+03  0.16833638209E+03  0.11682641871E+04  0.50400001928E-02 0. -1.
       -1    1    3    3    0  502 -0.63815590811E+03 -0.96398190349E+03 -0.22678998631E+04  0.25455596364E+04  0.50400001928E-02 0.  1.
</event>
<event>
 5   0  0.7124627E-07  0.3447388E+04  0.7818609E-02  0.8126373E-01
       -2   -1    0    0    0  501  0.00000000000E+00  0.00000000000E+00  0.17027965464E+04  0.17027965464E+04  0.25500000920E-02 0. -1.
        2   -1    0    0  501    0  0.00000000000E+00  0.00000000000E+00 -0.17448474375E+04  0.17448474375E+04  0.25500000920E-02 0.  1.
    10030    2    1    2    0    0  0.00000000000E+00  0.00000000000E+00 -0.42050891062E+02  0.34476439839E+04  0.34473875271E+04 0.  0.
        2    1    3    3  502    0 -0.76292900505E+03 -0.88409498144E+03 -0.12889665940E+04  0.17392870618E+04  0.25500000920E-02 0.  1.
       -2    1    3    3    0  502  0.76292900505E+03  0.88409498144E+03  0.12469157029E+04  0.17083569221E+04  0.25500000920E-02 0. -1.
</event>
<event>
 5   0  0.2287500E-07  0.3682523E+04  0.7818609E-02  0.8071846E-01
       -1   -1    0    0    0  501  0.00000000000E+00  0.00000000000E+00  0.16381334436E+04  0.16381334436E+04  0.50400001928E-02 0.  1.
        1   -1    0    0  501    0  0.00000000000E+00  0.00000000000E+00 -0.20695775610E+04  0.20695775610E+04  0.50400001928E-02 0. -1.
    10030    2    1    2    0    0  0.00000000000E+00  0.00000000000E+00 -0.43144411747E+03  0.37077110046E+04  0.36825231659E+04 0.  0.
        3    1    3    3  502    0  0.20455228292E+03  0.28556488625E+03  0.16040849587E+04  0.16420954618E+04  0.10100000352E+00 0.  1.
       -3    1    3    3    0  502 -0.20455228292E+03 -0.28556488625E+03 -0.20355290762E+04  0.20656155428E+04  0.10100000352E+00 0. -1.
</event>
<event>
 5   0  0.2411746E-07  0.3765616E+04  0.7818609E-02  0.8053574E-01
        1   -1    0    0  501    0  0.00000000000E+00  0.00000000000E+00  0.20193276492E+04  0.20193276492E+04  0.50400001928E-02 0. -1.
       -1   -1    0    0    0  501  0.00000000000E+00  0.00000000000E+00 -0.17555184245E+04  0.17555184245E+04  0.50400001928E-02 0.  1.
    10030    2    1    2    0    0  0.00000000000E+00  0.00000000000E+00  0.26380922465E+03  0.37748460737E+04  0.37656164931E+04 0.  0.
        1    1    3    3  502    0 -0.77142695804E+03  0.16682847570E+04 -0.27737701221E+03  0.18588199452E+04  0.50400001928E-02 0.  1.
       -1    1    3    3    0  502  0.77142695804E+03 -0.16682847570E+04  0.54118623686E+03  0.19160261284E+04  0.50400001928E-02 0. -1.
</event>
<event>
 5   0  0.2287500E-07  0.3508785E+04  0.7818609E-02  0.8111711E-01
       -1   -1    0    0    0  501  0.00000000000E+00  0.00000000000E+00  0.16280647352E+04  0.16280647352E+04  0.50400001928E-02 0.  1.
        1   -1    0    0  501    0  0.00000000000E+00  0.00000000000E+00 -0.18905221449E+04  0.18905221449E+04  0.50400001928E-02 0. -1.
    10030    2    1    2    0    0  0.00000000000E+00  0.00000000000E+00 -0.26245740964E+03  0.35185868801E+04  0.35087846530E+04 0.  0.
        2    1    3    3  502    0 -0.77919607444E+03  0.10167877524E+04 -0.13332803044E+04  0.18489565235E+04  0.25500000920E-02 0. -1.
       -2    1    3    3    0  502  0.77919607444E+03 -0.10167877524E+04  0.10708228947E+04  0.16696303566E+04  0.25500000920E-02 0.  1.
</event>
<event>
 5   0  0.7124627E-07  0.3639919E+04  0.7818609E-02  0.8081409E-01
        2   -1    0    0  501    0  0.00000000000E+00  0.00000000000E+00  0.17874648747E+04  0.17874648747E+04  0.25500000920E-02 0.  1.
       -2   -1    0    0    0  501  0.00000000000E+00  0.00000000000E+00 -0.18530446228E+04  0.18530446228E+04  0.25500000920E-02 0. -1.
    10030    2    1    2    0    0  0.00000000000E+00  0.00000000000E+00 -0.65579748152E+02  0.36405094975E+04  0.36399187763E+04 0.  0.
        2    1    3    3  502    0  0.49277874534E+02 -0.11871387948E+04  0.13460292833E+04  0.17954168481E+04  0.25500000920E-02 0.  1.
       -2    1    3    3    0  502 -0.49277874534E+02  0.11871387948E+04 -0.14116090315E+04  0.18450926494E+04  0.25500000920E-02 0. -1.
</event>
<event>
 5   0  0.6949625E-07  0.3760024E+04  0.7818609E-02  0.8054788E-01
        2   -1    0    0  501    0  0.00000000000E+00  0.00000000000E+00  0.21577249499E+04  0.21577249499E+04  0.25500000920E-02 0. -1.
       -2   -1    0    0    0  501  0.00000000000E+00  0.00000000000E+00 -0.16380424947E+04  0.16380424947E+04  0.25500000920E-02 0.  1.
    10030    2    1    2    0    0  0.00000000000E+00  0.00000000000E+00  0.51968245518E+03  0.37957674446E+04  0.37600240211E+04 0.  0.
        5    1    3    3  502    0  0.84106169328E+03  0.12684744133E+03  0.19523673679E+04  0.21296092305E+04  0.46999998093E+01 0. -1.
       -5    1    3    3    0  502 -0.84106169328E+03 -0.12684744133E+03 -0.14326849127E+04  0.16661582141E+04  0.46999998093E+01 0.  1.
</event>
<event>
 5   0  0.2411746E-07  0.3675920E+04  0.7818609E-02  0.8073319E-01
        1   -1    0    0  501    0  0.00000000000E+00  0.00000000000E+00  0.28129055034E+04  0.28129055034E+04  0.50400001928E-02 0. -1.
       -1   -1    0    0    0  501  0.00000000000E+00  0.00000000000E+00 -0.12009281359E+04  0.12009281359E+04  0.50400001928E-02 0.  1.
    10030    2    1    2    0    0  0.00000000000E+00  0.00000000000E+00  0.16119773676E+04  0.40138336393E+04  0.36759202182E+04 0.  0.
        1    1    3    3  502    0  0.26765990027E+03  0.29043178166E+03  0.27660205426E+04  0.27940762488E+04  0.50400001928E-02 0. -1.
       -1    1    3    3    0  502 -0.26765990027E+03 -0.29043178166E+03 -0.11540431750E+04  0.12197573905E+04  0.50400001928E-02 0.  1.
</event>
<event>
 5   0  0.7300916E-07  0.3657986E+04  0.7818609E-02  0.8077337E-01
        2   -1    0    0  501    0  0.00000000000E+00  0.00000000000E+00  0.14813665514E+04  0.14813665514E+04  0.25500000920E-02 0.  1.
       -2   -1    0    0    0  501  0.00000000000E+00  0.00000000000E+00 -0.22581953967E+04  0.22581953967E+04  0.25500000920E-02 0. -1.
    10030    2    1    2    0    0  0.00000000000E+00  0.00000000000E+00 -0.77682884527E+03  0.37395619481E+04  0.36579858541E+04 0.  0.
        1    1    3    3  502    0  0.58562763329E+03  0.12771600400E+04 -0.15854748349E+04  0.21184494199E+04  0.50400001928E-02 0. -1.
       -1    1    3    3    0  502 -0.58562763329E+03 -0.12771600400E+04  0.80864598966E+03  0.16211125282E+04  0.50400001928E-02 0.  1.
</event>
<event>
 5   0  0.2411746E-07  0.3718667E+04  0.7818609E-02  0.8063838E-01
        1   -1    0    0  501    0  0.00000000000E+00  0.00000000000E+00  0.20441723517E+04  0.20441723517E+04  0.50400001928E-02 0. -1.
       -1   -1    0    0    0  501  0.00000000000E+00  0.00000000000E+00 -0.16912083157E+04  0.16912083157E+04  0.50400001928E-02 0.  1.
    10030    2    1    2    0    0  0.00000000000E+00  0.00000000000E+00  0.35296403596E+03  0.37353806674E+04  0.37186671160E+04 0.  0.
        1    1    3    3  502    0 -0.18034775492E+04 -0.33752470753E+03 -0.12598106958E+03  0.18391099555E+04  0.50400001928E-02 0. -1.
       -1    1    3    3    0  502  0.18034775492E+04  0.33752470753E+03  0.47894510554E+03  0.18962707119E+04  0.50400001928E-02 0.  1.
</event>
<event>
 5   0  0.6949625E-07  0.2663082E+04  0.7818609E-02  0.8347084E-01
       -2   -1    0    0    0  501  0.00000000000E+00  0.00000000000E+00  0.12301526169E+04  0.12301526169E+04  0.25500000920E-02 0.  1.
        2   -1    0    0  501    0  0.00000000000E+00  0.00000000000E+00 -0.14412860148E+04  0.14412860148E+04  0.25500000920E-02 0. -1.
    10030    2    1    2    0    0  0.00000000000E+00  0.00000000000E+00 -0.21113339789E+03  0.26714386317E+04  0.26630822464E+04 0.  0.
        5    1    3    3  502    0  0.36634807106E+03  0.89372373605E+02 -0.13865943075E+04  0.14369635326E+04  0.46999998093E+01 0. -1.
       -5    1    3    3    0  502 -0.36634807106E+03 -0.89372373605E+02  0.11754609096E+04  0.12344750991E+04  0.46999998093E+01 0.  1.
</event>
<event>
 5   0  0.6939921E-07  0.3682178E+04  0.7818609E-02  0.8071923E-01
       -2   -1    0    0    0  501  0.00000000000E+00  0.00000000000E+00  0.21585473542E+04  0.21585473542E+04  0.25500000920E-02 0. -1.
        2   -1    0    0  501    0  0.00000000000E+00  0.00000000000E+00 -0.15703193867E+04  0.15703193867E+04  0.25500000920E-02 0.  1.
    10030    2    1    2    0    0  0.00000000000E+00  0.00000000000E+00  0.58822796751E+03  0.37288667409E+04  0.36821780280E+04 0.  0.
        4    1    3    3  502    0  0.47697316935E+03 -0.66450778680E+03  0.19644317152E+04  0.21279256518E+04  0.12699999809E+01 0. -1.
       -4    1    3    3    0  502 -0.47697316935E+03  0.66450778680E+03 -0.13762037477E+04  0.16009410892E+04  0.12699999809E+01 0.  1.
</event>
<event>
 5   0  0.6949625E-07  0.3667115E+04  0.7818609E-02  0.8075289E-01
        2   -1    0    0  501    0  0.00000000000E+00  0.00000000000E+00  0.24773860587E+04  0.24773860587E+04  0.25500000920E-02 0. -1.
       -2   -1    0    0    0  501  0.00000000000E+00  0.00000000000E+00 -0.13570483005E+04  0.13570483005E+04  0.25500000920E-02 0.  1.
    10030    2    1    2    0    0  0.00000000000E+00  0.00000000000E+00  0.11203377582E+04  0.38344343592E+04  0.36671146918E+04 0.  0.
        5    1    3    3  502    0  0.39055554142E+03  0.14359091086E+04 -0.55994217009E+03  0.15899452578E+04  0.46999998093E+01 0.  1.
       -5    1    3    3    0  502 -0.39055554142E+03 -0.14359091086E+04  0.16802799283E+04  0.22444891014E+04  0.46999998093E+01 0. -1.
</event>
<event>
 5   0  0.6949625E-07  0.3702755E+04  0.7818609E-02  0.8067352E-01
        2   -1    0    0  501    0  0.00000000000E+00  0.00000000000E+00  0.20817352013E+04  0.20817352013E+04  0.25500000920E-02 0.  1.
       -2   -1    0    0    0  501  0.00000000000E+00  0.00000000000E+00 -0.16465101357E+04  0.16465101357E+04  0.25500000920E-02 0. -1.
    10030    2    1    2    0    0  0.00000000000E+00  0.00000000000E+00  0.43522506557E+03  0.37282453369E+04  0.37027547090E+04 0.  0.
        5    1    3    3  502    0  0.77701600075E+03  0.43736899933E+03  0.18512897297E+04  0.20548336333E+04  0.46999998093E+01 0.  1.
       -5    1    3    3    0  502 -0.77701600075E+03 -0.43736899933E+03 -0.14160646641E+04  0.16734117037E+04  0.46999998093E+01 0. -1.
</event>
<event>
 5   0  0.6949625E-07  0.2652158E+04  0.7818609E-02  0.8350697E-01
       -2   -1    0    0    0  501  0.00000000000E+00  0.00000000000E+00  0.15039088226E+04  0.15039088226E+04  0.25500000920E-02 0. -1.
        2   -1    0    0  501    0  0.00000000000E+00  0.00000000000E+00 -0.11692769314E+04  0.11692769314E+04  0.25500000920E-02 0.  1.
    10030    2    1    2    0    0  0.00000000000E+00  0.00000000000E+00  0.33463189122E+03  0.26731857541E+04  0.26521582858E+04 0.  0.
        5    1    3    3  502    0 -0.60351277076E+03  0.96669388410E+03  0.85073236076E+03  0.14221435826E+04  0.46999998093E+01 0. -1.
       -5    1    3    3    0  502  0.60351277076E+03 -0.96669388410E+03 -0.51610046954E+03  0.12510421714E+04  0.46999998093E+01 0.  1.
</event>
<event>
 5   0  0.7300916E-07  0.2977156E+04  0.7818609E-02  0.8250284E-01
        2   -1    0    0  501    0  0.00000000000E+00  0.00000000000E+00  0.19560802593E+04  0.19560802593E+04  0.25500000920E-02 0.  1.
       -2   -1    0    0    0  501  0.00000000000E+00  0.00000000000E+00 -0.11328086141E+04  0.11328086141E+04  0.25500000920E-02 0. -1.
    10030    2    1    2    0    0  0.00000000000E+00  0.00000000000E+00  0.82327164519E+03  0.30888888733E+04  0.29771560708E+04 0.  0.
        1    1    3    3  502    0 -0.10472140091E+03  0.48439955684E+03  0.18679729065E+04  0.19325972891E+04  0.50400001928E-02 0.  1.
       -1    1    3    3    0  502  0.10472140091E+03 -0.48439955684E+03 -0.10447012613E+04  0.11562915842E+04  0.50400001928E-02 0. -1.
</event>
<event>
 5   0  0.2287500E-07  0.3782448E+04  0.7818609E-02  0.8049932E-01
        1   -1    0    0  501    0  0.00000000000E+00  0.00000000000E+00  0.28852216128E+04  0.28852216128E+04  0.50400001928E-02 0.  1.
       -1   -1    0    0    0  501  0.00000000000E+00  0.00000000000E+00 -0.12396718766E+04  0.12396718766E+04  0.50400001928E-02 0. -1.
    10030    2    1    2    0    0  0.00000000000E+00  0.00000000000E+00  0.16455497361E+04  0.41248934894E+04  0.37824479329E+04 0.  0.
        2    1    3    3  502    0  0.40198424637E+03  0.45499620656E+03  0.27760560162E+04  0.28416720232E+04  0.25500000920E-02 0.  1.
       -2    1    3    3    0  502 -0.40198424637E+03 -0.45499620656E+03 -0.11305062800E+04  0.12832214663E+04  0.25500000920E-02 0. -1.
</event>
<event>
 5   0  0.6939921E-07  0.3721568E+04  0.7818609E-02  0.8063199E-01
       -2   -1    0    0    0  501  0.00000000000E+00  0.00000000000E+00  0.16086188921E+04  0.16086188921E+04  0.25500000920E-02 0. -1.
        2   -1    0    0  501    0  0.00000000000E+00  0.00000000000E+00 -0.21524781930E+04  0.21524781930E+04  0.25500000920E-02 0.  1.
    10030    2    1    2    0    0  0.00000000000E+00  0.00000000000E+00 -0.54385930084E+03  0.37610970851E+04  0.37215679954E+04 0.  0.
        4    1    3    3  502    0 -0.17731886043E+04 -0.12064003313E+03 -0.82893128830E+03  0.19610916699E+04  0.12699999809E+01 0.  1.
       -4    1    3    3    0  502  0.17731886043E+04  0.12064003313E+03  0.28507198747E+03  0.18000054152E+04  0.12699999809E+01 0. -1.
</event>
<event>
 5   0  0.2287500E-07  0.3663438E+04  0.7818609E-02  0.8076113E-01
        1   -1    0    0  501    0  0.00000000000E+00  0.00000000000E+00  0.14332852576E+04  0.14332852576E+04  0.50400001928E-02 0. -1.
       -1   -1    0    0    0  501  0.00000000000E+00  0.00000000000E+00 -0.23409120758E+04  0.23409120759E+04  0.50400001928E-02 0.  1.
    10030    2    1    2    0    0  0.00000000000E+00  0.00000000000E+00 -0.90762681824E+03  0.37741973335E+04  0.36634381489E+04 0.  0.
        3    1    3    3  502    0  0.26624365726E+03  0.98695003449E+03 -0.20197139257E+04  0.22636696772E+04  0.10100000352E+00 0.  1.
       -3    1    3    3    0  502 -0.26624365726E+03 -0.98695003449E+03  0.11120871074E+04  0.15105276563E+04  0.10100000352E+00 0. -1.
</event>
<event>
 5   0  0.7074157E-07  0.3734523E+04  0.7818609E-02  0.8060354E-01
        2   -1    0    0  501    0  0.00000000000E+00  0.00000000000E+00  0.15624652108E+04  0.15624652108E+04  0.25500000920E-02 0. -1.
       -2   -1    0    0    0  501  0.00000000000E+00  0.00000000000E+00 -0.22315153338E+04  0.22315153338E+04  0.25500000920E-02 0.  1.
    10030    2    1    2    0    0  0.00000000000E+00  0.00000000000E+00 -0.66905012303E+03  0.37939805447E+04  0.37345227682E+04 0.  0.
        3    1    3    3  502    0  0.17050285093E+04 -0.74642399666E+03 -0.48655407084E+03  0.19237998530E+04  0.10100000352E+00 0. -1.
       -3    1    3    3    0  502 -0.17050285093E+04  0.74642399666E+03 -0.18249605219E+03  0.18701806917E+04  0.10100000352E+00 0.  1.
</event>
<event>
 5   0  0.2287500E-07  0.3750841E+04  0.7818609E-02  0.8056787E-01
       -1   -1    0    0    0  501  0.00000000000E+00  0.00000000000E+00  0.20229880230E+04  0.20229880230E+04  0.50400001928E-02 0. -1.
        1   -1    0    0  501    0  0.00000000000E+00  0.00000000000E+00 -0.17386171247E+04  0.17386171247E+04  0.50400001928E-02 0.  1.
    10030    2    1    2    0    0  0.00000000000E+00  0.00000000000E+00  0.28437089833E+03  0.37616051477E+04  0.37508407696E+04 0.  0.
        4    1    3    3  502    0  0.11184324555E+04  0.18326247397E+03 -0.13563329194E+04  0.17675171550E+04  0.12699999809E+01 0.  1.
       -4    1    3    3    0  502 -0.11184324555E+04 -0.18326247397E+03  0.16407038178E+04  0.19940879927E+04  0.12699999809E+01 0. -1.
</event>
<event>
 5   0  0.7300916E-07  0.3635177E+04  0.7818609E-02  0.8082481E-01
       -2   -1    0    0    0  501  0.00000000000E+00  0.00000000000E+00  0.25128187457E+04  0.25128187457E+04  0.25500000920E-02 0.  1.
        2   -1    0    0  501    0  0.00000000000E+00  0.00000000000E+00 -0.13147096799E+04  0.13147096799E+04  0.25500000920E-02 0. -1.
    10030    2    1    2    0    0  0.00000000000E+00  0.00000000000E+00  0.11981090658E+04  0.38275284256E+04  0.36351765453E+04 0.  0.
        1    1    3    3  502    0  0.12387025269E+04 -0.10463713978E+04 -0.26558606391E+03  0.16431107721E+04  0.50400001928E-02 0. -1.
       -1    1    3    3    0  502 -0.12387025269E+04  0.10463713978E+04  0.14636951297E+04  0.21844176535E+04  0.50400001928E-02 0.  1.
</event>
<event>
 5   0  0.2345471E-07  0.3664657E+04  0.7818609E-02  0.8075840E-01
       -1   -1    0    0    0  501  0.00000000000E+00  0.00000000000E+00  0.14316292879E+04  0.14316292879E+04  0.50400001928E-02 0.  1.
        1   -1    0    0  501    0  0.00000000000E+00  0.00000000000E+00 -0.23451792859E+04  0.23451792859E+04  0.50400001928E-02 0. -1.
    10030    2    1    2    0    0  0.00000000000E+00  0.00000000000E+00 -0.91354999802E+03  0.37768085738E+04  0.36646567921E+04 0.  0.
        5    1    3    3  502    0  0.10276115056E+03  0.90130032596E+02  0.14263614699E+04  0.14329034893E+04  0.46999998093E+01 0.  1.
       -5    1    3    3    0  502 -0.10276115056E+03 -0.90130032596E+02 -0.23399114680E+04  0.23439050844E+04  0.46999998093E+01 0. -1.
</event>
<event>
 5   0  0.2287500E-07  0.2877568E+04  0.7818609E-02  0.8279583E-01
        1   -1    0    0  501    0  0.00000000000E+00  0.00000000000E+00  0.22680680017E+04  0.22680680017E+04  0.50400001928E-02 0.  1.
       -1   -1    0    0    0  501  0.00000000000E+00  0.00000000000E+00 -0.91271468258E+03  0.91271468259E+03  0.50400001928E-02 0. -1.
    10030    2    1    2    0    0  0.00000000000E+00  0.00000000000E+00  0.13553533192E+04  0.31807826843E+04  0.28775676995E+04 0.  0.
        4    1    3    3  502    0 -0.92631925714E+03 -0.64090104205E+03 -0.31178614504E+03  0.11687744543E+04  0.12699999809E+01 0. -1.
       -4    1    3    3    0  502  0.92631925714E+03  0.64090104205E+03  0.16671394642E+04  0.20120082301E+04  0.12699999809E+01 0.  1.
</event>
<event>
 5   0  0.7074157E-07  0.3645811E+04  0.7818609E-02  0.8080078E-01
       -2   -1    0    0    0  501  0.00000000000E+00  0.00000000000E+00  0.20099606514E+04  0.20099606514E+04  0.25500000920E-02 0. -1.
        2   -1    0    0  501    0  0.00000000000E+00  0.00000000000E+00 -0.16532582017E+04  0.16532582017E+04  0.25500000920E-02 0.  1.
    10030    2    1    2    0    0  0.00000000000E+00  0.00000000000E+00  0.35670244967E+03  0.36632188531E+04  0.36458107093E+04 0.  0.
        3    1    3    3  502    0 -0.14041724904E+04  0.39457297458E+03  0.12770051782E+04  0.19385898097E+04  0.10100000352E+00 0. -1.
       -3    1    3    3    0  502  0.14041724904E+04 -0.39457297458E+03 -0.92030272853E+03  0.17246290434E+04  0.10100000352E+00 0.  1.
</event>
<event>
 5   0  0.2345471E-07  0.3678045E+04  0.7818609E-02  0.8072845E-01
       -1   -1    0    0    0  501  0.00000000000E+00  0.00000000000E+00  0.16792535674E+04  0.16792535674E+04  0.50400001928E-02 0.  1.
        1   -1    0    0  501    0  0.00000000000E+00  0.00000000000E+00 -0.20139926004E+04  0.20139926004E+04  0.50400001928E-02 0. -1.
    10030    2    1    2    0    0  0.00000000000E+00  0.00000000000E+00 -0.33473903299E+03  0.36932461678E+04  0.36780452738E+04 0.  0.
        5    1    3    3  502    0  0.65526045867E+03 -0.22147321534E+03 -0.18783970572E+04  0.20017028372E+04  0.46999998093E+01 0. -1.
       -5    1    3    3    0  502 -0.65526045867E+03  0.22147321534E+03  0.15436580242E+04  0.16915433307E+04  0.46999998093E+01 0.  1.
</event>
<event>
 5   0  0.2287500E-07  0.3753858E+04  0.7818609E-02  0.8056130E-01
        1   -1    0    0  501    0  0.00000000000E+00  0.00000000000E+00  0.23205065659E+04  0.23205065660E+04  0.50400001928E-02 0. -1.
       -1   -1    0    0    0  501  0.00000000000E+00  0.00000000000E+00 -0.15181436314E+04  0.15181436314E+04  0.50400001928E-02 0.  1.
    10030    2    1    2    0    0  0.00000000000E+00  0.00000000000E+00  0.80236293454E+03  0.38386501974E+04  0.37538578901E+04 0.  0.
        3    1    3    3  502    0  0.92783993230E+03 -0.54352493307E+02  0.20686651938E+04  0.22678661398E+04  0.10100000352E+00 0. -1.
       -3    1    3    3    0  502 -0.92783993230E+03  0.54352493307E+02 -0.12663022593E+04  0.15707840576E+04  0.10100000352E+00 0.  1.
</event>
<event>
 5   0  0.2287500E-07  0.3595373E+04  0.7818609E-02  0.8091552E-01
       -1   -1    0    0    0  501  0.00000000000E+00  0.00000000000E+00  0.14704735432E+04  0.14704735432E+04  0.50400001928E-02 0.  1.
        1   -1    0    0  501    0  0.00000000000E+00  0.00000000000E+00 -0.21977112592E+04  0.21977112592E+04  0.50400001928E-02 0. -1.
    10030    2    1    2    0    0  0.00000000000E+00  0.00000000000E+00 -0.72723771593E+03  0.36681848024E+04  0.35953727274E+04 0.  0.
        2    1    3    3  502    0 -0.62639832662E+03 -0.15886810711E+04 -0.93659151814E+03  0.19476873674E+04  0.25500000920E-02 0. -1.
       -2    1    3    3    0  502  0.62639832662E+03  0.15886810711E+04  0.20935380222E+03  0.17204974350E+04  0.25500000920E-02 0.  1.
</event>
<event>
 5   0  0.7124627E-07  0.3257844E+04  0.7818609E-02  0.8173706E-01
       -2   -1    0    0    0  501  0.00000000000E+00  0.00000000000E+00  0.92113213939E+03  0.92113213939E+03  0.25500000920E-02 0. -1.
        2   -1    0    0  501    0  0.00000000000E+00  0.00000000000E+00 -0.28805717205E+04  0.28805717205E+04  0.25500000920E-02 0.  1.
    10030    2    1    2    0    0  0.00000000000E+00  0.00000000000E+00 -0.19594395811E+04  0.38017038598E+04  0.32578441900E+04 0.  0.
        2    1    3    3  502    0  0.40020650692E+03  0.75976318928E+03  0.63554478287E+03  0.10683269738E+04  0.25500000920E-02 0. -1.
       -2    1    3    3    0  502 -0.40020650692E+03 -0.75976318928E+03 -0.25949843639E+04  0.27333768860E+04  0.25500000920E-02 0.  1.
</event>
<event>
 5   0  0.2287500E-07  0.3395769E+04  0.7818609E-02  0.8138945E-01
       -1   -1    0    0    0  501  0.00000000000E+00  0.00000000000E+00  0.15645628732E+04  0.15645628732E+04  0.50400001928E-02 0.  1.
        1   -1    0    0  501    0  0.00000000000E+00  0.00000000000E+00 -0.18425673508E+04  0.18425673508E+04  0.50400001928E-02 0. -1.
    10030    2    1    2    0    0  0.00000000000E+00  0.00000000000E+00 -0.27800447759E+03  0.34071302240E+04  0.33957694082E+04 0.  0.
        2    1    3    3  502    0  0.12877540575E+04  0.10273433038E+04 -0.55155628761E+03  0.17372274217E+04  0.25500000920E-02 0. -1.
       -2    1    3    3    0  502 -0.12877540575E+04 -0.10273433038E+04  0.27355181002E+03  0.16699028023E+04  0.25500000920E-02 0.  1.
</event>
<event>
 5   0  0.2287500E-07  0.3727292E+04  0.7818609E-02  0.8061940E-01
        1   -1    0    0  501    0  0.00000000000E+00  0.00000000000E+00  0.18706303048E+04  0.18706303048E+04  0.50400001928E-02 0.  1.
       -1   -1    0    0    0  501  0.00000000000E+00  0.00000000000E+00 -0.18566874570E+04  0.18566874570E+04  0.50400001928E-02 0. -1.
    10030    2    1    2    0    0  0.00000000000E+00  0.00000000000E+00  0.13942847729E+02  0.37273177618E+04  0.37272916836E+04 0.  0.
        2    1    3    3  502    0 -0.73086023705E+03  0.52293311146E+03 -0.16256943099E+04  0.18575515375E+04  0.25500000920E-02 0. -1.
       -2    1    3    3    0  502  0.73086023705E+03 -0.52293311146E+03  0.16396371576E+04  0.18697662244E+04  0.25500000920E-02 0.  1.
</event>
<event>
 5   0  0.2287500E-07  0.3314520E+04  0.7818609E-02  0.8159211E-01
        1   -1    0    0  501    0  0.00000000000E+00  0.00000000000E+00  0.15564144756E+04  0.15564144756E+04  0.50400001928E-02 0. -1.
       -1   -1    0    0    0  501  0.00000000000E+00  0.00000000000E+00 -0.17646399222E+04  0.17646399222E+04  0.50400001928E-02 0.  1.
    10030    2    1    2    0    0  0.00000000000E+00  0.00000000000E+00 -0.20822544659E+03  0.33210543978E+04  0.33145202484E+04 0.  0.
        3    1    3    3  502    0 -0.16031238615E+04 -0.93752972759E+02 -0.51445073526E+03  0.16862548160E+04  0.10100000352E+00 0.  1.
       -3    1    3    3    0  502  0.16031238615E+04  0.93752972759E+02  0.30622528867E+03  0.16347995819E+04  0.10100000352E+00 0. -1.
</event>
<event>
 5   0  0.7300916E-07  0.3750609E+04  0.7818609E-02  0.8056838E-01
       -2   -1    0    0    0  501  0.00000000000E+00  0.00000000000E+00  0.31412284437E+04  0.31412284437E+04  0.25500000920E-02 0. -1.
        2   -1    0    0  501    0  0.00000000000E+00  0.00000000000E+00 -0.11195515165E+04  0.11195515165E+04  0.25500000920E-02 0.  1.
    10030    2    1    2    0    0  0.00000000000E+00  0.00000000000E+00  0.20216769272E+04  0.42607799602E+04  0.37506090534E+04 0.  0.
        1    1    3    3  502    0 -0.88105681707E+03 -0.22879379105E+03  0.28734179432E+04  0.30141563314E+04  0.50400001928E-02 0. -1.
       -1    1    3    3    0  502  0.88105681707E+03  0.22879379105E+03 -0.85174101594E+03  0.12466236288E+04  0.50400001928E-02 0.  1.
</event>
<event>
 5   0  0.6939921E-07  0.3627594E+04  0.7818609E-02  0.8084200E-01
       -2   -1    0    0    0  501  0.00000000000E+00  0.00000000000E+00  0.10367268415E+04  0.10367268415E+04  0.25500000920E-02 0. -1.
        2   -1    0    0  501    0  0.00000000000E+00  0.00000000000E+00 -0.31733139802E+04  0.31733139802E+04  0.25500000920E-02 0.  1.
    10030    2    1    2    0    0  0.00000000000E+00  0.00000000000E+00 -0.21365871388E+04  0.42100408217E+04  0.36275941227E+04 0.  0.
        4    1    3    3  502    0 -0.90168823005E+03 -0.75585253874E+03  0.53374322394E+03  0.12919900025E+04  0.12699999809E+01 0. -1.
       -4    1    3    3    0  502  0.90168823005E+03  0.75585253874E+03 -0.26703303627E+04  0.29180508192E+04  0.12699999809E+01 0.  1.
</event>
<event>
 5   0  0.2411746E-07  0.3702060E+04  0.7818609E-02  0.8067506E-01
       -1   -1    0    0    0  501  0.00000000000E+00  0.00000000000E+00  0.15555157649E+04  0.15555157649E+04  0.50400001928E-02 0.  1.
        1   -1    0    0  501    0  0.00000000000E+00  0.00000000000E+00 -0.22026852861E+04  0.22026852861E+04  0.50400001928E-02 0. -1.
    10030    2    1    2    0    0  0.00000000000E+00  0.00000000000E+00 -0.64716952123E+03  0.37582010510E+04  0.37020597983E+04 0.  0.
        1    1    3    3  502    0  0.29555243980E+03 -0.17968850810E+04 -0.66052843892E+03  0.19371228814E+04  0.50400001928E-02 0. -1.
       -1    1    3    3    0  502 -0.29555243980E+03  0.17968850810E+04  0.13358917688E+02  0.18210781696E+04  0.50400001928E-02 0.  1.
</event>
<event>
 5   0  0.7300916E-07  0.3692597E+04  0.7818609E-02  0.8069604E-01
       -2   -1    0    0    0  501  0.00000000000E+00  0.00000000000E+00  0.18651649217E+04  0.18651649217E+04  0.25500000920E-02 0.  1.
        2   -1    0    0  501    0  0.00000000000E+00  0.00000000000E+00 -0.18276226175E+04  0.18276226175E+04  0.25500000920E-02 0. -1.
    10030    2    1    2    0    0  0.00000000000E+00  0.00000000000E+00  0.37542304262E+02  0.36927875392E+04  0.36925966995E+04 0.  0.
        1    1    3    3  502    0  0.14875057120E+04  0.62967884544E+03 -0.87550596447E+03  0.18373022031E+04  0.50400001928E-02 0. -1.
       -1    1    3    3    0  502 -0.14875057120E+04 -0.62967884544E+03  0.91304826873E+03  0.18554853361E+04  0.50400001928E-02 0.  1.
</event>
<event>
 5   0  0.6939921E-07  0.3711273E+04  0.7818609E-02  0.8065468E-01
        2   -1    0    0  501    0  0.00000000000E+00  0.00000000000E+00  0.20358097332E+04  0.20358097332E+04  0.25500000920E-02 0. -1.
       -2   -1    0    0    0  501  0.00000000000E+00  0.00000000000E+00 -0.16914089953E+04  0.16914089953E+04  0.25500000920E-02 0.  1.
    10030    2    1    2    0    0  0.00000000000E+00  0.00000000000E+00  0.34440073792E+03  0.37272187285E+04  0.37112730406E+04 0.  0.
        4    1    3    3  502    0  0.12142385082E+04  0.16075032893E+03  0.15721657968E+04  0.19929683210E+04  0.12699999809E+01 0. -1.
       -4    1    3    3    0  502 -0.12142385082E+04 -0.16075032893E+03 -0.12277650589E+04  0.17342504075E+04  0.12699999809E+01 0.  1.
</event>
<event>
 5   0  0.6949625E-07  0.3706197E+04  0.7818609E-02  0.8066590E-01
        2   -1    0    0  501    0  0.00000000000E+00  0.00000000000E+00  0.19329833242E+04  0.19329833242E+04  0.25500000920E-02 0.  1.
       -2   -1    0    0    0  501  0.00000000000E+00  0.00000000000E+00 -0.17765149565E+04  0.17765149565E+04  0.25500000920E-02 0. -1.
    10030    2    1    2    0    0  0.00000000000E+00  0.00000000000E+00  0.15646836773E+03  0.37094982808E+04  0.37061968573E+04 0.  0.
        5    1    3    3  502    0 -0.15343752200E+04 -0.98986614286E+03 -0.23797349519E+03  0.18414113530E+04  0.46999998093E+01 0. -1.
       -5    1    3    3    0  502  0.15343752200E+04  0.98986614286E+03  0.39444186292E+03  0.18680869278E+04  0.46999998093E+01 0.  1.
</event>
<event>
 5   0  0.7300916E-07  0.2978713E+04  0.7818609E-02  0.8249836E-01
       -2   -1    0    0    0  501  0.00000000000E+00  0.00000000000E+00  0.89418153794E+03  0.89418153794E+03  0.25500000920E-02 0. -1.
        2   -1    0    0  501    0  0.00000000000E+00  0.00000000000E+00 -0.24806857478E+04  0.24806857478E+04  0.25500000920E-02 0.  1.
    10030    2    1    2    0    0  0.00000000000E+00  0.00000000000E+00 -0.15865042099E+04  0.33748672858E+04  0.29787134116E+04 0.  0.
        1    1    3    3  502    0  0.10175921206E+04 -0.40409860927E+03 -0.19371809525E+04  0.22251875096E+04  0.50400001928E-02 0.  1.
       -1    1    3    3    0  502 -0.10175921206E+04  0.40409860927E+03  0.35067674262E+03  0.11496797762E+04  0.50400001928E-02 0. -1.
</event>
<event>
 5   0  0.6949625E-07  0.3777057E+04  0.7818609E-02  0.8051096E-01
        2   -1    0    0  501    0  0.00000000000E+00  0.00000000000E+00  0.18790044502E+04  0.18790044502E+04  0.25500000920E-02 0.  1.
       -2   -1    0    0    0  501  0.00000000000E+00  0.00000000000E+00 -0.18981013088E+04  0.18981013088E+04  0.25500000920E-02 0. -1.
    10030    2    1    2    0    0  0.00000000000E+00  0.00000000000E+00 -0.19096858624E+02  0.37771057589E+04  0.37770574823E+04 0.  0.
        5    1    3    3  502    0 -0.20838387965E+03 -0.12951869887E+04 -0.13680890869E+04  0.18954215934E+04  0.46999998093E+01 0. -1.
       -5    1    3    3    0  502  0.20838387965E+03  0.12951869887E+04  0.13489922283E+04  0.18816841656E+04  0.46999998093E+01 0.  1.
</event>
<event>
 5   0  0.7300916E-07  0.4000990E+04  0.7818609E-02  0.8004347E-01
        2   -1    0    0  501    0  0.00000000000E+00  0.00000000000E+00  0.21013498285E+04  0.21013498285E+04  0.25500000920E-02 0.  1.
       -2   -1    0    0    0  501  0.00000000000E+00  0.00000000000E+00 -0.19044804807E+04  0.19044804807E+04  0.25500000920E-02 0. -1.
    10030    2    1    2    0    0  0.00000000000E+00  0.00000000000E+00  0.19686934776E+03  0.40058303092E+04  0.40009897433E+04 0.  0.
        1    1    3    3  502    0 -0.18542340675E+04 -0.12442492608E+03 -0.64294359797E+03  0.19664795980E+04  0.50400001928E-02 0.  1.
       -1    1    3    3    0  502  0.18542340675E+04  0.12442492608E+03  0.83981294573E+03  0.20393507112E+04  0.50400001928E-02 0. -1.
</event>
<event>
 5   0  0.2287500E-07  0.3490028E+04  0.7818609E-02  0.8116157E-01
       -1   -1    0    0    0  501  0.00000000000E+00  0.00000000000E+00  0.13243500077E+04  0.13243500077E+04  0.50400001928E-02 0.  1.
        1   -1    0    0  501    0  0.00000000000E+00  0.00000000000E+00 -0.22992962894E+04  0.22992962894E+04  0.50400001928E-02 0. -1.
    10030    2    1    2    0    0  0.00000000000E+00  0.00000000000E+00 -0.97494628170E+03  0.36236462971E+04  0.34900275406E+04 0.  0.
        4    1    3    3  502    0  0.10798054833E+04  0.11915911666E+04 -0.11910618432E+04  0.20011245132E+04  0.12699999809E+01 0. -1.
       -4    1    3    3    0  502 -0.10798054833E+04 -0.11915911666E+04  0.21611556154E+03  0.16225217838E+04  0.12699999809E+01 0.  1.
</event>
<event>
 5   0  0.2287500E-07  0.3739510E+04  0.7818609E-02  0.8059262E-01
       -1   -1    0    0    0  501  0.00000000000E+00  0.00000000000E+00  0.11177775746E+04  0.11177775746E+04  0.50400001928E-02 0.  1.
        1   -1    0    0  501    0  0.00000000000E+00  0.00000000000E+00 -0.31276204967E+04  0.31276204967E+04  0.50400001928E-02 0. -1.
    10030    2    1    2    0    0  0.00000000000E+00  0.00000000000E+00 -0.20098429221E+04  0.42453980714E+04  0.37395101568E+04 0.  0.
        3    1    3    3  502    0  0.40960858082E+03 -0.18227577427E+04 -0.10910763022E+04  0.21634861880E+04  0.10100000352E+00 0. -1.
       -3    1    3    3    0  502 -0.40960858082E+03  0.18227577427E+04 -0.91876661992E+03  0.20819118834E+04  0.10100000352E+00 0.  1.
</event>
<event>
 5   0  0.7300916E-07  0.3649373E+04  0.7818609E-02  0.8079275E-01
       -2   -1    0    0    0  501  0.00000000000E+00  0.00000000000E+00  0.16943959312E+04  0.16943959312E+04  0.25500000920E-02 0.  1.
        2   -1    0    0  501    0  0.00000000000E+00  0.00000000000E+00 -0.19649957984E+04  0.19649957984E+04  0.25500000920E-02 0. -1.
    10030    2    1    2    0    0  0.00000000000E+00  0.00000000000E+00 -0.27059986714E+03  0.36593917296E+04  0.36493730342E+04 0.  0.
        1    1    3    3  502    0  0.81792569494E+03  0.15373418311E+04 -0.68182698475E+03  0.18701097255E+04  0.50400001928E-02 0. -1.
       -1    1    3    3    0  502 -0.81792569494E+03 -0.15373418311E+04  0.41122711761E+03  0.17892820042E+04  0.50400001928E-02 0.  1.
</event>
<event>
 5   0  0.2287500E-07  0.3517630E+04  0.7818609E-02  0.8109624E-01
        1   -1    0    0  501    0  0.00000000000E+00  0.00000000000E+00  0.11460335686E+04  0.11460335686E+04  0.50400001928E-02 0. -1.
       -1   -1    0    0    0  501  0.00000000000E+00  0.00000000000E+00 -0.26992497846E+04  0.26992497847E+04  0.50400001928E-02 0.  1.
    10030    2    1    2    0    0  0.00000000000E+00  0.00000000000E+00 -0.15532162161E+04  0.38452833533E+04  0.35176303747E+04 0.  0.
        2    1    3    3  502    0 -0.76995838037E+03 -0.14300273424E+04 -0.15144749400E+04  0.22206864820E+04  0.25500000920E-02 0.  1.
       -2    1    3    3    0  502  0.76995838037E+03  0.14300273424E+04 -0.38741276089E+02  0.16245968712E+04  0.25500000920E-02 0. -1.
</event>
<event>
 5   0  0.7124627E-07  0.3662404E+04  0.7818609E-02  0.8076345E-01
        2   -1    0    0  501    0  0.00000000000E+00  0.00000000000E+00  0.22703274269E+04  0.22703274269E+04  0.25500000920E-02 0.  1.
       -2   -1    0    0    0  501  0.00000000000E+00  0.00000000000E+00 -0.14770122781E+04  0.14770122781E+04  0.25500000920E-02 0. -1.
    10030    2    1    2    0    0  0.00000000000E+00  0.00000000000E+00  0.79331514879E+03  0.37473397050E+04  0.36624043932E+04 0.  0.
        2    1    3    3  502    0 -0.58537326315E+03 -0.13724882333E+04  0.14828392673E+04  0.21036154830E+04  0.25500000920E-02 0.  1.
       -2    1    3    3    0  502  0.58537326315E+03  0.13724882333E+04 -0.68952411850E+03  0.16437242219E+04  0.25500000920E-02 0. -1.
</event>
<event>
 5   0  0.2287500E-07  0.3567308E+04  0.7818609E-02  0.8098021E-01
        1   -1    0    0  501    0  0.00000000000E+00  0.00000000000E+00  0.21521010646E+04  0.21521010646E+04  0.50400001928E-02 0.  1.
       -1   -1    0    0    0  501  0.00000000000E+00  0.00000000000E+00 -0.14782863997E+04  0.14782863998E+04  0.50400001928E-02 0. -1.
    10030    2    1    2    0    0  0.00000000000E+00  0.00000000000E+00  0.67381466481E+03  0.36303874643E+04  0.35673080801E+04 0.  0.
        4    1    3    3  502    0 -0.13436836082E+04 -0.34763063281E+03  0.14770241469E+04  0.20268040456E+04  0.12699999809E+01 0.  1.
       -4    1    3    3    0  502  0.13436836082E+04  0.34763063281E+03 -0.80320948208E+03  0.16035834187E+04  0.12699999809E+01 0. -1.
</event>
<event>
 5   0  0.6949625E-07  0.3724688E+04  0.7818609E-02  0.8062513E-01
        2   -1    0    0  501    0  0.00000000000E+00  0.00000000000E+00  0.21545219954E+04  0.21545219954E+04  0.25500000920E-02 0.  1.
       -2   -1    0    0    0  501  0.00000000000E+00  0.00000000000E+00 -0.16097887786E+04  0.16097887786E+04  0.25500000920E-02 0. -1.
    10030    2    1    2    0    0  0.00000000000E+00  0.00000000000E+00  0.54473321684E+03  0.37643107740E+04  0.37246880844E+04 0.  0.
        5    1    3    3  502    0 -0.16197146584E+04 -0.47830419120E+03  0.10656064472E+04  0.19969450829E+04  0.46999998093E+01 0.  1.
       -5    1    3    3    0  502  0.16197146584E+04  0.47830419120E+03 -0.52087323037E+03  0.17673656911E+04  0.46999998093E+01 0. -1.
</event>
<event>
 5   0  0.2287500E-07  0.3735596E+04  0.7818609E-02  0.8060119E-01
        1   -1    0    0  501    0  0.00000000000E+00  0.00000000000E+00  0.30297318508E+04  0.30297318508E+04  0.50400001928E-02 0.  1.
       -1   -1    0    0    0  501  0.00000000000E+00  0.00000000000E+00 -0.11514779809E+04  0.11514779810E+04  0.50400001928E-02 0. -1.
    10030    2    1    2    0    0  0.00000000000E+00  0.00000000000E+00  0.18782538699E+04  0.41812098318E+04  0.37355960780E+04 0.  0.
        4    1    3    3  502    0  0.12530746334E+04  0.96738594744E+03 -0.17040154007E+03  0.15921902857E+04  0.12699999809E+01 0. -1.
       -4    1    3    3    0  502 -0.12530746334E+04 -0.96738594744E+03  0.20486554099E+04  0.25890195460E+04  0.12699999809E+01 0.  1.
</event>
<event>
 5   0  0.7300916E-07  0.3684250E+04  0.7818609E-02  0.8071461E-01
       -2   -1    0    0    0  501  0.00000000000E+00  0.00000000000E+00  0.15049813486E+04  0.15049813486E+04  0.25500000920E-02 0. -1.
        2   -1    0    0  501    0  0.00000000000E+00  0.00000000000E+00 -0.22547952334E+04  0.22547952334E+04  0.25500000920E-02 0.  1.
    10030    2    1    2    0    0  0.00000000000E+00  0.00000000000E+00 -0.74981388484E+03  0.37597765819E+04  0.36842501387E+04 0.  0.
        1    1    3    3  502    0 -0.73060037566E+03  0.22110408118E+03 -0.20858079327E+04  0.22210940222E+04  0.50400001928E-02 0.  1.
       -1    1    3    3    0  502  0.73060037566E+03 -0.22110408118E+03  0.13359940478E+04  0.15386825597E+04  0.50400001928E-02 0. -1.
</event>
<event>
 5   0  0.2287500E-07  0.3386070E+04  0.7818609E-02  0.8141334E-01
       -1   -1    0    0    0  501  0.00000000000E+00  0.00000000000E+00  0.11293522664E+04  0.11293522664E+04  0.50400001928E-02 0. -1.
        1   -1    0    0  501    0  0.00000000000E+00  0.00000000000E+00 -0.25380626977E+04  0.25380626977E+04  0.50400001928E-02 0.  1.
    10030    2    1    2    0    0  0.00000000000E+00  0.00000000000E+00 -0.14087104314E+04  0.36674149641E+04  0.33860696153E+04 0.  0.
        2    1    3    3  502    0 -0.32212247575E+03  0.12536722129E+04  0.47760710613E+03  0.13796975954E+04  0.25500000920E-02 0. -1.
       -2    1    3    3    0  502  0.32212247575E+03 -0.12536722129E+04 -0.18863175375E+04  0.22877173687E+04  0.25500000920E-02 0.  1.
</event>
<event>
 5   0  0.2287500E-07  0.3719108E+04  0.7818609E-02  0.8063740E-01
       -1   -1    0    0    0  501  0.00000000000E+00  0.00000000000E+00  0.13871447422E+04  0.13871447422E+04  0.50400001928E-02 0. -1.
        1   -1    0    0  501    0  0.00000000000E+00  0.00000000000E+00 -0.24928483783E+04  0.24928483783E+04  0.50400001928E-02 0.  1.
    10030    2    1    2    0    0  0.00000000000E+00  0.00000000000E+00 -0.11057036361E+04  0.38799931205E+04  0.37191082377E+04 0.  0.
        2    1    3    3  502    0  0.68929769627E+03 -0.16944825582E+04 -0.90127387566E+03  0.20392883693E+04  0.25500000920E-02 0.  1.
       -2    1    3    3    0  502 -0.68929769627E+03  0.16944825582E+04 -0.20442976040E+03  0.18407047512E+04  0.25500000920E-02 0. -1.
</event>
<event>
 5   0  0.2287500E-07  0.3693601E+04  0.7818609E-02  0.8069381E-01
       -1   -1    0    0    0  501  0.00000000000E+00  0.00000000000E+00  0.23511421460E+04  0.23511421460E+04  0.50400001928E-02 0. -1.
        1   -1    0    0  501    0  0.00000000000E+00  0.00000000000E+00 -0.14506447540E+04  0.14506447540E+04  0.50400001928E-02 0.  1.
    10030    2    1    2    0    0  0.00000000000E+00  0.00000000000E+00  0.90049739200E+03  0.38017869000E+04  0.36936009639E+04 0.  0.
        3    1    3    3  502    0  0.28646638490E+03 -0.50000249374E+03  0.22562368107E+04  0.23286627148E+04  0.10100000352E+00 0. -1.
       -3    1    3    3    0  502 -0.28646638490E+03  0.50000249374E+03 -0.13557394187E+04  0.14731241852E+04  0.10100000352E+00 0.  1.
</event>
<event>
 5   0  0.2345471E-07  0.3712333E+04  0.7818609E-02  0.8065234E-01
       -1   -1    0    0    0  501  0.00000000000E+00  0.00000000000E+00  0.23259088746E+04  0.23259088747E+04  0.50400001928E-02 0.  1.
        1   -1    0    0  501    0  0.00000000000E+00  0.00000000000E+00 -0.14812940103E+04  0.14812940104E+04  0.50400001928E-02 0. -1.
    10030    2    1    2    0    0  0.00000000000E+00  0.00000000000E+00  0.84461486430E+03  0.38072028850E+04  0.37123334358E+04 0.  0.
        5    1    3    3  502    0  0.66981314376E+02 -0.10311066620E+04  0.20036807557E+04  0.22544236749E+04  0.46999998093E+01 0.  1.
       -5    1    3    3    0  502 -0.66981314376E+02  0.10311066620E+04 -0.11590658914E+04  0.15527792102E+04  0.46999998093E+01 0. -1.
</event>
<event>
 5   0  0.2287500E-07  0.3660462E+04  0.7818609E-02  0.8076781E-01
       -1   -1    0    0    0  501  0.00000000000E+00  0.00000000000E+00  0.25953987952E+04  0.25953987952E+04  0.50400001928E-02 0.  1.
        1   -1    0    0  501    0  0.00000000000E+00  0.00000000000E+00 -0.12906478187E+04  0.12906478187E+04  0.50400001928E-02 0. -1.
    10030    2    1    2    0    0  0.00000000000E+00  0.00000000000E+00  0.13047509765E+04  0.38860466140E+04  0.36604621532E+04 0.  0.
        4    1    3    3  502    0  0.85146242779E+03  0.15940058834E+04  0.34486773920E+03  0.18397767236E+04  0.12699999809E+01 0. -1.
       -4    1    3    3    0  502 -0.85146242779E+03 -0.15940058834E+04  0.95988323730E+03  0.20462698904E+04  0.12699999809E+01 0.  1.
</event>
<event>
 5   0  0.6939921E-07  0.3620470E+04  0.7818609E-02  0.8085819E-01
        2   -1    0    0  501    0  0.00000000000E+00  0.00000000000E+00  0.20565583008E+04  0.20565583008E+04  0.25500000920E-02 0.  1.
       -2   -1    0    0    0  501  0.00000000000E+00  0.00000000000E+00 -0.15934152206E+04  0.15934152206E+04  0.25500000920E-02 0. -1.
    10030    2    1    2    0    0  0.00000000000E+00  0.00000000000E+00  0.46314308021E+03  0.36499735214E+04  0.36204703002E+04 0.  0.
        4    1    3    3  502    0 -0.45289785388E+01 -0.71496656020E+03  0.19081787972E+04  0.20377305094E+04  0.12699999809E+01 0.  1.
       -4    1    3    3    0  502  0.45289785388E+01  0.71496656020E+03 -0.14450357170E+04  0.16122430121E+04  0.12699999809E+01 0. -1.
</event>
<event>
 5   0  0.7300916E-07  0.3658245E+04  0.7818609E-02  0.8077279E-01
        2   -1    0    0  501    0  0.00000000000E+00  0.00000000000E+00  0.24362130739E+04  0.24362130739E+04  0.25500000920E-02 0. -1.
       -2   -1    0    0    0  501  0.00000000000E+00  0.00000000000E+00 -0.13733157693E+04  0.13733157693E+04  0.25500000920E-02 0.  1.
    10030    2    1    2    0    0  0.00000000000E+00  0.00000000000E+00  0.10628973046E+04  0.38095288432E+04  0.36582453892E+04 0.  0.
        1    1    3    3  502    0 -0.89317550280E+03 -0.14529723572E+04  0.12196873561E+04  0.20967900220E+04  0.50400001928E-02 0. -1.
       -1    1    3    3    0  502  0.89317550280E+03  0.14529723572E+04 -0.15679005145E+03  0.17127388213E+04  0.50400001928E-02 0.  1.
</event>
<event>
 5   0  0.6949625E-07  0.3713949E+04  0.7818609E-02  0.8064878E-01
       -2   -1    0    0    0  501  0.00000000000E+00  0.00000000000E+00  0.23390409226E+04  0.23390409226E+04  0.25500000920E-02 0.  1.
        2   -1    0    0  501    0  0.00000000000E+00  0.00000000000E+00 -0.14742600478E+04  0.14742600478E+04  0.25500000920E-02 0. -1.
    10030    2    1    2    0    0  0.00000000000E+00  0.00000000000E+00  0.86478087474E+03  0.38133009704E+04  0.37139491555E+04 0.  0.
        5    1    3    3  502    0 -0.58487524047E+03 -0.63180290001E+03 -0.12569436999E+04  0.15235430766E+04  0.46999998093E+01 0. -1.
       -5    1    3    3    0  502  0.58487524047E+03  0.63180290001E+03  0.21217245747E+04  0.22897578938E+04  0.46999998093E+01 0.  1.
</event>
<event>
 5   0  0.7124627E-07  0.3793041E+04  0.7818609E-02  0.8047650E-01
        2   -1    0    0  501    0  0.00000000000E+00  0.00000000000E+00  0.26507463744E+04  0.26507463744E+04  0.25500000920E-02 0. -1.
       -2   -1    0    0    0  501  0.00000000000E+00  0.00000000000E+00 -0.13568973391E+04  0.13568973391E+04  0.25500000920E-02 0.  1.
    10030    2    1    2    0    0  0.00000000000E+00  0.00000000000E+00  0.12938490354E+04  0.40076437135E+04  0.37930413665E+04 0.  0.
        2    1    3    3  502    0 -0.12943303824E+04 -0.43633847643E+01  0.21115261687E+04  0.24766616521E+04  0.25500000920E-02 0. -1.
       -2    1    3    3    0  502  0.12943303824E+04  0.43633847643E+01 -0.81767713329E+03  0.15309820614E+04  0.25500000920E-02 0.  1.
</event>
<event>
 5   0  0.2287500E-07  0.3669199E+04  0.7818609E-02  0.8074822E-01
        1   -1    0    0  501    0  0.00000000000E+00  0.00000000000E+00  0.20445470520E+04  0.20445470520E+04  0.50400001928E-02 0.  1.
       -1   -1    0    0    0  501  0.00000000000E+00  0.00000000000E+00 -0.16462107587E+04  0.16462107587E+04  0.50400001928E-02 0. -1.
    10030    2    1    2    0    0  0.00000000000E+00  0.00000000000E+00  0.39833629329E+03  0.36907578106E+04  0.36691990153E+04 0.  0.
        2    1    3    3  502    0 -0.86366364700E+03  0.62930397569E+03  0.16991769183E+04  0.20072719269E+04  0.25500000920E-02 0.  1.
       -2    1    3    3    0  502  0.86366364700E+03 -0.62930397569E+03 -0.13008406250E+04  0.16834858837E+04  0.25500000920E-02 0. -1.
</event>
<event>
 5   0  0.2411746E-07  0.3762724E+04  0.7818609E-02  0.8054202E-01
        1   -1    0    0  501    0  0.00000000000E+00  0.00000000000E+00  0.21632636967E+04  0.21632636967E+04  0.50400001928E-02 0.  1.
       -1   -1    0    0    0  501  0.00000000000E+00  0.00000000000E+00 -0.16361955439E+04  0.16361955439E+04  0.50400001928E-02 0. -1.
    10030    2    1    2    0    0  0.00000000000E+00  0.00000000000E+00  0.52706815285E+03  0.37994592406E+04  0.37627237054E+04 0.  0.
        1    1    3    3  502    0  0.16852139811E+04  0.76402128700E+03  0.60722117315E+03  0.19474065427E+04  0.50400001928E-02 0.  1.
       -1    1    3    3    0  502 -0.16852139811E+04 -0.76402128700E+03 -0.80153020306E+02  0.18520526979E+04  0.50400001928E-02 0. -1.
</event>
<event>
 5   0  0.6949625E-07  0.3687222E+04  0.7818609E-02  0.8070799E-01
        2   -1    0    0  501    0  0.00000000000E+00  0.00000000000E+00  0.17788763743E+04  0.17788763743E+04  0.25500000920E-02 0. -1.
       -2   -1    0    0    0  501  0.00000000000E+00  0.00000000000E+00 -0.19107015421E+04  0.19107015421E+04  0.25500000920E-02 0.  1.
    10030    2    1    2    0    0  0.00000000000E+00  0.00000000000E+00 -0.13182516781E+03  0.36895779163E+04  0.36872221693E+04 0.  0.
        5    1    3    3  502    0  0.14894522541E+04  0.91552089932E+03  0.51946818863E+03  0.18238738507E+04  0.46999998093E+01 0.  1.
       -5    1    3    3    0  502 -0.14894522541E+04 -0.91552089932E+03 -0.65129335644E+03  0.18657040656E+04  0.46999998093E+01 0. -1.
</event>
<event>
 5   0  0.7300916E-07  0.3674460E+04  0.7818609E-02  0.8073645E-01
        2   -1    0    0  501    0  0.00000000000E+00  0.00000000000E+00  0.22440270115E+04  0.22440270115E+04  0.25500000920E-02 0. -1.
       -2   -1    0    0    0  501  0.00000000000E+00  0.00000000000E+00 -0.15041772156E+04  0.15041772156E+04  0.25500000920E-02 0.  1.
    10030    2    1    2    0    0  0.00000000000E+00  0.00000000000E+00  0.73984979597E+03  0.37482042271E+04  0.36744601246E+04 0.  0.
        1    1    3    3  502    0 -0.15258332996E+04 -0.97556914116E+03  0.54672472366E+02  0.18118751300E+04  0.50400001928E-02 0.  1.
       -1    1    3    3    0  502  0.15258332996E+04  0.97556914116E+03  0.68517732361E+03  0.19363290971E+04  0.50400001928E-02 0. -1.
</event>
<event>
 5   0  0.2345471E-07  0.3723507E+04  0.7818609E-02  0.8062772E-01
        1   -1    0    0  501    0  0.00000000000E+00  0.00000000000E+00  0.23085007845E+04  0.23085007845E+04  0.50400001928E-02 0.  1.
       -1   -1    0    0    0  501  0.00000000000E+00  0.00000000000E+00 -0.15014622625E+04  0.15014622625E+04  0.50400001928E-02 0. -1.
    10030    2    1    2    0    0  0.00000000000E+00  0.00000000000E+00  0.80703852197E+03  0.38099630470E+04  0.37235073847E+04 0.  0.
        5    1    3    3  502    0 -0.76233608096E+03 -0.15007781277E+04 -0.41031833452E+03  0.17325918488E+04  0.46999998093E+01 0. -1.
       -5    1    3    3    0  502  0.76233608096E+03  0.15007781277E+04  0.12173568565E+04  0.20773711982E+04  0.46999998093E+01 0.  1.
</event>
<event>
 5   0  0.2287500E-07  0.3333727E+04  0.7818609E-02  0.8154366E-01
        1   -1    0    0  501    0  0.00000000000E+00  0.00000000000E+00  0.19751928390E+04  0.19751928390E+04  0.50400001928E-02 0.  1.
       -1   -1    0    0    0  501  0.00000000000E+00  0.00000000000E+00 -0.14066649338E+04  0.14066649338E+04  0.50400001928E-02 0. -1.
    10030    2    1    2    0    0  0.00000000000E+00  0.00000000000E+00  0.56852790521E+03  0.33818577729E+04  0.33337273459E+04 0.  0.
        3    1    3    3  502    0  0.71994334897E+03 -0.14016424761E+04 -0.26719680515E+03  0.15982221996E+04  0.10100000352E+00 0. -1.
       -3    1    3    3    0  502 -0.71994334897E+03  0.14016424761E+04  0.83572471036E+03  0.17836355732E+04  0.10100000352E+00 0.  1.
</event>
<event>
 5   0  0.6949625E-07  0.3649925E+04  0.7818609E-02  0.8079150E-01
        2   -1    0    0  501    0  0.00000000000E+00  0.00000000000E+00  0.17248538510E+04  0.17248538510E+04  0.25500000920E-02 0. -1.
       -2   -1    0    0    0  501  0.00000000000E+00  0.00000000000E+00 -0.19308816578E+04  0.19308816578E+04  0.25500000920E-02 0.  1.
    10030    2    1    2    0    0  0.00000000000E+00  0.00000000000E+00 -0.20602780686E+03  0.36557355088E+04  0.36499252942E+04 0.  0.
        5    1    3    3  502    0  0.15281558616E+04  0.12420411274E+03  0.88839994798E+03  0.17719942315E+04  0.46999998093E+01 0.  1.
       -5    1    3    3    0  502 -0.15281558616E+04 -0.12420411274E+03 -0.10944277548E+04  0.18837412773E+04  0.46999998093E+01 0. -1.
</event>
<event>
 5   0  0.2287500E-07  0.3657573E+04  0.7818609E-02  0.8077430E-01
       -1   -1    0    0    0  501  0.00000000000E+00  0.00000000000E+00  0.19052363736E+04  0.19052363736E+04  0.50400001928E-02 0.  1.
        1   -1    0    0  501    0  0.00000000000E+00  0.00000000000E+00 -0.17554044204E+04  0.17554044204E+04  0.50400001928E-02 0. -1.
    10030    2    1    2    0    0  0.00000000000E+00  0.00000000000E+00  0.14983195320E+03  0.36606407940E+04  0.36575731584E+04 0.  0.
        3    1    3    3  502    0  0.88184240582E+03  0.14841527727E+04 -0.52900113020E+03  0.18056017522E+04  0.10100000352E+00 0. -1.
       -3    1    3    3    0  502 -0.88184240582E+03 -0.14841527727E+04  0.67883308341E+03  0.18550390419E+04  0.10100000352E+00 0.  1.
</event>
<event>
 5   0  0.7074157E-07  0.3648924E+04  0.7818609E-02  0.8079376E-01
       -2   -1    0    0    0  501  0.00000000000E+00  0.00000000000E+00  0.26348444330E+04  0.26348444330E+04  0.25500000920E-02 0.  1.
        2   -1    0    0  501    0  0.00000000000E+00  0.00000000000E+00 -0.12633236764E+04  0.12633236764E+04  0.25500000920E-02 0. -1.
    10030    2    1    2    0    0  0.00000000000E+00  0.00000000000E+00  0.13715207566E+04  0.38981681094E+04  0.36489238719E+04 0.  0.
        3    1    3    3  502    0  0.15461778367E+04  0.95241291964E+03  0.49795386450E+03  0.18830067269E+04  0.10100000352E+00 0.  1.
       -3    1    3    3    0  502 -0.15461778367E+04 -0.95241291964E+03  0.87356689205E+03  0.20151613825E+04  0.10100000352E+00 0. -1.
</event>
<event>
 5   0  0.2287500E-07  0.3615204E+04  0.7818609E-02  0.8087018E-01
       -1   -1    0    0    0  501  0.00000000000E+00  0.00000000000E+00  0.11501851756E+04  0.11501851756E+04  0.50400001928E-02 0. -1.
        1   -1    0    0  501    0  0.00000000000E+00  0.00000000000E+00 -0.28407817539E+04  0.28407817539E+04  0.50400001928E-02 0.  1.
    10030    2    1    2    0    0  0.00000000000E+00  0.00000000000E+00 -0.16905965783E+04  0.39909669295E+04  0.36152040388E+04 0.  0.
        2    1    3    3  502    0 -0.17284549122E+04  0.52455603326E+03 -0.92105818989E+03  0.20275757951E+04  0.25500000920E-02 0.  1.
       -2    1    3    3    0  502  0.17284549122E+04 -0.52455603326E+03 -0.76953838836E+03  0.19633911344E+04  0.25500000920E-02 0. -1.
</event>
<event>
 5   0  0.7300916E-07  0.3738839E+04  0.7818609E-02  0.8059409E-01
        2   -1    0    0  501    0  0.00000000000E+00  0.00000000000E+00  0.17990959773E+04  0.17990959773E+04  0.25500000920E-02 0. -1.
       -2   -1    0    0    0  501  0.00000000000E+00  0.00000000000E+00 -0.19424914781E+04  0.19424914781E+04  0.25500000920E-02 0.  1.
    10030    2    1    2    0    0  0.00000000000E+00  0.00000000000E+00 -0.14339550082E+03  0.37415874554E+04  0.37388386454E+04 0.  0.
        1    1    3    3  502    0  0.82096073248E+03  0.29598868305E+03 -0.17261351451E+04  0.19341996701E+04  0.50400001928E-02 0.  1.
       -1    1    3    3    0  502 -0.82096073248E+03 -0.29598868305E+03  0.15827396443E+04  0.18073877853E+04  0.50400001928E-02 0. -1.
</event>
<event>
 5   0  0.2287500E-07  0.3721180E+04  0.7818609E-02  0.8063284E-01
       -1   -1    0    0    0  501  0.00000000000E+00  0.00000000000E+00  0.16061213037E+04  0.16061213037E+04  0.50400001928E-02 0.  1.
        1   -1    0    0  501    0  0.00000000000E+00  0.00000000000E+00 -0.21553759474E+04  0.21553759474E+04  0.50400001928E-02 0. -1.
    10030    2    1    2    0    0  0.00000000000E+00  0.00000000000E+00 -0.54925464374E+03  0.37614972511E+04  0.37211800422E+04 0.  0.
        2    1    3    3  502    0 -0.90393435358E+03  0.13559633602E+04  0.63290916544E+03  0.17482299510E+04  0.25500000920E-02 0.  1.
       -2    1    3    3    0  502  0.90393435358E+03 -0.13559633602E+04 -0.11821638092E+04  0.20132673001E+04  0.25500000920E-02 0. -1.
</event>
<event>
 5   0  0.6939921E-07  0.3142567E+04  0.7818609E-02  0.8204152E-01
        2   -1    0    0  501    0  0.00000000000E+00  0.00000000000E+00  0.21639453750E+04  0.21639453750E+04  0.25500000920E-02 0.  1.
       -2   -1    0    0    0  501  0.00000000000E+00  0.00000000000E+00 -0.11409398935E+04  0.11409398935E+04  0.25500000920E-02 0. -1.
    10030    2    1    2    0    0  0.00000000000E+00  0.00000000000E+00  0.10230054815E+04  0.33048852685E+04  0.31425668525E+04 0.  0.
        4    1    3    3  502    0  0.15282426363E+04  0.22642193614E+03  0.21010310810E+03  0.15591463618E+04  0.12699999809E+01 0. -1.
       -4    1    3    3    0  502 -0.15282426363E+04 -0.22642193614E+03  0.81290237337E+03  0.17457389067E+04  0.12699999809E+01 0.  1.
</event>
<event>
 5   0  0.2287500E-07  0.3656015E+04  0.7818609E-02  0.8077780E-01
        1   -1    0    0  501    0  0.00000000000E+00  0.00000000000E+00  0.19591778460E+04  0.19591778460E+04  0.50400001928E-02 0.  1.
       -1   -1    0    0    0  501  0.00000000000E+00  0.00000000000E+00 -0.17056191817E+04  0.17056191817E+04  0.50400001928E-02 0. -1.
    10030    2    1    2    0    0  0.00000000000E+00  0.00000000000E+00  0.25355866431E+03  0.36647970278E+04  0.36560149423E+04 0.  0.
        4    1    3    3  502    0  0.10448678565E+03  0.12195484692E+04 -0.12341983992E+04  0.17382356740E+04  0.12699999809E+01 0. -1.
       -4    1    3    3    0  502 -0.10448678565E+03 -0.12195484692E+04  0.14877570635E+04  0.19265613538E+04  0.12699999809E+01 0.  1.
</event>
<event>
 5   0  0.2287500E-07  0.3501890E+04  0.7818609E-02  0.8113342E-01
        4   -1    0    0  501    0  0.00000000000E+00  0.00000000000E+00  0.18504648562E+04  0.18504652920E+04  0.12699999809E+01 0. -1.
       -4   -1    0    0    0  501  0.00000000000E+00  0.00000000000E+00 -0.16567768662E+04  0.16567773530E+04  0.12699999809E+01 0.  1.
    10030    2    1    2    0    0  0.00000000000E+00  0.00000000000E+00  0.19368798995E+03  0.35072426449E+04  0.35018903371E+04 0.  0.
        2    1    3    3  502    0 -0.20748574407E+03  0.54841019613E+03 -0.15555276092E+04  0.16623688581E+04  0.25500000920E-02 0.  1.
       -2    1    3    3    0  502  0.20748574407E+03 -0.54841019613E+03  0.17492155992E+04  0.18448737869E+04  0.25500000920E-02 0. -1.
</event>
<event>
 5   0  0.2345471E-07  0.3676603E+04  0.7818609E-02  0.8073167E-01
        1   -1    0    0  501    0  0.00000000000E+00  0.00000000000E+00  0.14056894655E+04  0.14056894655E+04  0.50400001928E-02 0.  1.
       -1   -1    0    0    0  501  0.00000000000E+00  0.00000000000E+00 -0.24040533739E+04  0.24040533739E+04  0.50400001928E-02 0. -1.
    10030    2    1    2    0    0  0.00000000000E+00  0.00000000000E+00 -0.99836390842E+03  0.38097428394E+04  0.36766030529E+04 0.  0.
        5    1    3    3  502    0  0.32148017779E+03  0.93376401569E+02 -0.23721953461E+04  0.23957048038E+04  0.46999998093E+01 0. -1.
       -5    1    3    3    0  502 -0.32148017779E+03 -0.93376401569E+02  0.13738314376E+04  0.14140380356E+04  0.46999998093E+01 0.  1.
</event>
<event>
 5   0  0.2287500E-07  0.3391731E+04  0.7818609E-02  0.8139939E-01
       -1   -1    0    0    0  501  0.00000000000E+00  0.00000000000E+00  0.90121822762E+03  0.90121822764E+03  0.50400001928E-02 0. -1.
        1   -1    0    0  501    0  0.00000000000E+00  0.00000000000E+00 -0.31911906462E+04  0.31911906462E+04  0.50400001928E-02 0.  1.
    10030    2    1    2    0    0  0.00000000000E+00  0.00000000000E+00 -0.22899724186E+04  0.40924088739E+04  0.33917306369E+04 0.  0.
        2    1    3    3  502    0  0.86323553259E+03  0.14514091910E+04 -0.95730531597E+03  0.19411846106E+04  0.25500000920E-02 0. -1.
       -2    1    3    3    0  502 -0.86323553259E+03 -0.14514091910E+04 -0.13326671026E+04  0.21512242633E+04  0.25500000920E-02 0.  1.
</event>
<event>
 5   0  0.2287500E-07  0.3655154E+04  0.7818609E-02  0.8077974E-01
        1   -1    0    0  501    0  0.00000000000E+00  0.00000000000E+00  0.15322235287E+04  0.15322235287E+04  0.50400001928E-02 0. -1.
       -1   -1    0    0    0  501  0.00000000000E+00  0.00000000000E+00 -0.21798633209E+04  0.21798633209E+04  0.50400001928E-02 0.  1.
    10030    2    1    2    0    0  0.00000000000E+00  0.00000000000E+00 -0.64763979216E+03  0.37120868496E+04  0.36551540978E+04 0.  0.
        3    1    3    3  502    0  0.13041128949E+04  0.60452534954E+01  0.97647077813E+03  0.16291845133E+04  0.10100000352E+00 0. -1.
       -3    1    3    3    0  502 -0.13041128949E+04 -0.60452534954E+01 -0.16241105703E+04  0.20829023363E+04  0.10100000352E+00 0.  1.
</event>
<event>
 5   0  0.2345471E-07  0.3659071E+04  0.7818609E-02  0.8077093E-01
        1   -1    0    0  501    0  0.00000000000E+00  0.00000000000E+00  0.16858006529E+04  0.16858006530E+04  0.50400001928E-02 0. -1.
       -1   -1    0    0    0  501  0.00000000000E+00  0.00000000000E+00 -0.19855259652E+04  0.19855259652E+04  0.50400001928E-02 0.  1.
    10030    2    1    2    0    0  0.00000000000E+00  0.00000000000E+00 -0.29972531222E+03  0.36713266181E+04  0.36590714497E+04 0.  0.
        5    1    3    3  502    0 -0.81966485041E+03 -0.68817012350E+03 -0.16386619855E+04  0.19572081593E+04  0.46999998093E+01 0.  1.
       -5    1    3    3    0  502  0.81966485041E+03  0.68817012350E+03  0.13389366733E+04  0.17141184589E+04  0.46999998093E+01 0. -1.
</event>
<event>
 5   0  0.2345471E-07  0.3886081E+04  0.7818609E-02  0.8027930E-01
       -1   -1    0    0    0  501  0.00000000000E+00  0.00000000000E+00  0.22199554640E+04  0.22199554640E+04  0.50400001928E-02 0.  1.
        1   -1    0    0  501    0  0.00000000000E+00  0.00000000000E+00 -0.17006675749E+04  0.17006675749E+04  0.50400001928E-02 0. -1.
    10030    2    1    2    0    0  0.00000000000E+00  0.00000000000E+00  0.51928788914E+03  0.39206230389E+04  0.38860809438E+04 0.  0.
        5    1    3    3  502    0  0.93305645070E+03 -0.68746613906E+02 -0.14584504368E+04  0.17327493193E+04  0.46999998093E+01 0. -1.
       -5    1    3    3    0  502 -0.93305645070E+03  0.68746613906E+02  0.19777383259E+04  0.21878737196E+04  0.46999998093E+01 0.  1.
</event>
<event>
 5   0  0.2345471E-07  0.3655597E+04  0.7818609E-02  0.8077874E-01
       -1   -1    0    0    0  501  0.00000000000E+00  0.00000000000E+00  0.22403623816E+04  0.22403623816E+04  0.50400001928E-02 0. -1.
        1   -1    0    0  501    0  0.00000000000E+00  0.00000000000E+00 -0.14912083735E+04  0.14912083735E+04  0.50400001928E-02 0.  1.
    10030    2    1    2    0    0  0.00000000000E+00  0.00000000000E+00  0.74915400818E+03  0.37315707551E+04  0.36555968832E+04 0.  0.
        5    1    3    3  502    0  0.12473852780E+04 -0.58830750085E+03 -0.84983039668E+03  0.16199720801E+04  0.46999998093E+01 0.  1.
       -5    1    3    3    0  502 -0.12473852780E+04  0.58830750085E+03  0.15989844049E+04  0.21115986750E+04  0.46999998093E+01 0. -1.
</event>
<event>
 5   0  0.6939921E-07  0.3679755E+04  0.7818609E-02  0.8072463E-01
       -2   -1    0    0    0  501  0.00000000000E+00  0.00000000000E+00  0.21398694979E+04  0.21398694979E+04  0.25500000920E-02 0. -1.
        2   -1    0    0  501    0  0.00000000000E+00  0.00000000000E+00 -0.15819418421E+04  0.15819418421E+04  0.25500000920E-02 0.  1.
    10030    2    1    2    0    0  0.00000000000E+00  0.00000000000E+00  0.55792765588E+03  0.37218113400E+04  0.36797549350E+04 0.  0.
        4    1    3    3  502    0 -0.14802027270E+04  0.94836580710E+03 -0.27014966933E+03  0.17785894056E+04  0.12699999809E+01 0.  1.
       -4    1    3    3    0  502  0.14802027270E+04 -0.94836580710E+03  0.82807732521E+03  0.19432219344E+04  0.12699999809E+01 0. -1.
</event>
<event>
 5   0  0.2287500E-07  0.3688617E+04  0.7818609E-02  0.8070489E-01
       -1   -1    0    0    0  501  0.00000000000E+00  0.00000000000E+00  0.17679081214E+04  0.17679081214E+04  0.50400001928E-02 0.  1.
        1   -1    0    0  501    0  0.00000000000E+00  0.00000000000E+00 -0.19240109095E+04  0.19240109095E+04  0.50400001928E-02 0. -1.
    10030    2    1    2    0    0  0.00000000000E+00  0.00000000000E+00 -0.15610278812E+03  0.36919190309E+04  0.36886173630E+04 0.  0.
        4    1    3    3  502    0  0.16039995600E+04  0.57306075609E+03 -0.78597486670E+03  0.18758921404E+04  0.12699999809E+01 0. -1.
       -4    1    3    3    0  502 -0.16039995600E+04 -0.57306075609E+03  0.62987207858E+03  0.18160268905E+04  0.12699999809E+01 0.  1.
</event>
<event>
 5   0  0.7074157E-07  0.3713805E+04  0.7818609E-02  0.8064909E-01
       -2   -1    0    0    0  501  0.00000000000E+00  0.00000000000E+00  0.16622952641E+04  0.16622952641E+04  0.25500000920E-02 0. -1.
        2   -1    0    0  501    0  0.00000000000E+00  0.00000000000E+00 -0.20742924482E+04  0.20742924482E+04  0.25500000920E-02 0.  1.
    10030    2    1    2    0    0  0.00000000000E+00  0.00000000000E+00 -0.41199718415E+03  0.37365877123E+04  0.37138047945E+04 0.  0.
        3    1    3    3  502    0  0.14630902755E+04  0.69280151111E+03 -0.11212379927E+04  0.19692084030E+04  0.10100000352E+00 0.  1.
       -3    1    3    3    0  502 -0.14630902755E+04 -0.69280151111E+03  0.70924080859E+03  0.17673793093E+04  0.10100000352E+00 0. -1.
</event>
<event>
 5   0  0.7300916E-07  0.3526752E+04  0.7818609E-02  0.8107479E-01
       -2   -1    0    0    0  501  0.00000000000E+00  0.00000000000E+00  0.18287422513E+04  0.18287422513E+04  0.25500000920E-02 0. -1.
        2   -1    0    0  501    0  0.00000000000E+00  0.00000000000E+00 -0.17003463283E+04  0.17003463283E+04  0.25500000920E-02 0.  1.
    10030    2    1    2    0    0  0.00000000000E+00  0.00000000000E+00  0.12839592294E+03  0.35290885796E+04  0.35267521447E+04 0.  0.
        1    1    3    3  502    0  0.64837801337E+03 -0.12898183885E+04 -0.94912766434E+03  0.17276772982E+04  0.50400001928E-02 0.  1.
       -1    1    3    3    0  502 -0.64837801337E+03  0.12898183885E+04  0.10775235873E+04  0.18014112814E+04  0.50400001928E-02 0. -1.
</event>
<event>
 5   0  0.2287500E-07  0.3699914E+04  0.7818609E-02  0.8067981E-01
        1   -1    0    0  501    0  0.00000000000E+00  0.00000000000E+00  0.12039161151E+04  0.12039161151E+04  0.50400001928E-02 0. -1.
       -1   -1    0    0    0  501  0.00000000000E+00  0.00000000000E+00 -0.28426737342E+04  0.28426737342E+04  0.50400001928E-02 0.  1.
    10030    2    1    2    0    0  0.00000000000E+00  0.00000000000E+00 -0.16387576192E+04  0.40465898493E+04  0.36999139009E+04 0.  0.
        4    1    3    3  502    0 -0.10603802872E+04 -0.14620376573E+04 -0.12573755050E+04  0.22006715426E+04  0.12699999809E+01 0. -1.
       -4    1    3    3    0  502  0.10603802872E+04  0.14620376573E+04 -0.38138211411E+03  0.18459183067E+04  0.12699999809E+01 0.  1.
</event>
<event>
 5   0  0.7300916E-07  0.3259274E+04  0.7818609E-02  0.8173336E-01
       -2   -1    0    0    0  501  0.00000000000E+00  0.00000000000E+00  0.14870733338E+04  0.14870733338E+04  0.25500000920E-02 0. -1.
        2   -1    0    0  501    0  0.00000000000E+00  0.00000000000E+00 -0.17858681628E+04  0.17858681628E+04  0.25500000920E-02 0.  1.
    10030    2    1    2    0    0  0.00000000000E+00  0.00000000000E+00 -0.29879482903E+03  0.32729414966E+04  0.32592741048E+04 0.  0.
        1    1    3    3  502    0  0.75200383567E+03  0.68734349454E+03  0.11278505467E+04  0.15198676600E+04  0.50400001928E-02 0. -1.
       -1    1    3    3    0  502 -0.75200383567E+03 -0.68734349454E+03 -0.14266453757E+04  0.17530738365E+04  0.50400001928E-02 0.  1.
</event>
<event>
 5   0  0.7300916E-07  0.3107062E+04  0.7818609E-02  0.8213803E-01
       -2   -1    0    0    0  501  0.00000000000E+00  0.00000000000E+00  0.12064589056E+04  0.12064589056E+04  0.25500000920E-02 0.  1.
        2   -1    0    0  501    0  0.00000000000E+00  0.00000000000E+00 -0.20004477313E+04  0.20004477313E+04  0.25500000920E-02 0. -1.
    10030    2    1    2    0    0  0.00000000000E+00  0.00000000000E+00 -0.79398882573E+03  0.32069066369E+04  0.31070616219E+04 0.  0.
        1    1    3    3  502    0  0.29024278317E+03 -0.27495457627E+03 -0.19464406561E+04  0.19870762743E+04  0.50400001928E-02 0. -1.
       -1    1    3    3    0  502 -0.29024278317E+03  0.27495457627E+03  0.11524518304E+04  0.12198303626E+04  0.50400001928E-02 0.  1.
</event>
<event>
 5   0  0.2287500E-07  0.3704349E+04  0.7818609E-02  0.8066999E-01
       -1   -1    0    0    0  501  0.00000000000E+00  0.00000000000E+00  0.17972643197E+04  0.17972643197E+04  0.50400001928E-02 0.  1.
        1   -1    0    0  501    0  0.00000000000E+00  0.00000000000E+00 -0.19087622341E+04  0.19087622341E+04  0.50400001928E-02 0. -1.
    10030    2    1    2    0    0  0.00000000000E+00  0.00000000000E+00 -0.11149791444E+03  0.37060265538E+04  0.37043489351E+04 0.  0.
        2    1    3    3  502    0 -0.37670668663E+03  0.11952838481E+04 -0.14201623424E+04  0.18940624288E+04  0.25500000920E-02 0. -1.
       -2    1    3    3    0  502  0.37670668663E+03 -0.11952838481E+04  0.13086644280E+04  0.18119641250E+04  0.25500000920E-02 0.  1.
</event>
<event>
 5   0  0.7300916E-07  0.3706717E+04  0.7818609E-02  0.8066475E-01
        2   -1    0    0  501    0  0.00000000000E+00  0.00000000000E+00  0.12572141701E+04  0.12572141701E+04  0.25500000920E-02 0. -1.
       -2   -1    0    0    0  501  0.00000000000E+00  0.00000000000E+00 -0.27321815487E+04  0.27321815487E+04  0.25500000920E-02 0.  1.
    10030    2    1    2    0    0  0.00000000000E+00  0.00000000000E+00 -0.14749673786E+04  0.39893957189E+04  0.37067167998E+04 0.  0.
        1    1    3    3  502    0  0.15717638661E+04 -0.87411778757E+03 -0.25566735024E+03  0.18165597572E+04  0.50400001928E-02 0.  1.
       -1    1    3    3    0  502 -0.15717638661E+04  0.87411778757E+03 -0.12193000283E+04  0.21728359617E+04  0.50400001928E-02 0. -1.
</event>
<event>
 5   0  0.2287500E-07  0.3691837E+04  0.7818609E-02  0.8069773E-01
       -1   -1    0    0    0  501  0.00000000000E+00  0.00000000000E+00  0.11882547268E+04  0.11882547268E+04  0.50400001928E-02 0.  1.
        1   -1    0    0  501    0  0.00000000000E+00  0.00000000000E+00 -0.28675799645E+04  0.28675799645E+04  0.50400001928E-02 0. -1.
    10030    2    1    2    0    0  0.00000000000E+00  0.00000000000E+00 -0.16793252377E+04  0.40558346914E+04  0.36918371835E+04 0.  0.
        4    1    3    3  502    0 -0.65226616387E+03  0.17102196067E+04 -0.57712000532E+03  0.19192111309E+04  0.12699999809E+01 0. -1.
       -4    1    3    3    0  502  0.65226616387E+03 -0.17102196067E+04 -0.11022052324E+04  0.21366235604E+04  0.12699999809E+01 0.  1.
</event>
<event>
 5   0  0.2287500E-07  0.3746335E+04  0.7818609E-02  0.8057770E-01
        1   -1    0    0  501    0  0.00000000000E+00  0.00000000000E+00  0.17668064763E+04  0.17668064764E+04  0.50400001928E-02 0. -1.
       -1   -1    0    0    0  501  0.00000000000E+00  0.00000000000E+00 -0.19859311715E+04  0.19859311715E+04  0.50400001928E-02 0.  1.
    10030    2    1    2    0    0  0.00000000000E+00  0.00000000000E+00 -0.21912469514E+03  0.37527376478E+04  0.37463347717E+04 0.  0.
        2    1    3    3  502    0  0.10017425698E+04 -0.36952391383E+02  0.14755144877E+04  0.17838151975E+04  0.25500000920E-02 0. -1.
       -2    1    3    3    0  502 -0.10017425698E+04  0.36952391383E+02 -0.16946391828E+04  0.19689224503E+04  0.25500000920E-02 0.  1.
</event>
<event>
 5   0  0.2411746E-07  0.2676559E+04  0.7818609E-02  0.8342651E-01
       -1   -1    0    0    0  501  0.00000000000E+00  0.00000000000E+00  0.14909709451E+04  0.14909709451E+04  0.50400001928E-02 0. -1.
        1   -1    0    0  501    0  0.00000000000E+00  0.00000000000E+00 -0.12012255385E+04  0.12012255385E+04  0.50400001928E-02 0.  1.
    10030    2    1    2    0    0  0.00000000000E+00  0.00000000000E+00  0.28974540662E+03  0.26921964836E+04  0.26765592662E+04 0.  0.
        1    1    3    3  502    0  0.44716800643E+03 -0.69171613286E+03 -0.91607014162E+03  0.12319151508E+04  0.50400001928E-02 0.  1.
       -1    1    3    3    0  502 -0.44716800643E+03  0.69171613286E+03  0.12058155482E+04  0.14602813328E+04  0.50400001928E-02 0. -1.
</event>
<event>
 5   0  0.7300916E-07  0.3629863E+04  0.7818609E-02  0.8083685E-01
        2   -1    0    0  501    0  0.00000000000E+00  0.00000000000E+00  0.18780692539E+04  0.18780692539E+04  0.25500000920E-02 0.  1.
       -2   -1    0    0    0  501  0.00000000000E+00  0.00000000000E+00 -0.17539167718E+04  0.17539167718E+04  0.25500000920E-02 0. -1.
    10030    2    1    2    0    0  0.00000000000E+00  0.00000000000E+00  0.12415248210E+03  0.36319860257E+04  0.36298634481E+04 0.  0.
        1    1    3    3  502    0  0.99777309820E+03 -0.14683342750E+04 -0.31553079677E+03  0.18030852399E+04  0.50400001928E-02 0. -1.
       -1    1    3    3    0  502 -0.99777309820E+03  0.14683342750E+04  0.43968327887E+03  0.18289007858E+04  0.50400001928E-02 0.  1.
</event>
<event>
 5   0  0.2411746E-07  0.3667312E+04  0.7818609E-02  0.8075245E-01
        1   -1    0    0  501    0  0.00000000000E+00  0.00000000000E+00  0.13607687932E+04  0.13607687932E+04  0.50400001928E-02 0.  1.
       -1   -1    0    0    0  501  0.00000000000E+00  0.00000000000E+00 -0.24708780487E+04  0.24708780487E+04  0.50400001928E-02 0. -1.
    10030    2    1    2    0    0  0.00000000000E+00  0.00000000000E+00 -0.11101092555E+04  0.38316468420E+04  0.36673116806E+04 0.  0.
        1    1    3    3  502    0 -0.81558669997E+03  0.83000080372E+03  0.92556088401E+03  0.14868577435E+04  0.50400001928E-02 0.  1.
       -1    1    3    3    0  502  0.81558669997E+03 -0.83000080372E+03 -0.20356701395E+04  0.23447890985E+04  0.50400001928E-02 0. -1.
</event>
<event>
 5   0  0.2287500E-07  0.3711619E+04  0.7818609E-02  0.8065392E-01
        1   -1    0    0  501    0  0.00000000000E+00  0.00000000000E+00  0.21914769993E+04  0.21914769993E+04  0.50400001928E-02 0.  1.
       -1   -1    0    0    0  501  0.00000000000E+00  0.00000000000E+00 -0.15715560471E+04  0.15715560471E+04  0.50400001928E-02 0. -1.
    10030    2    1    2    0    0  0.00000000000E+00  0.00000000000E+00  0.61992095228E+03  0.37630330464E+04  0.37116190162E+04 0.  0.
        4    1    3    3  502    0  0.63052832521E+03 -0.91325499699E+03  0.18179873556E+04  0.21299484258E+04  0.12699999809E+01 0.  1.
       -4    1    3    3    0  502 -0.63052832521E+03  0.91325499699E+03 -0.11980664033E+04  0.16330846206E+04  0.12699999809E+01 0. -1.
</event>
<event>
 5   0  0.7124627E-07  0.3749126E+04  0.7818609E-02  0.8057161E-01
        2   -1    0    0  501    0  0.00000000000E+00  0.00000000000E+00  0.20859520520E+04  0.20859520520E+04  0.25500000920E-02 0. -1.
       -2   -1    0    0    0  501  0.00000000000E+00  0.00000000000E+00 -0.16845959908E+04  0.16845959908E+04  0.25500000920E-02 0.  1.
    10030    2    1    2    0    0  0.00000000000E+00  0.00000000000E+00  0.40135606118E+03  0.37705480427E+04  0.37491260121E+04 0.  0.
        2    1    3    3  502    0 -0.90328061530E+01 -0.26270298056E+03  0.20673252491E+04  0.20839693216E+04  0.25500000920E-02 0. -1.
       -2    1    3    3    0  502  0.90328061530E+01  0.26270298056E+03 -0.16659691879E+04  0.16865787212E+04  0.25500000920E-02 0.  1.
</event>
<event>
 5   0  0.7124627E-07  0.3883959E+04  0.7818609E-02  0.8028374E-01
        2   -1    0    0  501    0  0.00000000000E+00  0.00000000000E+00  0.25289863541E+04  0.25289863541E+04  0.25500000920E-02 0. -1.
       -2   -1    0    0    0  501  0.00000000000E+00  0.00000000000E+00 -0.14912239818E+04  0.14912239818E+04  0.25500000920E-02 0.  1.
    10030    2    1    2    0    0  0.00000000000E+00  0.00000000000E+00  0.10377623723E+04  0.40202103359E+04  0.38839593721E+04 0.  0.
        2    1    3    3  502    0  0.18192287881E+04 -0.63290676672E+03  0.77478007870E+03  0.20761619709E+04  0.25500000920E-02 0. -1.
       -2    1    3    3    0  502 -0.18192287881E+04  0.63290676672E+03  0.26298229358E+03  0.19440483651E+04  0.25500000920E-02 0.  1.
</event>
<event>
 5   0  0.6949625E-07  0.3047138E+04  0.7818609E-02  0.8230397E-01
       -2   -1    0    0    0  501  0.00000000000E+00  0.00000000000E+00  0.85703316965E+03  0.85703316965E+03  0.25500000920E-02 0.  1.
        2   -1    0    0  501    0  0.00000000000E+00  0.00000000000E+00 -0.27084853840E+04  0.27084853840E+04  0.25500000920E-02 0. -1.
    10030    2    1    2    0    0  0.00000000000E+00  0.00000000000E+00 -0.18514522144E+04  0.35655185537E+04  0.30471375510E+04 0.  0.
        5    1    3    3  502    0  0.35664524568E+02 -0.10329438477E+04  0.38407475252E+03  0.11026243496E+04  0.46999998093E+01 0.  1.
       -5    1    3    3    0  502 -0.35664524568E+02  0.10329438477E+04 -0.22355269669E+04  0.24628942041E+04  0.46999998093E+01 0. -1.
</event>
<event>
 5   0  0.7300916E-07  0.3150245E+04  0.7818609E-02  0.8202082E-01
        2   -1    0    0  501    0  0.00000000000E+00  0.00000000000E+00  0.20694762595E+04  0.20694762595E+04  0.25500000920E-02 0. -1.
       -2   -1    0    0    0  501  0.00000000000E+00  0.00000000000E+00 -0.11988590878E+04  0.11988590878E+04  0.25500000920E-02 0.  1.
    10030    2    1    2    0    0  0.00000000000E+00  0.00000000000E+00  0.87061717164E+03  0.32683353473E+04  0.31502447021E+04 0.  0.
        1    1    3    3  502    0 -0.14553663782E+04 -0.55690278980E+03  0.67365601230E+03  0.16976585154E+04  0.50400001928E-02 0. -1.
       -1    1    3    3    0  502  0.14553663782E+04  0.55690278980E+03  0.19696115934E+03  0.15706768319E+04  0.50400001928E-02 0.  1.
</event>
<event>
 5   0  0.2287500E-07  0.2922874E+04  0.7818609E-02  0.8266104E-01
        1   -1    0    0  501    0  0.00000000000E+00  0.00000000000E+00  0.11342638691E+04  0.11342638691E+04  0.50400001928E-02 0.  1.
       -1   -1    0    0    0  501  0.00000000000E+00  0.00000000000E+00 -0.18829822732E+04  0.18829822732E+04  0.50400001928E-02 0. -1.
    10030    2    1    2    0    0  0.00000000000E+00  0.00000000000E+00 -0.74871840410E+03  0.30172461423E+04  0.29228744473E+04 0.  0.
        3    1    3    3  502    0 -0.49596301487E+03  0.62572948529E+03 -0.16379235630E+04  0.18221718661E+04  0.10100000352E+00 0. -1.
       -3    1    3    3    0  502  0.49596301487E+03 -0.62572948529E+03  0.88920515894E+03  0.11950742763E+04  0.10100000352E+00 0.  1.
</event>
<event>
 5   0  0.6939921E-07  0.2703103E+04  0.7818609E-02  0.8333999E-01
       -2   -1    0    0    0  501  0.00000000000E+00  0.00000000000E+00  0.14638826186E+04  0.14638826186E+04  0.25500000920E-02 0. -1.
        2   -1    0    0  501    0  0.00000000000E+00  0.00000000000E+00 -0.12478400011E+04  0.12478400011E+04  0.25500000920E-02 0.  1.
    10030    2    1    2    0    0  0.00000000000E+00  0.00000000000E+00  0.21604261747E+03  0.27117226197E+04  0.27031028751E+04 0.  0.
        4    1    3    3  502    0 -0.76172254583E+03  0.90301422054E+03  0.76664648953E+03  0.14083338994E+04  0.12699999809E+01 0. -1.
       -4    1    3    3    0  502  0.76172254583E+03 -0.90301422054E+03 -0.55060387206E+03  0.13033887203E+04  0.12699999809E+01 0.  1.
</event>
<event>
 5   0  0.6949625E-07  0.3333293E+04  0.7818609E-02  0.8154475E-01
       -2   -1    0    0    0  501  0.00000000000E+00  0.00000000000E+00  0.20896365944E+04  0.20896365944E+04  0.25500000920E-02 0.  1.
        2   -1    0    0  501    0  0.00000000000E+00  0.00000000000E+00 -0.13292795217E+04  0.13292795217E+04  0.25500000920E-02 0. -1.
    10030    2    1    2    0    0  0.00000000000E+00  0.00000000000E+00  0.76035707278E+03  0.34189161161E+04  0.33332933461E+04 0.  0.
        5    1    3    3  502    0  0.21166133247E+03 -0.14705101365E+04 -0.39453000191E+03  0.15371651160E+04  0.46999998093E+01 0. -1.
       -5    1    3    3    0  502 -0.21166133247E+03  0.14705101365E+04  0.11548870747E+04  0.18817510002E+04  0.46999998093E+01 0.  1.
</event>
<event>
 5   0  0.7300916E-07  0.3450954E+04  0.7818609E-02  0.8125513E-01
        2   -1    0    0  501    0  0.00000000000E+00  0.00000000000E+00  0.20550567280E+04  0.20550567280E+04  0.25500000920E-02 0.  1.
       -2   -1    0    0    0  501  0.00000000000E+00  0.00000000000E+00 -0.14487537140E+04  0.14487537140E+04  0.25500000920E-02 0. -1.
    10030    2    1    2    0    0  0.00000000000E+00  0.00000000000E+00  0.60630301406E+03  0.35038104420E+04  0.34509541099E+04 0.  0.
        1    1    3    3  502    0 -0.12753700211E+04 -0.24888676723E+03  0.14557739298E+04  0.19513562075E+04  0.50400001928E-02 0.  1.
       -1    1    3    3    0  502  0.12753700211E+04  0.24888676723E+03 -0.84947091573E+03  0.15524542346E+04  0.50400001928E-02 0. -1.
</event>
<event>
 5   0  0.2411746E-07  0.3675322E+04  0.7818609E-02  0.8073453E-01
        1   -1    0    0  501    0  0.00000000000E+00  0.00000000000E+00  0.20619618513E+04  0.20619618513E+04  0.50400001928E-02 0. -1.
       -1   -1    0    0    0  501  0.00000000000E+00  0.00000000000E+00 -0.16377596006E+04  0.16377596006E+04  0.50400001928E-02 0.  1.
    10030    2    1    2    0    0  0.00000000000E+00  0.00000000000E+00  0.42420225069E+03  0.36997214520E+04  0.36753219278E+04 0.  0.
        1    1    3    3  502    0 -0.52924656957E+03  0.16657673568E+04  0.78342071609E+03  0.19153670241E+04  0.50400001928E-02 0. -1.
       -1    1    3    3    0  502  0.52924656957E+03 -0.16657673568E+04 -0.35921846540E+03  0.17843544279E+04  0.50400001928E-02 0.  1.
</event>
<event>
 5   0  0.2287500E-07  0.3526189E+04  0.7818609E-02  0.8107611E-01
        4   -1    0    0  501    0  0.00000000000E+00  0.00000000000E+00  0.19820147933E+04  0.19820152002E+04  0.12699999809E+01 0.  1.
       -4   -1    0    0    0  501  0.00000000000E+00  0.00000000000E+00 -0.15683540540E+04  0.15683545682E+04  0.12699999809E+01 0. -1.
    10030    2    1    2    0    0  0.00000000000E+00  0.00000000000E+00  0.41366073934E+03  0.35503697684E+04  0.35261892015E+04 0.  0.
        1    1    3    3  502    0 -0.94576092561E+03  0.73070388903E+02  0.17031910858E+04  0.19495288879E+04  0.50400001928E-02 0.  1.
       -1    1    3    3    0  502  0.94576092561E+03 -0.73070388903E+02 -0.12895303464E+04  0.16008408805E+04  0.50400001928E-02 0. -1.
</event>
<event>
 5   0  0.2287500E-07  0.3695026E+04  0.7818609E-02  0.8069065E-01
       -1   -1    0    0    0  501  0.00000000000E+00  0.00000000000E+00  0.15689485252E+04  0.15689485252E+04  0.50400001928E-02 0. -1.
        1   -1    0    0  501    0  0.00000000000E+00  0.00000000000E+00 -0.21755358016E+04  0.21755358016E+04  0.50400001928E-02 0.  1.
    10030    2    1    2    0    0  0.00000000000E+00  0.00000000000E+00 -0.60658727641E+03  0.37444843268E+04  0.36950256765E+04 0.  0.
        2    1    3    3  502    0 -0.35175925453E+03 -0.17794401294E+04  0.52348176080E+02  0.18146300116E+04  0.25500000920E-02 0. -1.
       -2    1    3    3    0  502  0.35175925453E+03  0.17794401294E+04 -0.65893545249E+03  0.19298543152E+04  0.25500000920E-02 0.  1.
</event>
<event>
 5   0  0.7124627E-07  0.3693494E+04  0.7818609E-02  0.8069405E-01
       -2   -1    0    0    0  501  0.00000000000E+00  0.00000000000E+00  0.15366629046E+04  0.15366629046E+04  0.25500000920E-02 0.  1.
        2   -1    0    0  501    0  0.00000000000E+00  0.00000000000E+00 -0.22194032555E+04  0.22194032555E+04  0.25500000920E-02 0. -1.
    10030    2    1    2    0    0  0.00000000000E+00  0.00000000000E+00 -0.68274035088E+03  0.37560661602E+04  0.36934940927E+04 0.  0.
        2    1    3    3  502    0 -0.12909717141E+04  0.10576300436E+04 -0.11455162772E+04  0.20242027609E+04  0.25500000920E-02 0. -1.
       -2    1    3    3    0  502  0.12909717141E+04 -0.10576300436E+04  0.46277592634E+03  0.17318633993E+04  0.25500000920E-02 0.  1.
</event>
<event>
 5   0  0.6939921E-07  0.3666926E+04  0.7818609E-02  0.8075331E-01
       -2   -1    0    0    0  501  0.00000000000E+00  0.00000000000E+00  0.29733788506E+04  0.29733788506E+04  0.25500000920E-02 0. -1.
        2   -1    0    0  501    0  0.00000000000E+00  0.00000000000E+00 -0.11305610669E+04  0.11305610669E+04  0.25500000920E-02 0.  1.
    10030    2    1    2    0    0  0.00000000000E+00  0.00000000000E+00  0.18428177837E+04  0.41039399175E+04  0.36669258873E+04 0.  0.
        4    1    3    3  502    0  0.55530861051E+03  0.18992268634E+03  0.28654124644E+04  0.29248980296E+04  0.12699999809E+01 0. -1.
       -4    1    3    3    0  502 -0.55530861051E+03 -0.18992268634E+03 -0.10225946807E+04  0.11790418879E+04  0.12699999809E+01 0.  1.
</event>
<event>
 5   0  0.6949625E-07  0.3704773E+04  0.7818609E-02  0.8066905E-01
        2   -1    0    0  501    0  0.00000000000E+00  0.00000000000E+00  0.17850114318E+04  0.17850114318E+04  0.25500000920E-02 0.  1.
       -2   -1    0    0    0  501  0.00000000000E+00  0.00000000000E+00 -0.19223047458E+04  0.19223047458E+04  0.25500000920E-02 0. -1.
    10030    2    1    2    0    0  0.00000000000E+00  0.00000000000E+00 -0.13729331402E+03  0.37073161776E+04  0.37047731087E+04 0.  0.
        5    1    3    3  502    0 -0.12903178906E+04  0.52661128271E+03  0.11524672395E+04  0.18084364876E+04  0.46999998093E+01 0. -1.
       -5    1    3    3    0  502  0.12903178906E+04 -0.52661128271E+03 -0.12897605535E+04  0.18988796900E+04  0.46999998093E+01 0.  1.
</event>
<event>
 5   0  0.2411746E-07  0.3740154E+04  0.7818609E-02  0.8059121E-01
       -1   -1    0    0    0  501  0.00000000000E+00  0.00000000000E+00  0.19108508175E+04  0.19108508175E+04  0.50400001928E-02 0. -1.
        1   -1    0    0  501    0  0.00000000000E+00  0.00000000000E+00 -0.18301731679E+04  0.18301731679E+04  0.50400001928E-02 0.  1.
    10030    2    1    2    0    0  0.00000000000E+00  0.00000000000E+00  0.80677649585E+02  0.37410239854E+04  0.37401539509E+04 0.  0.
        1    1    3    3  502    0  0.24955558818E+03 -0.52551759789E+03  0.18180370276E+04  0.19088492269E+04  0.50400001928E-02 0. -1.
       -1    1    3    3    0  502 -0.24955558818E+03  0.52551759789E+03 -0.17373593780E+04  0.18321747585E+04  0.50400001928E-02 0.  1.
</event>
<event>
 5   0  0.2287500E-07  0.3604336E+04  0.7818609E-02  0.8089499E-01
        1   -1    0    0  501    0  0.00000000000E+00  0.00000000000E+00  0.10130033609E+04  0.10130033609E+04  0.50400001928E-02 0.  1.
       -1   -1    0    0    0  501  0.00000000000E+00  0.00000000000E+00 -0.32061183795E+04  0.32061183795E+04  0.50400001928E-02 0. -1.
    10030    2    1    2    0    0  0.00000000000E+00  0.00000000000E+00 -0.21931150186E+04  0.42191217404E+04  0.36043355526E+04 0.  0.
        4    1    3    3  502    0 -0.17748140468E+04  0.11032175518E+03 -0.14391789179E+04  0.22876567402E+04  0.12699999809E+01 0. -1.
       -4    1    3    3    0  502  0.17748140468E+04 -0.11032175518E+03 -0.75393610069E+03  0.19314650002E+04  0.12699999809E+01 0.  1.
</event>
<event>
 5   0  0.7124627E-07  0.2662677E+04  0.7818609E-02  0.8347218E-01
        2   -1    0    0  501    0  0.00000000000E+00  0.00000000000E+00  0.21470925359E+04  0.21470925359E+04  0.25500000920E-02 0.  1.
       -2   -1    0    0    0  501  0.00000000000E+00  0.00000000000E+00 -0.82551711621E+03  0.82551711621E+03  0.25500000920E-02 0. -1.
    10030    2    1    2    0    0  0.00000000000E+00  0.00000000000E+00  0.13215754197E+04  0.29726096521E+04  0.26626765771E+04 0.  0.
        2    1    3    3  502    0 -0.41774327099E+03  0.12362586996E+04  0.95534918806E+03  0.16172622186E+04  0.25500000920E-02 0.  1.
       -2    1    3    3    0  502  0.41774327099E+03 -0.12362586996E+04  0.36622623167E+03  0.13553474335E+04  0.25500000920E-02 0. -1.
</event>
<event>
 5   0  0.7300916E-07  0.3724382E+04  0.7818609E-02  0.8062580E-01
        2   -1    0    0  501    0  0.00000000000E+00  0.00000000000E+00  0.31516621990E+04  0.31516621990E+04  0.25500000920E-02 0. -1.
       -2   -1    0    0    0  501  0.00000000000E+00  0.00000000000E+00 -0.11002938247E+04  0.11002938247E+04  0.25500000920E-02 0.  1.
    10030    2    1    2    0    0  0.00000000000E+00  0.00000000000E+00  0.20513683743E+04  0.42519560237E+04  0.37243815353E+04 0.  0.
        1    1    3    3  502    0  0.18186329754E+04  0.12903398221E+03  0.14584280585E+04  0.23347565333E+04  0.50400001928E-02 0. -1.
       -1    1    3    3    0  502 -0.18186329754E+04 -0.12903398221E+03  0.59294031572E+03  0.19171994904E+04  0.50400001928E-02 0.  1.
</event>
<event>
 5   0  0.6939921E-07  0.3498676E+04  0.7818609E-02  0.8114104E-01
       -2   -1    0    0    0  501  0.00000000000E+00  0.00000000000E+00  0.19040072499E+04  0.19040072500E+04  0.25500000920E-02 0.  1.
        2   -1    0    0  501    0  0.00000000000E+00  0.00000000000E+00 -0.16072330965E+04  0.16072330965E+04  0.25500000920E-02 0. -1.
    10030    2    1    2    0    0  0.00000000000E+00  0.00000000000E+00  0.29677415340E+03  0.35112403465E+04  0.34986760171E+04 0.  0.
        4    1    3    3  502    0 -0.17376879329E+04  0.12707498781E+03  0.30539201215E+03  0.17688904146E+04  0.12699999809E+01 0. -1.
       -4    1    3    3    0  502  0.17376879329E+04 -0.12707498781E+03 -0.86178587522E+01  0.17423499319E+04  0.12699999809E+01 0.  1.
</event>
<event>
 5   0  0.2287500E-07  0.3670857E+04  0.7818609E-02  0.8074451E-01
        1   -1    0    0  501    0  0.00000000000E+00  0.00000000000E+00  0.15668297283E+04  0.15668297283E+04  0.50400001928E-02 0. -1.
       -1   -1    0    0    0  501  0.00000000000E+00  0.00000000000E+00 -0.21500724712E+04  0.21500724712E+04  0.50400001928E-02 0.  1.
    10030    2    1    2    0    0  0.00000000000E+00  0.00000000000E+00 -0.58324274290E+03  0.37169021996E+04  0.36708568297E+04 0.  0.
        2    1    3    3  502    0  0.16950988199E+04  0.22814882513E+03 -0.96584577069E+03  0.19642479346E+04  0.25500000920E-02 0.  1.
       -2    1    3    3    0  502 -0.16950988199E+04 -0.22814882513E+03  0.38260302778E+03  0.17526542650E+04  0.25500000920E-02 0. -1.
</event>
<event>
 5   0  0.6949625E-07  0.3735044E+04  0.7818609E-02  0.8060240E-01
       -2   -1    0    0    0  501  0.00000000000E+00  0.00000000000E+00  0.23415307260E+04  0.23415307260E+04  0.25500000920E-02 0. -1.
        2   -1    0    0  501    0  0.00000000000E+00  0.00000000000E+00 -0.14894691655E+04  0.14894691655E+04  0.25500000920E-02 0.  1.
    10030    2    1    2    0    0  0.00000000000E+00  0.00000000000E+00  0.85206156046E+03  0.38309998915E+04  0.37350436766E+04 0.  0.
        5    1    3    3  502    0  0.13935722957E+03 -0.67253914337E+03 -0.13552153903E+04  0.15193288587E+04  0.46999998093E+01 0.  1.
       -5    1    3    3    0  502 -0.13935722957E+03  0.67253914337E+03  0.22072769507E+04  0.23116710328E+04  0.46999998093E+01 0. -1.
</event>
<event>
 5   0  0.2287500E-07  0.3583085E+04  0.7818609E-02  0.8094377E-01
       -1   -1    0    0    0  501  0.00000000000E+00  0.00000000000E+00  0.22858300603E+04  0.22858300603E+04  0.50400001928E-02 0. -1.
        1   -1    0    0  501    0  0.00000000000E+00  0.00000000000E+00 -0.14041398504E+04  0.14041398504E+04  0.50400001928E-02 0.  1.
    10030    2    1    2    0    0  0.00000000000E+00  0.00000000000E+00  0.88169020993E+03  0.36899699107E+04  0.35830853067E+04 0.  0.
        4    1    3    3  502    0 -0.45991597298E+03 -0.46266889821E+03 -0.12774718523E+04  0.14344062039E+04  0.12699999809E+01 0.  1.
       -4    1    3    3    0  502  0.45991597298E+03  0.46266889821E+03  0.21591620622E+04  0.22555637068E+04  0.12699999809E+01 0. -1.
</event>
<event>
 5   0  0.2411746E-07  0.3668283E+04  0.7818609E-02  0.8075027E-01
       -1   -1    0    0    0  501  0.00000000000E+00  0.00000000000E+00  0.17945041861E+04  0.17945041862E+04  0.50400001928E-02 0.  1.
        1   -1    0    0  501    0  0.00000000000E+00  0.00000000000E+00 -0.18746541847E+04  0.18746541847E+04  0.50400001928E-02 0. -1.
    10030    2    1    2    0    0  0.00000000000E+00  0.00000000000E+00 -0.80149998600E+02  0.36691583709E+04  0.36682828583E+04 0.  0.
        1    1    3    3  502    0 -0.89826906896E+02 -0.15613607741E+04  0.91835954196E+03  0.18136429054E+04  0.50400001928E-02 0.  1.
       -1    1    3    3    0  502  0.89826906896E+02  0.15613607741E+04 -0.99850954056E+03  0.18555154655E+04  0.50400001928E-02 0. -1.
</event>
<event>
 5   0  0.2411746E-07  0.3660879E+04  0.7818609E-02  0.8076687E-01
       -1   -1    0    0    0  501  0.00000000000E+00  0.00000000000E+00  0.16282219995E+04  0.16282219995E+04  0.50400001928E-02 0.  1.
        1   -1    0    0  501    0  0.00000000000E+00  0.00000000000E+00 -0.20577718775E+04  0.20577718775E+04  0.50400001928E-02 0. -1.
    10030    2    1    2    0    0  0.00000000000E+00  0.00000000000E+00 -0.42954987801E+03  0.36859938770E+04  0.36608793703E+04 0.  0.
        1    1    3    3  502    0  0.55140910415E+03  0.17329616024E+04 -0.42429267292E+03  0.18674132344E+04  0.50400001928E-02 0.  1.
       -1    1    3    3    0  502 -0.55140910415E+03 -0.17329616024E+04 -0.52572050898E+01  0.18185806427E+04  0.50400001928E-02 0. -1.
</event>
<event>
 5   0  0.2287500E-07  0.3556501E+04  0.7818609E-02  0.8100529E-01
       -1   -1    0    0    0  501  0.00000000000E+00  0.00000000000E+00  0.14210278068E+04  0.14210278068E+04  0.50400001928E-02 0.  1.
        1   -1    0    0  501    0  0.00000000000E+00  0.00000000000E+00 -0.22252730983E+04  0.22252730983E+04  0.50400001928E-02 0. -1.
    10030    2    1    2    0    0  0.00000000000E+00  0.00000000000E+00 -0.80424529147E+03  0.36463009051E+04  0.35565010617E+04 0.  0.
        2    1    3    3  502    0 -0.79001231412E+03 -0.15254180329E+04  0.68996306461E+02  0.17192382388E+04  0.25500000920E-02 0.  1.
       -2    1    3    3    0  502  0.79001231412E+03  0.15254180329E+04 -0.87324159793E+03  0.19270626663E+04  0.25500000920E-02 0. -1.
</event>
<event>
 5   0  0.2287500E-07  0.3733918E+04  0.7818609E-02  0.8060487E-01
        1   -1    0    0  501    0  0.00000000000E+00  0.00000000000E+00  0.12140881456E+04  0.12140881456E+04  0.50400001928E-02 0. -1.
       -1   -1    0    0    0  501  0.00000000000E+00  0.00000000000E+00 -0.28709082773E+04  0.28709082773E+04  0.50400001928E-02 0.  1.
    10030    2    1    2    0    0  0.00000000000E+00  0.00000000000E+00 -0.16568201317E+04  0.40849964229E+04  0.37339178923E+04 0.  0.
        3    1    3    3  502    0 -0.12028911999E+04  0.14034217424E+04 -0.11157781062E+04  0.21590508605E+04  0.10100000352E+00 0.  1.
       -3    1    3    3    0  502  0.12028911999E+04 -0.14034217424E+04 -0.54104202543E+03  0.19259455624E+04  0.10100000352E+00 0. -1.
</event>
<event>
 5   0  0.7300916E-07  0.3697312E+04  0.7818609E-02  0.8068558E-01
       -2   -1    0    0    0  501  0.00000000000E+00  0.00000000000E+00  0.15786848843E+04  0.15786848843E+04  0.25500000920E-02 0. -1.
        2   -1    0    0  501    0  0.00000000000E+00  0.00000000000E+00 -0.21647951025E+04  0.21647951025E+04  0.25500000920E-02 0.  1.
    10030    2    1    2    0    0  0.00000000000E+00  0.00000000000E+00 -0.58611021816E+03  0.37434799868E+04  0.36973121620E+04 0.  0.
        1    1    3    3  502    0  0.52778758611E+03 -0.80969022753E+03 -0.18886044012E+04  0.21215523997E+04  0.50400001928E-02 0.  1.
       -1    1    3    3    0  502 -0.52778758611E+03  0.80969022753E+03  0.13024941830E+04  0.16219275870E+04  0.50400001928E-02 0. -1.
</event>
<event>
 5   0  0.2287500E-07  0.3688540E+04  0.7818609E-02  0.8070506E-01
        1   -1    0    0  501    0  0.00000000000E+00  0.00000000000E+00  0.11152396632E+04  0.11152396632E+04  0.50400001928E-02 0. -1.
       -1   -1    0    0    0  501  0.00000000000E+00  0.00000000000E+00 -0.30498662420E+04  0.30498662420E+04  0.50400001928E-02 0.  1.
    10030    2    1    2    0    0  0.00000000000E+00  0.00000000000E+00 -0.19346265788E+04  0.41651059052E+04  0.36885399824E+04 0.  0.
        3    1    3    3  502    0 -0.88173634428E+03 -0.86862111185E+03  0.57658685459E+03  0.13654354719E+04  0.10100000352E+00 0. -1.
       -3    1    3    3    0  502  0.88173634428E+03  0.86862111185E+03 -0.25112134334E+04  0.27996704333E+04  0.10100000352E+00 0.  1.
</event>
<event>
 5   0  0.6939921E-07  0.3714392E+04  0.7818609E-02  0.8064780E-01
       -2   -1    0    0    0  501  0.00000000000E+00  0.00000000000E+00  0.18438861459E+04  0.18438861459E+04  0.25500000920E-02 0. -1.
        2   -1    0    0  501    0  0.00000000000E+00  0.00000000000E+00 -0.18706021959E+04  0.18706021959E+04  0.25500000920E-02 0.  1.
    10030    2    1    2    0    0  0.00000000000E+00  0.00000000000E+00 -0.26716049951E+02  0.37144883418E+04  0.37143922644E+04 0.  0.
        4    1    3    3  502    0 -0.12930463736E+04  0.13424503415E+03 -0.13397351264E+04  0.18667839927E+04  0.12699999809E+01 0.  1.
       -4    1    3    3    0  502  0.12930463736E+04 -0.13424503415E+03  0.13130190765E+04  0.18477043491E+04  0.12699999809E+01 0. -1.
</event>
<event>
 5   0  0.7074157E-07  0.3616276E+04  0.7818609E-02  0.8086774E-01
       -2   -1    0    0    0  501  0.00000000000E+00  0.00000000000E+00  0.18374412611E+04  0.18374412611E+04  0.25500000920E-02 0. -1.
        2   -1    0    0  501    0  0.00000000000E+00  0.00000000000E+00 -0.17793019468E+04  0.17793019468E+04  0.25500000920E-02 0.  1.
    10030    2    1    2    0    0  0.00000000000E+00  0.00000000000E+00  0.58139314242E+02  0.36167432079E+04  0.36162758816E+04 0.  0.
        3    1    3    3  502    0  0.30824673081E+03  0.14503973521E+04  0.10639469558E+04  0.18250073044E+04  0.10100000352E+00 0. -1.
       -3    1    3    3    0  502 -0.30824673081E+03 -0.14503973521E+04 -0.10058076416E+04  0.17917359035E+04  0.10100000352E+00 0.  1.
</event>
<event>
 5   0  0.7124627E-07  0.3650618E+04  0.7818609E-02  0.8078994E-01
        2   -1    0    0  501    0  0.00000000000E+00  0.00000000000E+00  0.17803566221E+04  0.17803566221E+04  0.25500000920E-02 0. -1.
       -2   -1    0    0    0  501  0.00000000000E+00  0.00000000000E+00 -0.18713966285E+04  0.18713966285E+04  0.25500000920E-02 0.  1.
    10030    2    1    2    0    0  0.00000000000E+00  0.00000000000E+00 -0.91040006401E+02  0.36517532506E+04  0.36506182381E+04 0.  0.
        2    1    3    3  502    0 -0.61770715396E+03  0.27876696007E+03  0.16498462332E+04  0.17836103103E+04  0.25500000920E-02 0. -1.
       -2    1    3    3    0  502  0.61770715396E+03 -0.27876696007E+03 -0.17408862396E+04  0.18681429402E+04  0.25500000920E-02 0.  1.
</event>
<event>
 5   0  0.2345471E-07  0.3321647E+04  0.7818609E-02  0.8157409E-01
       -1   -1    0    0    0  501  0.00000000000E+00  0.00000000000E+00  0.11988808076E+04  0.11988808076E+04  0.50400001928E-02 0. -1.
        1   -1    0    0  501    0  0.00000000000E+00  0.00000000000E+00 -0.23007578636E+04  0.23007578636E+04  0.50400001928E-02 0.  1.
    10030    2    1    2    0    0  0.00000000000E+00  0.00000000000E+00 -0.11018770560E+04  0.34996386712E+04  0.33216468479E+04 0.  0.
        5    1    3    3  502    0 -0.13650426128E+04 -0.94213449804E+03 -0.64128683065E+03  0.17782659071E+04  0.46999998093E+01 0. -1.
       -5    1    3    3    0  502  0.13650426128E+04  0.94213449804E+03 -0.46059022539E+03  0.17213727641E+04  0.46999998093E+01 0.  1.
</event>
<event>
 5   0  0.2411746E-07  0.3611835E+04  0.7818609E-02  0.8087786E-01
       -1   -1    0    0    0  501  0.00000000000E+00  0.00000000000E+00  0.27582938858E+04  0.27582938858E+04  0.50400001928E-02 0.  1.
        1   -1    0    0  501    0  0.00000000000E+00  0.00000000000E+00 -0.11823753984E+04  0.11823753984E+04  0.50400001928E-02 0. -1.
    10030    2    1    2    0    0  0.00000000000E+00  0.00000000000E+00  0.15759184874E+04  0.39406692842E+04  0.36118354515E+04 0.  0.
        1    1    3    3  502    0 -0.11610839520E+04 -0.64220787019E+03 -0.54864327955E+03  0.14358120839E+04  0.50400001928E-02 0.  1.
       -1    1    3    3    0  502  0.11610839520E+04  0.64220787019E+03  0.21245617670E+04  0.25048572003E+04  0.50400001928E-02 0. -1.
</event>
<event>
 5   0  0.6939921E-07  0.2995461E+04  0.7818609E-02  0.8245028E-01
        2   -1    0    0  501    0  0.00000000000E+00  0.00000000000E+00  0.13285356304E+04  0.13285356304E+04  0.25500000920E-02 0. -1.
       -2   -1    0    0    0  501  0.00000000000E+00  0.00000000000E+00 -0.16884732494E+04  0.16884732494E+04  0.25500000920E-02 0.  1.
    10030    2    1    2    0    0  0.00000000000E+00  0.00000000000E+00 -0.35993761893E+03  0.30170088798E+04  0.29954611484E+04 0.  0.
        4    1    3    3  502    0  0.89692842245E+03 -0.74703461555E+03  0.76521340423E+03  0.13957415516E+04  0.12699999809E+01 0. -1.
       -4    1    3    3    0  502 -0.89692842245E+03  0.74703461555E+03 -0.11251510232E+04  0.16212673283E+04  0.12699999809E+01 0.  1.
</event>
<event>
 5   0  0.6939921E-07  0.3746857E+04  0.7818609E-02  0.8057656E-01
       -2   -1    0    0    0  501  0.00000000000E+00  0.00000000000E+00  0.33585281981E+04  0.33585281981E+04  0.25500000920E-02 0. -1.
        2   -1    0    0  501    0  0.00000000000E+00  0.00000000000E+00 -0.10450213956E+04  0.10450213956E+04  0.25500000920E-02 0.  1.
    10030    2    1    2    0    0  0.00000000000E+00  0.00000000000E+00  0.23135068025E+04  0.44035495937E+04  0.37468567225E+04 0.  0.
        4    1    3    3  502    0 -0.14709323449E+04  0.68770604586E+03  0.58556043058E+02  0.16248113712E+04  0.12699999809E+01 0.  1.
       -4    1    3    3    0  502  0.14709323449E+04 -0.68770604586E+03  0.22549507594E+04  0.27787382225E+04  0.12699999809E+01 0. -1.
</event>
<event>
 5   0  0.6949625E-07  0.3780563E+04  0.7818609E-02  0.8050339E-01
        2   -1    0    0  501    0  0.00000000000E+00  0.00000000000E+00  0.15034658942E+04  0.15034658942E+04  0.25500000920E-02 0. -1.
       -2   -1    0    0    0  501  0.00000000000E+00  0.00000000000E+00 -0.23766183921E+04  0.23766183921E+04  0.25500000920E-02 0.  1.
    10030    2    1    2    0    0  0.00000000000E+00  0.00000000000E+00 -0.87315249785E+03  0.38800842863E+04  0.37805632893E+04 0.  0.
        5    1    3    3  502    0 -0.24319789582E+02  0.11123899042E+04 -0.20049194120E+04  0.22929733295E+04  0.46999998093E+01 0.  1.
       -5    1    3    3    0  502  0.24319789582E+02 -0.11123899042E+04  0.11317669141E+04  0.15871109568E+04  0.46999998093E+01 0. -1.
</event>
<event>
 5   0  0.7074157E-07  0.3699862E+04  0.7818609E-02  0.8067992E-01
        2   -1    0    0  501    0  0.00000000000E+00  0.00000000000E+00  0.18953984492E+04  0.18953984492E+04  0.25500000920E-02 0. -1.
       -2   -1    0    0    0  501  0.00000000000E+00  0.00000000000E+00 -0.18055541057E+04  0.18055541057E+04  0.25500000920E-02 0.  1.
    10030    2    1    2    0    0  0.00000000000E+00  0.00000000000E+00  0.89844343540E+02  0.37009525549E+04  0.36998618633E+04 0.  0.
        3    1    3    3  502    0  0.76673069598E+03 -0.29376660466E+03  0.17031411329E+04  0.18907312096E+04  0.10100000352E+00 0. -1.
       -3    1    3    3    0  502 -0.76673069598E+03  0.29376660466E+03 -0.16132967894E+04  0.18102213453E+04  0.10100000352E+00 0.  1.
</event>
<event>
 5   0  0.6939921E-07  0.3624131E+04  0.7818609E-02  0.8084986E-01
        2   -1    0    0  501    0  0.00000000000E+00  0.00000000000E+00  0.11909311048E+04  0.11909311048E+04  0.25500000920E-02 0.  1.
       -2   -1    0    0    0  501  0.00000000000E+00  0.00000000000E+00 -0.27571552409E+04  0.27571552409E+04  0.25500000920E-02 0. -1.
    10030    2    1    2    0    0  0.00000000000E+00  0.00000000000E+00 -0.15662241361E+04  0.39480863458E+04  0.36241313096E+04 0.  0.
        4    1    3    3  502    0 -0.13637321757E+04  0.10799433858E+04 -0.13359561557E+04  0.21933589825E+04  0.12699999809E+01 0. -1.
       -4    1    3    3    0  502  0.13637321757E+04 -0.10799433858E+04 -0.23026798042E+03  0.17547273632E+04  0.12699999809E+01 0.  1.
</event>
<event>
 5   0  0.2345471E-07  0.2828692E+04  0.7818609E-02  0.8294415E-01
       -1   -1    0    0    0  501  0.00000000000E+00  0.00000000000E+00  0.13018218626E+04  0.13018218626E+04  0.50400001928E-02 0. -1.
        1   -1    0    0  501    0  0.00000000000E+00  0.00000000000E+00 -0.15365967905E+04  0.15365967905E+04  0.50400001928E-02 0.  1.
    10030    2    1    2    0    0  0.00000000000E+00  0.00000000000E+00 -0.23477492787E+03  0.28384186531E+04  0.28286924866E+04 0.  0.
        5    1    3    3  502    0  0.27963272157E+03 -0.43294070728E+01  0.12737922107E+04  0.13041402872E+04  0.46999998093E+01 0. -1.
       -5    1    3    3    0  502 -0.27963272157E+03  0.43294070728E+01 -0.15085671385E+04  0.15342783659E+04  0.46999998093E+01 0.  1.
</event>
<event>
 5   0  0.2287500E-07  0.3711154E+04  0.7818609E-02  0.8065494E-01
        1   -1    0    0  501    0  0.00000000000E+00  0.00000000000E+00  0.12351375443E+04  0.12351375443E+04  0.50400001928E-02 0.  1.
       -1   -1    0    0    0  501  0.00000000000E+00  0.00000000000E+00 -0.27876780757E+04  0.27876780757E+04  0.50400001928E-02 0. -1.
    10030    2    1    2    0    0  0.00000000000E+00  0.00000000000E+00 -0.15525405314E+04  0.40228156200E+04  0.37111539190E+04 0.  0.
        2    1    3    3  502    0 -0.10807333322E+04  0.12194591934E+04 -0.17385735942E+04  0.23827931933E+04  0.25500000920E-02 0.  1.
       -2    1    3    3    0  502  0.10807333322E+04 -0.12194591934E+04  0.18603306275E+03  0.16400224267E+04  0.25500000920E-02 0. -1.
</event>
<event>
 5   0  0.6939921E-07  0.3570255E+04  0.7818609E-02  0.8097339E-01
       -2   -1    0    0    0  501  0.00000000000E+00  0.00000000000E+00  0.15452352197E+04  0.15452352197E+04  0.25500000920E-02 0.  1.
        2   -1    0    0  501    0  0.00000000000E+00  0.00000000000E+00 -0.20622622658E+04  0.20622622658E+04  0.25500000920E-02 0. -1.
    10030    2    1    2    0    0  0.00000000000E+00  0.00000000000E+00 -0.51702704611E+03  0.36074974855E+04  0.35702550527E+04 0.  0.
        4    1    3    3  502    0 -0.11172666748E+04  0.82494295727E+03  0.87473056003E+03  0.16413320417E+04  0.12699999809E+01 0. -1.
       -4    1    3    3    0  502  0.11172666748E+04 -0.82494295727E+03 -0.13917576061E+04  0.19661654439E+04  0.12699999809E+01 0.  1.
</event>
<event>
 5   0  0.7074157E-07  0.3685307E+04  0.7818609E-02  0.8071226E-01
       -2   -1    0    0    0  501  0.00000000000E+00  0.00000000000E+00  0.20077307157E+04  0.20077307157E+04  0.25500000920E-02 0.  1.
        2   -1    0    0  501    0  0.00000000000E+00  0.00000000000E+00 -0.16911487212E+04  0.16911487212E+04  0.25500000920E-02 0. -1.
    10030    2    1    2    0    0  0.00000000000E+00  0.00000000000E+00  0.31658199457E+03  0.36988794369E+04  0.36853066262E+04 0.  0.
        3    1    3    3  502    0  0.12373412010E+04 -0.19496625909E+03  0.15146919699E+04  0.19655322088E+04  0.10100000352E+00 0.  1.
       -3    1    3    3    0  502 -0.12373412010E+04  0.19496625909E+03 -0.11981099754E+04  0.17333472281E+04  0.10100000352E+00 0. -1.
</event>
<event>
 5   0  0.2287500E-07  0.3751764E+04  0.7818609E-02  0.8056586E-01
       -3   -1    0    0    0  501  0.00000000000E+00  0.00000000000E+00  0.20039482149E+04  0.20039482174E+04  0.10100000352E+00 0. -1.
        3   -1    0    0  501    0  0.00000000000E+00  0.00000000000E+00 -0.17560002065E+04  0.17560002094E+04  0.10100000352E+00 0.  1.
    10030    2    1    2    0    0  0.00000000000E+00  0.00000000000E+00  0.24794800837E+03  0.37599484268E+04  0.37517641127E+04 0.  0.
        3    1    3    3  502    0  0.18103988730E+04 -0.86266313511E+02  0.60871035459E+03  0.19119399212E+04  0.10100000352E+00 0. -1.
       -3    1    3    3    0  502 -0.18103988730E+04  0.86266313511E+02 -0.36076234622E+03  0.18480085056E+04  0.10100000352E+00 0.  1.
</event>
<event>
 5   0  0.7124627E-07  0.3701595E+04  0.7818609E-02  0.8067608E-01
       -2   -1    0    0    0  501  0.00000000000E+00  0.00000000000E+00  0.18637821091E+04  0.18637821091E+04  0.25500000920E-02 0.  1.
        2   -1    0    0  501    0  0.00000000000E+00  0.00000000000E+00 -0.18379031448E+04  0.18379031448E+04  0.25500000920E-02 0. -1.
    10030    2    1    2    0    0  0.00000000000E+00  0.00000000000E+00  0.25878964306E+02  0.37016852540E+04  0.37015947912E+04 0.  0.
        2    1    3    3  502    0 -0.36892755116E+03 -0.18103274693E+04  0.12275070678E+03  0.18516103316E+04  0.25500000920E-02 0. -1.
       -2    1    3    3    0  502  0.36892755116E+03  0.18103274693E+04 -0.96871742472E+02  0.18500749224E+04  0.25500000920E-02 0.  1.
</event>
<event>
 5   0  0.6939921E-07  0.3732721E+04  0.7818609E-02  0.8060749E-01
       -2   -1    0    0    0  501  0.00000000000E+00  0.00000000000E+00  0.12950148733E+04  0.12950148733E+04  0.25500000920E-02 0.  1.
        2   -1    0    0  501    0  0.00000000000E+00  0.00000000000E+00 -0.26897772516E+04  0.26897772516E+04  0.25500000920E-02 0. -1.
    10030    2    1    2    0    0  0.00000000000E+00  0.00000000000E+00 -0.13947623783E+04  0.39847921250E+04  0.37327210165E+04 0.  0.
        4    1    3    3  502    0  0.47854900487E+03 -0.84511051774E+03  0.10040083183E+04  0.13968733849E+04  0.12699999809E+01 0.  1.
       -4    1    3    3    0  502 -0.47854900487E+03  0.84511051774E+03 -0.23987706966E+04  0.25879187401E+04  0.12699999809E+01 0. -1.
</event>
<event>
 5   0  0.2411746E-07  0.3637452E+04  0.7818609E-02  0.8081966E-01
       -1   -1    0    0    0  501  0.00000000000E+00  0.00000000000E+00  0.18466646086E+04  0.18466646086E+04  0.50400001928E-02 0. -1.
        1   -1    0    0  501    0  0.00000000000E+00  0.00000000000E+00 -0.17912098258E+04  0.17912098258E+04  0.50400001928E-02 0.  1.
    10030    2    1    2    0    0  0.00000000000E+00  0.00000000000E+00  0.55454782867E+02  0.36378744344E+04  0.36374517409E+04 0.  0.
        1    1    3    3  502    0  0.13138847119E+04  0.12034587997E+04  0.39267755548E+03  0.18245004197E+04  0.50400001928E-02 0. -1.
       -1    1    3    3    0  502 -0.13138847119E+04 -0.12034587997E+04 -0.33722277261E+03  0.18133740147E+04  0.50400001928E-02 0.  1.
</event>
<event>
 5   0  0.7124627E-07  0.3729190E+04  0.7818609E-02  0.8061524E-01
       -2   -1    0    0    0  501  0.00000000000E+00  0.00000000000E+00  0.21503324713E+04  0.21503324713E+04  0.25500000920E-02 0. -1.
        2   -1    0    0  501    0  0.00000000000E+00  0.00000000000E+00 -0.16168266333E+04  0.16168266333E+04  0.25500000920E-02 0.  1.
    10030    2    1    2    0    0  0.00000000000E+00  0.00000000000E+00  0.53350583797E+03  0.37671591046E+04  0.37291901588E+04 0.  0.
        2    1    3    3  502    0 -0.14009118307E+04 -0.83251077389E+03 -0.64861130104E+03  0.17539454855E+04  0.25500000920E-02 0.  1.
       -2    1    3    3    0  502  0.14009118307E+04  0.83251077389E+03  0.11821171390E+04  0.20132136192E+04  0.25500000920E-02 0. -1.
</event>
<event>
 5   0  0.2345471E-07  0.3713449E+04  0.7818609E-02  0.8064988E-01
       -1   -1    0    0    0  501  0.00000000000E+00  0.00000000000E+00  0.26988247908E+04  0.26988247908E+04  0.50400001928E-02 0. -1.
        1   -1    0    0  501    0  0.00000000000E+00  0.00000000000E+00 -0.12773800604E+04  0.12773800604E+04  0.50400001928E-02 0.  1.
    10030    2    1    2    0    0  0.00000000000E+00  0.00000000000E+00  0.14214447304E+04  0.39762048512E+04  0.37134485182E+04 0.  0.
        5    1    3    3  502    0 -0.36976620144E+03  0.78843823436E+02  0.26571647797E+04  0.26839318450E+04  0.46999998093E+01 0. -1.
       -5    1    3    3    0  502  0.36976620144E+03 -0.78843823436E+02 -0.12357200494E+04  0.12922730062E+04  0.46999998093E+01 0.  1.
</event>
<event>
 5   0  0.2287500E-07  0.3714021E+04  0.7818609E-02  0.8064862E-01
       -1   -1    0    0    0  501  0.00000000000E+00  0.00000000000E+00  0.17413458495E+04  0.17413458495E+04  0.50400001928E-02 0. -1.
        1   -1    0    0  501    0  0.00000000000E+00  0.00000000000E+00 -0.19803583248E+04  0.19803583248E+04  0.50400001928E-02 0.  1.
    10030    2    1    2    0    0  0.00000000000E+00  0.00000000000E+00 -0.23901247524E+03  0.37217041743E+04  0.37140214051E+04 0.  0.
        3    1    3    3  502    0  0.46932258311E+03  0.16268064285E+04 -0.88379354257E+03  0.19099355693E+04  0.10100000352E+00 0.  1.
       -3    1    3    3    0  502 -0.46932258311E+03 -0.16268064285E+04  0.64478106733E+03  0.18117686050E+04  0.10100000352E+00 0. -1.
</event>
<event>
 5   0  0.6949625E-07  0.3711870E+04  0.7818609E-02  0.8065336E-01
       -2   -1    0    0    0  501  0.00000000000E+00  0.00000000000E+00  0.20983188613E+04  0.20983188613E+04  0.25500000920E-02 0.  1.
        2   -1    0    0  501    0  0.00000000000E+00  0.00000000000E+00 -0.16415496240E+04  0.16415496240E+04  0.25500000920E-02 0. -1.
    10030    2    1    2    0    0  0.00000000000E+00  0.00000000000E+00  0.45676923734E+03  0.37398684853E+04  0.37118698996E+04 0.  0.
        5    1    3    3  502    0 -0.44817995770E+03  0.60632307917E+03  0.19370478627E+04  0.20786220107E+04  0.46999998093E+01 0.  1.
       -5    1    3    3    0  502  0.44817995770E+03 -0.60632307917E+03 -0.14802786254E+04  0.16612464746E+04  0.46999998093E+01 0. -1.
</event>
<event>
 5   0  0.2345471E-07  0.3757661E+04  0.7818609E-02  0.8055302E-01
       -1   -1    0    0    0  501  0.00000000000E+00  0.00000000000E+00  0.15737782541E+04  0.15737782541E+04  0.50400001928E-02 0. -1.
        1   -1    0    0  501    0  0.00000000000E+00  0.00000000000E+00 -0.22430125980E+04  0.22430125980E+04  0.50400001928E-02 0.  1.
    10030    2    1    2    0    0  0.00000000000E+00  0.00000000000E+00 -0.66923434394E+03  0.38167908521E+04  0.37576612144E+04 0.  0.
        5    1    3    3  502    0 -0.96026158482E+03  0.28073283971E+03  0.12807122003E+04  0.16251643205E+04  0.46999998093E+01 0. -1.
       -5    1    3    3    0  502  0.96026158482E+03 -0.28073283971E+03 -0.19499465443E+04  0.21916265316E+04  0.46999998093E+01 0.  1.
</event>
<event>
 5   0  0.7074157E-07  0.3535345E+04  0.7818609E-02  0.8105464E-01
       -2   -1    0    0    0  501  0.00000000000E+00  0.00000000000E+00  0.14991212377E+04  0.14991212377E+04  0.25500000920E-02 0.  1.
        2   -1    0    0  501    0  0.00000000000E+00  0.00000000000E+00 -0.20843312697E+04  0.20843312697E+04  0.25500000920E-02 0. -1.
    10030    2    1    2    0    0  0.00000000000E+00  0.00000000000E+00 -0.58521003204E+03  0.35834525073E+04  0.35353445505E+04 0.  0.
        3    1    3    3  502    0 -0.14591597099E+04  0.12148755598E+03 -0.12964139417E+04  0.19556572817E+04  0.10100000352E+00 0. -1.
       -3    1    3    3    0  502  0.14591597099E+04 -0.12148755598E+03  0.71120390962E+03  0.16277952256E+04  0.10100000352E+00 0.  1.
</event>
<event>
 5   0  0.2411746E-07  0.3562752E+04  0.7818609E-02  0.8099078E-01
       -1   -1    0    0    0  501  0.00000000000E+00  0.00000000000E+00  0.26651811236E+04  0.26651811236E+04  0.50400001928E-02 0. -1.
        1   -1    0    0  501    0  0.00000000000E+00  0.00000000000E+00 -0.11906507974E+04  0.11906507974E+04  0.50400001928E-02 0.  1.
    10030    2    1    2    0    0  0.00000000000E+00  0.00000000000E+00  0.14745303262E+04  0.38558319210E+04  0.35627517624E+04 0.  0.
        1    1    3    3  502    0  0.10087246474E+04 -0.90696697819E+03 -0.51235442493E+03  0.14500419203E+04  0.50400001928E-02 0.  1.
       -1    1    3    3    0  502 -0.10087246474E+04  0.90696697819E+03  0.19868847511E+04  0.24057900008E+04  0.50400001928E-02 0. -1.
</event>
<event>
 5   0  0.2345471E-07  0.3686152E+04  0.7818609E-02  0.8071038E-01
        1   -1    0    0  501    0  0.00000000000E+00  0.00000000000E+00  0.19426315855E+04  0.19426315855E+04  0.50400001928E-02 0.  1.
       -1   -1    0    0    0  501  0.00000000000E+00  0.00000000000E+00 -0.17486227430E+04  0.17486227430E+04  0.50400001928E-02 0. -1.
    10030    2    1    2    0    0  0.00000000000E+00  0.00000000000E+00  0.19400884245E+03  0.36912543285E+04  0.36861523418E+04 0.  0.
        5    1    3    3  502    0 -0.12138362581E+04 -0.11860357141E+04  0.81690731404E+03  0.18834645806E+04  0.46999998093E+01 0. -1.
       -5    1    3    3    0  502  0.12138362581E+04  0.11860357141E+04 -0.62289847159E+03  0.18077897479E+04  0.46999998093E+01 0.  1.
</event>
<event>
 5   0  0.7074157E-07  0.3628202E+04  0.7818609E-02  0.8084062E-01
       -2   -1    0    0    0  501  0.00000000000E+00  0.00000000000E+00  0.15059724718E+04  0.15059724718E+04  0.25500000920E-02 0.  1.
        2   -1    0    0  501    0  0.00000000000E+00  0.00000000000E+00 -0.21852743676E+04  0.21852743676E+04  0.25500000920E-02 0. -1.
    10030    2    1    2    0    0  0.00000000000E+00  0.00000000000E+00 -0.67930189580E+03  0.36912468394E+04  0.36282023322E+04 0.  0.
        3    1    3    3  502    0  0.41213998404E+03 -0.15866865999E+04 -0.11300215327E+04  0.19910756910E+04  0.10100000352E+00 0. -1.
       -3    1    3    3    0  502 -0.41213998404E+03  0.15866865999E+04  0.45071963689E+03  0.17001711484E+04  0.10100000352E+00 0.  1.
</event>
<event>
 5   0  0.6949625E-07  0.3657564E+04  0.7818609E-02  0.8077432E-01
       -2   -1    0    0    0  501  0.00000000000E+00  0.00000000000E+00  0.15690217867E+04  0.15690217867E+04  0.25500000920E-02 0.  1.
        2   -1    0    0  501    0  0.00000000000E+00  0.00000000000E+00 -0.21315464947E+04  0.21315464947E+04  0.25500000920E-02 0. -1.
    10030    2    1    2    0    0  0.00000000000E+00  0.00000000000E+00 -0.56252470804E+03  0.37005682814E+04  0.36575636096E+04 0.  0.
        5    1    3    3  502    0 -0.43550930358E+03 -0.17307975506E+04 -0.68481583139E+03  0.19116284492E+04  0.46999998093E+01 0. -1.
       -5    1    3    3    0  502  0.43550930358E+03  0.17307975506E+04  0.12229112335E+03  0.17889398323E+04  0.46999998093E+01 0.  1.
</event>
<event>
 5   0  0.6949625E-07  0.3698730E+04  0.7818609E-02  0.8068243E-01
        2   -1    0    0  501    0  0.00000000000E+00  0.00000000000E+00  0.13281476644E+04  0.13281476644E+04  0.25500000920E-02 0. -1.
       -2   -1    0    0    0  501  0.00000000000E+00  0.00000000000E+00 -0.25751285040E+04  0.25751285040E+04  0.25500000920E-02 0.  1.
    10030    2    1    2    0    0  0.00000000000E+00  0.00000000000E+00 -0.12469808396E+04  0.39032761683E+04  0.36987300026E+04 0.  0.
        5    1    3    3  502    0 -0.44993089624E+03 -0.10226066818E+04 -0.21787511960E+04  0.24484977233E+04  0.46999998093E+01 0.  1.
       -5    1    3    3    0  502  0.44993089624E+03  0.10226066818E+04  0.93177035634E+03  0.14547784450E+04  0.46999998093E+01 0. -1.
</event>
<event>
 5   0  0.2287500E-07  0.3661903E+04  0.7818609E-02  0.8076457E-01
        1   -1    0    0  501    0  0.00000000000E+00  0.00000000000E+00  0.23829004571E+04  0.23829004571E+04  0.50400001928E-02 0.  1.
       -1   -1    0    0    0  501  0.00000000000E+00  0.00000000000E+00 -0.14068498656E+04  0.14068498656E+04  0.50400001928E-02 0. -1.
    10030    2    1    2    0    0  0.00000000000E+00  0.00000000000E+00  0.97605059147E+03  0.37897503227E+04  0.36619028867E+04 0.  0.
        4    1    3    3  502    0  0.17138821735E+04  0.59568039649E+03  0.23419863085E+03  0.18295020773E+04  0.12699999809E+01 0. -1.
       -4    1    3    3    0  502 -0.17138821735E+04 -0.59568039649E+03  0.74185196062E+03  0.19602482454E+04  0.12699999809E+01 0.  1.
</event>
<event>
 5   0  0.2287500E-07  0.3644630E+04  0.7818609E-02  0.8080344E-01
        3   -1    0    0  501    0  0.00000000000E+00  0.00000000000E+00  0.14516717662E+04  0.14516717697E+04  0.10100000352E+00 0.  1.
       -3   -1    0    0    0  501  0.00000000000E+00  0.00000000000E+00 -0.22875913317E+04  0.22875913340E+04  0.10100000352E+00 0. -1.
    10030    2    1    2    0    0  0.00000000000E+00  0.00000000000E+00 -0.83591956553E+03  0.37392631037E+04  0.36446298905E+04 0.  0.
        4    1    3    3  502    0 -0.16231417018E+04 -0.14747527596E+03  0.41836995064E+03  0.16826684075E+04  0.12699999809E+01 0.  1.
       -4    1    3    3    0  502  0.16231417018E+04  0.14747527596E+03 -0.12542895162E+04  0.20565946962E+04  0.12699999809E+01 0. -1.
</event>
<event>
 5   0  0.2287500E-07  0.3703341E+04  0.7818609E-02  0.8067222E-01
        1   -1    0    0  501    0  0.00000000000E+00  0.00000000000E+00  0.17988248259E+04  0.17988248259E+04  0.50400001928E-02 0. -1.
       -1   -1    0    0    0  501  0.00000000000E+00  0.00000000000E+00 -0.19060688272E+04  0.19060688272E+04  0.50400001928E-02 0.  1.
    10030    2    1    2    0    0  0.00000000000E+00  0.00000000000E+00 -0.10724400129E+03  0.37048936531E+04  0.37033411543E+04 0.  0.
        4    1    3    3  502    0  0.14245854870E+04 -0.42658713895E+03  0.10501364517E+04  0.18204967940E+04  0.12699999809E+01 0. -1.
       -4    1    3    3    0  502 -0.14245854870E+04  0.42658713895E+03 -0.11573804530E+04  0.18843968591E+04  0.12699999809E+01 0.  1.
</event>
<event>
 5   0  0.2287500E-07  0.3631946E+04  0.7818609E-02  0.8083213E-01
       -1   -1    0    0    0  501  0.00000000000E+00  0.00000000000E+00  0.10989623418E+04  0.10989623418E+04  0.50400001928E-02 0.  1.
        1   -1    0    0  501    0  0.00000000000E+00  0.00000000000E+00 -0.30007930096E+04  0.30007930096E+04  0.50400001928E-02 0. -1.
    10030    2    1    2    0    0  0.00000000000E+00  0.00000000000E+00 -0.19018306678E+04  0.40997553514E+04  0.36319463174E+04 0.  0.
        3    1    3    3  502    0  0.15773494943E+04 -0.13784114070E+01  0.64835861059E+02  0.15786820535E+04  0.10100000352E+00 0. -1.
       -3    1    3    3    0  502 -0.15773494943E+04  0.13784114070E+01 -0.19666665289E+04  0.25210732978E+04  0.10100000352E+00 0.  1.
</event>
<event>
 5   0  0.2287500E-07  0.3704193E+04  0.7818609E-02  0.8067033E-01
        1   -1    0    0  501    0  0.00000000000E+00  0.00000000000E+00  0.15644237364E+04  0.15644237364E+04  0.50400001928E-02 0.  1.
       -1   -1    0    0    0  501  0.00000000000E+00  0.00000000000E+00 -0.21926675469E+04  0.21926675469E+04  0.50400001928E-02 0. -1.
    10030    2    1    2    0    0  0.00000000000E+00  0.00000000000E+00 -0.62824381050E+03  0.37570912834E+04  0.37041928441E+04 0.  0.
        4    1    3    3  502    0  0.31210400492E+03  0.25913626541E+03 -0.21470534147E+04  0.21850401581E+04  0.12699999809E+01 0. -1.
       -4    1    3    3    0  502 -0.31210400492E+03 -0.25913626541E+03  0.15188096042E+04  0.15720511253E+04  0.12699999809E+01 0.  1.
</event>
<event>
 5   0  0.7074157E-07  0.3719199E+04  0.7818609E-02  0.8063720E-01
        2   -1    0    0  501    0  0.00000000000E+00  0.00000000000E+00  0.32051861122E+04  0.32051861122E+04  0.25500000920E-02 0. -1.
       -2   -1    0    0    0  501  0.00000000000E+00  0.00000000000E+00 -0.10789106439E+04  0.10789106439E+04  0.25500000920E-02 0.  1.
    10030    2    1    2    0    0  0.00000000000E+00  0.00000000000E+00  0.21262754683E+04  0.42840967562E+04  0.37191985224E+04 0.  0.
        3    1    3    3  502    0  0.13762355892E+04 -0.27052648753E+03  0.24696198990E+04  0.28401111656E+04  0.10100000352E+00 0. -1.
       -3    1    3    3    0  502 -0.13762355892E+04  0.27052648753E+03 -0.34334443074E+03  0.14439855905E+04  0.10100000352E+00 0.  1.
</event>
<event>
 5   0  0.6949625E-07  0.3696623E+04  0.7818609E-02  0.8068711E-01
        2   -1    0    0  501    0  0.00000000000E+00  0.00000000000E+00  0.29714129528E+04  0.29714129528E+04  0.25500000920E-02 0.  1.
       -2   -1    0    0    0  501  0.00000000000E+00  0.00000000000E+00 -0.11497075677E+04  0.11497075677E+04  0.25500000920E-02 0. -1.
    10030    2    1    2    0    0  0.00000000000E+00  0.00000000000E+00  0.18217053851E+04  0.41211205205E+04  0.36966233016E+04 0.  0.
        5    1    3    3  502    0 -0.97594579391E+03 -0.18269413614E+03 -0.82713938865E+03  0.12922960181E+04  0.46999998093E+01 0. -1.
       -5    1    3    3    0  502  0.97594579391E+03  0.18269413614E+03  0.26488447737E+04  0.28288245024E+04  0.46999998093E+01 0.  1.
</event>
<event>
 5   0  0.6949625E-07  0.3582573E+04  0.7818609E-02  0.8094495E-01
        2   -1    0    0  501    0  0.00000000000E+00  0.00000000000E+00  0.21580475398E+04  0.21580475398E+04  0.25500000920E-02 0. -1.
       -2   -1    0    0    0  501  0.00000000000E+00  0.00000000000E+00 -0.14868564460E+04  0.14868564460E+04  0.25500000920E-02 0.  1.
    10030    2    1    2    0    0  0.00000000000E+00  0.00000000000E+00  0.67119109378E+03  0.36449039858E+04  0.35825727601E+04 0.  0.
        5    1    3    3  502    0 -0.57761234518E+03 -0.95643227668E+03  0.17600573286E+04  0.20847596052E+04  0.46999998093E+01 0. -1.
       -5    1    3    3    0  502  0.57761234518E+03  0.95643227668E+03 -0.10888662349E+04  0.15601443807E+04  0.46999998093E+01 0.  1.
</event>
<event>
 5   0  0.2411746E-07  0.3529882E+04  0.7818609E-02  0.8106745E-01
       -1   -1    0    0    0  501  0.00000000000E+00  0.00000000000E+00  0.13486661893E+04  0.13486661893E+04  0.50400001928E-02 0. -1.
        1   -1    0    0  501    0  0.00000000000E+00  0.00000000000E+00 -0.23097021406E+04  0.23097021406E+04  0.50400001928E-02 0.  1.
    10030    2    1    2    0    0  0.00000000000E+00  0.00000000000E+00 -0.96103595124E+03  0.36583683299E+04  0.35298822555E+04 0.  0.
        1    1    3    3  502    0  0.11773442192E+04  0.12751506406E+04 -0.81292382848E+03  0.19165056007E+04  0.50400001928E-02 0.  1.
       -1    1    3    3    0  502 -0.11773442192E+04 -0.12751506406E+04 -0.14811212276E+03  0.17418627292E+04  0.50400001928E-02 0. -1.
</event>
<event>
 5   0  0.7300916E-07  0.3727233E+04  0.7818609E-02  0.8061953E-01
        2   -1    0    0  501    0  0.00000000000E+00  0.00000000000E+00  0.20614467701E+04  0.20614467701E+04  0.25500000920E-02 0. -1.
       -2   -1    0    0    0  501  0.00000000000E+00  0.00000000000E+00 -0.16847717387E+04  0.16847717387E+04  0.25500000920E-02 0.  1.
    10030    2    1    2    0    0  0.00000000000E+00  0.00000000000E+00  0.37667503133E+03  0.37462185088E+04  0.37272334293E+04 0.  0.
        1    1    3    3  502    0  0.16153948141E+04 -0.69413900928E+03 -0.43265897606E+03  0.18106692573E+04  0.50400001928E-02 0.  1.
       -1    1    3    3    0  502 -0.16153948141E+04  0.69413900928E+03  0.80933400740E+03  0.19355492515E+04  0.50400001928E-02 0. -1.
</event>
<event>
 5   0  0.7300916E-07  0.3185439E+04  0.7818609E-02  0.8192673E-01
        2   -1    0    0  501    0  0.00000000000E+00  0.00000000000E+00  0.24960799290E+04  0.24960799290E+04  0.25500000920E-02 0. -1.
       -2   -1    0    0    0  501  0.00000000000E+00  0.00000000000E+00 -0.10162959398E+04  0.10162959398E+04  0.25500000920E-02 0.  1.
    10030    2    1    2    0    0  0.00000000000E+00  0.00000000000E+00  0.14797839892E+04  0.35123758688E+04  0.31854393087E+04 0.  0.
        1    1    3    3  502    0  0.99569017624E+03  0.46099583921E+03 -0.53308521127E+03  0.12198753762E+04  0.50400001928E-02 0.  1.
       -1    1    3    3    0  502 -0.99569017624E+03 -0.46099583921E+03  0.20128692004E+04  0.22925004927E+04  0.50400001928E-02 0. -1.
</event>
<event>
 5   0  0.2287500E-07  0.3597120E+04  0.7818609E-02  0.8091152E-01
       -1   -1    0    0    0  501  0.00000000000E+00  0.00000000000E+00  0.15103928133E+04  0.15103928133E+04  0.50400001928E-02 0.  1.
        1   -1    0    0  501    0  0.00000000000E+00  0.00000000000E+00 -0.21417065125E+04  0.21417065125E+04  0.50400001928E-02 0. -1.
    10030    2    1    2    0    0  0.00000000000E+00  0.00000000000E+00 -0.63131369921E+03  0.36520993259E+04  0.35971200285E+04 0.  0.
        3    1    3    3  502    0  0.10335641920E+04 -0.12787964424E+04  0.42434736560E+03  0.16981301414E+04  0.10100000352E+00 0.  1.
       -3    1    3    3    0  502 -0.10335641920E+04  0.12787964424E+04 -0.10556610648E+04  0.19539691845E+04  0.10100000352E+00 0. -1.
</event>
<event>
 5   0  0.6939921E-07  0.3688236E+04  0.7818609E-02  0.8070574E-01
       -2   -1    0    0    0  501  0.00000000000E+00  0.00000000000E+00  0.12028577612E+04  0.12028577612E+04  0.25500000920E-02 0.  1.
        2   -1    0    0  501    0  0.00000000000E+00  0.00000000000E+00 -0.28272426759E+04  0.28272426759E+04  0.25500000920E-02 0. -1.
    10030    2    1    2    0    0  0.00000000000E+00  0.00000000000E+00 -0.16243849147E+04  0.40301004371E+04  0.36882357817E+04 0.  0.
        4    1    3    3  502    0  0.43193235782E+03 -0.28478071747E+02  0.11465579002E+04  0.12255501596E+04  0.12699999809E+01 0.  1.
       -4    1    3    3    0  502 -0.43193235782E+03  0.28478071747E+02 -0.27709428149E+04  0.28045502774E+04  0.12699999809E+01 0. -1.
</event>
<event>
 5   0  0.2287500E-07  0.3715345E+04  0.7818609E-02  0.8064570E-01
        1   -1    0    0  501    0  0.00000000000E+00  0.00000000000E+00  0.16208481050E+04  0.16208481050E+04  0.50400001928E-02 0.  1.
       -1   -1    0    0    0  501  0.00000000000E+00  0.00000000000E+00 -0.21290992359E+04  0.21290992359E+04  0.50400001928E-02 0. -1.
    10030    2    1    2    0    0  0.00000000000E+00  0.00000000000E+00 -0.50825113093E+03  0.37499473410E+04  0.37153446472E+04 0.  0.
        2    1    3    3  502    0 -0.32508354773E+03  0.15446464878E+04  0.73445271875E+03  0.17409861807E+04  0.25500000920E-02 0.  1.
       -2    1    3    3    0  502  0.32508354773E+03 -0.15446464878E+04 -0.12427038497E+04  0.20089611602E+04  0.25500000920E-02 0. -1.
</event>
<event>
 5   0  0.7124627E-07  0.3716350E+04  0.7818609E-02  0.8064348E-01
        2   -1    0    0  501    0  0.00000000000E+00  0.00000000000E+00  0.24494727710E+04  0.24494727710E+04  0.25500000920E-02 0.  1.
       -2   -1    0    0    0  501  0.00000000000E+00  0.00000000000E+00 -0.14096155866E+04  0.14096155866E+04  0.25500000920E-02 0. -1.
    10030    2    1    2    0    0  0.00000000000E+00  0.00000000000E+00  0.10398571844E+04  0.38590883576E+04  0.37163503585E+04 0.  0.
        2    1    3    3  502    0 -0.20332840973E+03  0.15350975122E+04 -0.54662734128E+03  0.16421535447E+04  0.25500000920E-02 0. -1.
       -2    1    3    3    0  502  0.20332840973E+03 -0.15350975122E+04  0.15864845257E+04  0.22169348128E+04  0.25500000920E-02 0.  1.
</event>
<event>
 5   0  0.2411746E-07  0.3704079E+04  0.7818609E-02  0.8067058E-01
        1   -1    0    0  501    0  0.00000000000E+00  0.00000000000E+00  0.17692370202E+04  0.17692370202E+04  0.50400001928E-02 0. -1.
       -1   -1    0    0    0  501  0.00000000000E+00  0.00000000000E+00 -0.19387171384E+04  0.19387171384E+04  0.50400001928E-02 0.  1.
    10030    2    1    2    0    0  0.00000000000E+00  0.00000000000E+00 -0.16948011828E+03  0.37079541586E+04  0.37040789046E+04 0.  0.
        1    1    3    3  502    0 -0.38912602765E+03 -0.18060792733E+04 -0.21413753246E+03  0.18598914726E+04  0.50400001928E-02 0.  1.
       -1    1    3    3    0  502  0.38912602765E+03  0.18060792733E+04  0.44657414185E+02  0.18480626860E+04  0.50400001928E-02 0. -1.
</event>
<event>
 5   0  0.7124627E-07  0.3685235E+04  0.7818609E-02  0.8071242E-01
        2   -1    0    0  501    0  0.00000000000E+00  0.00000000000E+00  0.27819760702E+04  0.27819760702E+04  0.25500000920E-02 0.  1.
       -2   -1    0    0    0  501  0.00000000000E+00  0.00000000000E+00 -0.12204413822E+04  0.12204413822E+04  0.25500000920E-02 0. -1.
    10030    2    1    2    0    0  0.00000000000E+00  0.00000000000E+00  0.15615346880E+04  0.40024174524E+04  0.36852347118E+04 0.  0.
        2    1    3    3  502    0 -0.85193055187E+03 -0.69727603604E+03 -0.82399187143E+03  0.13751153187E+04  0.25500000920E-02 0. -1.
       -2    1    3    3    0  502  0.85193055187E+03  0.69727603604E+03  0.23855265595E+04  0.26273021337E+04  0.25500000920E-02 0.  1.
</event>
<event>
 5   0  0.6949625E-07  0.3518777E+04  0.7818609E-02  0.8109354E-01
       -2   -1    0    0    0  501  0.00000000000E+00  0.00000000000E+00  0.17883972552E+04  0.17883972552E+04  0.25500000920E-02 0.  1.
        2   -1    0    0  501    0  0.00000000000E+00  0.00000000000E+00 -0.17308506356E+04  0.17308506356E+04  0.25500000920E-02 0. -1.
    10030    2    1    2    0    0  0.00000000000E+00  0.00000000000E+00  0.57546619627E+02  0.35192478909E+04  0.35187773593E+04 0.  0.
        5    1    3    3  502    0  0.19974980729E+03  0.44618814381E+03 -0.16615540461E+04  0.17319837711E+04  0.46999998093E+01 0. -1.
       -5    1    3    3    0  502 -0.19974980729E+03 -0.44618814381E+03  0.17191006657E+04  0.17872641198E+04  0.46999998093E+01 0.  1.
</event>
<event>
 5   0  0.6949625E-07  0.3334364E+04  0.7818609E-02  0.8154206E-01
       -2   -1    0    0    0  501  0.00000000000E+00  0.00000000000E+00  0.11971195310E+04  0.11971195310E+04  0.25500000920E-02 0. -1.
        2   -1    0    0  501    0  0.00000000000E+00  0.00000000000E+00 -0.23218201206E+04  0.23218201206E+04  0.25500000920E-02 0.  1.
    10030    2    1    2    0    0  0.00000000000E+00  0.00000000000E+00 -0.11247005896E+04  0.35189396516E+04  0.33343642355E+04 0.  0.
        5    1    3    3  502    0 -0.48600528879E+03 -0.43243157525E+02  0.11200740735E+04  0.12217442987E+04  0.46999998093E+01 0. -1.
       -5    1    3    3    0  502  0.48600528879E+03  0.43243157525E+02 -0.22447746630E+04  0.22971953528E+04  0.46999998093E+01 0.  1.
</event>
<event>
 5   0  0.6949625E-07  0.2712013E+04  0.7818609E-02  0.8331118E-01
       -2   -1    0    0    0  501  0.00000000000E+00  0.00000000000E+00  0.93908307610E+03  0.93908307611E+03  0.25500000920E-02 0. -1.
        2   -1    0    0  501    0  0.00000000000E+00  0.00000000000E+00 -0.19580307760E+04  0.19580307760E+04  0.25500000920E-02 0.  1.
    10030    2    1    2    0    0  0.00000000000E+00  0.00000000000E+00 -0.10189476999E+04  0.28971138521E+04  0.27120129530E+04 0.  0.
        5    1    3    3  502    0  0.75888653815E+03  0.36464440560E+03  0.62602205700E+03  0.10491901764E+04  0.46999998093E+01 0. -1.
       -5    1    3    3    0  502 -0.75888653815E+03 -0.36464440560E+03 -0.16449697569E+04  0.18479236758E+04  0.46999998093E+01 0.  1.
</event>
<event>
 5   0  0.2287500E-07  0.3721117E+04  0.7818609E-02  0.8063298E-01
       -1   -1    0    0    0  501  0.00000000000E+00  0.00000000000E+00  0.17796673651E+04  0.17796673651E+04  0.50400001928E-02 0.  1.
        1   -1    0    0  501    0  0.00000000000E+00  0.00000000000E+00 -0.19451264193E+04  0.19451264193E+04  0.50400001928E-02 0. -1.
    10030    2    1    2    0    0  0.00000000000E+00  0.00000000000E+00 -0.16545905423E+03  0.37247937845E+04  0.37211170417E+04 0.  0.
        3    1    3    3  502    0  0.11810277695E+04  0.10078387016E+04  0.94352129065E+03  0.18168098075E+04  0.10100000352E+00 0.  1.
       -3    1    3    3    0  502 -0.11810277695E+04 -0.10078387016E+04 -0.11089803449E+04  0.19079839769E+04  0.10100000352E+00 0. -1.
</event>
<event>
 5   0  0.2287500E-07  0.3713804E+04  0.7818609E-02  0.8064910E-01
       -1   -1    0    0    0  501  0.00000000000E+00  0.00000000000E+00  0.12799922335E+04  0.12799922336E+04  0.50400001928E-02 0. -1.
        1   -1    0    0  501    0  0.00000000000E+00  0.00000000000E+00 -0.26938326985E+04  0.26938326985E+04  0.50400001928E-02 0.  1.
    10030    2    1    2    0    0  0.00000000000E+00  0.00000000000E+00 -0.14138404650E+04  0.39738249321E+04  0.37138039435E+04 0.  0.
        3    1    3    3  502    0  0.28578758833E+03  0.43350395021E+03 -0.26145751656E+04  0.26656337947E+04  0.10100000352E+00 0.  1.
       -3    1    3    3    0  502 -0.28578758833E+03 -0.43350395021E+03  0.12007347006E+04  0.13081911374E+04  0.10100000352E+00 0. -1.
</event>
<event>
 5   0  0.2287500E-07  0.3572625E+04  0.7818609E-02  0.8096791E-01
        1   -1    0    0  501    0  0.00000000000E+00  0.00000000000E+00  0.14109475138E+04  0.14109475138E+04  0.50400001928E-02 0.  1.
       -1   -1    0    0    0  501  0.00000000000E+00  0.00000000000E+00 -0.22615391024E+04  0.22615391024E+04  0.50400001928E-02 0. -1.
    10030    2    1    2    0    0  0.00000000000E+00  0.00000000000E+00 -0.85059158862E+03  0.36724866162E+04  0.35726253506E+04 0.  0.
        3    1    3    3  502    0  0.14111415224E+04  0.39983781923E+03  0.62287347481E+03  0.15934748362E+04  0.10100000352E+00 0.  1.
       -3    1    3    3    0  502 -0.14111415224E+04 -0.39983781923E+03 -0.14734650634E+04  0.20790117800E+04  0.10100000352E+00 0. -1.
</event>
<event>
 5   0  0.7300916E-07  0.3680518E+04  0.7818609E-02  0.8072293E-01
        2   -1    0    0  501    0  0.00000000000E+00  0.00000000000E+00  0.13794097546E+04  0.13794097546E+04  0.25500000920E-02 0. -1.
       -2   -1    0    0    0  501  0.00000000000E+00  0.00000000000E+00 -0.24550742984E+04  0.24550742984E+04  0.25500000920E-02 0.  1.
    10030    2    1    2    0    0  0.00000000000E+00  0.00000000000E+00 -0.10756645438E+04  0.38344840530E+04  0.36805181350E+04 0.  0.
        1    1    3    3  502    0 -0.15107825165E+03 -0.17504645817E+04  0.32424857485E+02  0.17572712543E+04  0.50400001928E-02 0. -1.
       -1    1    3    3    0  502  0.15107825165E+03  0.17504645817E+04 -0.11080894013E+04  0.20772127987E+04  0.50400001928E-02 0.  1.
</event>
<event>
 5   0  0.2345471E-07  0.3582346E+04  0.7818609E-02  0.8094547E-01
        1   -1    0    0  501    0  0.00000000000E+00  0.00000000000E+00  0.19740509179E+04  0.19740509179E+04  0.50400001928E-02 0.  1.
       -1   -1    0    0    0  501  0.00000000000E+00  0.00000000000E+00 -0.16252373681E+04  0.16252373681E+04  0.50400001928E-02 0. -1.
    10030    2    1    2    0    0  0.00000000000E+00  0.00000000000E+00  0.34881354977E+03  0.35992882861E+04  0.35823463364E+04 0.  0.
        5    1    3    3  502    0  0.43840274501E+03 -0.11823837444E+04 -0.11036353183E+04  0.16757867679E+04  0.46999998093E+01 0. -1.
       -5    1    3    3    0  502 -0.43840274501E+03  0.11823837444E+04  0.14524488680E+04  0.19235015181E+04  0.46999998093E+01 0.  1.
</event>
<event>
 5   0  0.7300916E-07  0.3689017E+04  0.7818609E-02  0.8070400E-01
       -2   -1    0    0    0  501  0.00000000000E+00  0.00000000000E+00  0.19662291484E+04  0.19662291484E+04  0.25500000920E-02 0.  1.
        2   -1    0    0  501    0  0.00000000000E+00  0.00000000000E+00 -0.17303231704E+04  0.17303231704E+04  0.25500000920E-02 0. -1.
    10030    2    1    2    0    0  0.00000000000E+00  0.00000000000E+00  0.23590597794E+03  0.36965523188E+04  0.36890171340E+04 0.  0.
        1    1    3    3  502    0  0.12928800628E+03  0.13423174950E+04  0.13789670509E+04  0.19287513508E+04  0.50400001928E-02 0.  1.
       -1    1    3    3    0  502 -0.12928800628E+03 -0.13423174950E+04 -0.11430610729E+04  0.17678009680E+04  0.50400001928E-02 0. -1.
</event>
<event>
 5   0  0.7074157E-07  0.3668147E+04  0.7818609E-02  0.8075058E-01
        2   -1    0    0  501    0  0.00000000000E+00  0.00000000000E+00  0.23356467218E+04  0.23356467218E+04  0.25500000920E-02 0. -1.
       -2   -1    0    0    0  501  0.00000000000E+00  0.00000000000E+00 -0.14402113948E+04  0.14402113948E+04  0.25500000920E-02 0.  1.
    10030    2    1    2    0    0  0.00000000000E+00  0.00000000000E+00  0.89543532699E+03  0.37758581166E+04  0.36681466835E+04 0.  0.
        3    1    3    3  502    0 -0.62804051729E+03 -0.17018492955E+04  0.72602520724E+03  0.19539289976E+04  0.10100000352E+00 0. -1.
       -3    1    3    3    0  502  0.62804051729E+03  0.17018492955E+04  0.16941011975E+03  0.18219291190E+04  0.10100000352E+00 0.  1.
</event>
<event>
 5   0  0.7124627E-07  0.3719299E+04  0.7818609E-02  0.8063698E-01
       -2   -1    0    0    0  501  0.00000000000E+00  0.00000000000E+00  0.22110802564E+04  0.22110802564E+04  0.25500000920E-02 0. -1.
        2   -1    0    0  501    0  0.00000000000E+00  0.00000000000E+00 -0.15640754988E+04  0.15640754988E+04  0.25500000920E-02 0.  1.
    10030    2    1    2    0    0  0.00000000000E+00  0.00000000000E+00  0.64700475759E+03  0.37751557552E+04  0.37192991033E+04 0.  0.
        2    1    3    3  502    0  0.83295289581E+03 -0.20531133243E+02 -0.13640134214E+04  0.15983631214E+04  0.25500000920E-02 0.  1.
       -2    1    3    3    0  502 -0.83295289581E+03  0.20531133243E+02  0.20110181790E+04  0.21767926338E+04  0.25500000920E-02 0. -1.
</event>
<event>
 5   0  0.2287500E-07  0.3727862E+04  0.7818609E-02  0.8061815E-01
       -1   -1    0    0    0  501  0.00000000000E+00  0.00000000000E+00  0.29633508899E+04  0.29633508899E+04  0.50400001928E-02 0. -1.
        1   -1    0    0  501    0  0.00000000000E+00  0.00000000000E+00 -0.11724023168E+04  0.11724023168E+04  0.50400001928E-02 0.  1.
    10030    2    1    2    0    0  0.00000000000E+00  0.00000000000E+00  0.17909485731E+04  0.41357532067E+04  0.37278623626E+04 0.  0.
        2    1    3    3  502    0 -0.17773656363E+04  0.15489109667E+03  0.14941684719E+04  0.23271354235E+04  0.25500000920E-02 0.  1.
       -2    1    3    3    0  502  0.17773656363E+04 -0.15489109667E+03  0.29678010118E+03  0.18086177831E+04  0.25500000920E-02 0. -1.
</event>
<event>
 5   0  0.6949625E-07  0.3689135E+04  0.7818609E-02  0.8070374E-01
        2   -1    0    0  501    0  0.00000000000E+00  0.00000000000E+00  0.18483725030E+04  0.18483725030E+04  0.25500000920E-02 0.  1.
       -2   -1    0    0    0  501  0.00000000000E+00  0.00000000000E+00 -0.18407700425E+04  0.18407700425E+04  0.25500000920E-02 0. -1.
    10030    2    1    2    0    0  0.00000000000E+00  0.00000000000E+00  0.76024605191E+01  0.36891425456E+04  0.36891347121E+04 0.  0.
        5    1    3    3  502    0 -0.32466162769E+02  0.12370005568E+04  0.13717157591E+04  0.18473902249E+04  0.46999998093E+01 0.  1.
       -5    1    3    3    0  502  0.32466162769E+02 -0.12370005568E+04 -0.13641132986E+04  0.18417523207E+04  0.46999998093E+01 0. -1.
</event>
<event>
 5   0  0.6949625E-07  0.2939129E+04  0.7818609E-02  0.8261330E-01
       -2   -1    0    0    0  501  0.00000000000E+00  0.00000000000E+00  0.13478907113E+04  0.13478907113E+04  0.25500000920E-02 0.  1.
        2   -1    0    0  501    0  0.00000000000E+00  0.00000000000E+00 -0.16022221184E+04  0.16022221184E+04  0.25500000920E-02 0. -1.
    10030    2    1    2    0    0  0.00000000000E+00  0.00000000000E+00 -0.25433140708E+03  0.29501128297E+04  0.29391293343E+04 0.  0.
        5    1    3    3  502    0 -0.45944625028E+03  0.37836677172E+03  0.12214870611E+04  0.13587880634E+04  0.46999998093E+01 0.  1.
       -5    1    3    3    0  502  0.45944625028E+03 -0.37836677172E+03 -0.14758184682E+04  0.15913247663E+04  0.46999998093E+01 0. -1.
</event>
<event>
 5   0  0.7300916E-07  0.3708779E+04  0.7818609E-02  0.8066019E-01
       -2   -1    0    0    0  501  0.00000000000E+00  0.00000000000E+00  0.16988553072E+04  0.16988553072E+04  0.25500000920E-02 0. -1.
        2   -1    0    0  501    0  0.00000000000E+00  0.00000000000E+00 -0.20241629061E+04  0.20241629061E+04  0.25500000920E-02 0.  1.
    10030    2    1    2    0    0  0.00000000000E+00  0.00000000000E+00 -0.32530759891E+03  0.37230182133E+04  0.37087787185E+04 0.  0.
        1    1    3    3  502    0 -0.16641999320E+03  0.87469683291E+03 -0.17955428412E+04  0.20041866825E+04  0.50400001928E-02 0.  1.
       -1    1    3    3    0  502  0.16641999320E+03 -0.87469683291E+03  0.14702352423E+04  0.17188315308E+04  0.50400001928E-02 0. -1.
</event>
<event>
 5   0  0.6939921E-07  0.3769459E+04  0.7818609E-02  0.8052741E-01
        2   -1    0    0  501    0  0.00000000000E+00  0.00000000000E+00  0.10930716832E+04  0.10930716832E+04  0.25500000920E-02 0.  1.
       -2   -1    0    0    0  501  0.00000000000E+00  0.00000000000E+00 -0.32497455364E+04  0.32497455364E+04  0.25500000920E-02 0. -1.
    10030    2    1    2    0    0  0.00000000000E+00  0.00000000000E+00 -0.21566738532E+04  0.43428172197E+04  0.37694587535E+04 0.  0.
        4    1    3    3  502    0 -0.16828431594E+04  0.75921933082E+03 -0.64140431906E+03  0.19544247759E+04  0.12699999809E+01 0.  1.
       -4    1    3    3    0  502  0.16828431594E+04 -0.75921933082E+03 -0.15152695341E+04  0.23883924437E+04  0.12699999809E+01 0. -1.
</event>
<event>
 5   0  0.2287500E-07  0.3739450E+04  0.7818609E-02  0.8059275E-01
        1   -1    0    0  501    0  0.00000000000E+00  0.00000000000E+00  0.16346375400E+04  0.16346375400E+04  0.50400001928E-02 0.  1.
       -1   -1    0    0    0  501  0.00000000000E+00  0.00000000000E+00 -0.21386221809E+04  0.21386221809E+04  0.50400001928E-02 0. -1.
    10030    2    1    2    0    0  0.00000000000E+00  0.00000000000E+00 -0.50398464086E+03  0.37732597209E+04  0.37394502809E+04 0.  0.
        2    1    3    3  502    0  0.10606795104E+04 -0.14634368020E+04 -0.73505212092E+03  0.19511509213E+04  0.25500000920E-02 0. -1.
       -2    1    3    3    0  502 -0.10606795104E+04  0.14634368020E+04  0.23106748006E+03  0.18221087996E+04  0.25500000920E-02 0.  1.
</event>
<event>
 5   0  0.2287500E-07  0.3702098E+04  0.7818609E-02  0.8067497E-01
        1   -1    0    0  501    0  0.00000000000E+00  0.00000000000E+00  0.15622387563E+04  0.15622387563E+04  0.50400001928E-02 0.  1.
       -1   -1    0    0    0  501  0.00000000000E+00  0.00000000000E+00 -0.21932515384E+04  0.21932515384E+04  0.50400001928E-02 0. -1.
    10030    2    1    2    0    0  0.00000000000E+00  0.00000000000E+00 -0.63101278209E+03  0.37554902947E+04  0.37020980838E+04 0.  0.
        2    1    3    3  502    0  0.34703753595E+03  0.17616249635E+04  0.14112443743E+03  0.18010201749E+04  0.25500000920E-02 0.  1.
       -2    1    3    3    0  502 -0.34703753595E+03 -0.17616249635E+04 -0.77213721952E+03  0.19544701198E+04  0.25500000920E-02 0. -1.
</event>
<event>
 5   0  0.6949625E-07  0.3634807E+04  0.7818609E-02  0.8082565E-01
       -2   -1    0    0    0  501  0.00000000000E+00  0.00000000000E+00  0.18071779040E+04  0.18071779040E+04  0.25500000920E-02 0. -1.
        2   -1    0    0  501    0  0.00000000000E+00  0.00000000000E+00 -0.18276866481E+04  0.18276866481E+04  0.25500000920E-02 0.  1.
    10030    2    1    2    0    0  0.00000000000E+00  0.00000000000E+00 -0.20508744098E+02  0.36348645522E+04  0.36348066942E+04 0.  0.
        5    1    3    3  502    0  0.78541657669E+03 -0.92110875410E+03 -0.13658615430E+04  0.18250809244E+04  0.46999998093E+01 0.  1.
       -5    1    3    3    0  502 -0.78541657669E+03  0.92110875410E+03  0.13453527989E+04  0.18097836278E+04  0.46999998093E+01 0. -1.
</event>
<event>
 5   0  0.7074157E-07  0.3679895E+04  0.7818609E-02  0.8072432E-01
       -2   -1    0    0    0  501  0.00000000000E+00  0.00000000000E+00  0.16361548594E+04  0.16361548594E+04  0.25500000920E-02 0.  1.
        2   -1    0    0  501    0  0.00000000000E+00  0.00000000000E+00 -0.20691233419E+04  0.20691233419E+04  0.25500000920E-02 0. -1.
    10030    2    1    2    0    0  0.00000000000E+00  0.00000000000E+00 -0.43296848250E+03  0.37052782013E+04  0.36798946781E+04 0.  0.
        3    1    3    3  502    0 -0.14746745931E+04  0.91912477997E+02 -0.13205390083E+04  0.19816499039E+04  0.10100000352E+00 0. -1.
       -3    1    3    3    0  502  0.14746745931E+04 -0.91912477997E+02  0.88757052576E+03  0.17236282974E+04  0.10100000352E+00 0.  1.
</event>
<event>
 5   0  0.2287500E-07  0.3698024E+04  0.7818609E-02  0.8068400E-01
       -1   -1    0    0    0  501  0.00000000000E+00  0.00000000000E+00  0.16353381223E+04  0.16353381223E+04  0.50400001928E-02 0. -1.
        1   -1    0    0  501    0  0.00000000000E+00  0.00000000000E+00 -0.20906047489E+04  0.20906047489E+04  0.50400001928E-02 0.  1.
    10030    2    1    2    0    0  0.00000000000E+00  0.00000000000E+00 -0.45526662664E+03  0.37259428712E+04  0.36980241452E+04 0.  0.
        2    1    3    3  502    0  0.14537411566E+04 -0.38586193220E+03  0.85593601519E+03  0.17305719411E+04  0.25500000920E-02 0. -1.
       -2    1    3    3    0  502 -0.14537411566E+04  0.38586193220E+03 -0.13112026418E+04  0.19953709302E+04  0.25500000920E-02 0.  1.
</event>
<event>
 5   0  0.6939921E-07  0.3681864E+04  0.7818609E-02  0.8071993E-01
       -2   -1    0    0    0  501  0.00000000000E+00  0.00000000000E+00  0.14608040975E+04  0.14608040975E+04  0.25500000920E-02 0.  1.
        2   -1    0    0  501    0  0.00000000000E+00  0.00000000000E+00 -0.23199757763E+04  0.23199757763E+04  0.25500000920E-02 0. -1.
    10030    2    1    2    0    0  0.00000000000E+00  0.00000000000E+00 -0.85917167881E+03  0.37807798738E+04  0.36818637237E+04 0.  0.
        4    1    3    3  502    0 -0.94679392925E+03  0.13126996747E+04 -0.13303229375E+04  0.20950799296E+04  0.12699999809E+01 0. -1.
       -4    1    3    3    0  502  0.94679392925E+03 -0.13126996747E+04  0.47115125870E+03  0.16856999442E+04  0.12699999809E+01 0.  1.
</event>
<event>
 5   0  0.2287500E-07  0.3807925E+04  0.7818609E-02  0.8044456E-01
       -1   -1    0    0    0  501  0.00000000000E+00  0.00000000000E+00  0.13542611312E+04  0.13542611313E+04  0.50400001928E-02 0. -1.
        1   -1    0    0  501    0  0.00000000000E+00  0.00000000000E+00 -0.26767910502E+04  0.26767910502E+04  0.50400001928E-02 0.  1.
    10030    2    1    2    0    0  0.00000000000E+00  0.00000000000E+00 -0.13225299189E+04  0.40310521814E+04  0.38079254592E+04 0.  0.
        4    1    3    3  502    0  0.55774101983E+03  0.16249894870E+04  0.20743271923E+03  0.17305189465E+04  0.12699999809E+01 0. -1.
       -4    1    3    3    0  502 -0.55774101983E+03 -0.16249894870E+04 -0.15299626381E+04  0.23005332350E+04  0.12699999809E+01 0.  1.
</event>
<event>
 5   0  0.2287500E-07  0.3644559E+04  0.7818609E-02  0.8080360E-01
       -1   -1    0    0    0  501  0.00000000000E+00  0.00000000000E+00  0.11600293605E+04  0.11600293605E+04  0.50400001928E-02 0. -1.
        1   -1    0    0  501    0  0.00000000000E+00  0.00000000000E+00 -0.28626022117E+04  0.28626022117E+04  0.50400001928E-02 0.  1.
    10030    2    1    2    0    0  0.00000000000E+00  0.00000000000E+00 -0.17025728512E+04  0.40226315722E+04  0.36445590202E+04 0.  0.
        3    1    3    3  502    0 -0.21422137258E+03 -0.15517151550E+04 -0.18790016409E+04  0.24462947279E+04  0.10100000352E+00 0.  1.
       -3    1    3    3    0  502  0.21422137258E+03  0.15517151550E+04  0.17642878968E+03  0.15763368443E+04  0.10100000352E+00 0. -1.
</event>
<event>
 5   0  0.7300916E-07  0.3649922E+04  0.7818609E-02  0.8079151E-01
        2   -1    0    0  501    0  0.00000000000E+00  0.00000000000E+00  0.30132970062E+04  0.30132970062E+04  0.25500000920E-02 0. -1.
       -2   -1    0    0    0  501  0.00000000000E+00  0.00000000000E+00 -0.11052621077E+04  0.11052621077E+04  0.25500000920E-02 0.  1.
    10030    2    1    2    0    0  0.00000000000E+00  0.00000000000E+00  0.19080348985E+04  0.41185591139E+04  0.36499221910E+04 0.  0.
        1    1    3    3  502    0 -0.15283667450E+03 -0.10354379086E+04 -0.73292284552E+03  0.12777584315E+04  0.50400001928E-02 0.  1.
       -1    1    3    3    0  502  0.15283667450E+03  0.10354379086E+04  0.26409577440E+04  0.28408006824E+04  0.50400001928E-02 0. -1.
</event>
<event>
 5   0  0.2287500E-07  0.3753897E+04  0.7818609E-02  0.8056122E-01
        1   -1    0    0  501    0  0.00000000000E+00  0.00000000000E+00  0.25027866919E+04  0.25027866919E+04  0.50400001928E-02 0.  1.
       -1   -1    0    0    0  501  0.00000000000E+00  0.00000000000E+00 -0.14076049510E+04  0.14076049510E+04  0.50400001928E-02 0. -1.
    10030    2    1    2    0    0  0.00000000000E+00  0.00000000000E+00  0.10951817409E+04  0.39103916428E+04  0.37538966095E+04 0.  0.
        2    1    3    3  502    0 -0.16910955980E+04 -0.12983064144E+03  0.13850169853E+04  0.21897334008E+04  0.25500000920E-02 0.  1.
       -2    1    3    3    0  502  0.16910955980E+04  0.12983064144E+03 -0.28983524444E+03  0.17206582420E+04  0.25500000920E-02 0. -1.
</event>
<event>
 5   0  0.7300916E-07  0.3707608E+04  0.7818609E-02  0.8066278E-01
        2   -1    0    0  501    0  0.00000000000E+00  0.00000000000E+00  0.13237067400E+04  0.13237067400E+04  0.25500000920E-02 0. -1.
       -2   -1    0    0    0  501  0.00000000000E+00  0.00000000000E+00 -0.25961860473E+04  0.25961860473E+04  0.25500000920E-02 0.  1.
    10030    2    1    2    0    0  0.00000000000E+00  0.00000000000E+00 -0.12724793073E+04  0.39198927872E+04  0.37076078374E+04 0.  0.
        1    1    3    3  502    0 -0.12354410519E+04  0.10586469944E+04  0.30319747026E+03  0.16549854251E+04  0.50400001928E-02 0. -1.
       -1    1    3    3    0  502  0.12354410519E+04 -0.10586469944E+04 -0.15756767776E+04  0.22649073621E+04  0.50400001928E-02 0.  1.
</event>
<event>
 5   0  0.7074157E-07  0.3807563E+04  0.7818609E-02  0.8044534E-01
        2   -1    0    0  501    0  0.00000000000E+00  0.00000000000E+00  0.14987728739E+04  0.14987728739E+04  0.25500000920E-02 0.  1.
       -2   -1    0    0    0  501  0.00000000000E+00  0.00000000000E+00 -0.24182348845E+04  0.24182348845E+04  0.25500000920E-02 0. -1.
    10030    2    1    2    0    0  0.00000000000E+00  0.00000000000E+00 -0.91946201058E+03  0.39170077584E+04  0.38075634454E+04 0.  0.
        3    1    3    3  502    0  0.96357174640E+03  0.69328257866E+03 -0.19908923918E+04  0.23179222960E+04  0.10100000352E+00 0. -1.
       -3    1    3    3    0  502 -0.96357174640E+03 -0.69328257866E+03  0.10714303812E+04  0.15990854625E+04  0.10100000352E+00 0.  1.
</event>
<event>
 5   0  0.2411746E-07  0.3058265E+04  0.7818609E-02  0.8227286E-01
       -1   -1    0    0    0  501  0.00000000000E+00  0.00000000000E+00  0.13218820095E+04  0.13218820095E+04  0.50400001928E-02 0.  1.
        1   -1    0    0  501    0  0.00000000000E+00  0.00000000000E+00 -0.17688761533E+04  0.17688761533E+04  0.50400001928E-02 0. -1.
    10030    2    1    2    0    0  0.00000000000E+00  0.00000000000E+00 -0.44699414387E+03  0.30907581628E+04  0.30582645825E+04 0.  0.
        1    1    3    3  502    0 -0.10802162163E+04  0.48927152543E+02  0.86918638777E+03  0.13873521243E+04  0.50400001928E-02 0.  1.
       -1    1    3    3    0  502  0.10802162163E+04 -0.48927152543E+02 -0.13161805316E+04  0.17034060385E+04  0.50400001928E-02 0. -1.
</event>
<event>
 5   0  0.2411746E-07  0.3622583E+04  0.7818609E-02  0.8085338E-01
       -1   -1    0    0    0  501  0.00000000000E+00  0.00000000000E+00  0.18792973285E+04  0.18792973285E+04  0.50400001928E-02 0. -1.
        1   -1    0    0  501    0  0.00000000000E+00  0.00000000000E+00 -0.17457468433E+04  0.17457468433E+04  0.50400001928E-02 0.  1.
    10030    2    1    2    0    0  0.00000000000E+00  0.00000000000E+00  0.13355048523E+03  0.36250441718E+04  0.36225832655E+04 0.  0.
        1    1    3    3  502    0 -0.36648345347E+03 -0.20360306553E+03 -0.16965265180E+04  0.17475601724E+04  0.50400001928E-02 0.  1.
       -1    1    3    3    0  502  0.36648345347E+03  0.20360306553E+03  0.18300770032E+04  0.18774839993E+04  0.50400001928E-02 0. -1.
</event>
<event>
 5   0  0.7300916E-07  0.3691074E+04  0.7818609E-02  0.8069943E-01
        2   -1    0    0  501    0  0.00000000000E+00  0.00000000000E+00  0.29710820482E+04  0.29710820483E+04  0.25500000920E-02 0. -1.
       -2   -1    0    0    0  501  0.00000000000E+00  0.00000000000E+00 -0.11463857425E+04  0.11463857425E+04  0.25500000920E-02 0.  1.
    10030    2    1    2    0    0  0.00000000000E+00  0.00000000000E+00  0.18246963057E+04  0.41174677908E+04  0.36910736107E+04 0.  0.
        1    1    3    3  502    0  0.51730209741E+03 -0.15024486935E+04 -0.13472834973E+03  0.15947116557E+04  0.50400001928E-02 0.  1.
       -1    1    3    3    0  502 -0.51730209741E+03  0.15024486935E+04  0.19594246555E+04  0.25227561351E+04  0.50400001928E-02 0. -1.
</event>
<event>
 5   0  0.2287500E-07  0.3618349E+04  0.7818609E-02  0.8086301E-01
        1   -1    0    0  501    0  0.00000000000E+00  0.00000000000E+00  0.19443348692E+04  0.19443348692E+04  0.50400001928E-02 0.  1.
       -1   -1    0    0    0  501  0.00000000000E+00  0.00000000000E+00 -0.16834101581E+04  0.16834101581E+04  0.50400001928E-02 0. -1.
    10030    2    1    2    0    0  0.00000000000E+00  0.00000000000E+00  0.26092471112E+03  0.36277450273E+04  0.36183493858E+04 0.  0.
        2    1    3    3  502    0 -0.11683271403E+04  0.13407869978E+04  0.46361270461E+03  0.18378342744E+04  0.25500000920E-02 0.  1.
       -2    1    3    3    0  502  0.11683271403E+04 -0.13407869978E+04 -0.20268799350E+03  0.17899107528E+04  0.25500000920E-02 0. -1.
</event>
<event>
 5   0  0.2411746E-07  0.3657413E+04  0.7818609E-02  0.8077466E-01
       -1   -1    0    0    0  501  0.00000000000E+00  0.00000000000E+00  0.14058079654E+04  0.14058079654E+04  0.50400001928E-02 0. -1.
        1   -1    0    0  501    0  0.00000000000E+00  0.00000000000E+00 -0.23788221479E+04  0.23788221479E+04  0.50400001928E-02 0.  1.
    10030    2    1    2    0    0  0.00000000000E+00  0.00000000000E+00 -0.97301418246E+03  0.37846301133E+04  0.36574128145E+04 0.  0.
        1    1    3    3  502    0 -0.17988210946E+04  0.21798703404E+03 -0.23116194672E+03  0.18266667794E+04  0.50400001928E-02 0.  1.
       -1    1    3    3    0  502  0.17988210946E+04 -0.21798703404E+03 -0.74185223574E+03  0.19579633339E+04  0.50400001928E-02 0. -1.
</event>
<event>
 5   0  0.7074157E-07  0.3806700E+04  0.7818609E-02  0.8044719E-01
       -2   -1    0    0    0  501  0.00000000000E+00  0.00000000000E+00  0.14412975478E+04  0.14412975478E+04  0.25500000920E-02 0.  1.
        2   -1    0    0  501    0  0.00000000000E+00  0.00000000000E+00 -0.25135270972E+04  0.25135270972E+04  0.25500000920E-02 0. -1.
    10030    2    1    2    0    0  0.00000000000E+00  0.00000000000E+00 -0.10722295494E+04  0.39548246450E+04  0.38066995897E+04 0.  0.
        3    1    3    3  502    0  0.95698936172E+02  0.28424711501E+03 -0.24888226368E+04  0.25068292396E+04  0.10100000352E+00 0. -1.
       -3    1    3    3    0  502 -0.95698936172E+02 -0.28424711501E+03  0.14165930874E+04  0.14479954054E+04  0.10100000352E+00 0.  1.
</event>
<event>
 5   0  0.2287500E-07  0.3022740E+04  0.7818609E-02  0.8237267E-01
       -1   -1    0    0    0  501  0.00000000000E+00  0.00000000000E+00  0.10110910221E+04  0.10110910221E+04  0.50400001928E-02 0.  1.
        1   -1    0    0  501    0  0.00000000000E+00  0.00000000000E+00 -0.22591830018E+04  0.22591830018E+04  0.50400001928E-02 0. -1.
    10030    2    1    2    0    0  0.00000000000E+00  0.00000000000E+00 -0.12480919797E+04  0.32702740239E+04  0.30227402471E+04 0.  0.
        4    1    3    3  502    0  0.87437940308E+03 -0.10261494468E+04 -0.13631569894E+04  0.19172168939E+04  0.12699999809E+01 0. -1.
       -4    1    3    3    0  502 -0.87437940308E+03  0.10261494468E+04  0.11506500968E+03  0.13530571300E+04  0.12699999809E+01 0.  1.
</event>
<event>
 5   0  0.2411746E-07  0.3414200E+04  0.7818609E-02  0.8134430E-01
        1   -1    0    0  501    0  0.00000000000E+00  0.00000000000E+00  0.14509314509E+04  0.14509314509E+04  0.50400001928E-02 0.  1.
       -1   -1    0    0    0  501  0.00000000000E+00  0.00000000000E+00 -0.20084967670E+04  0.20084967670E+04  0.50400001928E-02 0. -1.
    10030    2    1    2    0    0  0.00000000000E+00  0.00000000000E+00 -0.55756531609E+03  0.34594282178E+04  0.34142004207E+04 0.  0.
        1    1    3    3  502    0 -0.45021811918E+03 -0.55021740988E+03  0.12937934690E+04  0.14762578005E+04  0.50400001928E-02 0.  1.
       -1    1    3    3    0  502  0.45021811918E+03  0.55021740988E+03 -0.18513587851E+04  0.19831704173E+04  0.50400001928E-02 0. -1.
</event>
<event>
 5   0  0.2287500E-07  0.2820844E+04  0.7818609E-02  0.8296826E-01
       -1   -1    0    0    0  501  0.00000000000E+00  0.00000000000E+00  0.14520088456E+04  0.14520088456E+04  0.50400001928E-02 0. -1.
        1   -1    0    0  501    0  0.00000000000E+00  0.00000000000E+00 -0.13700265462E+04  0.13700265462E+04  0.50400001928E-02 0.  1.
    10030    2    1    2    0    0  0.00000000000E+00  0.00000000000E+00  0.81982299328E+02  0.28220353918E+04  0.28208443160E+04 0.  0.
        4    1    3    3  502    0 -0.11253354799E+03 -0.11352327686E+04  0.87072172663E+03  0.14351220075E+04  0.12699999809E+01 0. -1.
       -4    1    3    3    0  502  0.11253354799E+03  0.11352327686E+04 -0.78873942730E+03  0.13869133843E+04  0.12699999809E+01 0.  1.
</event>
<event>
 5   0  0.7124627E-07  0.3706298E+04  0.7818609E-02  0.8066568E-01
       -2   -1    0    0    0  501  0.00000000000E+00  0.00000000000E+00  0.18956490738E+04  0.18956490738E+04  0.25500000920E-02 0.  1.
        2   -1    0    0  501    0  0.00000000000E+00  0.00000000000E+00 -0.18116015268E+04  0.18116015268E+04  0.25500000920E-02 0. -1.
    10030    2    1    2    0    0  0.00000000000E+00  0.00000000000E+00  0.84047547037E+02  0.37072506006E+04  0.37062977518E+04 0.  0.
        2    1    3    3  502    0 -0.10122150541E+04 -0.10150568690E+04  0.12167366150E+04  0.18802573636E+04  0.25500000920E-02 0.  1.
       -2    1    3    3    0  502  0.10122150541E+04  0.10150568690E+04 -0.11326890680E+04  0.18269932369E+04  0.25500000920E-02 0. -1.
</event>
<event>
 5   0  0.6939921E-07  0.3756855E+04  0.7818609E-02  0.8055478E-01
        2   -1    0    0  501    0  0.00000000000E+00  0.00000000000E+00  0.25670305269E+04  0.25670305269E+04  0.25500000920E-02 0. -1.
       -2   -1    0    0    0  501  0.00000000000E+00  0.00000000000E+00 -0.13745416718E+04  0.13745416718E+04  0.25500000920E-02 0.  1.
    10030    2    1    2    0    0  0.00000000000E+00  0.00000000000E+00  0.11924888552E+04  0.39415721987E+04  0.37568552977E+04 0.  0.
        4    1    3    3  502    0 -0.10023164802E+04  0.89747882626E+03  0.19715680650E+04  0.23868784674E+04  0.12699999809E+01 0. -1.
       -4    1    3    3    0  502  0.10023164802E+04 -0.89747882626E+03 -0.77907920985E+03  0.15546937313E+04  0.12699999809E+01 0.  1.
</event>
<event>
 5   0  0.7074157E-07  0.3412559E+04  0.7818609E-02  0.8134831E-01
        2   -1    0    0  501    0  0.00000000000E+00  0.00000000000E+00  0.24055958170E+04  0.24055958170E+04  0.25500000920E-02 0. -1.
       -2   -1    0    0    0  501  0.00000000000E+00  0.00000000000E+00 -0.12102575504E+04  0.12102575504E+04  0.25500000920E-02 0.  1.
    10030    2    1    2    0    0  0.00000000000E+00  0.00000000000E+00  0.11953382666E+04  0.36158533674E+04  0.34125594504E+04 0.  0.
        3    1    3    3  502    0 -0.14338648307E+04 -0.11113312893E+02  0.15775865417E+04  0.21318703444E+04  0.10100000352E+00 0. -1.
       -3    1    3    3    0  502  0.14338648307E+04  0.11113312893E+02 -0.38224827511E+03  0.14839830230E+04  0.10100000352E+00 0.  1.
</event>
<event>
 5   0  0.2287500E-07  0.3386443E+04  0.7818609E-02  0.8141242E-01
        1   -1    0    0  501    0  0.00000000000E+00  0.00000000000E+00  0.17863595567E+04  0.17863595567E+04  0.50400001928E-02 0.  1.
       -1   -1    0    0    0  501  0.00000000000E+00  0.00000000000E+00 -0.16049391576E+04  0.16049391577E+04  0.50400001928E-02 0. -1.
    10030    2    1    2    0    0  0.00000000000E+00  0.00000000000E+00  0.18142039901E+03  0.33912987143E+04  0.33864426185E+04 0.  0.
        3    1    3    3  502    0  0.47725264226E+03  0.12226014641E+04  0.11620451749E+04  0.17529613297E+04  0.10100000352E+00 0.  1.
       -3    1    3    3    0  502 -0.47725264226E+03 -0.12226014641E+04 -0.98062477593E+03  0.16383373846E+04  0.10100000352E+00 0. -1.
</event>
<event>
 5   0  0.7074157E-07  0.3586731E+04  0.7818609E-02  0.8093538E-01
       -2   -1    0    0    0  501  0.00000000000E+00  0.00000000000E+00  0.15170949284E+04  0.15170949284E+04  0.25500000920E-02 0.  1.
        2   -1    0    0  501    0  0.00000000000E+00  0.00000000000E+00 -0.21199464149E+04  0.21199464149E+04  0.25500000920E-02 0. -1.
    10030    2    1    2    0    0  0.00000000000E+00  0.00000000000E+00 -0.60285148654E+03  0.36370413433E+04  0.35867310769E+04 0.  0.
        3    1    3    3  502    0 -0.31309893526E+03 -0.21402618815E+02 -0.20918854784E+04  0.21152952230E+04  0.10100000352E+00 0. -1.
       -3    1    3    3    0  502  0.31309893526E+03  0.21402618815E+02  0.14890339919E+04  0.15217461203E+04  0.10100000352E+00 0.  1.
</event>
<event>
 5   0  0.7124627E-07  0.3711121E+04  0.7818609E-02  0.8065502E-01
       -2   -1    0    0    0  501  0.00000000000E+00  0.00000000000E+00  0.24677787413E+04  0.24677787413E+04  0.25500000920E-02 0.  1.
        2   -1    0    0  501    0  0.00000000000E+00  0.00000000000E+00 -0.13952239324E+04  0.13952239324E+04  0.25500000920E-02 0. -1.
    10030    2    1    2    0    0  0.00000000000E+00  0.00000000000E+00  0.10725548088E+04  0.38630026737E+04  0.37111205638E+04 0.  0.
        2    1    3    3  502    0 -0.86368664933E+03  0.13754744558E+04 -0.39778748427E+03  0.16721601267E+04  0.25500000920E-02 0. -1.
       -2    1    3    3    0  502  0.86368664933E+03 -0.13754744558E+04  0.14703422931E+04  0.21908425470E+04  0.25500000920E-02 0.  1.
</event>
<event>
 5   0  0.2287500E-07  0.3696382E+04  0.7818609E-02  0.8068764E-01
        1   -1    0    0  501    0  0.00000000000E+00  0.00000000000E+00  0.24927572464E+04  0.24927572464E+04  0.50400001928E-02 0. -1.
       -1   -1    0    0    0  501  0.00000000000E+00  0.00000000000E+00 -0.13702937611E+04  0.13702937611E+04  0.50400001928E-02 0.  1.
    10030    2    1    2    0    0  0.00000000000E+00  0.00000000000E+00  0.11224634853E+04  0.38630510075E+04  0.36963818541E+04 0.  0.
        3    1    3    3  502    0  0.72146546872E+02  0.58893804294E+02 -0.13678398837E+04  0.13710067695E+04  0.10100000352E+00 0.  1.
       -3    1    3    3    0  502 -0.72146546872E+02 -0.58893804294E+02  0.24903033690E+04  0.24920442380E+04  0.10100000352E+00 0. -1.
</event>
<event>
 5   0  0.6949625E-07  0.3699506E+04  0.7818609E-02  0.8068071E-01
       -2   -1    0    0    0  501  0.00000000000E+00  0.00000000000E+00  0.18915626783E+04  0.18915626783E+04  0.25500000920E-02 0.  1.
        2   -1    0    0  501    0  0.00000000000E+00  0.00000000000E+00 -0.18088676677E+04  0.18088676677E+04  0.25500000920E-02 0. -1.
    10030    2    1    2    0    0  0.00000000000E+00  0.00000000000E+00  0.82695010645E+02  0.37004303460E+04  0.36995062212E+04 0.  0.
        5    1    3    3  502    0  0.69525554681E+03 -0.19897607708E+03  0.17442981872E+04  0.18882716993E+04  0.46999998093E+01 0.  1.
       -5    1    3    3    0  502 -0.69525554681E+03  0.19897607708E+03 -0.16616031765E+04  0.18121586467E+04  0.46999998093E+01 0. -1.
</event>
<event>
 5   0  0.2287500E-07  0.3707928E+04  0.7818609E-02  0.8066207E-01
        3   -1    0    0  501    0  0.00000000000E+00  0.00000000000E+00  0.16212509759E+04  0.16212509790E+04  0.10100000352E+00 0.  1.
       -3   -1    0    0    0  501  0.00000000000E+00  0.00000000000E+00 -0.21200803218E+04  0.21200803242E+04  0.10100000352E+00 0. -1.
    10030    2    1    2    0    0  0.00000000000E+00  0.00000000000E+00 -0.49882934597E+03  0.37413313032E+04  0.37079278855E+04 0.  0.
        1    1    3    3  502    0 -0.12534174150E+03 -0.31207026711E+03 -0.20890463400E+04  0.21159425830E+04  0.50400001928E-02 0. -1.
       -1    1    3    3    0  502  0.12534174150E+03  0.31207026711E+03  0.15902169940E+04  0.16253887203E+04  0.50400001928E-02 0.  1.
</event>
<event>
 5   0  0.6949625E-07  0.3671702E+04  0.7818609E-02  0.8074262E-01
       -2   -1    0    0    0  501  0.00000000000E+00  0.00000000000E+00  0.23869519537E+04  0.23869519537E+04  0.25500000920E-02 0.  1.
        2   -1    0    0  501    0  0.00000000000E+00  0.00000000000E+00 -0.14119883131E+04  0.14119883131E+04  0.25500000920E-02 0. -1.
    10030    2    1    2    0    0  0.00000000000E+00  0.00000000000E+00  0.97496364067E+03  0.37989402668E+04  0.36717016559E+04 0.  0.
        5    1    3    3  502    0 -0.71440431820E+03 -0.93892428610E+03  0.19427708601E+04  0.22729568957E+04  0.46999998093E+01 0.  1.
       -5    1    3    3    0  502  0.71440431820E+03  0.93892428610E+03 -0.96780721943E+03  0.15259833711E+04  0.46999998093E+01 0. -1.
</event>
<event>
 5   0  0.7300916E-07  0.3686729E+04  0.7818609E-02  0.8070909E-01
       -2   -1    0    0    0  501  0.00000000000E+00  0.00000000000E+00  0.16091262511E+04  0.16091262511E+04  0.25500000920E-02 0.  1.
        2   -1    0    0  501    0  0.00000000000E+00  0.00000000000E+00 -0.21117009664E+04  0.21117009664E+04  0.25500000920E-02 0. -1.
    10030    2    1    2    0    0  0.00000000000E+00  0.00000000000E+00 -0.50257471536E+03  0.37208272175E+04  0.36867294229E+04 0.  0.
        1    1    3    3  502    0  0.69904213759E+03 -0.72494579838E+03  0.13069441246E+04  0.16499422007E+04  0.50400001928E-02 0.  1.
       -1    1    3    3    0  502 -0.69904213759E+03  0.72494579838E+03 -0.18095188400E+04  0.20708850168E+04  0.50400001928E-02 0. -1.
</event>
<event>
 5   0  0.6939921E-07  0.3688644E+04  0.7818609E-02  0.8070483E-01
       -2   -1    0    0    0  501  0.00000000000E+00  0.00000000000E+00  0.13021497379E+04  0.13021497379E+04  0.25500000920E-02 0. -1.
        2   -1    0    0  501    0  0.00000000000E+00  0.00000000000E+00 -0.26122367197E+04  0.26122367197E+04  0.25500000920E-02 0.  1.
    10030    2    1    2    0    0  0.00000000000E+00  0.00000000000E+00 -0.13100869818E+04  0.39143864576E+04  0.36886438483E+04 0.  0.
        4    1    3    3  502    0 -0.18222703988E+04  0.21758576572E+03 -0.84930030060E+03  0.20222080964E+04  0.12699999809E+01 0.  1.
       -4    1    3    3    0  502  0.18222703988E+04 -0.21758576572E+03 -0.46078668119E+03  0.18921783611E+04  0.12699999809E+01 0. -1.
</event>
<event>
 5   0  0.2287500E-07  0.3564633E+04  0.7818609E-02  0.8098641E-01
       -1   -1    0    0    0  501  0.00000000000E+00  0.00000000000E+00  0.15130707951E+04  0.15130707951E+04  0.50400001928E-02 0.  1.
        1   -1    0    0  501    0  0.00000000000E+00  0.00000000000E+00 -0.20994738520E+04  0.20994738520E+04  0.50400001928E-02 0. -1.
    10030    2    1    2    0    0  0.00000000000E+00  0.00000000000E+00 -0.58640305692E+03  0.36125446472E+04  0.35646332606E+04 0.  0.
        3    1    3    3  502    0  0.19800377413E+03  0.17013952319E+04 -0.79247035119E+03  0.18873156857E+04  0.10100000352E+00 0.  1.
       -3    1    3    3    0  502 -0.19800377413E+03 -0.17013952319E+04  0.20606729427E+03  0.17252289615E+04  0.10100000352E+00 0. -1.
</event>
<event>
 5   0  0.2287500E-07  0.3717854E+04  0.7818609E-02  0.8064017E-01
        1   -1    0    0  501    0  0.00000000000E+00  0.00000000000E+00  0.18842602178E+04  0.18842602178E+04  0.50400001928E-02 0. -1.
       -1   -1    0    0    0  501  0.00000000000E+00  0.00000000000E+00 -0.18339338990E+04  0.18339338990E+04  0.50400001928E-02 0.  1.
    10030    2    1    2    0    0  0.00000000000E+00  0.00000000000E+00  0.50326318841E+02  0.37181941168E+04  0.37178535140E+04 0.  0.
        4    1    3    3  502    0  0.10806896853E+04 -0.14079852350E+04 -0.52742203537E+03  0.18516177343E+04  0.12699999809E+01 0. -1.
       -4    1    3    3    0  502 -0.10806896853E+04  0.14079852350E+04  0.57774835421E+03  0.18665763824E+04  0.12699999809E+01 0.  1.
</event>
<event>
 5   0  0.7300916E-07  0.3729178E+04  0.7818609E-02  0.8061526E-01
        2   -1    0    0  501    0  0.00000000000E+00  0.00000000000E+00  0.19168756174E+04  0.19168756174E+04  0.25500000920E-02 0. -1.
       -2   -1    0    0    0  501  0.00000000000E+00  0.00000000000E+00 -0.18137286484E+04  0.18137286484E+04  0.25500000920E-02 0.  1.
    10030    2    1    2    0    0  0.00000000000E+00  0.00000000000E+00  0.10314696906E+03  0.37306042658E+04  0.37291780449E+04 0.  0.
        1    1    3    3  502    0 -0.12686581693E+04  0.13250618384E+04 -0.28233523058E+03  0.18560699363E+04  0.50400001928E-02 0.  1.
       -1    1    3    3    0  502  0.12686581693E+04 -0.13250618384E+04  0.38548219964E+03  0.18745343295E+04  0.50400001928E-02 0. -1.
</event>
<event>
 5   0  0.2411746E-07  0.3679537E+04  0.7818609E-02  0.8072512E-01
       -1   -1    0    0    0  501  0.00000000000E+00  0.00000000000E+00  0.20255793429E+04  0.20255793429E+04  0.50400001928E-02 0. -1.
        1   -1    0    0  501    0  0.00000000000E+00  0.00000000000E+00 -0.16710025943E+04  0.16710025943E+04  0.50400001928E-02 0.  1.
    10030    2    1    2    0    0  0.00000000000E+00  0.00000000000E+00  0.35457674859E+03  0.36965819373E+04  0.36795371106E+04 0.  0.
        1    1    3    3  502    0 -0.43524864199E+03 -0.16313980893E+04  0.91132147885E+03  0.19186995450E+04  0.50400001928E-02 0. -1.
       -1    1    3    3    0  502  0.43524864199E+03  0.16313980893E+04 -0.55674473026E+03  0.17778823923E+04  0.50400001928E-02 0.  1.
</event>
<event>
 5   0  0.6939921E-07  0.3766969E+04  0.7818609E-02  0.8053281E-01
       -2   -1    0    0    0  501  0.00000000000E+00  0.00000000000E+00  0.28455889126E+04  0.28455889126E+04  0.25500000920E-02 0. -1.
        2   -1    0    0  501    0  0.00000000000E+00  0.00000000000E+00 -0.12466709656E+04  0.12466709656E+04  0.25500000920E-02 0.  1.
    10030    2    1    2    0    0  0.00000000000E+00  0.00000000000E+00  0.15989179470E+04  0.40922598782E+04  0.37669685836E+04 0.  0.
        4    1    3    3  502    0  0.10913621763E+03  0.12093440866E+04  0.23636148754E+04  0.26572731749E+04  0.12699999809E+01 0. -1.
       -4    1    3    3    0  502 -0.10913621763E+03 -0.12093440866E+04 -0.76469692837E+03  0.14349867034E+04  0.12699999809E+01 0.  1.
</event>
<event>
 5   0  0.7074157E-07  0.3674537E+04  0.7818609E-02  0.8073628E-01
        2   -1    0    0  501    0  0.00000000000E+00  0.00000000000E+00  0.17576458757E+04  0.17576458757E+04  0.25500000920E-02 0.  1.
       -2   -1    0    0    0  501  0.00000000000E+00  0.00000000000E+00 -0.19204985200E+04  0.19204985200E+04  0.25500000920E-02 0. -1.
    10030    2    1    2    0    0  0.00000000000E+00  0.00000000000E+00 -0.16285264432E+03  0.36781443957E+04  0.36745374147E+04 0.  0.
        3    1    3    3  502    0  0.15240236719E+04  0.97439921702E+03 -0.40338518659E+03  0.18533271718E+04  0.10100000352E+00 0. -1.
       -3    1    3    3    0  502 -0.15240236719E+04 -0.97439921702E+03  0.24053254227E+03  0.18248172239E+04  0.10100000352E+00 0.  1.
</event>
<event>
 5   0  0.6949625E-07  0.3671551E+04  0.7818609E-02  0.8074296E-01
        2   -1    0    0  501    0  0.00000000000E+00  0.00000000000E+00  0.27414648306E+04  0.27414648306E+04  0.25500000920E-02 0.  1.
       -2   -1    0    0    0  501  0.00000000000E+00  0.00000000000E+00 -0.12292958317E+04  0.12292958317E+04  0.25500000920E-02 0. -1.
    10030    2    1    2    0    0  0.00000000000E+00  0.00000000000E+00  0.15121689988E+04  0.39707606623E+04  0.36715507835E+04 0.  0.
        5    1    3    3  502    0 -0.16434723233E+04 -0.74488059019E+03  0.11215604440E+04  0.21245630823E+04  0.46999998093E+01 0. -1.
       -5    1    3    3    0  502  0.16434723233E+04  0.74488059019E+03  0.39060855484E+03  0.18461975800E+04  0.46999998093E+01 0.  1.
</event>
<event>
 5   0  0.2287500E-07  0.3703356E+04  0.7818609E-02  0.8067219E-01
        1   -1    0    0  501    0  0.00000000000E+00  0.00000000000E+00  0.18315444360E+04  0.18315444360E+04  0.50400001928E-02 0. -1.
       -1   -1    0    0    0  501  0.00000000000E+00  0.00000000000E+00 -0.18720324884E+04  0.18720324884E+04  0.50400001928E-02 0.  1.
    10030    2    1    2    0    0  0.00000000000E+00  0.00000000000E+00 -0.40488052487E+02  0.37035769244E+04  0.37033556071E+04 0.  0.
        4    1    3    3  502    0  0.34424934258E+03  0.25682481839E+03 -0.18215297476E+04  0.18714803850E+04  0.12699999809E+01 0.  1.
       -4    1    3    3    0  502 -0.34424934258E+03 -0.25682481839E+03  0.17810416951E+04  0.18320965394E+04  0.12699999809E+01 0. -1.
</event>
<event>
 5   0  0.2287500E-07  0.3658561E+04  0.7818609E-02  0.8077208E-01
       -1   -1    0    0    0  501  0.00000000000E+00  0.00000000000E+00  0.25742141846E+04  0.25742141846E+04  0.50400001928E-02 0. -1.
        1   -1    0    0  501    0  0.00000000000E+00  0.00000000000E+00 -0.12999181516E+04  0.12999181516E+04  0.50400001928E-02 0.  1.
    10030    2    1    2    0    0  0.00000000000E+00  0.00000000000E+00  0.12742960330E+04  0.38741323362E+04  0.36585613264E+04 0.  0.
        4    1    3    3  502    0  0.11770021415E+04  0.85658965514E+03 -0.53590962607E+03  0.15512190750E+04  0.12699999809E+01 0.  1.
       -4    1    3    3    0  502 -0.11770021415E+04 -0.85658965514E+03  0.18102056590E+04  0.23229132612E+04  0.12699999809E+01 0. -1.
</event>
<event>
 5   0  0.2411746E-07  0.2698985E+04  0.7818609E-02  0.8335334E-01
        1   -1    0    0  501    0  0.00000000000E+00  0.00000000000E+00  0.10189817698E+04  0.10189817698E+04  0.50400001928E-02 0.  1.
       -1   -1    0    0    0  501  0.00000000000E+00  0.00000000000E+00 -0.17872054941E+04  0.17872054941E+04  0.50400001928E-02 0. -1.
    10030    2    1    2    0    0  0.00000000000E+00  0.00000000000E+00 -0.76822372434E+03  0.28061872640E+04  0.26989848591E+04 0.  0.
        1    1    3    3  502    0 -0.10320248015E+03 -0.13303172199E+04 -0.17426575630E+03  0.13456460200E+04  0.50400001928E-02 0. -1.
       -1    1    3    3    0  502  0.10320248015E+03  0.13303172199E+04 -0.59395796804E+03  0.14605412439E+04  0.50400001928E-02 0.  1.
</event>
<event>
 5   0  0.6949625E-07  0.2900225E+04  0.7818609E-02  0.8272811E-01
       -2   -1    0    0    0  501  0.00000000000E+00  0.00000000000E+00  0.14475418557E+04  0.14475418557E+04  0.25500000920E-02 0.  1.
        2   -1    0    0  501    0  0.00000000000E+00  0.00000000000E+00 -0.14526872281E+04  0.14526872281E+04  0.25500000920E-02 0. -1.
    10030    2    1    2    0    0  0.00000000000E+00  0.00000000000E+00 -0.51453723915E+01  0.29002290838E+04  0.29002245196E+04 0.  0.
        5    1    3    3  502    0 -0.13520048015E+04 -0.49235536374E+03 -0.18277476877E+03  0.14504342432E+04  0.46999998093E+01 0. -1.
       -5    1    3    3    0  502  0.13520048015E+04  0.49235536374E+03  0.17762939638E+03  0.14497948407E+04  0.46999998093E+01 0.  1.
</event>
<event>
 5   0  0.6939921E-07  0.3617457E+04  0.7818609E-02  0.8086505E-01
       -2   -1    0    0    0  501  0.00000000000E+00  0.00000000000E+00  0.14906354471E+04  0.14906354471E+04  0.25500000920E-02 0. -1.
        2   -1    0    0  501    0  0.00000000000E+00  0.00000000000E+00 -0.21947008853E+04  0.21947008853E+04  0.25500000920E-02 0.  1.
    10030    2    1    2    0    0  0.00000000000E+00  0.00000000000E+00 -0.70406543820E+03  0.36853363325E+04  0.36174570823E+04 0.  0.
        4    1    3    3  502    0 -0.74654517687E+03  0.15967815883E+04 -0.76517423786E+03  0.19215968279E+04  0.12699999809E+01 0. -1.
       -4    1    3    3    0  502  0.74654517687E+03 -0.15967815883E+04  0.61108799661E+02  0.17637395046E+04  0.12699999809E+01 0.  1.
</event>
<event>
 5   0  0.7300916E-07  0.3783454E+04  0.7818609E-02  0.8049715E-01
       -2   -1    0    0    0  501  0.00000000000E+00  0.00000000000E+00  0.15951304170E+04  0.15951304170E+04  0.25500000920E-02 0. -1.
        2   -1    0    0  501    0  0.00000000000E+00  0.00000000000E+00 -0.22434719486E+04  0.22434719486E+04  0.25500000920E-02 0.  1.
    10030    2    1    2    0    0  0.00000000000E+00  0.00000000000E+00 -0.64834153156E+03  0.38386023656E+04  0.37834536312E+04 0.  0.
        1    1    3    3  502    0  0.19156137719E+02  0.62381575328E+03 -0.21360112404E+04  0.22253217904E+04  0.50400001928E-02 0.  1.
       -1    1    3    3    0  502 -0.19156137719E+02 -0.62381575328E+03  0.14876697089E+04  0.16132805752E+04  0.50400001928E-02 0. -1.
</event>
<event>
 5   0  0.7300916E-07  0.3712053E+04  0.7818609E-02  0.8065296E-01
       -2   -1    0    0    0  501  0.00000000000E+00  0.00000000000E+00  0.12833482738E+04  0.12833482738E+04  0.25500000920E-02 0.  1.
        2   -1    0    0  501    0  0.00000000000E+00  0.00000000000E+00 -0.26842551616E+04  0.26842551616E+04  0.25500000920E-02 0. -1.
    10030    2    1    2    0    0  0.00000000000E+00  0.00000000000E+00 -0.14009068878E+04  0.39676034354E+04  0.37120529243E+04 0.  0.
        1    1    3    3  502    0 -0.91888900787E+03 -0.67246557092E+03  0.86614703349E+03  0.14306563656E+04  0.50400001928E-02 0.  1.
       -1    1    3    3    0  502  0.91888900787E+03  0.67246557092E+03 -0.22670539213E+04  0.25369470698E+04  0.50400001928E-02 0. -1.
</event>
<event>
 5   0  0.2287500E-07  0.3591916E+04  0.7818609E-02  0.8092346E-01
        1   -1    0    0  501    0  0.00000000000E+00  0.00000000000E+00  0.17958988529E+04  0.17958988529E+04  0.50400001928E-02 0. -1.
       -1   -1    0    0    0  501  0.00000000000E+00  0.00000000000E+00 -0.17960176463E+04  0.17960176463E+04  0.50400001928E-02 0.  1.
    10030    2    1    2    0    0  0.00000000000E+00  0.00000000000E+00 -0.11879343168E+00  0.35919164992E+04  0.35919164972E+04 0.  0.
        2    1    3    3  502    0 -0.68027523866E+03 -0.13858822602E+04  0.91755816634E+03  0.17959279017E+04  0.25500000920E-02 0. -1.
       -2    1    3    3    0  502  0.68027523866E+03  0.13858822602E+04 -0.91767695978E+03  0.17959885974E+04  0.25500000920E-02 0.  1.
</event>
<event>
 5   0  0.2345471E-07  0.2741267E+04  0.7818609E-02  0.8321738E-01
       -1   -1    0    0    0  501  0.00000000000E+00  0.00000000000E+00  0.93111947220E+03  0.93111947221E+03  0.50400001928E-02 0.  1.
        1   -1    0    0  501    0  0.00000000000E+00  0.00000000000E+00 -0.20176100965E+04  0.20176100965E+04  0.50400001928E-02 0. -1.
    10030    2    1    2    0    0  0.00000000000E+00  0.00000000000E+00 -0.10864906243E+04  0.29487295687E+04  0.27412668956E+04 0.  0.
        5    1    3    3  502    0  0.37267449590E+03 -0.11093095125E+04  0.22431197277E+03  0.11915501775E+04  0.46999998093E+01 0.  1.
       -5    1    3    3    0  502 -0.37267449590E+03  0.11093095125E+04 -0.13108025970E+04  0.17571793912E+04  0.46999998093E+01 0. -1.
</event>
<event>
 5   0  0.6949625E-07  0.3704937E+04  0.7818609E-02  0.8066869E-01
       -2   -1    0    0    0  501  0.00000000000E+00  0.00000000000E+00  0.17580615516E+04  0.17580615516E+04  0.25500000920E-02 0. -1.
        2   -1    0    0  501    0  0.00000000000E+00  0.00000000000E+00 -0.19519449395E+04  0.19519449395E+04  0.25500000920E-02 0.  1.
    10030    2    1    2    0    0  0.00000000000E+00  0.00000000000E+00 -0.19388338791E+03  0.37100064911E+04  0.37049368950E+04 0.  0.
        5    1    3    3  502    0  0.27610233921E+03  0.33257955699E+03  0.17068491900E+04  0.17607378882E+04  0.46999998093E+01 0. -1.
       -5    1    3    3    0  502 -0.27610233921E+03 -0.33257955699E+03 -0.19007325780E+04  0.19492686029E+04  0.46999998093E+01 0.  1.
</event>
<event>
 5   0  0.2287500E-07  0.3793267E+04  0.7818609E-02  0.8047601E-01
       -1   -1    0    0    0  501  0.00000000000E+00  0.00000000000E+00  0.13349391334E+04  0.13349391334E+04  0.50400001928E-02 0. -1.
        1   -1    0    0  501    0  0.00000000000E+00  0.00000000000E+00 -0.26946685459E+04  0.26946685460E+04  0.50400001928E-02 0.  1.
    10030    2    1    2    0    0  0.00000000000E+00  0.00000000000E+00 -0.13597294125E+04  0.40296076794E+04  0.37932669263E+04 0.  0.
        4    1    3    3  502    0  0.87100510356E+02  0.13155656225E+03 -0.26876845231E+04  0.26923118944E+04  0.12699999809E+01 0.  1.
       -4    1    3    3    0  502 -0.87100510356E+02 -0.13155656225E+03  0.13279551106E+04  0.13372957850E+04  0.12699999809E+01 0. -1.
</event>
<event>
 5   0  0.7124627E-07  0.3716083E+04  0.7818609E-02  0.8064407E-01
        2   -1    0    0  501    0  0.00000000000E+00  0.00000000000E+00  0.23224179708E+04  0.23224179708E+04  0.25500000920E-02 0.  1.
       -2   -1    0    0    0  501  0.00000000000E+00  0.00000000000E+00 -0.14865192078E+04  0.14865192078E+04  0.25500000920E-02 0. -1.
    10030    2    1    2    0    0  0.00000000000E+00  0.00000000000E+00  0.83589876302E+03  0.38089371786E+04  0.37160833801E+04 0.  0.
        2    1    3    3  502    0 -0.26435853963E+03 -0.85599119655E+03  0.20864168440E+04  0.22706258197E+04  0.25500000920E-02 0.  1.
       -2    1    3    3    0  502  0.26435853963E+03  0.85599119655E+03 -0.12505180810E+04  0.15383113589E+04  0.25500000920E-02 0. -1.
</event>
<event>
 5   0  0.2411746E-07  0.3634287E+04  0.7818609E-02  0.8082683E-01
        1   -1    0    0  501    0  0.00000000000E+00  0.00000000000E+00  0.31205074637E+04  0.31205074638E+04  0.50400001928E-02 0. -1.
       -1   -1    0    0    0  501  0.00000000000E+00  0.00000000000E+00 -0.10581646913E+04  0.10581646913E+04  0.50400001928E-02 0.  1.
    10030    2    1    2    0    0  0.00000000000E+00  0.00000000000E+00  0.20623427725E+04  0.41786721551E+04  0.36342871747E+04 0.  0.
        1    1    3    3  502    0  0.15637371831E+04  0.19309295900E+03  0.20720037884E+04  0.26030287297E+04  0.50400001928E-02 0. -1.
       -1    1    3    3    0  502 -0.15637371831E+04 -0.19309295900E+03 -0.96610159509E+01  0.15756434253E+04  0.50400001928E-02 0.  1.
</event>
<event>
 5   0  0.7074157E-07  0.3695751E+04  0.7818609E-02  0.8068904E-01
       -2   -1    0    0    0  501  0.00000000000E+00  0.00000000000E+00  0.15823544705E+04  0.15823544705E+04  0.25500000920E-02 0.  1.
        2   -1    0    0  501    0  0.00000000000E+00  0.00000000000E+00 -0.21579510019E+04  0.21579510019E+04  0.25500000920E-02 0. -1.
    10030    2    1    2    0    0  0.00000000000E+00  0.00000000000E+00 -0.57559653143E+03  0.37403054724E+04  0.36957507572E+04 0.  0.
        3    1    3    3  502    0 -0.15341432607E+04 -0.80876269076E+03 -0.93341582776E+03  0.19695069820E+04  0.10100000352E+00 0.  1.
       -3    1    3    3    0  502  0.15341432607E+04  0.80876269076E+03  0.35781929632E+03  0.17707984904E+04  0.10100000352E+00 0. -1.
</event>
<event>
 5   0  0.6949625E-07  0.3725875E+04  0.7818609E-02  0.8062252E-01
        2   -1    0    0  501    0  0.00000000000E+00  0.00000000000E+00  0.12746038155E+04  0.12746038155E+04  0.25500000920E-02 0.  1.
       -2   -1    0    0    0  501  0.00000000000E+00  0.00000000000E+00 -0.27228346466E+04  0.27228346466E+04  0.25500000920E-02 0. -1.
    10030    2    1    2    0    0  0.00000000000E+00  0.00000000000E+00 -0.14482308312E+04  0.39974384621E+04  0.37258746246E+04 0.  0.
        5    1    3    3  502    0  0.11117156939E+04  0.13342700745E+04 -0.95136101423E+00  0.17367243336E+04  0.46999998093E+01 0. -1.
       -5    1    3    3    0  502 -0.11117156939E+04 -0.13342700745E+04 -0.14472794702E+04  0.22607141285E+04  0.46999998093E+01 0.  1.
</event>
<event>
 5   0  0.2411746E-07  0.3459769E+04  0.7818609E-02  0.8123391E-01
        1   -1    0    0  501    0  0.00000000000E+00  0.00000000000E+00  0.18214088332E+04  0.18214088333E+04  0.50400001928E-02 0.  1.
       -1   -1    0    0    0  501  0.00000000000E+00  0.00000000000E+00 -0.16429587377E+04  0.16429587377E+04  0.50400001928E-02 0. -1.
    10030    2    1    2    0    0  0.00000000000E+00  0.00000000000E+00  0.17845009554E+03  0.34643675710E+04  0.34597685226E+04 0.  0.
        1    1    3    3  502    0 -0.11273000024E+04 -0.12993539523E+04  0.27215223043E+03  0.17416063922E+04  0.50400001928E-02 0. -1.
       -1    1    3    3    0  502  0.11273000024E+04  0.12993539523E+04 -0.93702134889E+02  0.17227611787E+04  0.50400001928E-02 0.  1.
</event>
<event>
 5   0  0.2287500E-07  0.3358035E+04  0.7818609E-02  0.8148283E-01
       -1   -1    0    0    0  501  0.00000000000E+00  0.00000000000E+00  0.12481426309E+04  0.12481426309E+04  0.50400001928E-02 0. -1.
        1   -1    0    0  501    0  0.00000000000E+00  0.00000000000E+00 -0.22586359682E+04  0.22586359682E+04  0.50400001928E-02 0.  1.
    10030    2    1    2    0    0  0.00000000000E+00  0.00000000000E+00 -0.10104933374E+04  0.35067785991E+04  0.33580350442E+04 0.  0.
        4    1    3    3  502    0 -0.10716046161E+02 -0.16786511190E+04 -0.54009880433E+03  0.17634320924E+04  0.12699999809E+01 0. -1.
       -4    1    3    3    0  502  0.10716046161E+02  0.16786511190E+04 -0.47039453304E+03  0.17433465068E+04  0.12699999809E+01 0.  1.
</event>
<event>
 5   0  0.2287500E-07  0.2843237E+04  0.7818609E-02  0.8289969E-01
        3   -1    0    0  501    0  0.00000000000E+00  0.00000000000E+00  0.12037701926E+04  0.12037701968E+04  0.10100000352E+00 0.  1.
       -3   -1    0    0    0  501  0.00000000000E+00  0.00000000000E+00 -0.16788912729E+04  0.16788912759E+04  0.10100000352E+00 0. -1.
    10030    2    1    2    0    0  0.00000000000E+00  0.00000000000E+00 -0.47512108035E+03  0.28826614727E+04  0.28432370857E+04 0.  0.
        4    1    3    3  502    0 -0.13009724317E+04 -0.19704587615E+03  0.30808527652E+03  0.13513972383E+04  0.12699999809E+01 0.  1.
       -4    1    3    3    0  502  0.13009724317E+04  0.19704587615E+03 -0.78320635687E+03  0.15312642344E+04  0.12699999809E+01 0. -1.
</event>
<event>
 5   0  0.2345471E-07  0.3673546E+04  0.7818609E-02  0.8073850E-01
        1   -1    0    0  501    0  0.00000000000E+00  0.00000000000E+00  0.26576860715E+04  0.26576860715E+04  0.50400001928E-02 0.  1.
       -1   -1    0    0    0  501  0.00000000000E+00  0.00000000000E+00 -0.12694255514E+04  0.12694255514E+04  0.50400001928E-02 0. -1.
    10030    2    1    2    0    0  0.00000000000E+00  0.00000000000E+00  0.13882605201E+04  0.39271116229E+04  0.36735457567E+04 0.  0.
        5    1    3    3  502    0 -0.42835718200E+03 -0.12246810245E+03  0.25990425788E+04  0.26369552002E+04  0.46999998093E+01 0.  1.
       -5    1    3    3    0  502  0.42835718200E+03  0.12246810245E+03 -0.12107820586E+04  0.12901564227E+04  0.46999998093E+01 0. -1.
</event>
<event>
 5   0  0.6949625E-07  0.3659175E+04  0.7818609E-02  0.8077070E-01
       -2   -1    0    0    0  501  0.00000000000E+00  0.00000000000E+00  0.12648675927E+04  0.12648675927E+04  0.25500000920E-02 0.  1.
        2   -1    0    0  501    0  0.00000000000E+00  0.00000000000E+00 -0.26464360397E+04  0.26464360397E+04  0.25500000920E-02 0. -1.
    10030    2    1    2    0    0  0.00000000000E+00  0.00000000000E+00 -0.13815684470E+04  0.39113036324E+04  0.36591754168E+04 0.  0.
        5    1    3    3  502    0  0.61422850002E+03 -0.99327594151E+03 -0.21961910972E+04  0.24873984746E+04  0.46999998093E+01 0. -1.
       -5    1    3    3    0  502 -0.61422850002E+03  0.99327594151E+03  0.81462265017E+03  0.14239051578E+04  0.46999998093E+01 0.  1.
</event>
<event>
 5   0  0.6949625E-07  0.3648104E+04  0.7818609E-02  0.8079561E-01
        2   -1    0    0  501    0  0.00000000000E+00  0.00000000000E+00  0.25004734723E+04  0.25004734723E+04  0.25500000920E-02 0. -1.
       -2   -1    0    0    0  501  0.00000000000E+00  0.00000000000E+00 -0.13306146376E+04  0.13306146376E+04  0.25500000920E-02 0.  1.
    10030    2    1    2    0    0  0.00000000000E+00  0.00000000000E+00  0.11698588347E+04  0.38310881100E+04  0.36481044959E+04 0.  0.
        5    1    3    3  502    0 -0.13246007988E+04 -0.85779250710E+03 -0.37570408152E+03  0.16222055691E+04  0.46999998093E+01 0.  1.
       -5    1    3    3    0  502  0.13246007988E+04  0.85779250710E+03  0.15455629162E+04  0.22088825409E+04  0.46999998093E+01 0. -1.
</event>
<event>
 5   0  0.7074157E-07  0.3672693E+04  0.7818609E-02  0.8074041E-01
        2   -1    0    0  501    0  0.00000000000E+00  0.00000000000E+00  0.23237976015E+04  0.23237976015E+04  0.25500000920E-02 0.  1.
       -2   -1    0    0    0  501  0.00000000000E+00  0.00000000000E+00 -0.14511451529E+04  0.14511451529E+04  0.25500000920E-02 0. -1.
    10030    2    1    2    0    0  0.00000000000E+00  0.00000000000E+00  0.87265244864E+03  0.37749427545E+04  0.36726925414E+04 0.  0.
        3    1    3    3  502    0 -0.22366897448E+03 -0.53596376026E+03 -0.13542662248E+04  0.14735406273E+04  0.10100000352E+00 0. -1.
       -3    1    3    3    0  502  0.22366897448E+03  0.53596376026E+03  0.22269186735E+04  0.23014021271E+04  0.10100000352E+00 0.  1.
</event>
<event>
 5   0  0.6949625E-07  0.3736579E+04  0.7818609E-02  0.8059904E-01
        2   -1    0    0  501    0  0.00000000000E+00  0.00000000000E+00  0.27372211080E+04  0.27372211080E+04  0.25500000920E-02 0. -1.
       -2   -1    0    0    0  501  0.00000000000E+00  0.00000000000E+00 -0.12752003415E+04  0.12752003415E+04  0.25500000920E-02 0.  1.
    10030    2    1    2    0    0  0.00000000000E+00  0.00000000000E+00  0.14620207665E+04  0.40124214494E+04  0.37365788050E+04 0.  0.
        5    1    3    3  502    0 -0.17312921068E+04  0.29394992035E+03  0.46197735913E+02  0.17566830208E+04  0.46999998093E+01 0.  1.
       -5    1    3    3    0  502  0.17312921068E+04 -0.29394992035E+03  0.14158230306E+04  0.22557384287E+04  0.46999998093E+01 0. -1.
</event>
<event>
 5   0  0.2287500E-07  0.3656277E+04  0.7818609E-02  0.8077721E-01
        1   -1    0    0  501    0  0.00000000000E+00  0.00000000000E+00  0.15751770152E+04  0.15751770153E+04  0.50400001928E-02 0.  1.
       -1   -1    0    0    0  501  0.00000000000E+00  0.00000000000E+00 -0.21217240179E+04  0.21217240179E+04  0.50400001928E-02 0. -1.
    10030    2    1    2    0    0  0.00000000000E+00  0.00000000000E+00 -0.54654700263E+03  0.36969010331E+04  0.36562772902E+04 0.  0.
        2    1    3    3  502    0 -0.10865139154E+04 -0.14681927957E+04 -0.35151760622E+03  0.18600180648E+04  0.25500000920E-02 0. -1.
       -2    1    3    3    0  502  0.10865139154E+04  0.14681927957E+04 -0.19502939641E+03  0.18368829683E+04  0.25500000920E-02 0.  1.
</event>
<event>
 5   0  0.7074157E-07  0.3658317E+04  0.7818609E-02  0.8077263E-01
        2   -1    0    0  501    0  0.00000000000E+00  0.00000000000E+00  0.12524474462E+04  0.12524474462E+04  0.25500000920E-02 0.  1.
       -2   -1    0    0    0  501  0.00000000000E+00  0.00000000000E+00 -0.26714259382E+04  0.26714259382E+04  0.25500000920E-02 0. -1.
    10030    2    1    2    0    0  0.00000000000E+00  0.00000000000E+00 -0.14189784920E+04  0.39238733845E+04  0.36583168776E+04 0.  0.
        3    1    3    3  502    0 -0.89161919429E+02 -0.50619193230E+03 -0.25923779434E+04  0.26428400504E+04  0.10100000352E+00 0. -1.
       -3    1    3    3    0  502  0.89161919429E+02  0.50619193230E+03  0.11733994514E+04  0.12810333341E+04  0.10100000352E+00 0.  1.
</event>
<event>
 5   0  0.7124627E-07  0.3633972E+04  0.7818609E-02  0.8082754E-01
       -2   -1    0    0    0  501  0.00000000000E+00  0.00000000000E+00  0.28466042796E+04  0.28466042796E+04  0.25500000920E-02 0. -1.
        2   -1    0    0  501    0  0.00000000000E+00  0.00000000000E+00 -0.11597814520E+04  0.11597814520E+04  0.25500000920E-02 0.  1.
    10030    2    1    2    0    0  0.00000000000E+00  0.00000000000E+00  0.16868228276E+04  0.40063857316E+04  0.36339723965E+04 0.  0.
        2    1    3    3  502    0 -0.17391482694E+04 -0.40253918291E+03  0.46992515083E+03  0.18459426167E+04  0.25500000920E-02 0.  1.
       -2    1    3    3    0  502  0.17391482694E+04  0.40253918291E+03  0.12168976768E+04  0.21604431149E+04  0.25500000920E-02 0. -1.
</event>
<event>
 5   0  0.7074157E-07  0.3107191E+04  0.7818609E-02  0.8213767E-01
       -2   -1    0    0    0  501  0.00000000000E+00  0.00000000000E+00  0.13227250342E+04  0.13227250342E+04  0.25500000920E-02 0. -1.
        2   -1    0    0  501    0  0.00000000000E+00  0.00000000000E+00 -0.18247620409E+04  0.18247620409E+04  0.25500000920E-02 0.  1.
    10030    2    1    2    0    0  0.00000000000E+00  0.00000000000E+00 -0.50203700670E+03  0.31474870752E+04  0.31071906495E+04 0.  0.
        3    1    3    3  502    0  0.63054638501E+03 -0.13327736650E+04  0.24500949164E+03  0.14946250523E+04  0.10100000352E+00 0. -1.
       -3    1    3    3    0  502 -0.63054638501E+03  0.13327736650E+04 -0.74704649834E+03  0.16528620229E+04  0.10100000352E+00 0.  1.
</event>
<event>
 5   0  0.2287500E-07  0.3643103E+04  0.7818609E-02  0.8080689E-01
        1   -1    0    0  501    0  0.00000000000E+00  0.00000000000E+00  0.24396777477E+04  0.24396777477E+04  0.50400001928E-02 0. -1.
       -1   -1    0    0    0  501  0.00000000000E+00  0.00000000000E+00 -0.13600358657E+04  0.13600358657E+04  0.50400001928E-02 0.  1.
    10030    2    1    2    0    0  0.00000000000E+00  0.00000000000E+00  0.10796418820E+04  0.37997136134E+04  0.36431026544E+04 0.  0.
        2    1    3    3  502    0 -0.12763829856E+03  0.93426602830E+03 -0.10856705213E+04  0.14379934032E+04  0.25500000920E-02 0.  1.
       -2    1    3    3    0  502  0.12763829856E+03 -0.93426602830E+03  0.21653124033E+04  0.23617202101E+04  0.25500000920E-02 0. -1.
</event>
<event>
 5   0  0.7124627E-07  0.3703970E+04  0.7818609E-02  0.8067083E-01
       -2   -1    0    0    0  501  0.00000000000E+00  0.00000000000E+00  0.18679874018E+04  0.18679874018E+04  0.25500000920E-02 0.  1.
        2   -1    0    0  501    0  0.00000000000E+00  0.00000000000E+00 -0.18361201079E+04  0.18361201079E+04  0.25500000920E-02 0. -1.
    10030    2    1    2    0    0  0.00000000000E+00  0.00000000000E+00  0.31867293832E+02  0.37041075097E+04  0.37039704263E+04 0.  0.
        2    1    3    3  502    0 -0.16565853993E+04  0.36206193919E+02  0.84316626594E+03  0.18591706284E+04  0.25500000920E-02 0.  1.
       -2    1    3    3    0  502  0.16565853993E+04 -0.36206193919E+02 -0.81129897211E+03  0.18449368812E+04  0.25500000920E-02 0. -1.
</event>
<event>
 5   0  0.2287500E-07  0.3723677E+04  0.7818609E-02  0.8062735E-01
       -1   -1    0    0    0  501  0.00000000000E+00  0.00000000000E+00  0.16749484031E+04  0.16749484031E+04  0.50400001928E-02 0.  1.
        1   -1    0    0  501    0  0.00000000000E+00  0.00000000000E+00 -0.20695813180E+04  0.20695813180E+04  0.50400001928E-02 0. -1.
    10030    2    1    2    0    0  0.00000000000E+00  0.00000000000E+00 -0.39463291488E+03  0.37445297210E+04  0.37236766366E+04 0.  0.
        4    1    3    3  502    0 -0.80810801804E+03  0.12119430816E+04 -0.13633772221E+04  0.19951550477E+04  0.12699999809E+01 0. -1.
       -4    1    3    3    0  502  0.80810801804E+03 -0.12119430816E+04  0.96874430724E+03  0.17493746733E+04  0.12699999809E+01 0.  1.
</event>
<event>
 5   0  0.2287500E-07  0.2993046E+04  0.7818609E-02  0.8245719E-01
        1   -1    0    0  501    0  0.00000000000E+00  0.00000000000E+00  0.14887854762E+04  0.14887854762E+04  0.50400001928E-02 0. -1.
       -1   -1    0    0    0  501  0.00000000000E+00  0.00000000000E+00 -0.15043010079E+04  0.15043010079E+04  0.50400001928E-02 0.  1.
    10030    2    1    2    0    0  0.00000000000E+00  0.00000000000E+00 -0.15515531615E+02  0.29930864841E+04  0.29930462692E+04 0.  0.
        4    1    3    3  502    0 -0.83973443702E+03  0.45053728704E+03 -0.11616545926E+04  0.15025248008E+04  0.12699999809E+01 0.  1.
       -4    1    3    3    0  502  0.83973443702E+03 -0.45053728704E+03  0.11461390610E+04  0.14905616833E+04  0.12699999809E+01 0. -1.
</event>
<event>
 5   0  0.6939921E-07  0.3629315E+04  0.7818609E-02  0.8083810E-01
       -2   -1    0    0    0  501  0.00000000000E+00  0.00000000000E+00  0.18115609300E+04  0.18115609300E+04  0.25500000920E-02 0. -1.
        2   -1    0    0  501    0  0.00000000000E+00  0.00000000000E+00 -0.18177594669E+04  0.18177594669E+04  0.25500000920E-02 0.  1.
    10030    2    1    2    0    0  0.00000000000E+00  0.00000000000E+00 -0.61985369032E+01  0.36293203969E+04  0.36293151036E+04 0.  0.
        4    1    3    3  502    0 -0.92235905628E+03 -0.13370657106E+04 -0.81210568587E+03  0.18160419051E+04  0.12699999809E+01 0.  1.
       -4    1    3    3    0  502  0.92235905628E+03  0.13370657106E+04  0.80590714897E+03  0.18132784918E+04  0.12699999809E+01 0. -1.
</event>
<event>
 5   0  0.2287500E-07  0.3709582E+04  0.7818609E-02  0.8065842E-01
       -1   -1    0    0    0  501  0.00000000000E+00  0.00000000000E+00  0.20564895280E+04  0.20564895280E+04  0.50400001928E-02 0. -1.
        1   -1    0    0  501    0  0.00000000000E+00  0.00000000000E+00 -0.16728748263E+04  0.16728748263E+04  0.50400001928E-02 0.  1.
    10030    2    1    2    0    0  0.00000000000E+00  0.00000000000E+00  0.38361470162E+03  0.37293643543E+04  0.37095819505E+04 0.  0.
        3    1    3    3  502    0  0.14200143018E+04 -0.11913994775E+04  0.12530157128E+03  0.18578411736E+04  0.10100000352E+00 0.  1.
       -3    1    3    3    0  502 -0.14200143018E+04  0.11913994775E+04  0.25831313034E+03  0.18715231807E+04  0.10100000352E+00 0. -1.
</event>
<event>
 5   0  0.2287500E-07  0.3690294E+04  0.7818609E-02  0.8070116E-01
       -1   -1    0    0    0  501  0.00000000000E+00  0.00000000000E+00  0.26446251555E+04  0.26446251555E+04  0.50400001928E-02 0.  1.
        1   -1    0    0  501    0  0.00000000000E+00  0.00000000000E+00 -0.12873537570E+04  0.12873537570E+04  0.50400001928E-02 0. -1.
    10030    2    1    2    0    0  0.00000000000E+00  0.00000000000E+00  0.13572713985E+04  0.39319789125E+04  0.36902943675E+04 0.  0.
        2    1    3    3  502    0 -0.59363050723E+03  0.15387455408E+04 -0.20285082095E+03  0.16617110080E+04  0.25500000920E-02 0.  1.
       -2    1    3    3    0  502  0.59363050723E+03 -0.15387455408E+04  0.15601222194E+04  0.22702679045E+04  0.25500000920E-02 0. -1.
</event>
<event>
 5   0  0.7300916E-07  0.3658079E+04  0.7818609E-02  0.8077316E-01
       -2   -1    0    0    0  501  0.00000000000E+00  0.00000000000E+00  0.32691710317E+04  0.32691710317E+04  0.25500000920E-02 0.  1.
        2   -1    0    0  501    0  0.00000000000E+00  0.00000000000E+00 -0.10233132792E+04  0.10233132792E+04  0.25500000920E-02 0. -1.
    10030    2    1    2    0    0  0.00000000000E+00  0.00000000000E+00  0.22458577525E+04  0.42924843109E+04  0.36580793478E+04 0.  0.
        1    1    3    3  502    0 -0.17488078624E+04  0.17226032366E+03  0.17182427518E+04  0.24577145304E+04  0.50400001928E-02 0.  1.
       -1    1    3    3    0  502  0.17488078624E+04 -0.17226032366E+03  0.52761500064E+03  0.18347697805E+04  0.50400001928E-02 0. -1.
</event>
<event>
 5   0  0.7074157E-07  0.3782660E+04  0.7818609E-02  0.8049886E-01
       -2   -1    0    0    0  501  0.00000000000E+00  0.00000000000E+00  0.12139691086E+04  0.12139691086E+04  0.25500000920E-02 0.  1.
        2   -1    0    0  501    0  0.00000000000E+00  0.00000000000E+00 -0.29466400471E+04  0.29466400471E+04  0.25500000920E-02 0. -1.
    10030    2    1    2    0    0  0.00000000000E+00  0.00000000000E+00 -0.17326709385E+04  0.41606091558E+04  0.37826604349E+04 0.  0.
        3    1    3    3  502    0  0.81611030935E+03 -0.40531956910E+03 -0.26892817577E+04  0.28394640995E+04  0.10100000352E+00 0. -1.
       -3    1    3    3    0  502 -0.81611030935E+03  0.40531956910E+03  0.95661081915E+03  0.13211450562E+04  0.10100000352E+00 0.  1.
</event>
<event>
 5   0  0.7124627E-07  0.3703769E+04  0.7818609E-02  0.8067127E-01
       -2   -1    0    0    0  501  0.00000000000E+00  0.00000000000E+00  0.26334039934E+04  0.26334039934E+04  0.25500000920E-02 0.  1.
        2   -1    0    0  501    0  0.00000000000E+00  0.00000000000E+00 -0.13022980587E+04  0.13022980587E+04  0.25500000920E-02 0. -1.
    10030    2    1    2    0    0  0.00000000000E+00  0.00000000000E+00  0.13311059347E+04  0.39357020520E+04  0.37037693817E+04 0.  0.
        2    1    3    3  502    0  0.14572893674E+04 -0.10855781348E+04  0.10446937753E+04  0.20960814085E+04  0.25500000920E-02 0.  1.
       -2    1    3    3    0  502 -0.14572893674E+04  0.10855781348E+04  0.28641215935E+03  0.18396206435E+04  0.25500000920E-02 0. -1.
</event>
<event>
 5   0  0.2411746E-07  0.3693806E+04  0.7818609E-02  0.8069336E-01
        1   -1    0    0  501    0  0.00000000000E+00  0.00000000000E+00  0.23692155315E+04  0.23692155315E+04  0.50400001928E-02 0. -1.
       -1   -1    0    0    0  501  0.00000000000E+00  0.00000000000E+00 -0.14397380799E+04  0.14397380799E+04  0.50400001928E-02 0.  1.
    10030    2    1    2    0    0  0.00000000000E+00  0.00000000000E+00  0.92947745167E+03  0.38089536114E+04  0.36938055283E+04 0.  0.
        1    1    3    3  502    0 -0.17162768696E+04  0.64864004026E+03  0.24670073559E+03  0.18512702256E+04  0.50400001928E-02 0. -1.
       -1    1    3    3    0  502  0.17162768696E+04 -0.64864004026E+03  0.68277671608E+03  0.19576833858E+04  0.50400001928E-02 0.  1.
</event>
<event>
 5   0  0.6939921E-07  0.3635672E+04  0.7818609E-02  0.8082369E-01
        2   -1    0    0  501    0  0.00000000000E+00  0.00000000000E+00  0.21010991401E+04  0.21010991401E+04  0.25500000920E-02 0.  1.
       -2   -1    0    0    0  501  0.00000000000E+00  0.00000000000E+00 -0.15727610608E+04  0.15727610608E+04  0.25500000920E-02 0. -1.
    10030    2    1    2    0    0  0.00000000000E+00  0.00000000000E+00  0.52833807937E+03  0.36738602009E+04  0.36356715542E+04 0.  0.
        4    1    3    3  502    0 -0.46751919568E+03 -0.10469785668E+04 -0.11612458029E+04  0.16319410973E+04  0.12699999809E+01 0. -1.
       -4    1    3    3    0  502  0.46751919568E+03  0.10469785668E+04  0.16895838822E+04  0.20419191036E+04  0.12699999809E+01 0.  1.
</event>
<event>
 5   0  0.2287500E-07  0.3701375E+04  0.7818609E-02  0.8067657E-01
        1   -1    0    0  501    0  0.00000000000E+00  0.00000000000E+00  0.18062558951E+04  0.18062558951E+04  0.50400001928E-02 0. -1.
       -1   -1    0    0    0  501  0.00000000000E+00  0.00000000000E+00 -0.18962117941E+04  0.18962117941E+04  0.50400001928E-02 0.  1.
    10030    2    1    2    0    0  0.00000000000E+00  0.00000000000E+00 -0.89955898994E+02  0.37024676893E+04  0.37013747347E+04 0.  0.
        3    1    3    3  502    0  0.16771605362E+04  0.58137491444E+03  0.47879815841E+03  0.18385080751E+04  0.10100000352E+00 0. -1.
       -3    1    3    3    0  502 -0.16771605362E+04 -0.58137491444E+03 -0.56875405740E+03  0.18639596142E+04  0.10100000352E+00 0.  1.
</event>
<event>
 5   0  0.7074157E-07  0.3664982E+04  0.7818609E-02  0.8075767E-01
       -2   -1    0    0    0  501  0.00000000000E+00  0.00000000000E+00  0.22130118731E+04  0.22130118731E+04  0.25500000920E-02 0. -1.
        2   -1    0    0  501    0  0.00000000000E+00  0.00000000000E+00 -0.15173993661E+04  0.15173993661E+04  0.25500000920E-02 0.  1.
    10030    2    1    2    0    0  0.00000000000E+00  0.00000000000E+00  0.69561250702E+03  0.37304112393E+04  0.36649817536E+04 0.  0.
        3    1    3    3  502    0 -0.14192264395E+04  0.72618945908E+03 -0.57191129795E+03  0.16937052164E+04  0.10100000352E+00 0.  1.
       -3    1    3    3    0  502  0.14192264395E+04 -0.72618945908E+03  0.12675238050E+04  0.20367060229E+04  0.10100000352E+00 0. -1.
</event>
<event>
 5   0  0.7074157E-07  0.3622715E+04  0.7818609E-02  0.8085308E-01
        2   -1    0    0  501    0  0.00000000000E+00  0.00000000000E+00  0.19417609402E+04  0.19417609402E+04  0.25500000920E-02 0.  1.
       -2   -1    0    0    0  501  0.00000000000E+00  0.00000000000E+00 -0.16897120076E+04  0.16897120076E+04  0.25500000920E-02 0. -1.
    10030    2    1    2    0    0  0.00000000000E+00  0.00000000000E+00  0.25204893256E+03  0.36314729478E+04  0.36227154327E+04 0.  0.
        3    1    3    3  502    0 -0.13762147719E+03 -0.11967537190E+04  0.14820168272E+04  0.19098515705E+04  0.10100000352E+00 0.  1.
       -3    1    3    3    0  502  0.13762147719E+03  0.11967537190E+04 -0.12299678946E+04  0.17216213773E+04  0.10100000352E+00 0. -1.
</event>
<event>
 5   0  0.2287500E-07  0.3719879E+04  0.7818609E-02  0.8063571E-01
       -1   -1    0    0    0  501  0.00000000000E+00  0.00000000000E+00  0.17337987619E+04  0.17337987619E+04  0.50400001928E-02 0. -1.
        1   -1    0    0  501    0  0.00000000000E+00  0.00000000000E+00 -0.19952571464E+04  0.19952571464E+04  0.50400001928E-02 0.  1.
    10030    2    1    2    0    0  0.00000000000E+00  0.00000000000E+00 -0.26145838446E+03  0.37290559083E+04  0.37198786916E+04 0.  0.
        4    1    3    3  502    0  0.39474448112E+03 -0.76858543631E+03  0.15204001111E+04  0.17487609582E+04  0.12699999809E+01 0. -1.
       -4    1    3    3    0  502 -0.39474448112E+03  0.76858543631E+03 -0.17818584955E+04  0.19802949501E+04  0.12699999809E+01 0.  1.
</event>
<event>
 5   0  0.2411746E-07  0.3657993E+04  0.7818609E-02  0.8077335E-01
        1   -1    0    0  501    0  0.00000000000E+00  0.00000000000E+00  0.24146033339E+04  0.24146033339E+04  0.50400001928E-02 0.  1.
       -1   -1    0    0    0  501  0.00000000000E+00  0.00000000000E+00 -0.13854148779E+04  0.13854148779E+04  0.50400001928E-02 0. -1.
    10030    2    1    2    0    0  0.00000000000E+00  0.00000000000E+00  0.10291884560E+04  0.38000182118E+04  0.36579925550E+04 0.  0.
        1    1    3    3  502    0 -0.19905835904E+03  0.95502037369E+03  0.21217691106E+04  0.23352927661E+04  0.50400001928E-02 0.  1.
       -1    1    3    3    0  502  0.19905835904E+03 -0.95502037369E+03 -0.10925806546E+04  0.14647254457E+04  0.50400001928E-02 0. -1.
</event>
<event>
 5   0  0.7300916E-07  0.3724555E+04  0.7818609E-02  0.8062542E-01
       -2   -1    0    0    0  501  0.00000000000E+00  0.00000000000E+00  0.15696187746E+04  0.15696187746E+04  0.25500000920E-02 0. -1.
        2   -1    0    0  501    0  0.00000000000E+00  0.00000000000E+00 -0.22095025560E+04  0.22095025560E+04  0.25500000920E-02 0.  1.
    10030    2    1    2    0    0  0.00000000000E+00  0.00000000000E+00 -0.63988378143E+03  0.37791213306E+04  0.37245545744E+04 0.  0.
        1    1    3    3  502    0 -0.10020080797E+04  0.41025925498E+03  0.12174274210E+04  0.16292520902E+04  0.50400001928E-02 0. -1.
       -1    1    3    3    0  502  0.10020080797E+04 -0.41025925498E+03 -0.18573112024E+04  0.21498692404E+04  0.50400001928E-02 0.  1.
</event>
<event>
 5   0  0.2287500E-07  0.3554642E+04  0.7818609E-02  0.8100961E-01
        1   -1    0    0  501    0  0.00000000000E+00  0.00000000000E+00  0.11610334532E+04  0.11610334532E+04  0.50400001928E-02 0.  1.
       -1   -1    0    0    0  501  0.00000000000E+00  0.00000000000E+00 -0.27207402911E+04  0.27207402911E+04  0.50400001928E-02 0. -1.
    10030    2    1    2    0    0  0.00000000000E+00  0.00000000000E+00 -0.15597068379E+04  0.38817737443E+04  0.35546423142E+04 0.  0.
        4    1    3    3  502    0 -0.17152874557E+04  0.68821766035E+02 -0.12825682640E+04  0.21428790111E+04  0.12699999809E+01 0. -1.
       -4    1    3    3    0  502  0.17152874557E+04 -0.68821766035E+02 -0.27713857382E+03  0.17388947332E+04  0.12699999809E+01 0.  1.
</event>
<event>
 5   0  0.6949625E-07  0.3645753E+04  0.7818609E-02  0.8080091E-01
        2   -1    0    0  501    0  0.00000000000E+00  0.00000000000E+00  0.24694529965E+04  0.24694529965E+04  0.25500000920E-02 0.  1.
       -2   -1    0    0    0  501  0.00000000000E+00  0.00000000000E+00 -0.13455927058E+04  0.13455927058E+04  0.25500000920E-02 0. -1.
    10030    2    1    2    0    0  0.00000000000E+00  0.00000000000E+00  0.11238602906E+04  0.38150457023E+04  0.36457525640E+04 0.  0.
        5    1    3    3  502    0  0.95772149016E+03 -0.14104962004E+04 -0.11310270894E+03  0.17086674038E+04  0.46999998093E+01 0. -1.
       -5    1    3    3    0  502 -0.95772149016E+03  0.14104962004E+04  0.12369629996E+04  0.21063782985E+04  0.46999998093E+01 0.  1.
</event>
<event>
 5   0  0.2287500E-07  0.3812093E+04  0.7818609E-02  0.8043565E-01
        1   -1    0    0  501    0  0.00000000000E+00  0.00000000000E+00  0.19009154728E+04  0.19009154728E+04  0.50400001928E-02 0.  1.
       -1   -1    0    0    0  501  0.00000000000E+00  0.00000000000E+00 -0.19111911248E+04  0.19111911248E+04  0.50400001928E-02 0. -1.
    10030    2    1    2    0    0  0.00000000000E+00  0.00000000000E+00 -0.10275652001E+02  0.38121065976E+04  0.38120927484E+04 0.  0.
        2    1    3    3  502    0 -0.57289282414E+03 -0.17932825406E+04 -0.30337425651E+03  0.19068572044E+04  0.25500000920E-02 0. -1.
       -2    1    3    3    0  502  0.57289282414E+03  0.17932825406E+04  0.29309860451E+03  0.19052493932E+04  0.25500000920E-02 0.  1.
</event>
<event>
 5   0  0.2345471E-07  0.3703201E+04  0.7818609E-02  0.8067253E-01
       -1   -1    0    0    0  501  0.00000000000E+00  0.00000000000E+00  0.13305943166E+04  0.13305943167E+04  0.50400001928E-02 0. -1.
        1   -1    0    0  501    0  0.00000000000E+00  0.00000000000E+00 -0.25766114976E+04  0.25766114976E+04  0.50400001928E-02 0.  1.
    10030    2    1    2    0    0  0.00000000000E+00  0.00000000000E+00 -0.12460171810E+04  0.39072058143E+04  0.37032011098E+04 0.  0.
        5    1    3    3  502    0  0.22144208794E+03  0.74164422385E+03 -0.23977323982E+04  0.25195665295E+04  0.46999998093E+01 0.  1.
       -5    1    3    3    0  502 -0.22144208794E+03 -0.74164422385E+03  0.11517152172E+04  0.13876392848E+04  0.46999998093E+01 0. -1.
</event>
<event>
 5   0  0.2411746E-07  0.3764219E+04  0.7818609E-02  0.8053877E-01
       -1   -1    0    0    0  501  0.00000000000E+00  0.00000000000E+00  0.21997700880E+04  0.21997700880E+04  0.50400001928E-02 0. -1.
        1   -1    0    0  501    0  0.00000000000E+00  0.00000000000E+00 -0.16103213031E+04  0.16103213031E+04  0.50400001928E-02 0.  1.
    10030    2    1    2    0    0  0.00000000000E+00  0.00000000000E+00  0.58944878490E+03  0.38100913912E+04  0.37642192470E+04 0.  0.
        1    1    3    3  502    0 -0.56272309426E+03  0.13945584229E+03 -0.15176917228E+04  0.16246517714E+04  0.50400001928E-02 0.  1.
       -1    1    3    3    0  502  0.56272309426E+03 -0.13945584229E+03  0.21071405077E+04  0.21854396198E+04  0.50400001928E-02 0. -1.
</event>
<event>
 5   0  0.6949625E-07  0.3680458E+04  0.7818609E-02  0.8072306E-01
        2   -1    0    0  501    0  0.00000000000E+00  0.00000000000E+00  0.15412692884E+04  0.15412692884E+04  0.25500000920E-02 0.  1.
       -2   -1    0    0    0  501  0.00000000000E+00  0.00000000000E+00 -0.21971784190E+04  0.21971784190E+04  0.25500000920E-02 0. -1.
    10030    2    1    2    0    0  0.00000000000E+00  0.00000000000E+00 -0.65590913068E+03  0.37384477074E+04  0.36804584597E+04 0.  0.
        5    1    3    3  502    0  0.87809887974E+03 -0.28917695375E+03  0.12882599052E+04  0.15856596818E+04  0.46999998093E+01 0.  1.
       -5    1    3    3    0  502 -0.87809887974E+03  0.28917695375E+03 -0.19441690359E+04  0.21527880256E+04  0.46999998093E+01 0. -1.
</event>
<event>
 5   0  0.2287500E-07  0.3726165E+04  0.7818609E-02  0.8062188E-01
       -1   -1    0    0    0  501  0.00000000000E+00  0.00000000000E+00  0.15726349619E+04  0.15726349619E+04  0.50400001928E-02 0.  1.
        1   -1    0    0  501    0  0.00000000000E+00  0.00000000000E+00 -0.22071725937E+04  0.22071725937E+04  0.50400001928E-02 0. -1.
    10030    2    1    2    0    0  0.00000000000E+00  0.00000000000E+00 -0.63453763174E+03  0.37798075556E+04  0.37261652072E+04 0.  0.
        2    1    3    3  502    0  0.18195097660E+04  0.36830661600E+03 -0.47705226115E+03  0.19167275268E+04  0.25500000920E-02 0. -1.
       -2    1    3    3    0  502 -0.18195097660E+04 -0.36830661600E+03 -0.15748537059E+03  0.18630800289E+04  0.25500000920E-02 0.  1.
</event>
<event>
 5   0  0.2287500E-07  0.3659697E+04  0.7818609E-02  0.8076953E-01
        1   -1    0    0  501    0  0.00000000000E+00  0.00000000000E+00  0.17876426754E+04  0.17876426754E+04  0.50400001928E-02 0. -1.
       -1   -1    0    0    0  501  0.00000000000E+00  0.00000000000E+00 -0.18730508283E+04  0.18730508283E+04  0.50400001928E-02 0.  1.
    10030    2    1    2    0    0  0.00000000000E+00  0.00000000000E+00 -0.85408152843E+02  0.36606935037E+04  0.36596970333E+04 0.  0.
        3    1    3    3  502    0 -0.17772162156E+04 -0.20641550129E+02 -0.47804899670E+03  0.18405038452E+04  0.10100000352E+00 0.  1.
       -3    1    3    3    0  502  0.17772162156E+04  0.20641550129E+02  0.39264084386E+03  0.18201896586E+04  0.10100000352E+00 0. -1.
</event>
<event>
 5   0  0.7074157E-07  0.3738903E+04  0.7818609E-02  0.8059395E-01
        2   -1    0    0  501    0  0.00000000000E+00  0.00000000000E+00  0.22562792494E+04  0.22562792494E+04  0.25500000920E-02 0. -1.
       -2   -1    0    0    0  501  0.00000000000E+00  0.00000000000E+00 -0.15489432445E+04  0.15489432445E+04  0.25500000920E-02 0.  1.
    10030    2    1    2    0    0  0.00000000000E+00  0.00000000000E+00  0.70733600488E+03  0.38052224939E+04  0.37389027808E+04 0.  0.
        3    1    3    3  502    0  0.10708206707E+04  0.14612718696E+04  0.82323691883E+03  0.19898973391E+04  0.10100000352E+00 0. -1.
       -3    1    3    3    0  502 -0.10708206707E+04 -0.14612718696E+04 -0.11590091395E+03  0.18153251548E+04  0.10100000352E+00 0.  1.
</event>
<event>
 5   0  0.6949625E-07  0.3705512E+04  0.7818609E-02  0.8066741E-01
       -2   -1    0    0    0  501  0.00000000000E+00  0.00000000000E+00  0.18690241772E+04  0.18690241772E+04  0.25500000920E-02 0.  1.
        2   -1    0    0  501    0  0.00000000000E+00  0.00000000000E+00 -0.18366291123E+04  0.18366291123E+04  0.25500000920E-02 0. -1.
    10030    2    1    2    0    0  0.00000000000E+00  0.00000000000E+00  0.32395064819E+02  0.37056532895E+04  0.37055116869E+04 0.  0.
        5    1    3    3  502    0  0.83369897302E+03  0.14780202076E+04 -0.72752733999E+03  0.18463249530E+04  0.46999998093E+01 0. -1.
       -5    1    3    3    0  502 -0.83369897302E+03 -0.14780202076E+04  0.75992240481E+03  0.18593283365E+04  0.46999998093E+01 0.  1.
</event>
<event>
 5   0  0.7300916E-07  0.3691988E+04  0.7818609E-02  0.8069740E-01
       -2   -1    0    0    0  501  0.00000000000E+00  0.00000000000E+00  0.12356675653E+04  0.12356675653E+04  0.25500000920E-02 0.  1.
        2   -1    0    0  501    0  0.00000000000E+00  0.00000000000E+00 -0.27577754180E+04  0.27577754180E+04  0.25500000920E-02 0. -1.
    10030    2    1    2    0    0  0.00000000000E+00  0.00000000000E+00 -0.15221078527E+04  0.39934429833E+04  0.36919878854E+04 0.  0.
        1    1    3    3  502    0  0.41196534201E+03 -0.11309631428E+04  0.75283292283E+03  0.14197008428E+04  0.50400001928E-02 0.  1.
       -1    1    3    3    0  502 -0.41196534201E+03  0.11309631428E+04 -0.22749407756E+04  0.25737421405E+04  0.50400001928E-02 0. -1.
</event>
<event>
 5   0  0.2287500E-07  0.4295140E+04  0.7818609E-02  0.7947517E-01
       -1   -1    0    0    0  501  0.00000000000E+00  0.00000000000E+00  0.21995853882E+04  0.21995853882E+04  0.50400001928E-02 0. -1.
        1   -1    0    0  501    0  0.00000000000E+00  0.00000000000E+00 -0.20967842750E+04  0.20967842750E+04  0.50400001928E-02 0.  1.
    10030    2    1    2    0    0  0.00000000000E+00  0.00000000000E+00  0.10280111324E+03  0.42963696632E+04  0.42951396036E+04 0.  0.
        4    1    3    3  502    0 -0.11013466494E+04 -0.13925438575E+04  0.12600146035E+04  0.21771038677E+04  0.12699999809E+01 0. -1.
       -4    1    3    3    0  502  0.11013466494E+04  0.13925438575E+04 -0.11572134902E+04  0.21192657955E+04  0.12699999809E+01 0.  1.
</event>
<event>
 5   0  0.2345471E-07  0.3721503E+04  0.7818609E-02  0.8063213E-01
       -1   -1    0    0    0  501  0.00000000000E+00  0.00000000000E+00  0.16816631428E+04  0.16816631428E+04  0.50400001928E-02 0.  1.
        1   -1    0    0  501    0  0.00000000000E+00  0.00000000000E+00 -0.20589118896E+04  0.20589118896E+04  0.50400001928E-02 0. -1.
    10030    2    1    2    0    0  0.00000000000E+00  0.00000000000E+00 -0.37724874677E+03  0.37405750325E+04  0.37215030507E+04 0.  0.
        5    1    3    3  502    0  0.13694485503E+04  0.35595052811E+03 -0.14032394302E+04  0.19927852616E+04  0.46999998093E+01 0. -1.
       -5    1    3    3    0  502 -0.13694485503E+04 -0.35595052811E+03  0.10259906835E+04  0.17477897708E+04  0.46999998093E+01 0.  1.
</event>
<event>
 5   0  0.2411746E-07  0.3685225E+04  0.7818609E-02  0.8071244E-01
        1   -1    0    0  501    0  0.00000000000E+00  0.00000000000E+00  0.16970777081E+04  0.16970777081E+04  0.50400001928E-02 0.  1.
       -1   -1    0    0    0  501  0.00000000000E+00  0.00000000000E+00 -0.20006274488E+04  0.20006274488E+04  0.50400001928E-02 0. -1.
    10030    2    1    2    0    0  0.00000000000E+00  0.00000000000E+00 -0.30354974073E+03  0.36977051569E+04  0.36852246854E+04 0.  0.
        1    1    3    3  502    0 -0.15924316022E+04 -0.92694416316E+03 -0.13922827859E+03  0.18478226113E+04  0.50400001928E-02 0.  1.
       -1    1    3    3    0  502  0.15924316022E+04  0.92694416316E+03 -0.16432146214E+03  0.18498825456E+04  0.50400001928E-02 0. -1.
</event>
<event>
 5   0  0.7124627E-07  0.3579617E+04  0.7818609E-02  0.8095177E-01
        2   -1    0    0  501    0  0.00000000000E+00  0.00000000000E+00  0.20551846675E+04  0.20551846675E+04  0.25500000920E-02 0.  1.
       -2   -1    0    0    0  501  0.00000000000E+00  0.00000000000E+00 -0.15586988659E+04  0.15586988659E+04  0.25500000920E-02 0. -1.
    10030    2    1    2    0    0  0.00000000000E+00  0.00000000000E+00  0.49648580157E+03  0.36138835334E+04  0.35796167451E+04 0.  0.
        2    1    3    3  502    0  0.11513798875E+04 -0.95240319576E+03  0.12428983033E+04  0.19435904108E+04  0.25500000920E-02 0.  1.
       -2    1    3    3    0  502 -0.11513798875E+04  0.95240319576E+03 -0.74641250172E+03  0.16702931226E+04  0.25500000920E-02 0. -1.
</event>
<event>
 5   0  0.2287500E-07  0.3692405E+04  0.7818609E-02  0.8069647E-01
        1   -1    0    0  501    0  0.00000000000E+00  0.00000000000E+00  0.16623087593E+04  0.16623087593E+04  0.50400001928E-02 0. -1.
       -1   -1    0    0    0  501  0.00000000000E+00  0.00000000000E+00 -0.20504396970E+04  0.20504396970E+04  0.50400001928E-02 0.  1.
    10030    2    1    2    0    0  0.00000000000E+00  0.00000000000E+00 -0.38813093772E+03  0.37127484564E+04  0.36924051072E+04 0.  0.
        3    1    3    3  502    0  0.16242177127E+04 -0.25800238366E+03 -0.10376246983E+04  0.19445599587E+04  0.10100000352E+00 0.  1.
       -3    1    3    3    0  502 -0.16242177127E+04  0.25800238366E+03  0.64949376061E+03  0.17681884977E+04  0.10100000352E+00 0. -1.
</event>
<event>
 5   0  0.6949625E-07  0.3770484E+04  0.7818609E-02  0.8052519E-01
        2   -1    0    0  501    0  0.00000000000E+00  0.00000000000E+00  0.16438162635E+04  0.16438162635E+04  0.25500000920E-02 0.  1.
       -2   -1    0    0    0  501  0.00000000000E+00  0.00000000000E+00 -0.21621259041E+04  0.21621259041E+04  0.25500000920E-02 0. -1.
    10030    2    1    2    0    0  0.00000000000E+00  0.00000000000E+00 -0.51830964060E+03  0.38059421675E+04  0.37704841730E+04 0.  0.
        5    1    3    3  502    0  0.13678462008E+04 -0.39669412499E+03 -0.15059818475E+04  0.20727693728E+04  0.46999998093E+01 0. -1.
       -5    1    3    3    0  502 -0.13678462008E+04  0.39669412499E+03  0.98767220692E+03  0.17331727947E+04  0.46999998093E+01 0.  1.
</event>
<event>
 5   0  0.2287500E-07  0.3372759E+04  0.7818609E-02  0.8144625E-01
        1   -1    0    0  501    0  0.00000000000E+00  0.00000000000E+00  0.14412295524E+04  0.14412295524E+04  0.50400001928E-02 0.  1.
       -1   -1    0    0    0  501  0.00000000000E+00  0.00000000000E+00 -0.19732284765E+04  0.19732284765E+04  0.50400001928E-02 0. -1.
    10030    2    1    2    0    0  0.00000000000E+00  0.00000000000E+00 -0.53199892410E+03  0.34144580289E+04  0.33727586300E+04 0.  0.
        4    1    3    3  502    0 -0.13031318186E+04 -0.10221026951E+04  0.55777919830E+02  0.16570936139E+04  0.12699999809E+01 0.  1.
       -4    1    3    3    0  502  0.13031318186E+04  0.10221026951E+04 -0.58777684393E+03  0.17573644150E+04  0.12699999809E+01 0. -1.
</event>
<event>
 5   0  0.7300916E-07  0.3621475E+04  0.7818609E-02  0.8085590E-01
        2   -1    0    0  501    0  0.00000000000E+00  0.00000000000E+00  0.23944558206E+04  0.23944558206E+04  0.25500000920E-02 0.  1.
       -2   -1    0    0    0  501  0.00000000000E+00  0.00000000000E+00 -0.13693175671E+04  0.13693175671E+04  0.25500000920E-02 0. -1.
    10030    2    1    2    0    0  0.00000000000E+00  0.00000000000E+00  0.10251382535E+04  0.37637733877E+04  0.36214750690E+04 0.  0.
        1    1    3    3  502    0  0.77465456583E+03  0.10640142703E+04 -0.77990114182E+03  0.15298568086E+04  0.50400001928E-02 0. -1.
       -1    1    3    3    0  502 -0.77465456583E+03 -0.10640142703E+04  0.18050393953E+04  0.22339165791E+04  0.50400001928E-02 0.  1.
</event>
<event>
 5   0  0.7074157E-07  0.3601812E+04  0.7818609E-02  0.8090077E-01
       -2   -1    0    0    0  501  0.00000000000E+00  0.00000000000E+00  0.22752625082E+04  0.22752625082E+04  0.25500000920E-02 0.  1.
        2   -1    0    0  501    0  0.00000000000E+00  0.00000000000E+00 -0.14254457552E+04  0.14254457552E+04  0.25500000920E-02 0. -1.
    10030    2    1    2    0    0  0.00000000000E+00  0.00000000000E+00  0.84981675301E+03  0.37007082634E+04  0.36018124794E+04 0.  0.
        3    1    3    3  502    0  0.12957497419E+04  0.66769116496E+03 -0.66171417687E+03  0.16008262078E+04  0.10100000352E+00 0. -1.
       -3    1    3    3    0  502 -0.12957497419E+04 -0.66769116496E+03  0.15115309299E+04  0.20998820556E+04  0.10100000352E+00 0.  1.
</event>
<event>
 5   0  0.2287500E-07  0.3625970E+04  0.7818609E-02  0.8084569E-01
        1   -1    0    0  501    0  0.00000000000E+00  0.00000000000E+00  0.22092945405E+04  0.22092945405E+04  0.50400001928E-02 0. -1.
       -1   -1    0    0    0  501  0.00000000000E+00  0.00000000000E+00 -0.14877666368E+04  0.14877666368E+04  0.50400001928E-02 0.  1.
    10030    2    1    2    0    0  0.00000000000E+00  0.00000000000E+00  0.72152790376E+03  0.36970611773E+04  0.36259700541E+04 0.  0.
        2    1    3    3  502    0  0.17380316823E+03  0.74779541659E+03  0.20353747602E+04  0.21753519119E+04  0.25500000920E-02 0. -1.
       -2    1    3    3    0  502 -0.17380316823E+03 -0.74779541659E+03 -0.13138468564E+04  0.15217092654E+04  0.25500000920E-02 0.  1.
</event>
<event>
 5   0  0.2345471E-07  0.3710972E+04  0.7818609E-02  0.8065535E-01
       -1   -1    0    0    0  501  0.00000000000E+00  0.00000000000E+00  0.20327282223E+04  0.20327282223E+04  0.50400001928E-02 0.  1.
        1   -1    0    0  501    0  0.00000000000E+00  0.00000000000E+00 -0.16936983245E+04  0.16936983245E+04  0.50400001928E-02 0. -1.
    10030    2    1    2    0    0  0.00000000000E+00  0.00000000000E+00  0.33902989780E+03  0.37264265468E+04  0.37109720474E+04 0.  0.
        5    1    3    3  502    0  0.17911247197E+04  0.47187591275E+03  0.27956907172E+03  0.18732259860E+04  0.46999998093E+01 0.  1.
       -5    1    3    3    0  502 -0.17911247197E+04 -0.47187591275E+03  0.59460826087E+02  0.18532005608E+04  0.46999998093E+01 0. -1.
</event>
<event>
 5   0  0.6949625E-07  0.3685354E+04  0.7818609E-02  0.8071215E-01
        2   -1    0    0  501    0  0.00000000000E+00  0.00000000000E+00  0.18558435434E+04  0.18558435434E+04  0.25500000920E-02 0. -1.
       -2   -1    0    0    0  501  0.00000000000E+00  0.00000000000E+00 -0.18296041647E+04  0.18296041647E+04  0.25500000920E-02 0.  1.
    10030    2    1    2    0    0  0.00000000000E+00  0.00000000000E+00  0.26239378735E+02  0.36854477081E+04  0.36853542983E+04 0.  0.
        5    1    3    3  502    0  0.18020641734E+04  0.28126583153E+03 -0.24935835763E+03  0.18408550822E+04  0.46999998093E+01 0.  1.
       -5    1    3    3    0  502 -0.18020641734E+04 -0.28126583153E+03  0.27559773636E+03  0.18445926259E+04  0.46999998093E+01 0. -1.
</event>
<event>
 5   0  0.7300916E-07  0.3768728E+04  0.7818609E-02  0.8052899E-01
       -2   -1    0    0    0  501  0.00000000000E+00  0.00000000000E+00  0.34018507814E+04  0.34018507814E+04  0.25500000920E-02 0.  1.
        2   -1    0    0  501    0  0.00000000000E+00  0.00000000000E+00 -0.10437930055E+04  0.10437930055E+04  0.25500000920E-02 0. -1.
    10030    2    1    2    0    0  0.00000000000E+00  0.00000000000E+00  0.23580577759E+04  0.44456437869E+04  0.37687281947E+04 0.  0.
        1    1    3    3  502    0 -0.58666466719E+03 -0.17047660879E+04  0.18255876892E+04  0.25657695253E+04  0.50400001928E-02 0.  1.
       -1    1    3    3    0  502  0.58666466719E+03  0.17047660879E+04  0.53247008665E+03  0.18798742616E+04  0.50400001928E-02 0. -1.
</event>
<event>
 5   0  0.2287500E-07  0.2650603E+04  0.7818609E-02  0.8351213E-01
        3   -1    0    0  501    0  0.00000000000E+00  0.00000000000E+00  0.19849322752E+04  0.19849322778E+04  0.10100000352E+00 0.  1.
       -3   -1    0    0    0  501  0.00000000000E+00  0.00000000000E+00 -0.88487846005E+03  0.88487846581E+03  0.10100000352E+00 0. -1.
    10030    2    1    2    0    0  0.00000000000E+00  0.00000000000E+00  0.11000538152E+04  0.28698107436E+04  0.26506028197E+04 0.  0.
        4    1    3    3  502    0 -0.10564518601E+04 -0.21055643101E+03 -0.28582797312E+03  0.11145060728E+04  0.12699999809E+01 0. -1.
       -4    1    3    3    0  502  0.10564518601E+04  0.21055643101E+03  0.13858817883E+04  0.17553046708E+04  0.12699999809E+01 0.  1.
</event>
<event>
 5   0  0.2287500E-07  0.4157889E+04  0.7818609E-02  0.7973431E-01
        1   -1    0    0  501    0  0.00000000000E+00  0.00000000000E+00  0.14723014728E+04  0.14723014728E+04  0.50400001928E-02 0. -1.
       -1   -1    0    0    0  501  0.00000000000E+00  0.00000000000E+00 -0.29355464358E+04  0.29355464359E+04  0.50400001928E-02 0.  1.
    10030    2    1    2    0    0  0.00000000000E+00  0.00000000000E+00 -0.14632449631E+04  0.44078479086E+04  0.41578885704E+04 0.  0.
        4    1    3    3  502    0  0.12357395187E+04 -0.64096269699E+03 -0.23685069500E+04  0.27473099792E+04  0.12699999809E+01 0.  1.
       -4    1    3    3    0  502 -0.12357395187E+04  0.64096269699E+03  0.90526198689E+03  0.16605379294E+04  0.12699999809E+01 0. -1.
</event>
<event>
 5   0  0.6939921E-07  0.3713460E+04  0.7818609E-02  0.8064986E-01
       -2   -1    0    0    0  501  0.00000000000E+00  0.00000000000E+00  0.24126419749E+04  0.24126419749E+04  0.25500000920E-02 0.  1.
        2   -1    0    0  501    0  0.00000000000E+00  0.00000000000E+00 -0.14289088378E+04  0.14289088378E+04  0.25500000920E-02 0. -1.
    10030    2    1    2    0    0  0.00000000000E+00  0.00000000000E+00  0.98373313716E+03  0.38415508127E+04  0.37134595408E+04 0.  0.
        4    1    3    3  502    0 -0.14258498444E+04 -0.36879849401E+03  0.16615235062E+04  0.22202977463E+04  0.12699999809E+01 0.  1.
       -4    1    3    3    0  502  0.14258498444E+04  0.36879849401E+03 -0.67779036905E+03  0.16212530663E+04  0.12699999809E+01 0. -1.
</event>
<event>
 5   0  0.7300916E-07  0.3823108E+04  0.7818609E-02  0.8041214E-01
        2   -1    0    0  501    0  0.00000000000E+00  0.00000000000E+00  0.20128822474E+04  0.20128822474E+04  0.25500000920E-02 0. -1.
       -2   -1    0    0    0  501  0.00000000000E+00  0.00000000000E+00 -0.18153262526E+04  0.18153262526E+04  0.25500000920E-02 0.  1.
    10030    2    1    2    0    0  0.00000000000E+00  0.00000000000E+00  0.19755599480E+03  0.38282084999E+04  0.38231076296E+04 0.  0.
        1    1    3    3  502    0 -0.16731301196E+04  0.71648661560E+03  0.68378391265E+03  0.19442936781E+04  0.50400001928E-02 0.  1.
       -1    1    3    3    0  502  0.16731301196E+04 -0.71648661560E+03 -0.48622791784E+03  0.18839148218E+04  0.50400001928E-02 0. -1.
</event>
<event>
 5   0  0.6949625E-07  0.3680388E+04  0.7818609E-02  0.8072322E-01
       -2   -1    0    0    0  501  0.00000000000E+00  0.00000000000E+00  0.15264796151E+04  0.15264796151E+04  0.25500000920E-02 0.  1.
        2   -1    0    0  501    0  0.00000000000E+00  0.00000000000E+00 -0.22183808702E+04  0.22183808702E+04  0.25500000920E-02 0. -1.
    10030    2    1    2    0    0  0.00000000000E+00  0.00000000000E+00 -0.69190125511E+03  0.37448604853E+04  0.36803875757E+04 0.  0.
        5    1    3    3  502    0 -0.25994708302E+03 -0.15638626452E+04  0.60479032052E+03  0.16967711339E+04  0.46999998093E+01 0.  1.
       -5    1    3    3    0  502  0.25994708302E+03  0.15638626452E+04 -0.12966915756E+04  0.20480893514E+04  0.46999998093E+01 0. -1.
</event>
<event>
 5   0  0.6949625E-07  0.3232032E+04  0.7818609E-02  0.8180409E-01
       -2   -1    0    0    0  501  0.00000000000E+00  0.00000000000E+00  0.34174525956E+04  0.34174525956E+04  0.25500000920E-02 0. -1.
        2   -1    0    0  501    0  0.00000000000E+00  0.00000000000E+00 -0.76416772117E+03  0.76416772118E+03  0.25500000920E-02 0.  1.
    10030    2    1    2    0    0  0.00000000000E+00  0.00000000000E+00  0.26532848745E+04  0.41816203168E+04  0.32320315359E+04 0.  0.
        5    1    3    3  502    0  0.59652100590E+03 -0.14398657879E+04  0.77402830556E+03  0.17401703093E+04  0.46999998093E+01 0.  1.
       -5    1    3    3    0  502 -0.59652100590E+03  0.14398657879E+04  0.18792565689E+04  0.24414500075E+04  0.46999998093E+01 0. -1.
</event>
<event>
 5   0  0.6949625E-07  0.3705701E+04  0.7818609E-02  0.8066700E-01
        2   -1    0    0  501    0  0.00000000000E+00  0.00000000000E+00  0.15015849169E+04  0.15015849169E+04  0.25500000920E-02 0.  1.
       -2   -1    0    0    0  501  0.00000000000E+00  0.00000000000E+00 -0.22862879002E+04  0.22862879002E+04  0.25500000920E-02 0. -1.
    10030    2    1    2    0    0  0.00000000000E+00  0.00000000000E+00 -0.78470298326E+03  0.37878728171E+04  0.37057012436E+04 0.  0.
        5    1    3    3  502    0 -0.63336075048E+01 -0.18470627720E+04 -0.24298688232E+03  0.18629937502E+04  0.46999998093E+01 0.  1.
       -5    1    3    3    0  502  0.63336075048E+01  0.18470627720E+04 -0.54171610094E+03  0.19248790669E+04  0.46999998093E+01 0. -1.
</event>
<event>
 5   0  0.2345471E-07  0.3368954E+04  0.7818609E-02  0.8145568E-01
       -1   -1    0    0    0  501  0.00000000000E+00  0.00000000000E+00  0.24418982416E+04  0.24418982416E+04  0.50400001928E-02 0.  1.
        1   -1    0    0  501    0  0.00000000000E+00  0.00000000000E+00 -0.11619903247E+04  0.11619903247E+04  0.50400001928E-02 0. -1.
    10030    2    1    2    0    0  0.00000000000E+00  0.00000000000E+00  0.12799079169E+04  0.36038885663E+04  0.33689536243E+04 0.  0.
        5    1    3    3  502    0 -0.16831356656E+04  0.79646028633E+01  0.71116119171E+03  0.18272332731E+04  0.46999998093E+01 0.  1.
       -5    1    3    3    0  502  0.16831356656E+04 -0.79646028633E+01  0.56874672520E+03  0.17766552932E+04  0.46999998093E+01 0. -1.
</event>
<event>
 5   0  0.7300916E-07  0.3712249E+04  0.7818609E-02  0.8065253E-01
        2   -1    0    0  501    0  0.00000000000E+00  0.00000000000E+00  0.18400987337E+04  0.18400987337E+04  0.25500000920E-02 0. -1.
       -2   -1    0    0    0  501  0.00000000000E+00  0.00000000000E+00 -0.18722899931E+04  0.18722899931E+04  0.25500000920E-02 0.  1.
    10030    2    1    2    0    0  0.00000000000E+00  0.00000000000E+00 -0.32191259345E+02  0.37123887268E+04  0.37122491541E+04 0.  0.
        1    1    3    3  502    0  0.52872254407E+03 -0.10723824868E+04 -0.14358837441E+04  0.18685057809E+04  0.50400001928E-02 0.  1.
       -1    1    3    3    0  502 -0.52872254407E+03  0.10723824868E+04  0.14036924848E+04  0.18438829459E+04  0.50400001928E-02 0. -1.
</event>
<event>
 5   0  0.2287500E-07  0.3677740E+04  0.7818609E-02  0.8072913E-01
       -1   -1    0    0    0  501  0.00000000000E+00  0.00000000000E+00  0.21543651213E+04  0.21543651213E+04  0.50400001928E-02 0. -1.
        1   -1    0    0  501    0  0.00000000000E+00  0.00000000000E+00 -0.15695773103E+04  0.15695773103E+04  0.50400001928E-02 0.  1.
    10030    2    1    2    0    0  0.00000000000E+00  0.00000000000E+00  0.58478781102E+03  0.37239424315E+04  0.36777398562E+04 0.  0.
        2    1    3    3  502    0  0.13403637667E+04  0.11337179195E+04 -0.26179462167E+03  0.17749444420E+04  0.25500000920E-02 0.  1.
       -2    1    3    3    0  502 -0.13403637667E+04 -0.11337179195E+04  0.84658243269E+03  0.19489979896E+04  0.25500000920E-02 0. -1.
</event>
<event>
 5   0  0.2287500E-07  0.3680070E+04  0.7818609E-02  0.8072393E-01
       -1   -1    0    0    0  501  0.00000000000E+00  0.00000000000E+00  0.16329868359E+04  0.16329868360E+04  0.50400001928E-02 0. -1.
        1   -1    0    0  501    0  0.00000000000E+00  0.00000000000E+00 -0.20733353276E+04  0.20733353276E+04  0.50400001928E-02 0.  1.
    10030    2    1    2    0    0  0.00000000000E+00  0.00000000000E+00 -0.44034849165E+03  0.37063221636E+04  0.36800702692E+04 0.  0.
        2    1    3    3  502    0  0.15151327345E+04  0.89719829076E+03  0.31761744421E+03  0.17892659995E+04  0.25500000920E-02 0. -1.
       -2    1    3    3    0  502 -0.15151327345E+04 -0.89719829076E+03 -0.75796593586E+03  0.19170561640E+04  0.25500000920E-02 0.  1.
</event>
<event>
 5   0  0.2287500E-07  0.3158009E+04  0.7818609E-02  0.8199996E-01
       -1   -1    0    0    0  501  0.00000000000E+00  0.00000000000E+00  0.12090455137E+04  0.12090455138E+04  0.50400001928E-02 0. -1.
        1   -1    0    0  501    0  0.00000000000E+00  0.00000000000E+00 -0.20621680286E+04  0.20621680286E+04  0.50400001928E-02 0.  1.
    10030    2    1    2    0    0  0.00000000000E+00  0.00000000000E+00 -0.85312251488E+03  0.32712135424E+04  0.31580088686E+04 0.  0.
        3    1    3    3  502    0 -0.12332479757E+04 -0.55711506173E+03  0.41622428410E+03  0.14158108724E+04  0.10100000352E+00 0. -1.
       -3    1    3    3    0  502  0.12332479757E+04  0.55711506173E+03 -0.12693467990E+04  0.18554026700E+04  0.10100000352E+00 0.  1.
</event>
<event>
 5   0  0.7300916E-07  0.3692042E+04  0.7818609E-02  0.8069728E-01
        2   -1    0    0  501    0  0.00000000000E+00  0.00000000000E+00  0.27201842286E+04  0.27201842286E+04  0.25500000920E-02 0. -1.
       -2   -1    0    0    0  501  0.00000000000E+00  0.00000000000E+00 -0.12527804730E+04  0.12527804730E+04  0.25500000920E-02 0.  1.
    10030    2    1    2    0    0  0.00000000000E+00  0.00000000000E+00  0.14674037556E+04  0.39729647016E+04  0.36920420824E+04 0.  0.
        1    1    3    3  502    0 -0.16751987596E+04  0.41782672360E+03  0.14368116926E+04  0.22461740572E+04  0.50400001928E-02 0. -1.
       -1    1    3    3    0  502  0.16751987596E+04 -0.41782672360E+03  0.30592063034E+02  0.17267906444E+04  0.50400001928E-02 0.  1.
</event>
<event>
 5   0  0.2287500E-07  0.3668423E+04  0.7818609E-02  0.8074996E-01
        1   -1    0    0  501    0  0.00000000000E+00  0.00000000000E+00  0.22907315057E+04  0.22907315057E+04  0.50400001928E-02 0.  1.
       -1   -1    0    0    0  501  0.00000000000E+00  0.00000000000E+00 -0.14686714427E+04  0.14686714427E+04  0.50400001928E-02 0. -1.
    10030    2    1    2    0    0  0.00000000000E+00  0.00000000000E+00  0.82206006302E+03  0.37594029483E+04  0.36684230646E+04 0.  0.
        4    1    3    3  502    0 -0.15162824737E+04  0.15974390021E+03  0.14559749954E+04  0.21081972047E+04  0.12699999809E+01 0.  1.
       -4    1    3    3    0  502  0.15162824737E+04 -0.15974390021E+03 -0.63391493240E+03  0.16512057437E+04  0.12699999809E+01 0. -1.
</event>
<event>
 5   0  0.2287500E-07  0.3622552E+04  0.7818609E-02  0.8085345E-01
       -1   -1    0    0    0  501  0.00000000000E+00  0.00000000000E+00  0.31370292424E+04  0.31370292424E+04  0.50400001928E-02 0. -1.
        1   -1    0    0  501    0  0.00000000000E+00  0.00000000000E+00 -0.10458050086E+04  0.10458050086E+04  0.50400001928E-02 0.  1.
    10030    2    1    2    0    0  0.00000000000E+00  0.00000000000E+00  0.20912242338E+04  0.41828342511E+04  0.36225520805E+04 0.  0.
        4    1    3    3  502    0  0.47776034296E+03 -0.14659171061E+04  0.21431826603E+04  0.26401517827E+04  0.12699999809E+01 0. -1.
       -4    1    3    3    0  502 -0.47776034296E+03  0.14659171061E+04 -0.51958426484E+02  0.15426824684E+04  0.12699999809E+01 0.  1.
</event>
<event>
 5   0  0.2345471E-07  0.3779548E+04  0.7818609E-02  0.8050558E-01
        1   -1    0    0  501    0  0.00000000000E+00  0.00000000000E+00  0.22998409119E+04  0.22998409119E+04  0.50400001928E-02 0. -1.
       -1   -1    0    0    0  501  0.00000000000E+00  0.00000000000E+00 -0.15528225748E+04  0.15528225748E+04  0.50400001928E-02 0.  1.
    10030    2    1    2    0    0  0.00000000000E+00  0.00000000000E+00  0.74701833712E+03  0.38526634868E+04  0.37795475319E+04 0.  0.
        5    1    3    3  502    0  0.11330090792E+04  0.15072301194E+04  0.50151956361E+03  0.19511525233E+04  0.46999998093E+01 0. -1.
       -5    1    3    3    0  502 -0.11330090792E+04 -0.15072301194E+04  0.24549877351E+03  0.19015109635E+04  0.46999998093E+01 0.  1.
</event>
<event>
 5   0  0.7124627E-07  0.3609731E+04  0.7818609E-02  0.8088266E-01
       -2   -1    0    0    0  501  0.00000000000E+00  0.00000000000E+00  0.27686579270E+04  0.27686579270E+04  0.25500000920E-02 0. -1.
        2   -1    0    0  501    0  0.00000000000E+00  0.00000000000E+00 -0.11765771435E+04  0.11765771435E+04  0.25500000920E-02 0.  1.
    10030    2    1    2    0    0  0.00000000000E+00  0.00000000000E+00  0.15920807835E+04  0.39452350705E+04  0.36097310897E+04 0.  0.
        2    1    3    3  502    0  0.58747488604E+03 -0.35638681422E+03  0.26201121722E+04  0.27087129966E+04  0.25500000920E-02 0. -1.
       -2    1    3    3    0  502 -0.58747488604E+03  0.35638681422E+03 -0.10280313887E+04  0.12365220739E+04  0.25500000920E-02 0.  1.
</event>
<event>
 5   0  0.6939921E-07  0.3666901E+04  0.7818609E-02  0.8075337E-01
       -2   -1    0    0    0  501  0.00000000000E+00  0.00000000000E+00  0.17827352166E+04  0.17827352166E+04  0.25500000920E-02 0. -1.
        2   -1    0    0  501    0  0.00000000000E+00  0.00000000000E+00 -0.18856089074E+04  0.18856089074E+04  0.25500000920E-02 0.  1.
    10030    2    1    2    0    0  0.00000000000E+00  0.00000000000E+00 -0.10287369081E+03  0.36683441240E+04  0.36669013643E+04 0.  0.
        4    1    3    3  502    0 -0.10146448182E+04  0.15207811437E+04  0.87399591345E+02  0.18302785841E+04  0.12699999809E+01 0. -1.
       -4    1    3    3    0  502  0.10146448182E+04 -0.15207811437E+04 -0.19027328215E+03  0.18380655399E+04  0.12699999809E+01 0.  1.
</event>
<event>
 5   0  0.6949625E-07  0.3704449E+04  0.7818609E-02  0.8066977E-01
        2   -1    0    0  501    0  0.00000000000E+00  0.00000000000E+00  0.16150569329E+04  0.16150569329E+04  0.25500000920E-02 0. -1.
       -2   -1    0    0    0  501  0.00000000000E+00  0.00000000000E+00 -0.21242191279E+04  0.21242191279E+04  0.25500000920E-02 0.  1.
    10030    2    1    2    0    0  0.00000000000E+00  0.00000000000E+00 -0.50916219504E+03  0.37392760608E+04  0.37044485849E+04 0.  0.
        5    1    3    3  502    0  0.63775043620E+03  0.16241501108E+03  0.14930566332E+04  0.16316692234E+04  0.46999998093E+01 0. -1.
       -5    1    3    3    0  502 -0.63775043620E+03 -0.16241501108E+03 -0.20022188283E+04  0.21076068374E+04  0.46999998093E+01 0.  1.
</event>
<event>
 5   0  0.7074157E-07  0.3608805E+04  0.7818609E-02  0.8088478E-01
        2   -1    0    0  501    0  0.00000000000E+00  0.00000000000E+00  0.21987553657E+04  0.21987553657E+04  0.25500000920E-02 0. -1.
       -2   -1    0    0    0  501  0.00000000000E+00  0.00000000000E+00 -0.14807776248E+04  0.14807776248E+04  0.25500000920E-02 0.  1.
    10030    2    1    2    0    0  0.00000000000E+00  0.00000000000E+00  0.71797774090E+03  0.36795329905E+04  0.36088046486E+04 0.  0.
        3    1    3    3  502    0  0.80296281185E+03 -0.36508582628E+03  0.19639523372E+04  0.21529388590E+04  0.10100000352E+00 0. -1.
       -3    1    3    3    0  502 -0.80296281185E+03  0.36508582628E+03 -0.12459745962E+04  0.15265941315E+04  0.10100000352E+00 0.  1.
</event>
<event>
 5   0  0.6949625E-07  0.3691522E+04  0.7818609E-02  0.8069843E-01
       -2   -1    0    0    0  501  0.00000000000E+00  0.00000000000E+00  0.12763250098E+04  0.12763250098E+04  0.25500000920E-02 0. -1.
        2   -1    0    0  501    0  0.00000000000E+00  0.00000000000E+00 -0.26692528039E+04  0.26692528039E+04  0.25500000920E-02 0.  1.
    10030    2    1    2    0    0  0.00000000000E+00  0.00000000000E+00 -0.13929277940E+04  0.39455778137E+04  0.36915222395E+04 0.  0.
        5    1    3    3  502    0  0.12522094701E+04  0.12393359476E+04 -0.10829171411E+03  0.17651434313E+04  0.46999998093E+01 0. -1.
       -5    1    3    3    0  502 -0.12522094701E+04 -0.12393359476E+04 -0.12846360799E+04  0.21804343824E+04  0.46999998093E+01 0.  1.
</event>
<event>
 5   0  0.7124627E-07  0.3704649E+04  0.7818609E-02  0.8066932E-01
       -2   -1    0    0    0  501  0.00000000000E+00  0.00000000000E+00  0.18795169506E+04  0.18795169506E+04  0.25500000920E-02 0. -1.
        2   -1    0    0  501    0  0.00000000000E+00  0.00000000000E+00 -0.18255254020E+04  0.18255254020E+04  0.25500000920E-02 0.  1.
    10030    2    1    2    0    0  0.00000000000E+00  0.00000000000E+00  0.53991548649E+02  0.37050423526E+04  0.37046489371E+04 0.  0.
        2    1    3    3  502    0 -0.13022575298E+03 -0.16279938195E+04  0.90103555746E+03  0.18652580783E+04  0.25500000920E-02 0.  1.
       -2    1    3    3    0  502  0.13022575298E+03  0.16279938195E+04 -0.84704400881E+03  0.18397842743E+04  0.25500000920E-02 0. -1.
</event>
<event>
 5   0  0.2411746E-07  0.3044768E+04  0.7818609E-02  0.8231061E-01
       -1   -1    0    0    0  501  0.00000000000E+00  0.00000000000E+00  0.94278974564E+03  0.94278974565E+03  0.50400001928E-02 0. -1.
        1   -1    0    0  501    0  0.00000000000E+00  0.00000000000E+00 -0.24582928424E+04  0.24582928424E+04  0.50400001928E-02 0.  1.
    10030    2    1    2    0    0  0.00000000000E+00  0.00000000000E+00 -0.15155030967E+04  0.34010825880E+04  0.30447681577E+04 0.  0.
        1    1    3    3  502    0 -0.10176948865E+03 -0.10553409371E+04 -0.19780992227E+04  0.22443212910E+04  0.50400001928E-02 0.  1.
       -1    1    3    3    0  502  0.10176948865E+03  0.10553409371E+04  0.46259612601E+03  0.11567612970E+04  0.50400001928E-02 0. -1.
</event>
<event>
 5   0  0.2287500E-07  0.3104983E+04  0.7818609E-02  0.8214372E-01
        1   -1    0    0  501    0  0.00000000000E+00  0.00000000000E+00  0.21557610949E+04  0.21557610949E+04  0.50400001928E-02 0. -1.
       -1   -1    0    0    0  501  0.00000000000E+00  0.00000000000E+00 -0.11180409452E+04  0.11180409452E+04  0.50400001928E-02 0.  1.
    10030    2    1    2    0    0  0.00000000000E+00  0.00000000000E+00  0.10377201497E+04  0.32738020400E+04  0.31049825584E+04 0.  0.
        4    1    3    3  502    0 -0.11346905782E+04 -0.75703796887E+03  0.13005166149E+04  0.18846682130E+04  0.12699999809E+01 0.  1.
       -4    1    3    3    0  502  0.11346905782E+04  0.75703796887E+03 -0.26279646518E+03  0.13891338271E+04  0.12699999809E+01 0. -1.
</event>
<event>
 5   0  0.6939921E-07  0.3669426E+04  0.7818609E-02  0.8074771E-01
        2   -1    0    0  501    0  0.00000000000E+00  0.00000000000E+00  0.99921098462E+03  0.99921098462E+03  0.25500000920E-02 0.  1.
       -2   -1    0    0    0  501  0.00000000000E+00  0.00000000000E+00 -0.33688292315E+04  0.33688292315E+04  0.25500000920E-02 0. -1.
    10030    2    1    2    0    0  0.00000000000E+00  0.00000000000E+00 -0.23696182469E+04  0.43680402161E+04  0.36694256626E+04 0.  0.
        4    1    3    3  502    0  0.16858466106E+04  0.35183499306E+03 -0.43165665382E+03  0.17754424058E+04  0.12699999809E+01 0.  1.
       -4    1    3    3    0  502 -0.16858466106E+04 -0.35183499306E+03 -0.19379615931E+04  0.25925978103E+04  0.12699999809E+01 0. -1.
</event>
<event>
 5   0  0.6939921E-07  0.3674948E+04  0.7818609E-02  0.8073536E-01
       -2   -1    0    0    0  501  0.00000000000E+00  0.00000000000E+00  0.13939950082E+04  0.13939950082E+04  0.25500000920E-02 0.  1.
        2   -1    0    0  501    0  0.00000000000E+00  0.00000000000E+00 -0.24220390532E+04  0.24220390532E+04  0.25500000920E-02 0. -1.
    10030    2    1    2    0    0  0.00000000000E+00  0.00000000000E+00 -0.10280440450E+04  0.38160340614E+04  0.36749478091E+04 0.  0.
        4    1    3    3  502    0 -0.13161429855E+04  0.15141206742E+03  0.80810374520E+03  0.15518348006E+04  0.12699999809E+01 0.  1.
       -4    1    3    3    0  502  0.13161429855E+04 -0.15141206742E+03 -0.18361477902E+04  0.22641992608E+04  0.12699999809E+01 0. -1.
</event>
<event>
 5   0  0.2287500E-07  0.3694341E+04  0.7818609E-02  0.8069217E-01
        1   -1    0    0  501    0  0.00000000000E+00  0.00000000000E+00  0.30152696752E+04  0.30152696752E+04  0.50400001928E-02 0. -1.
       -1   -1    0    0    0  501  0.00000000000E+00  0.00000000000E+00 -0.11315868347E+04  0.11315868347E+04  0.50400001928E-02 0.  1.
    10030    2    1    2    0    0  0.00000000000E+00  0.00000000000E+00  0.18836828405E+04  0.41468565099E+04  0.36943413310E+04 0.  0.
        2    1    3    3  502    0  0.63780397907E+03  0.14507227744E+04  0.20071116027E+04  0.25573203690E+04  0.25500000920E-02 0. -1.
       -2    1    3    3    0  502 -0.63780397907E+03 -0.14507227744E+04 -0.12342876220E+03  0.15895361409E+04  0.25500000920E-02 0.  1.
</event>
<event>
 5   0  0.2287500E-07  0.3746751E+04  0.7818609E-02  0.8057680E-01
        1   -1    0    0  501    0  0.00000000000E+00  0.00000000000E+00  0.22753737787E+04  0.22753737788E+04  0.50400001928E-02 0.  1.
       -1   -1    0    0    0  501  0.00000000000E+00  0.00000000000E+00 -0.15423995324E+04  0.15423995324E+04  0.50400001928E-02 0. -1.
    10030    2    1    2    0    0  0.00000000000E+00  0.00000000000E+00  0.73297424631E+03  0.38177733112E+04  0.37467508337E+04 0.  0.
        2    1    3    3  502    0  0.10784741352E+03 -0.93703966041E+03 -0.12827931146E+04  0.15922413651E+04  0.25500000920E-02 0. -1.
       -2    1    3    3    0  502 -0.10784741352E+03  0.93703966041E+03  0.20157673609E+04  0.22255319461E+04  0.25500000920E-02 0.  1.
</event>
<event>
 5   0  0.7124627E-07  0.3562421E+04  0.7818609E-02  0.8099154E-01
        2   -1    0    0  501    0  0.00000000000E+00  0.00000000000E+00  0.25865546208E+04  0.25865546208E+04  0.25500000920E-02 0.  1.
       -2   -1    0    0    0  501  0.00000000000E+00  0.00000000000E+00 -0.12266163050E+04  0.12266163050E+04  0.25500000920E-02 0. -1.
    10030    2    1    2    0    0  0.00000000000E+00  0.00000000000E+00  0.13599383157E+04  0.38131709258E+04  0.35624205657E+04 0.  0.
        2    1    3    3  502    0 -0.17788416737E+04  0.89947983643E+02  0.69975633489E+03  0.19136424086E+04  0.25500000920E-02 0. -1.
       -2    1    3    3    0  502  0.17788416737E+04 -0.89947983643E+02  0.66018198085E+03  0.18995285172E+04  0.25500000920E-02 0.  1.
</event>
<event>
 5   0  0.7074157E-07  0.3338816E+04  0.7818609E-02  0.8153088E-01
       -2   -1    0    0    0  501  0.00000000000E+00  0.00000000000E+00  0.12221373060E+04  0.12221373060E+04  0.25500000920E-02 0.  1.
        2   -1    0    0  501    0  0.00000000000E+00  0.00000000000E+00 -0.22803680795E+04  0.22803680795E+04  0.25500000920E-02 0. -1.
    10030    2    1    2    0    0  0.00000000000E+00  0.00000000000E+00 -0.10582307735E+04  0.35025053856E+04  0.33388158988E+04 0.  0.
        3    1    3    3  502    0  0.64019216781E+03 -0.12820479882E+04  0.36927609466E+03  0.14798168468E+04  0.10100000352E+00 0. -1.
       -3    1    3    3    0  502 -0.64019216781E+03  0.12820479882E+04 -0.14275068682E+04  0.20226885387E+04  0.10100000352E+00 0.  1.
</event>
<event>
 5   0  0.7124627E-07  0.3685646E+04  0.7818609E-02  0.8071150E-01
        2   -1    0    0  501    0  0.00000000000E+00  0.00000000000E+00  0.25287272505E+04  0.25287272505E+04  0.25500000920E-02 0.  1.
       -2   -1    0    0    0  501  0.00000000000E+00  0.00000000000E+00 -0.13429666457E+04  0.13429666457E+04  0.25500000920E-02 0. -1.
    10030    2    1    2    0    0  0.00000000000E+00  0.00000000000E+00  0.11857606048E+04  0.38716938963E+04  0.36856458612E+04 0.  0.
        2    1    3    3  502    0  0.99223379932E+03 -0.15099307387E+04  0.21183343151E+03  0.18191459949E+04  0.25500000920E-02 0.  1.
       -2    1    3    3    0  502 -0.99223379932E+03  0.15099307387E+04  0.97392717333E+03  0.20525479013E+04  0.25500000920E-02 0. -1.
</event>
<event>
 5   0  0.7300916E-07  0.3113757E+04  0.7818609E-02  0.8211973E-01
       -2   -1    0    0    0  501  0.00000000000E+00  0.00000000000E+00  0.98388541026E+03  0.98388541026E+03  0.25500000920E-02 0.  1.
        2   -1    0    0  501    0  0.00000000000E+00  0.00000000000E+00 -0.24635696960E+04  0.24635696960E+04  0.25500000920E-02 0. -1.
    10030    2    1    2    0    0  0.00000000000E+00  0.00000000000E+00 -0.14796842858E+04  0.34474551063E+04  0.31137567542E+04 0.  0.
        1    1    3    3  502    0 -0.55548383750E+03  0.22547425599E+03  0.85096728540E+03  0.10409352788E+04  0.50400001928E-02 0.  1.
       -1    1    3    3    0  502  0.55548383750E+03 -0.22547425599E+03 -0.23306515711E+04  0.24065198275E+04  0.50400001928E-02 0. -1.
</event>
<event>
 5   0  0.2345471E-07  0.2924312E+04  0.7818609E-02  0.8265681E-01
        1   -1    0    0  501    0  0.00000000000E+00  0.00000000000E+00  0.16446096860E+04  0.16446096860E+04  0.50400001928E-02 0.  1.
       -1   -1    0    0    0  501  0.00000000000E+00  0.00000000000E+00 -0.12999435871E+04  0.12999435871E+04  0.50400001928E-02 0. -1.
    10030    2    1    2    0    0  0.00000000000E+00  0.00000000000E+00  0.34466609889E+03  0.29445532730E+04  0.29243117580E+04 0.  0.
        5    1    3    3  502    0  0.13122642646E+04 -0.36378240538E+03 -0.36380207156E+03  0.14095209030E+04  0.46999998093E+01 0. -1.
       -5    1    3    3    0  502 -0.13122642646E+04  0.36378240538E+03  0.70846817045E+03  0.15350323701E+04  0.46999998093E+01 0.  1.
</event>
<event>
 5   0  0.6949625E-07  0.3694570E+04  0.7818609E-02  0.8069166E-01
        2   -1    0    0  501    0  0.00000000000E+00  0.00000000000E+00  0.29403729691E+04  0.29403729691E+04  0.25500000920E-02 0. -1.
       -2   -1    0    0    0  501  0.00000000000E+00  0.00000000000E+00 -0.11605540078E+04  0.11605540078E+04  0.25500000920E-02 0.  1.
    10030    2    1    2    0    0  0.00000000000E+00  0.00000000000E+00  0.17798189613E+04  0.41009269769E+04  0.36945698715E+04 0.  0.
        5    1    3    3  502    0  0.43689841670E+03  0.68186453036E+03 -0.95301105505E+03  0.12506284921E+04  0.46999998093E+01 0.  1.
       -5    1    3    3    0  502 -0.43689841670E+03 -0.68186453036E+03  0.27328300163E+04  0.28502984848E+04  0.46999998093E+01 0. -1.
</event>
<event>
 5   0  0.6939921E-07  0.3671094E+04  0.7818609E-02  0.8074398E-01
        2   -1    0    0  501    0  0.00000000000E+00  0.00000000000E+00  0.19619534748E+04  0.19619534748E+04  0.25500000920E-02 0. -1.
       -2   -1    0    0    0  501  0.00000000000E+00  0.00000000000E+00 -0.17172845560E+04  0.17172845560E+04  0.25500000920E-02 0.  1.
    10030    2    1    2    0    0  0.00000000000E+00  0.00000000000E+00  0.24466891873E+03  0.36792380308E+04  0.36710937890E+04 0.  0.
        4    1    3    3  502    0 -0.15897192203E+04 -0.89410138195E+03  0.32920533796E+03  0.18533759058E+04  0.12699999809E+01 0.  1.
       -4    1    3    3    0  502  0.15897192203E+04  0.89410138195E+03 -0.84536419230E+02  0.18258621251E+04  0.12699999809E+01 0. -1.
</event>
<event>
 5   0  0.7124627E-07  0.2975488E+04  0.7818609E-02  0.8250765E-01
        2   -1    0    0  501    0  0.00000000000E+00  0.00000000000E+00  0.13239188111E+04  0.13239188111E+04  0.25500000920E-02 0.  1.
       -2   -1    0    0    0  501  0.00000000000E+00  0.00000000000E+00 -0.16718413999E+04  0.16718413999E+04  0.25500000920E-02 0. -1.
    10030    2    1    2    0    0  0.00000000000E+00  0.00000000000E+00 -0.34792258879E+03  0.29957602110E+04  0.29754880463E+04 0.  0.
        2    1    3    3  502    0  0.52938386932E+03  0.10960702777E+04  0.68729942141E+03  0.13978547240E+04  0.25500000920E-02 0.  1.
       -2    1    3    3    0  502 -0.52938386932E+03 -0.10960702777E+04 -0.10352220102E+04  0.15979054869E+04  0.25500000920E-02 0. -1.
</event>
<event>
 5   0  0.2345471E-07  0.3758535E+04  0.7818609E-02  0.8055112E-01
        1   -1    0    0  501    0  0.00000000000E+00  0.00000000000E+00  0.27508642057E+04  0.27508642057E+04  0.50400001928E-02 0.  1.
       -1   -1    0    0    0  501  0.00000000000E+00  0.00000000000E+00 -0.12838313622E+04  0.12838313622E+04  0.50400001928E-02 0. -1.
    10030    2    1    2    0    0  0.00000000000E+00  0.00000000000E+00  0.14670328435E+04  0.40346955679E+04  0.37585346828E+04 0.  0.
        5    1    3    3  502    0  0.10831807843E+03  0.22950024450E+02  0.27473534011E+04  0.27495876619E+04  0.46999998093E+01 0.  1.
       -5    1    3    3    0  502 -0.10831807843E+03 -0.22950024450E+02 -0.12803205577E+04  0.12851079060E+04  0.46999998093E+01 0. -1.
</event>
<event>
 5   0  0.2345471E-07  0.3636561E+04  0.7818609E-02  0.8082168E-01
       -1   -1    0    0    0  501  0.00000000000E+00  0.00000000000E+00  0.13649599644E+04  0.13649599644E+04  0.50400001928E-02 0.  1.
        1   -1    0    0  501    0  0.00000000000E+00  0.00000000000E+00 -0.24221548935E+04  0.24221548935E+04  0.50400001928E-02 0. -1.
    10030    2    1    2    0    0  0.00000000000E+00  0.00000000000E+00 -0.10571949292E+04  0.37871148579E+04  0.36365612642E+04 0.  0.
        5    1    3    3  502    0 -0.10152076644E+04  0.10729103457E+04  0.57564955589E+03  0.15853005119E+04  0.46999998093E+01 0.  1.
       -5    1    3    3    0  502  0.10152076644E+04 -0.10729103457E+04 -0.16328444850E+04  0.22018143460E+04  0.46999998093E+01 0. -1.
</event>
<event>
 5   0  0.7300916E-07  0.3607472E+04  0.7818609E-02  0.8088782E-01
       -2   -1    0    0    0  501  0.00000000000E+00  0.00000000000E+00  0.18725293830E+04  0.18725293830E+04  0.25500000920E-02 0. -1.
        2   -1    0    0  501    0  0.00000000000E+00  0.00000000000E+00 -0.17374703106E+04  0.17374703106E+04  0.25500000920E-02 0.  1.
    10030    2    1    2    0    0  0.00000000000E+00  0.00000000000E+00  0.13505907238E+03  0.36099996935E+04  0.36074723609E+04 0.  0.
        1    1    3    3  502    0  0.33835089896E+02 -0.18031893615E+04  0.96316371752E+02  0.18060768339E+04  0.50400001928E-02 0. -1.
       -1    1    3    3    0  502 -0.33835089896E+02  0.18031893615E+04  0.38742700632E+02  0.18039228596E+04  0.50400001928E-02 0.  1.
</event>
<event>
 5   0  0.6949625E-07  0.3697530E+04  0.7818609E-02  0.8068509E-01
        2   -1    0    0  501    0  0.00000000000E+00  0.00000000000E+00  0.23059027021E+04  0.23059027022E+04  0.25500000920E-02 0. -1.
       -2   -1    0    0    0  501  0.00000000000E+00  0.00000000000E+00 -0.14822536327E+04  0.14822536327E+04  0.25500000920E-02 0.  1.
    10030    2    1    2    0    0  0.00000000000E+00  0.00000000000E+00  0.82364906945E+03  0.37881563349E+04  0.36975303417E+04 0.  0.
        5    1    3    3  502    0 -0.10393731151E+04  0.15287051378E+04  0.43843609211E+03  0.18998642498E+04  0.46999998093E+01 0. -1.
       -5    1    3    3    0  502  0.10393731151E+04 -0.15287051378E+04  0.38521297734E+03  0.18882920851E+04  0.46999998093E+01 0.  1.
</event>
<event>
 5   0  0.6949625E-07  0.3646609E+04  0.7818609E-02  0.8079898E-01
        2   -1    0    0  501    0  0.00000000000E+00  0.00000000000E+00  0.23260225248E+04  0.23260225248E+04  0.25500000920E-02 0.  1.
       -2   -1    0    0    0  501  0.00000000000E+00  0.00000000000E+00 -0.14292377634E+04  0.14292377634E+04  0.25500000920E-02 0. -1.
    10030    2    1    2    0    0  0.00000000000E+00  0.00000000000E+00  0.89678476137E+03  0.37552602882E+04  0.36466089623E+04 0.  0.
        5    1    3    3  502    0 -0.36864643436E+03  0.16880355590E+04 -0.15123931461E+03  0.17344335277E+04  0.46999998093E+01 0.  1.
       -5    1    3    3    0  502  0.36864643436E+03 -0.16880355590E+04  0.10480240760E+04  0.20208267604E+04  0.46999998093E+01 0. -1.
</event>
<event>
 5   0  0.2287500E-07  0.3805611E+04  0.7818609E-02  0.8044952E-01
       -1   -1    0    0    0  501  0.00000000000E+00  0.00000000000E+00  0.16821918352E+04  0.16821918352E+04  0.50400001928E-02 0.  1.
        1   -1    0    0  501    0  0.00000000000E+00  0.00000000000E+00 -0.21523514123E+04  0.21523514123E+04  0.50400001928E-02 0. -1.
    10030    2    1    2    0    0  0.00000000000E+00  0.00000000000E+00 -0.47015957712E+03  0.38345432474E+04  0.38056105803E+04 0.  0.
        4    1    3    3  502    0 -0.17760347391E+04 -0.67404346611E+03 -0.12455367659E+03  0.19037198376E+04  0.12699999809E+01 0. -1.
       -4    1    3    3    0  502  0.17760347391E+04  0.67404346611E+03 -0.34560590053E+03  0.19308234099E+04  0.12699999809E+01 0.  1.
</event>
<event>
 5   0  0.2287500E-07  0.3683529E+04  0.7818609E-02  0.8071622E-01
       -1   -1    0    0    0  501  0.00000000000E+00  0.00000000000E+00  0.11423004139E+04  0.11423004139E+04  0.50400001928E-02 0.  1.
        1   -1    0    0  501    0  0.00000000000E+00  0.00000000000E+00 -0.29695307568E+04  0.29695307568E+04  0.50400001928E-02 0. -1.
    10030    2    1    2    0    0  0.00000000000E+00  0.00000000000E+00 -0.18272303429E+04  0.41118311707E+04  0.36835288584E+04 0.  0.
        4    1    3    3  502    0 -0.70108644126E+03 -0.28894233380E+03  0.95996012956E+03  0.12233294461E+04  0.12699999809E+01 0.  1.
       -4    1    3    3    0  502  0.70108644126E+03  0.28894233380E+03 -0.27871904725E+04  0.28885017246E+04  0.12699999809E+01 0. -1.
</event>
<event>
 5   0  0.2287500E-07  0.3654455E+04  0.7818609E-02  0.8078131E-01
        1   -1    0    0  501    0  0.00000000000E+00  0.00000000000E+00  0.17785525857E+04  0.17785525857E+04  0.50400001928E-02 0.  1.
       -1   -1    0    0    0  501  0.00000000000E+00  0.00000000000E+00 -0.18772346091E+04  0.18772346091E+04  0.50400001928E-02 0. -1.
    10030    2    1    2    0    0  0.00000000000E+00  0.00000000000E+00 -0.98682023443E+02  0.36557871948E+04  0.36544550718E+04 0.  0.
        2    1    3    3  502    0 -0.67496196066E+02  0.45082870612E+03  0.17207553757E+04  0.17801127273E+04  0.25500000920E-02 0.  1.
       -2    1    3    3    0  502  0.67496196066E+02 -0.45082870612E+03 -0.18194373991E+04  0.18756744675E+04  0.25500000920E-02 0. -1.
</event>
<event>
 5   0  0.7300916E-07  0.3531445E+04  0.7818609E-02  0.8106378E-01
       -2   -1    0    0    0  501  0.00000000000E+00  0.00000000000E+00  0.13808191376E+04  0.13808191376E+04  0.25500000920E-02 0.  1.
        2   -1    0    0  501    0  0.00000000000E+00  0.00000000000E+00 -0.22579176382E+04  0.22579176382E+04  0.25500000920E-02 0. -1.
    10030    2    1    2    0    0  0.00000000000E+00  0.00000000000E+00 -0.87709850065E+03  0.36387367758E+04  0.35314449655E+04 0.  0.
        1    1    3    3  502    0  0.44249039251E+02 -0.13173866962E+04  0.77201138187E+03  0.15275690683E+04  0.50400001928E-02 0.  1.
       -1    1    3    3    0  502 -0.44249039251E+02  0.13173866962E+04 -0.16491098825E+04  0.21111677075E+04  0.50400001928E-02 0. -1.
</event>
<event>
 5   0  0.6949625E-07  0.3699187E+04  0.7818609E-02  0.8068142E-01
        2   -1    0    0  501    0  0.00000000000E+00  0.00000000000E+00  0.26929033157E+04  0.26929033157E+04  0.25500000920E-02 0.  1.
       -2   -1    0    0    0  501  0.00000000000E+00  0.00000000000E+00 -0.12703745232E+04  0.12703745232E+04  0.25500000920E-02 0. -1.
    10030    2    1    2    0    0  0.00000000000E+00  0.00000000000E+00  0.14225287924E+04  0.39632778389E+04  0.36991868110E+04 0.  0.
        5    1    3    3  502    0 -0.38818388553E+03  0.13383746310E+04  0.20142459208E+04  0.24493146187E+04  0.46999998093E+01 0.  1.
       -5    1    3    3    0  502  0.38818388553E+03 -0.13383746310E+04 -0.59171712839E+03  0.15139632202E+04  0.46999998093E+01 0. -1.
</event>
<event>
 5   0  0.7074157E-07  0.3715701E+04  0.7818609E-02  0.8064491E-01
       -2   -1    0    0    0  501  0.00000000000E+00  0.00000000000E+00  0.11698621836E+04  0.11698621836E+04  0.25500000920E-02 0. -1.
        2   -1    0    0  501    0  0.00000000000E+00  0.00000000000E+00 -0.29504405343E+04  0.29504405343E+04  0.25500000920E-02 0.  1.
    10030    2    1    2    0    0  0.00000000000E+00  0.00000000000E+00 -0.17805783507E+04  0.41203027179E+04  0.37157011753E+04 0.  0.
        3    1    3    3  502    0  0.13207091673E+04 -0.10849371415E+04 -0.82816832979E+02  0.17112042378E+04  0.10100000352E+00 0.  1.
       -3    1    3    3    0  502 -0.13207091673E+04  0.10849371415E+04 -0.16977615177E+04  0.24090984801E+04  0.10100000352E+00 0. -1.
</event>
<event>
 5   0  0.2287500E-07  0.3688173E+04  0.7818609E-02  0.8070588E-01
       -1   -1    0    0    0  501  0.00000000000E+00  0.00000000000E+00  0.13389586821E+04  0.13389586821E+04  0.50400001928E-02 0. -1.
        1   -1    0    0  501    0  0.00000000000E+00  0.00000000000E+00 -0.25397765751E+04  0.25397765751E+04  0.50400001928E-02 0.  1.
    10030    2    1    2    0    0  0.00000000000E+00  0.00000000000E+00 -0.12008178930E+04  0.38787352572E+04  0.36881734752E+04 0.  0.
        4    1    3    3  502    0  0.24639209951E+03  0.11059664146E+04  0.92968120268E+03  0.14656669228E+04  0.12699999809E+01 0. -1.
       -4    1    3    3    0  502 -0.24639209951E+03 -0.11059664146E+04 -0.21304990957E+04  0.24130683344E+04  0.12699999809E+01 0.  1.
</event>
<event>
 5   0  0.7300916E-07  0.3744529E+04  0.7818609E-02  0.8058165E-01
        2   -1    0    0  501    0  0.00000000000E+00  0.00000000000E+00  0.19608282238E+04  0.19608282238E+04  0.25500000920E-02 0.  1.
       -2   -1    0    0    0  501  0.00000000000E+00  0.00000000000E+00 -0.17877012685E+04  0.17877012685E+04  0.25500000920E-02 0. -1.
    10030    2    1    2    0    0  0.00000000000E+00  0.00000000000E+00  0.17312695526E+03  0.37485294923E+04  0.37445293979E+04 0.  0.
        1    1    3    3  502    0  0.17907750392E+04  0.44325094201E+02  0.63169560266E+03  0.18994418363E+04  0.50400001928E-02 0.  1.
       -1    1    3    3    0  502 -0.17907750392E+04 -0.44325094201E+02 -0.45856864740E+03  0.18490876560E+04  0.50400001928E-02 0. -1.
</event>
<event>
 5   0  0.2287500E-07  0.3752631E+04  0.7818609E-02  0.8056397E-01
       -1   -1    0    0    0  501  0.00000000000E+00  0.00000000000E+00  0.10804883332E+04  0.10804883332E+04  0.50400001928E-02 0. -1.
        1   -1    0    0  501    0  0.00000000000E+00  0.00000000000E+00 -0.32583048208E+04  0.32583048208E+04  0.50400001928E-02 0.  1.
    10030    2    1    2    0    0  0.00000000000E+00  0.00000000000E+00 -0.21778164875E+04  0.43387931540E+04  0.37526312608E+04 0.  0.
        4    1    3    3  502    0  0.16117761279E+04  0.65041165632E+03 -0.19062208864E+04  0.25796389844E+04  0.12699999809E+01 0.  1.
       -4    1    3    3    0  502 -0.16117761279E+04 -0.65041165632E+03 -0.27159560115E+03  0.17591541696E+04  0.12699999809E+01 0. -1.
</event>
<event>
 5   0  0.7074157E-07  0.3696110E+04  0.7818609E-02  0.8068824E-01
       -2   -1    0    0    0  501  0.00000000000E+00  0.00000000000E+00  0.17616802276E+04  0.17616802276E+04  0.25500000920E-02 0.  1.
        2   -1    0    0  501    0  0.00000000000E+00  0.00000000000E+00 -0.19386644820E+04  0.19386644820E+04  0.25500000920E-02 0. -1.
    10030    2    1    2    0    0  0.00000000000E+00  0.00000000000E+00 -0.17698425447E+03  0.37003447096E+04  0.36961097851E+04 0.  0.
        3    1    3    3  502    0 -0.13638957017E+04 -0.10843642112E+04 -0.70503021877E+03  0.18796608330E+04  0.10100000352E+00 0. -1.
       -3    1    3    3    0  502  0.13638957017E+04  0.10843642112E+04  0.52804596431E+03  0.18206838765E+04  0.10100000352E+00 0.  1.
</event>
<event>
 5   0  0.6939921E-07  0.3713920E+04  0.7818609E-02  0.8064884E-01
        2   -1    0    0  501    0  0.00000000000E+00  0.00000000000E+00  0.25959106746E+04  0.25959106746E+04  0.25500000920E-02 0. -1.
       -2   -1    0    0    0  501  0.00000000000E+00  0.00000000000E+00 -0.13283590079E+04  0.13283590079E+04  0.25500000920E-02 0.  1.
    10030    2    1    2    0    0  0.00000000000E+00  0.00000000000E+00  0.12675516666E+04  0.39242696825E+04  0.37139204775E+04 0.  0.
        4    1    3    3  502    0 -0.13215357494E+04  0.58393440987E+03  0.18664081255E+04  0.23602790165E+04  0.12699999809E+01 0. -1.
       -4    1    3    3    0  502  0.13215357494E+04 -0.58393440987E+03 -0.59885645886E+03  0.15639906660E+04  0.12699999809E+01 0.  1.
</event>
<event>
 5   0  0.2411746E-07  0.3623593E+04  0.7818609E-02  0.8085109E-01
        1   -1    0    0  501    0  0.00000000000E+00  0.00000000000E+00  0.16251453622E+04  0.16251453622E+04  0.50400001928E-02 0. -1.
       -1   -1    0    0    0  501  0.00000000000E+00  0.00000000000E+00 -0.20198846281E+04  0.20198846281E+04  0.50400001928E-02 0.  1.
    10030    2    1    2    0    0  0.00000000000E+00  0.00000000000E+00 -0.39473926589E+03  0.36450299902E+04  0.36235927671E+04 0.  0.
        1    1    3    3  502    0  0.10484906220E+04 -0.14323076980E+03  0.12819626518E+04  0.16623104038E+04  0.50400001928E-02 0. -1.
       -1    1    3    3    0  502 -0.10484906220E+04  0.14323076980E+03 -0.16767019177E+04  0.19827195865E+04  0.50400001928E-02 0.  1.
</event>
<event>
 5   0  0.7300916E-07  0.3519691E+04  0.7818609E-02  0.8109139E-01
       -2   -1    0    0    0  501  0.00000000000E+00  0.00000000000E+00  0.12466550077E+04  0.12466550077E+04  0.25500000920E-02 0.  1.
        2   -1    0    0  501    0  0.00000000000E+00  0.00000000000E+00 -0.24842925132E+04  0.24842925132E+04  0.25500000920E-02 0. -1.
    10030    2    1    2    0    0  0.00000000000E+00  0.00000000000E+00 -0.12376375054E+04  0.37309475209E+04  0.35196907263E+04 0.  0.
        1    1    3    3  502    0  0.13151567225E+04 -0.18830177468E+03  0.60455844344E+03  0.14596525870E+04  0.50400001928E-02 0.  1.
       -1    1    3    3    0  502 -0.13151567225E+04  0.18830177468E+03 -0.18421959489E+04  0.22712949340E+04  0.50400001928E-02 0. -1.
</event>
<event>
 5   0  0.2345471E-07  0.3631529E+04  0.7818609E-02  0.8083307E-01
       -1   -1    0    0    0  501  0.00000000000E+00  0.00000000000E+00  0.10299923119E+04  0.10299923120E+04  0.50400001928E-02 0.  1.
        1   -1    0    0  501    0  0.00000000000E+00  0.00000000000E+00 -0.32009963286E+04  0.32009963286E+04  0.50400001928E-02 0. -1.
    10030    2    1    2    0    0  0.00000000000E+00  0.00000000000E+00 -0.21710040167E+04  0.42309886406E+04  0.36315294899E+04 0.  0.
        5    1    3    3  502    0  0.87918562380E+03  0.78427885507E+03 -0.26952059804E+04  0.29414652897E+04  0.46999998093E+01 0. -1.
       -5    1    3    3    0  502 -0.87918562380E+03 -0.78427885507E+03  0.52420196377E+03  0.12895233509E+04  0.46999998093E+01 0.  1.
</event>
<event>
 5   0  0.2345471E-07  0.3673418E+04  0.7818609E-02  0.8073878E-01
        1   -1    0    0  501    0  0.00000000000E+00  0.00000000000E+00  0.12036324276E+04  0.12036324276E+04  0.50400001928E-02 0. -1.
       -1   -1    0    0    0  501  0.00000000000E+00  0.00000000000E+00 -0.28027664222E+04  0.28027664222E+04  0.50400001928E-02 0.  1.
    10030    2    1    2    0    0  0.00000000000E+00  0.00000000000E+00 -0.15991339947E+04  0.40063988498E+04  0.36734183278E+04 0.  0.
        5    1    3    3  502    0 -0.18736921651E+03  0.12933001545E+04 -0.22071959046E+04  0.25650474390E+04  0.46999998093E+01 0.  1.
       -5    1    3    3    0  502  0.18736921651E+03 -0.12933001545E+04  0.60806190996E+03  0.14413514108E+04  0.46999998093E+01 0. -1.
</event>
<event>
 5   0  0.2287500E-07  0.3724785E+04  0.7818609E-02  0.8062491E-01
        1   -1    0    0  501    0  0.00000000000E+00  0.00000000000E+00  0.18781936108E+04  0.18781936108E+04  0.50400001928E-02 0. -1.
       -1   -1    0    0    0  501  0.00000000000E+00  0.00000000000E+00 -0.18467240409E+04  0.18467240409E+04  0.50400001928E-02 0.  1.
    10030    2    1    2    0    0  0.00000000000E+00  0.00000000000E+00  0.31469569839E+02  0.37249176517E+04  0.37247847157E+04 0.  0.
        4    1    3    3  502    0  0.78479478110E+03 -0.54709569632E+03 -0.15822230953E+04  0.18489586490E+04  0.12699999809E+01 0.  1.
       -4    1    3    3    0  502 -0.78479478110E+03  0.54709569632E+03  0.16136926652E+04  0.18759590027E+04  0.12699999809E+01 0. -1.
</event>
<event>
 5   0  0.2287500E-07  0.3727603E+04  0.7818609E-02  0.8061872E-01
       -1   -1    0    0    0  501  0.00000000000E+00  0.00000000000E+00  0.31974512351E+04  0.31974512351E+04  0.50400001928E-02 0. -1.
        1   -1    0    0  501    0  0.00000000000E+00  0.00000000000E+00 -0.10864141789E+04  0.10864141790E+04  0.50400001928E-02 0.  1.
    10030    2    1    2    0    0  0.00000000000E+00  0.00000000000E+00  0.21110370561E+04  0.42838654140E+04  0.37276031754E+04 0.  0.
        3    1    3    3  502    0  0.14815277593E+04  0.10950763185E+04  0.13798364596E+04  0.23017526605E+04  0.10100000352E+00 0. -1.
       -3    1    3    3    0  502 -0.14815277593E+04 -0.10950763185E+04  0.73120059656E+03  0.19821127535E+04  0.10100000352E+00 0.  1.
</event>
<event>
 5   0  0.2287500E-07  0.3730438E+04  0.7818609E-02  0.8061250E-01
        1   -1    0    0  501    0  0.00000000000E+00  0.00000000000E+00  0.16469227948E+04  0.16469227948E+04  0.50400001928E-02 0.  1.
       -1   -1    0    0    0  501  0.00000000000E+00  0.00000000000E+00 -0.21124495281E+04  0.21124495281E+04  0.50400001928E-02 0. -1.
    10030    2    1    2    0    0  0.00000000000E+00  0.00000000000E+00 -0.46552673331E+03  0.37593723229E+04  0.37304376583E+04 0.  0.
        3    1    3    3  502    0  0.15338783301E+04  0.10597295442E+04 -0.29005351480E+03  0.18867804562E+04  0.10100000352E+00 0. -1.
       -3    1    3    3    0  502 -0.15338783301E+04 -0.10597295442E+04 -0.17547321851E+03  0.18725918667E+04  0.10100000352E+00 0.  1.
</event>
<event>
 5   0  0.2287500E-07  0.3473820E+04  0.7818609E-02  0.8120023E-01
       -1   -1    0    0    0  501  0.00000000000E+00  0.00000000000E+00  0.16006693907E+04  0.16006693907E+04  0.50400001928E-02 0.  1.
        1   -1    0    0  501    0  0.00000000000E+00  0.00000000000E+00 -0.18847461939E+04  0.18847461939E+04  0.50400001928E-02 0. -1.
    10030    2    1    2    0    0  0.00000000000E+00  0.00000000000E+00 -0.28407680312E+03  0.34854155846E+04  0.34738195358E+04 0.  0.
        4    1    3    3  502    0  0.62970421310E+03  0.33783130639E+03 -0.17304201158E+04  0.18721679352E+04  0.12699999809E+01 0. -1.
       -4    1    3    3    0  502 -0.62970421310E+03 -0.33783130639E+03  0.14463433126E+04  0.16132476494E+04  0.12699999809E+01 0.  1.
</event>
<event>
 5   0  0.2287500E-07  0.4054993E+04  0.7818609E-02  0.7993544E-01
        1   -1    0    0  501    0  0.00000000000E+00  0.00000000000E+00  0.23335311210E+04  0.23335311210E+04  0.50400001928E-02 0. -1.
       -1   -1    0    0    0  501  0.00000000000E+00  0.00000000000E+00 -0.17615973158E+04  0.17615973158E+04  0.50400001928E-02 0.  1.
    10030    2    1    2    0    0  0.00000000000E+00  0.00000000000E+00  0.57193380524E+03  0.40951284368E+04  0.40549930501E+04 0.  0.
        3    1    3    3  502    0  0.68310213883E+03  0.18684220033E+04 -0.10920240975E+03  0.19923740841E+04  0.10100000352E+00 0.  1.
       -3    1    3    3    0  502 -0.68310213883E+03 -0.18684220033E+04  0.68113621498E+03  0.21027543527E+04  0.10100000352E+00 0. -1.
</event>
<event>
 5   0  0.2411746E-07  0.3845881E+04  0.7818609E-02  0.8036380E-01
        1   -1    0    0  501    0  0.00000000000E+00  0.00000000000E+00  0.21838554313E+04  0.21838554313E+04  0.50400001928E-02 0. -1.
       -1   -1    0    0    0  501  0.00000000000E+00  0.00000000000E+00 -0.16931985558E+04  0.16931985558E+04  0.50400001928E-02 0.  1.
    10030    2    1    2    0    0  0.00000000000E+00  0.00000000000E+00  0.49065687545E+03  0.38770539871E+04  0.38458813619E+04 0.  0.
        1    1    3    3  502    0  0.31070904351E+03  0.14029231692E+04  0.15335623100E+04  0.21015582046E+04  0.50400001928E-02 0. -1.
       -1    1    3    3    0  502 -0.31070904351E+03 -0.14029231692E+04 -0.10429054346E+04  0.17754957826E+04  0.50400001928E-02 0.  1.
</event>
<event>
 5   0  0.2345471E-07  0.3703739E+04  0.7818609E-02  0.8067134E-01
       -1   -1    0    0    0  501  0.00000000000E+00  0.00000000000E+00  0.23018488591E+04  0.23018488591E+04  0.50400001928E-02 0. -1.
        1   -1    0    0  501    0  0.00000000000E+00  0.00000000000E+00 -0.14898549019E+04  0.14898549019E+04  0.50400001928E-02 0.  1.
    10030    2    1    2    0    0  0.00000000000E+00  0.00000000000E+00  0.81199395725E+03  0.37917037610E+04  0.37037390870E+04 0.  0.
        5    1    3    3  502    0  0.48798339202E+02 -0.17813223919E+04 -0.10986341443E+03  0.17853802961E+04  0.46999998093E+01 0.  1.
       -5    1    3    3    0  502 -0.48798339202E+02  0.17813223919E+04  0.92185737167E+03  0.20063234649E+04  0.46999998093E+01 0. -1.
</event>
<event>
 5   0  0.7074157E-07  0.3167413E+04  0.7818609E-02  0.8197477E-01
        2   -1    0    0  501    0  0.00000000000E+00  0.00000000000E+00  0.18439333432E+04  0.18439333432E+04  0.25500000920E-02 0.  1.
       -2   -1    0    0    0  501  0.00000000000E+00  0.00000000000E+00 -0.13602043950E+04  0.13602043950E+04  0.25500000920E-02 0. -1.
    10030    2    1    2    0    0  0.00000000000E+00  0.00000000000E+00  0.48372894816E+03  0.32041377382E+04  0.31674129743E+04 0.  0.
        3    1    3    3  502    0 -0.18310327625E+03  0.11370367404E+04  0.13415505239E+04  0.17680885660E+04  0.10100000352E+00 0.  1.
       -3    1    3    3    0  502  0.18310327625E+03 -0.11370367404E+04 -0.85782157575E+03  0.14360491722E+04  0.10100000352E+00 0. -1.
</event>
<event>
 5   0  0.7124627E-07  0.3465361E+04  0.7818609E-02  0.8122048E-01
        2   -1    0    0  501    0  0.00000000000E+00  0.00000000000E+00  0.20775861615E+04  0.20775861615E+04  0.25500000920E-02 0.  1.
       -2   -1    0    0    0  501  0.00000000000E+00  0.00000000000E+00 -0.14450332270E+04  0.14450332270E+04  0.25500000920E-02 0. -1.
    10030    2    1    2    0    0  0.00000000000E+00  0.00000000000E+00  0.63255293449E+03  0.35226193885E+04  0.34653606077E+04 0.  0.
        2    1    3    3  502    0  0.31158268446E+03  0.24309675681E+03  0.20311607849E+04  0.20692496071E+04  0.25500000920E-02 0.  1.
       -2    1    3    3    0  502 -0.31158268446E+03 -0.24309675681E+03 -0.13986078504E+04  0.14533697814E+04  0.25500000920E-02 0. -1.
</event>
<event>
 5   0  0.2345471E-07  0.2777858E+04  0.7818609E-02  0.8310176E-01
        1   -1    0    0  501    0  0.00000000000E+00  0.00000000000E+00  0.17604640033E+04  0.17604640033E+04  0.50400001928E-02 0.  1.
       -1   -1    0    0    0  501  0.00000000000E+00  0.00000000000E+00 -0.10958044963E+04  0.10958044963E+04  0.50400001928E-02 0. -1.
    10030    2    1    2    0    0  0.00000000000E+00  0.00000000000E+00  0.66465950700E+03  0.28562684996E+04  0.27778584344E+04 0.  0.
        5    1    3    3  502    0  0.52879543639E+03  0.59829882510E+03 -0.83619750312E+03  0.11562155733E+04  0.46999998093E+01 0. -1.
       -5    1    3    3    0  502 -0.52879543639E+03 -0.59829882510E+03  0.15008570101E+04  0.17000529264E+04  0.46999998093E+01 0.  1.
</event>
<event>
 5   0  0.7074157E-07  0.2953518E+04  0.7818609E-02  0.8257130E-01
       -2   -1    0    0    0  501  0.00000000000E+00  0.00000000000E+00  0.13076880122E+04  0.13076880122E+04  0.25500000920E-02 0.  1.
        2   -1    0    0  501    0  0.00000000000E+00  0.00000000000E+00 -0.16676895027E+04  0.16676895027E+04  0.25500000920E-02 0. -1.
    10030    2    1    2    0    0  0.00000000000E+00  0.00000000000E+00 -0.36000149047E+03  0.29753775149E+04  0.29535182889E+04 0.  0.
        3    1    3    3  502    0 -0.87434108557E+03 -0.97027157979E+03 -0.87424430408E+03  0.15716877508E+04  0.10100000352E+00 0. -1.
       -3    1    3    3    0  502  0.87434108557E+03  0.97027157979E+03  0.51424281361E+03  0.14036897642E+04  0.10100000352E+00 0.  1.
</event>
<event>
 5   0  0.7300916E-07  0.4152052E+04  0.7818609E-02  0.7974556E-01
        2   -1    0    0  501    0  0.00000000000E+00  0.00000000000E+00  0.30332163096E+04  0.30332163096E+04  0.25500000920E-02 0.  1.
       -2   -1    0    0    0  501  0.00000000000E+00  0.00000000000E+00 -0.14208954188E+04  0.14208954188E+04  0.25500000920E-02 0. -1.
    10030    2    1    2    0    0  0.00000000000E+00  0.00000000000E+00  0.16123208908E+04  0.44541117284E+04  0.41520516175E+04 0.  0.
        1    1    3    3  502    0  0.10856344269E+03  0.10171438805E+04  0.27441043431E+04  0.29285621627E+04  0.50400001928E-02 0.  1.
       -1    1    3    3    0  502 -0.10856344269E+03 -0.10171438805E+04 -0.11317834523E+04  0.15255495658E+04  0.50400001928E-02 0. -1.
</event>
<event>
 5   0  0.6939921E-07  0.3695097E+04  0.7818609E-02  0.8069049E-01
        2   -1    0    0  501    0  0.00000000000E+00  0.00000000000E+00  0.12230610116E+04  0.12230610116E+04  0.25500000920E-02 0. -1.
       -2   -1    0    0    0  501  0.00000000000E+00  0.00000000000E+00 -0.27908954504E+04  0.27908954504E+04  0.25500000920E-02 0.  1.
    10030    2    1    2    0    0  0.00000000000E+00  0.00000000000E+00 -0.15678344388E+04  0.40139564620E+04  0.36950969745E+04 0.  0.
        4    1    3    3  502    0  0.82649222240E+03 -0.49541154938E+01 -0.25788722859E+04  0.27080800979E+04  0.12699999809E+01 0.  1.
       -4    1    3    3    0  502 -0.82649222240E+03  0.49541154938E+01  0.10110378471E+04  0.13058763640E+04  0.12699999809E+01 0. -1.
</event>
<event>
 5   0  0.7124627E-07  0.3595147E+04  0.7818609E-02  0.8091604E-01
        2   -1    0    0  501    0  0.00000000000E+00  0.00000000000E+00  0.22736888460E+04  0.22736888460E+04  0.25500000920E-02 0.  1.
       -2   -1    0    0    0  501  0.00000000000E+00  0.00000000000E+00 -0.14211574162E+04  0.14211574162E+04  0.25500000920E-02 0. -1.
    10030    2    1    2    0    0  0.00000000000E+00  0.00000000000E+00  0.85253142985E+03  0.36948462622E+04  0.35951465982E+04 0.  0.
        2    1    3    3  502    0  0.21043216745E+03  0.15051662797E+04 -0.56028317124E+03  0.16197914861E+04  0.25500000920E-02 0. -1.
       -2    1    3    3    0  502 -0.21043216745E+03 -0.15051662797E+04  0.14128146011E+04  0.20750547760E+04  0.25500000920E-02 0.  1.
</event>
<event>
 5   0  0.2345471E-07  0.3674514E+04  0.7818609E-02  0.8073633E-01
        1   -1    0    0  501    0  0.00000000000E+00  0.00000000000E+00  0.27117494004E+04  0.27117494004E+04  0.50400001928E-02 0. -1.
       -1   -1    0    0    0  501  0.00000000000E+00  0.00000000000E+00 -0.12447734028E+04  0.12447734028E+04  0.50400001928E-02 0.  1.
    10030    2    1    2    0    0  0.00000000000E+00  0.00000000000E+00  0.14669759976E+04  0.39565228033E+04  0.36745141332E+04 0.  0.
        5    1    3    3  502    0  0.10611982484E+04  0.10134998439E+04  0.19238503062E+04  0.24196168595E+04  0.46999998093E+01 0. -1.
       -5    1    3    3    0  502 -0.10611982484E+04 -0.10134998439E+04 -0.45687430863E+03  0.15369059437E+04  0.46999998093E+01 0.  1.
</event>
<event>
 5   0  0.7124627E-07  0.3676081E+04  0.7818609E-02  0.8073283E-01
       -2   -1    0    0    0  501  0.00000000000E+00  0.00000000000E+00  0.20690434085E+04  0.20690434085E+04  0.25500000920E-02 0. -1.
        2   -1    0    0  501    0  0.00000000000E+00  0.00000000000E+00 -0.16328288136E+04  0.16328288136E+04  0.25500000920E-02 0.  1.
    10030    2    1    2    0    0  0.00000000000E+00  0.00000000000E+00  0.43621459482E+03  0.37018722221E+04  0.36760814431E+04 0.  0.
        2    1    3    3  502    0  0.12570840656E+04  0.81273659291E+03 -0.85595550037E+03  0.17243726210E+04  0.25500000920E-02 0. -1.
       -2    1    3    3    0  502 -0.12570840656E+04 -0.81273659291E+03  0.12921700952E+04  0.19774996011E+04  0.25500000920E-02 0.  1.
</event>
<event>
 5   0  0.2345471E-07  0.3624838E+04  0.7818609E-02  0.8084826E-01
        1   -1    0    0  501    0  0.00000000000E+00  0.00000000000E+00  0.13090797592E+04  0.13090797593E+04  0.50400001928E-02 0.  1.
       -1   -1    0    0    0  501  0.00000000000E+00  0.00000000000E+00 -0.25092915068E+04  0.25092915068E+04  0.50400001928E-02 0. -1.
    10030    2    1    2    0    0  0.00000000000E+00  0.00000000000E+00 -0.12002117476E+04  0.38183712661E+04  0.36248380497E+04 0.  0.
        5    1    3    3  502    0  0.79359761845E+03  0.15453321906E+04 -0.11444061637E+04  0.20802731352E+04  0.46999998093E+01 0.  1.
       -5    1    3    3    0  502 -0.79359761845E+03 -0.15453321906E+04 -0.55805583868E+02  0.17380981309E+04  0.46999998093E+01 0. -1.
</event>
<event>
 5   0  0.2287500E-07  0.3705175E+04  0.7818609E-02  0.8066816E-01
       -1   -1    0    0    0  501  0.00000000000E+00  0.00000000000E+00  0.14872050854E+04  0.14872050854E+04  0.50400001928E-02 0. -1.
        1   -1    0    0  501    0  0.00000000000E+00  0.00000000000E+00 -0.23077388927E+04  0.23077388927E+04  0.50400001928E-02 0.  1.
    10030    2    1    2    0    0  0.00000000000E+00  0.00000000000E+00 -0.82053380729E+03  0.37949439780E+04  0.37051753086E+04 0.  0.
        4    1    3    3  502    0 -0.15672443587E+04 -0.37190192789E+03 -0.13475968899E+04  0.21001392607E+04  0.12699999809E+01 0. -1.
       -4    1    3    3    0  502  0.15672443587E+04  0.37190192789E+03  0.52706308265E+03  0.16948047173E+04  0.12699999809E+01 0.  1.
</event>
<event>
 5   0  0.2287500E-07  0.3358382E+04  0.7818609E-02  0.8148197E-01
        1   -1    0    0  501    0  0.00000000000E+00  0.00000000000E+00  0.14907124890E+04  0.14907124890E+04  0.50400001928E-02 0.  1.
       -1   -1    0    0    0  501  0.00000000000E+00  0.00000000000E+00 -0.18915001362E+04  0.18915001362E+04  0.50400001928E-02 0. -1.
    10030    2    1    2    0    0  0.00000000000E+00  0.00000000000E+00 -0.40078764719E+03  0.33822126253E+04  0.33583822749E+04 0.  0.
        2    1    3    3  502    0  0.53760919507E+03 -0.11597310140E+04  0.89622352278E+03  0.15611586320E+04  0.25500000920E-02 0.  1.
       -2    1    3    3    0  502 -0.53760919507E+03  0.11597310140E+04 -0.12970111700E+04  0.18210539933E+04  0.25500000920E-02 0. -1.
</event>
<event>
 5   0  0.2287500E-07  0.3669576E+04  0.7818609E-02  0.8074738E-01
        1   -1    0    0  501    0  0.00000000000E+00  0.00000000000E+00  0.19726947859E+04  0.19726947859E+04  0.50400001928E-02 0.  1.
       -1   -1    0    0    0  501  0.00000000000E+00  0.00000000000E+00 -0.17065217399E+04  0.17065217399E+04  0.50400001928E-02 0. -1.
    10030    2    1    2    0    0  0.00000000000E+00  0.00000000000E+00  0.26617304597E+03  0.36792165258E+04  0.36695757457E+04 0.  0.
        4    1    3    3  502    0 -0.15750196392E+04  0.85300485050E+02 -0.80664954707E+03  0.17716230246E+04  0.12699999809E+01 0.  1.
       -4    1    3    3    0  502  0.15750196392E+04 -0.85300485050E+02  0.10728225930E+04  0.19075935012E+04  0.12699999809E+01 0. -1.
</event>
<event>
 5   0  0.7300916E-07  0.3606100E+04  0.7818609E-02  0.8089096E-01
       -2   -1    0    0    0  501  0.00000000000E+00  0.00000000000E+00  0.12601749441E+04  0.12601749441E+04  0.25500000920E-02 0.  1.
        2   -1    0    0  501    0  0.00000000000E+00  0.00000000000E+00 -0.25797927520E+04  0.25797927520E+04  0.25500000920E-02 0. -1.
    10030    2    1    2    0    0  0.00000000000E+00  0.00000000000E+00 -0.13196178079E+04  0.38399676961E+04  0.36061004906E+04 0.  0.
        1    1    3    3  502    0 -0.51315274581E+03  0.13427560189E+04 -0.18188226139E+04  0.23182828058E+04  0.50400001928E-02 0. -1.
       -1    1    3    3    0  502  0.51315274581E+03 -0.13427560189E+04  0.49920480603E+03  0.15216848903E+04  0.50400001928E-02 0.  1.
</event>
<event>
 5   0  0.6939921E-07  0.3734484E+04  0.7818609E-02  0.8060362E-01
        2   -1    0    0  501    0  0.00000000000E+00  0.00000000000E+00  0.22923391844E+04  0.22923391844E+04  0.25500000920E-02 0.  1.
       -2   -1    0    0    0  501  0.00000000000E+00  0.00000000000E+00 -0.15209760923E+04  0.15209760923E+04  0.25500000920E-02 0. -1.
    10030    2    1    2    0    0  0.00000000000E+00  0.00000000000E+00  0.77136309211E+03  0.38133152766E+04  0.37344842186E+04 0.  0.
        4    1    3    3  502    0  0.76452647901E+03 -0.12351404318E+04 -0.81233596934E+03  0.16643208715E+04  0.12699999809E+01 0. -1.
       -4    1    3    3    0  502 -0.76452647901E+03  0.12351404318E+04  0.15836990614E+04  0.21489944052E+04  0.12699999809E+01 0.  1.
</event>
<event>
 5   0  0.2287500E-07  0.3715992E+04  0.7818609E-02  0.8064427E-01
        1   -1    0    0  501    0  0.00000000000E+00  0.00000000000E+00  0.24197824218E+04  0.24197824218E+04  0.50400001928E-02 0. -1.
       -1   -1    0    0    0  501  0.00000000000E+00  0.00000000000E+00 -0.14266364790E+04  0.14266364790E+04  0.50400001928E-02 0.  1.
    10030    2    1    2    0    0  0.00000000000E+00  0.00000000000E+00  0.99314594280E+03  0.38464189008E+04  0.37159923973E+04 0.  0.
        3    1    3    3  502    0 -0.14965374585E+04  0.16053548925E+03 -0.63104526014E+03  0.16320582522E+04  0.10100000352E+00 0.  1.
       -3    1    3    3    0  502  0.14965374585E+04 -0.16053548925E+03  0.16241912029E+04  0.22143606486E+04  0.10100000352E+00 0. -1.
</event>
<event>
 5   0  0.7074157E-07  0.3709239E+04  0.7818609E-02  0.8065917E-01
       -2   -1    0    0    0  501  0.00000000000E+00  0.00000000000E+00  0.12768277714E+04  0.12768277714E+04  0.25500000920E-02 0. -1.
        2   -1    0    0  501    0  0.00000000000E+00  0.00000000000E+00 -0.26938748560E+04  0.26938748560E+04  0.25500000920E-02 0.  1.
    10030    2    1    2    0    0  0.00000000000E+00  0.00000000000E+00 -0.14170470846E+04  0.39707026274E+04  0.37092393985E+04 0.  0.
        3    1    3    3  502    0  0.78869417018E+03  0.88382102392E+03  0.81910546060E+03  0.14401777190E+04  0.10100000352E+00 0. -1.
       -3    1    3    3    0  502 -0.78869417018E+03 -0.88382102392E+03 -0.22361525452E+04  0.25305249084E+04  0.10100000352E+00 0.  1.
</event>
<event>
 5   0  0.2287500E-07  0.3681047E+04  0.7818609E-02  0.8072175E-01
        1   -1    0    0  501    0  0.00000000000E+00  0.00000000000E+00  0.15792243355E+04  0.15792243355E+04  0.50400001928E-02 0. -1.
       -1   -1    0    0    0  501  0.00000000000E+00  0.00000000000E+00 -0.21450577743E+04  0.21450577743E+04  0.50400001928E-02 0.  1.
    10030    2    1    2    0    0  0.00000000000E+00  0.00000000000E+00 -0.56583343881E+03  0.37242821098E+04  0.36810473717E+04 0.  0.
        3    1    3    3  502    0  0.12528515998E+04  0.82602994659E+03  0.79522817328E+03  0.16983375582E+04  0.10100000352E+00 0. -1.
       -3    1    3    3    0  502 -0.12528515998E+04 -0.82602994659E+03 -0.13610616121E+04  0.20259445516E+04  0.10100000352E+00 0.  1.
</event>
<event>
 5   0  0.2287500E-07  0.4186988E+04  0.7818609E-02  0.7967852E-01
       -1   -1    0    0    0  501  0.00000000000E+00  0.00000000000E+00  0.23201251994E+04  0.23201251994E+04  0.50400001928E-02 0. -1.
        1   -1    0    0  501    0  0.00000000000E+00  0.00000000000E+00 -0.18890005516E+04  0.18890005516E+04  0.50400001928E-02 0.  1.
    10030    2    1    2    0    0  0.00000000000E+00  0.00000000000E+00  0.43112464780E+03  0.42091257510E+04  0.41869883121E+04 0.  0.
        2    1    3    3  502    0 -0.11585216884E+03  0.14815830159E+04 -0.12667532766E+04  0.19527349594E+04  0.25500000920E-02 0.  1.
       -2    1    3    3    0  502  0.11585216884E+03 -0.14815830159E+04  0.16978779244E+04  0.22563907916E+04  0.25500000920E-02 0. -1.
</event>
<event>
 5   0  0.7124627E-07  0.3901657E+04  0.7818609E-02  0.8024685E-01
       -2   -1    0    0    0  501  0.00000000000E+00  0.00000000000E+00  0.20543019366E+04  0.20543019366E+04  0.25500000920E-02 0. -1.
        2   -1    0    0  501    0  0.00000000000E+00  0.00000000000E+00 -0.18525673340E+04  0.18525673340E+04  0.25500000920E-02 0.  1.
    10030    2    1    2    0    0  0.00000000000E+00  0.00000000000E+00  0.20173460261E+03  0.39068692707E+04  0.39016574232E+04 0.  0.
        2    1    3    3  502    0  0.17709555298E+04 -0.68155018997E+03  0.55417337109E+03  0.19768414896E+04  0.25500000920E-02 0.  1.
       -2    1    3    3    0  502 -0.17709555298E+04  0.68155018997E+03 -0.35243876847E+03  0.19300277810E+04  0.25500000920E-02 0. -1.
</event>
<event>
 5   0  0.2287500E-07  0.3655013E+04  0.7818609E-02  0.8078005E-01
        3   -1    0    0  501    0  0.00000000000E+00  0.00000000000E+00  0.23088862389E+04  0.23088862411E+04  0.10100000352E+00 0.  1.
       -3   -1    0    0    0  501  0.00000000000E+00  0.00000000000E+00 -0.14464894715E+04  0.14464894751E+04  0.10100000352E+00 0. -1.
    10030    2    1    2    0    0  0.00000000000E+00  0.00000000000E+00  0.86239676738E+03  0.37553757162E+04  0.36550128024E+04 0.  0.
        2    1    3    3  502    0 -0.12460479844E+04  0.96882704623E+03  0.13776427220E+04  0.20950324328E+04  0.25500000920E-02 0.  1.
       -2    1    3    3    0  502  0.12460479844E+04 -0.96882704623E+03 -0.51524595465E+03  0.16603432834E+04  0.25500000920E-02 0. -1.
</event>
<event>
 5   0  0.2411746E-07  0.3663851E+04  0.7818609E-02  0.8076020E-01
        1   -1    0    0  501    0  0.00000000000E+00  0.00000000000E+00  0.23944866432E+04  0.23944866432E+04  0.50400001928E-02 0.  1.
       -1   -1    0    0    0  501  0.00000000000E+00  0.00000000000E+00 -0.14015323995E+04  0.14015323995E+04  0.50400001928E-02 0. -1.
    10030    2    1    2    0    0  0.00000000000E+00  0.00000000000E+00  0.99295424367E+03  0.37960190427E+04  0.36638507670E+04 0.  0.
        1    1    3    3  502    0 -0.43861139918E+03  0.17773240214E+04  0.42552329449E+03  0.18794495766E+04  0.50400001928E-02 0. -1.
       -1    1    3    3    0  502  0.43861139918E+03 -0.17773240214E+04  0.56743094918E+03  0.19165694662E+04  0.50400001928E-02 0.  1.
</event>
<event>
 5   0  0.6939921E-07  0.3677907E+04  0.7818609E-02  0.8072876E-01
        2   -1    0    0  501    0  0.00000000000E+00  0.00000000000E+00  0.22234260956E+04  0.22234260956E+04  0.25500000920E-02 0.  1.
       -2   -1    0    0    0  501  0.00000000000E+00  0.00000000000E+00 -0.15209636172E+04  0.15209636172E+04  0.25500000920E-02 0. -1.
    10030    2    1    2    0    0  0.00000000000E+00  0.00000000000E+00  0.70246247840E+03  0.37443897128E+04  0.36779071206E+04 0.  0.
        4    1    3    3  502    0  0.30029790515E+03 -0.12292920952E+04 -0.10072085171E+04  0.16173461277E+04  0.12699999809E+01 0. -1.
       -4    1    3    3    0  502 -0.30029790515E+03  0.12292920952E+04  0.17096709955E+04  0.21270435851E+04  0.12699999809E+01 0.  1.
</event>
<event>
 5   0  0.2411746E-07  0.3583214E+04  0.7818609E-02  0.8094348E-01
        1   -1    0    0  501    0  0.00000000000E+00  0.00000000000E+00  0.16363607605E+04  0.16363607605E+04  0.50400001928E-02 0. -1.
       -1   -1    0    0    0  501  0.00000000000E+00  0.00000000000E+00 -0.19615818830E+04  0.19615818830E+04  0.50400001928E-02 0.  1.
    10030    2    1    2    0    0  0.00000000000E+00  0.00000000000E+00 -0.32522112250E+03  0.35979426434E+04  0.35832139884E+04 0.  0.
        1    1    3    3  502    0  0.88239925669E+03  0.11810506163E+03 -0.17237612453E+04  0.19400850715E+04  0.50400001928E-02 0.  1.
       -1    1    3    3    0  502 -0.88239925669E+03 -0.11810506163E+03  0.13985401228E+04  0.16578575720E+04  0.50400001928E-02 0. -1.
</event>
<event>
 5   0  0.6939921E-07  0.3720490E+04  0.7818609E-02  0.8063436E-01
       -2   -1    0    0    0  501  0.00000000000E+00  0.00000000000E+00  0.27436963631E+04  0.27436963631E+04  0.25500000920E-02 0.  1.
        2   -1    0    0  501    0  0.00000000000E+00  0.00000000000E+00 -0.12612589217E+04  0.12612589217E+04  0.25500000920E-02 0. -1.
    10030    2    1    2    0    0  0.00000000000E+00  0.00000000000E+00  0.14824374414E+04  0.40049552847E+04  0.37204900302E+04 0.  0.
        4    1    3    3  502    0  0.85320091488E+03 -0.10645471589E+04 -0.62010730903E+03  0.14985817102E+04  0.12699999809E+01 0. -1.
       -4    1    3    3    0  502 -0.85320091488E+03  0.10645471589E+04  0.21025447504E+04  0.25063735745E+04  0.12699999809E+01 0.  1.
</event>
<event>
 5   0  0.6949625E-07  0.3729814E+04  0.7818609E-02  0.8061387E-01
       -2   -1    0    0    0  501  0.00000000000E+00  0.00000000000E+00  0.13776733518E+04  0.13776733518E+04  0.25500000920E-02 0. -1.
        2   -1    0    0  501    0  0.00000000000E+00  0.00000000000E+00 -0.25244570366E+04  0.25244570366E+04  0.25500000920E-02 0.  1.
    10030    2    1    2    0    0  0.00000000000E+00  0.00000000000E+00 -0.11467836848E+04  0.39021303885E+04  0.37298135005E+04 0.  0.
        5    1    3    3  502    0 -0.14473249328E+03  0.17208029661E+04  0.16322852750E+03  0.17345823661E+04  0.46999998093E+01 0.  1.
       -5    1    3    3    0  502  0.14473249328E+03 -0.17208029661E+04 -0.13100122123E+04  0.21675480223E+04  0.46999998093E+01 0. -1.
</event>
<event>
 5   0  0.2287500E-07  0.3667397E+04  0.7818609E-02  0.8075226E-01
        1   -1    0    0  501    0  0.00000000000E+00  0.00000000000E+00  0.16438897522E+04  0.16438897522E+04  0.50400001928E-02 0.  1.
       -1   -1    0    0    0  501  0.00000000000E+00  0.00000000000E+00 -0.20454236442E+04  0.20454236442E+04  0.50400001928E-02 0. -1.
    10030    2    1    2    0    0  0.00000000000E+00  0.00000000000E+00 -0.40153389196E+03  0.36893133964E+04  0.36673974246E+04 0.  0.
        4    1    3    3  502    0  0.17392817101E+04 -0.89603908853E+01 -0.78498539839E+03  0.19082412961E+04  0.12699999809E+01 0. -1.
       -4    1    3    3    0  502 -0.17392817101E+04  0.89603908853E+01  0.38345150643E+03  0.17810721003E+04  0.12699999809E+01 0.  1.
</event>
<event>
 5   0  0.6949625E-07  0.3679128E+04  0.7818609E-02  0.8072603E-01
       -2   -1    0    0    0  501  0.00000000000E+00  0.00000000000E+00  0.18692627282E+04  0.18692627282E+04  0.25500000920E-02 0. -1.
        2   -1    0    0  501    0  0.00000000000E+00  0.00000000000E+00 -0.18103373118E+04  0.18103373118E+04  0.25500000920E-02 0.  1.
    10030    2    1    2    0    0  0.00000000000E+00  0.00000000000E+00  0.58925416382E+02  0.36796000399E+04  0.36791281915E+04 0.  0.
        5    1    3    3  502    0  0.14100013185E+04 -0.11814479282E+04  0.36608352256E+02  0.18399144509E+04  0.46999998093E+01 0. -1.
       -5    1    3    3    0  502 -0.14100013185E+04  0.11814479282E+04  0.22317064126E+02  0.18396855890E+04  0.46999998093E+01 0.  1.
</event>
<event>
 5   0  0.2287500E-07  0.3696373E+04  0.7818609E-02  0.8068766E-01
       -1   -1    0    0    0  501  0.00000000000E+00  0.00000000000E+00  0.13984478105E+04  0.13984478105E+04  0.50400001928E-02 0.  1.
        1   -1    0    0  501    0  0.00000000000E+00  0.00000000000E+00 -0.24425608732E+04  0.24425608732E+04  0.50400001928E-02 0. -1.
    10030    2    1    2    0    0  0.00000000000E+00  0.00000000000E+00 -0.10441130627E+04  0.38410086837E+04  0.36963733065E+04 0.  0.
        2    1    3    3  502    0  0.18226264077E+04 -0.73974936556E+02 -0.83093243326E+03  0.20044670169E+04  0.25500000920E-02 0. -1.
       -2    1    3    3    0  502 -0.18226264077E+04  0.73974936556E+02 -0.21318062940E+03  0.18365416668E+04  0.25500000920E-02 0.  1.
</event>
<event>
 5   0  0.7124627E-07  0.3673656E+04  0.7818609E-02  0.8073825E-01
       -2   -1    0    0    0  501  0.00000000000E+00  0.00000000000E+00  0.14316378028E+04  0.14316378028E+04  0.25500000920E-02 0.  1.
        2   -1    0    0  501    0  0.00000000000E+00  0.00000000000E+00 -0.23566972039E+04  0.23566972039E+04  0.25500000920E-02 0. -1.
    10030    2    1    2    0    0  0.00000000000E+00  0.00000000000E+00 -0.92505940108E+03  0.37883350067E+04  0.36736558395E+04 0.  0.
        2    1    3    3  502    0  0.30102014149E+03 -0.40771544874E+03 -0.22831723220E+04  0.23387434371E+04  0.25500000920E-02 0. -1.
       -2    1    3    3    0  502 -0.30102014149E+03  0.40771544874E+03  0.13581129209E+04  0.14495915696E+04  0.25500000920E-02 0.  1.
</event>
<event>
 5   0  0.2345471E-07  0.3707827E+04  0.7818609E-02  0.8066229E-01
        1   -1    0    0  501    0  0.00000000000E+00  0.00000000000E+00  0.12815393326E+04  0.12815393326E+04  0.50400001928E-02 0. -1.
       -1   -1    0    0    0  501  0.00000000000E+00  0.00000000000E+00 -0.26819276101E+04  0.26819276101E+04  0.50400001928E-02 0.  1.
    10030    2    1    2    0    0  0.00000000000E+00  0.00000000000E+00 -0.14003882776E+04  0.39634669427E+04  0.37078272449E+04 0.  0.
        5    1    3    3  502    0 -0.82946571795E+03 -0.21841196734E+03  0.10566719441E+04  0.13609903938E+04  0.46999998093E+01 0. -1.
       -5    1    3    3    0  502  0.82946571795E+03  0.21841196734E+03 -0.24570602216E+04  0.26024765489E+04  0.46999998093E+01 0.  1.
</event>
</LesHouchesEvents>
